Membrane in water
40167
    1TCq1    O1    1   0.328   2.346  11.155  0.0192 -0.0883 -0.4152
    1TCq1    C1    2   0.413   2.441  11.203 -0.3134  0.2347 -0.4685
    1TCq1    O2    3   0.503   2.496  11.138 -0.2069  0.7261  0.3217
    1TCq1    C2    4   0.333   2.511  11.298 -0.4562  0.3458  0.4171
    1TCq1    C3    5   0.379   2.631  11.341 -0.5988  0.3498  0.2834
    1TCq1    C4    6   0.314   2.694  11.448 -0.3657  0.4342 -0.0350
    1TCq1    C5    7   0.189   2.650  11.486  0.1133 -0.0008  0.1169
    1TCq1    C6    8   0.138   2.530  11.439 -0.8723 -0.6170  0.0034
    1TCq1    C7    9   0.212   2.454  11.350 -0.8263 -0.0337  0.4566
    1TCq1    C8   10   0.042   2.467  11.526 -0.3648  0.5351  0.2528
    1TCq1    O4   11   0.050   2.493  11.643  0.0224  0.4309  0.2043
    1TCq1    C9   12   0.350   2.831  11.472 -0.1834  0.3026 -0.4343
    1TCq1    O5   13   0.264   2.902  11.519 -0.2773 -0.0664 -0.6523
    1TCq1    O6   14   0.456   2.865  11.414 -0.0109  0.2519 -0.0390
    1TCq1    H1   15   0.253   2.319  11.212  1.8641 -2.7630  0.7500
    1TCq1    H2   16   0.469   2.672  11.295 -0.5235  0.9750  0.9889
    1TCq1    H3   17   0.128   2.705  11.557  0.3581 -2.1583  1.9872
    1TCq1    H4   18   0.197   2.347  11.355 -3.6075  0.2493 -2.0065
    2MPD2     C   19   4.462   2.048  11.642 -0.3456 -0.3015  0.1759
    2MPD2    C1   20   4.503   2.161  11.719  0.2228  0.1229  0.1065
    2MPD2    C2   21   4.593   2.257  11.665  0.5364  0.2292  0.3359
    2MPD2    C3   22   4.616   2.259  11.533 -1.0838 -0.0989  0.3127
    2MPD2    C4   23   4.555   2.164  11.452  0.2940 -1.2461 -0.4146
    2MPD2    C5   24   4.486   2.061  11.510 -0.1806 -0.4195 -1.2565
    2MPD2     H   25   4.638   2.328  11.734 -0.0815 -0.5090  1.4943
    2MPD2    H1   26   4.556   2.166  11.343  3.3398  1.3981 -0.3221
    2MPD2    H2   27   4.412   1.956  11.668  0.4416 -1.7172 -3.3262
    2MPD2    H3   28   4.454   1.979  11.446  1.0447  0.1759 -2.6413
    2MPD2     N   29   4.689   2.366  11.468 -0.0330  0.3750 -0.0754
    2MPD2    H5   30   4.691   2.364  11.367 -0.5050  1.8460 -0.1266
    2MPD2    N1   31   4.494   2.159  11.864 -0.2340 -0.2275 -0.0546
    2MPD2    H7   32   4.559   2.226  11.904 -0.0369  0.4000 -1.4147
    3TCq1    O1   33   3.502   3.394  10.769 -0.3601  0.1667 -0.0094
    3TCq1    C1   34   3.442   3.521  10.767  0.5457  0.1304  0.6699
    3TCq1    O2   35   3.401   3.586  10.863  0.3928 -0.4391  0.4792
    3TCq1    C2   36   3.380   3.533  10.637 -0.3105 -0.0173 -0.0986
    3TCq1    C3   37   3.452   3.500  10.517 -0.0440  0.1370  0.2168
    3TCq1    C4   38   3.384   3.507  10.401  0.5443 -0.2142  0.6625
    3TCq1    C5   39   3.252   3.537  10.392 -0.9796  0.0621  0.4043
    3TCq1    C6   40   3.181   3.567  10.509 -0.0108  0.1646 -0.3249
    3TCq1    C7   41   3.247   3.563  10.636 -0.5189 -0.0814  0.1702
    3TCq1    C8   42   3.062   3.643  10.493 -0.2789 -0.6955  0.0948
    3TCq1    O4   43   3.006   3.630  10.385  0.6649 -0.3851  0.0268
    3TCq1    C9   44   3.451   3.463  10.277  0.2988 -0.1375 -0.2707
    3TCq1    O5   45   3.570   3.429  10.280  0.0507  0.0514  0.1759
    3TCq1    O6   46   3.386   3.469  10.173  0.3745 -0.5051 -0.1413
    3TCq1    H1   47   3.484   3.334  10.693 -0.5232 -0.5787  0.6267
    3TCq1    H2   48   3.559   3.479  10.520 -0.2795 -1.0719  0.2373
    3TCq1    H3   49   3.201   3.536  10.296 -2.3093  0.3726  1.1033
    3TCq1    H4   50   3.192   3.576  10.729  1.8060 -2.7497  1.9188
    4MPD2     C   51   2.760   4.025  10.635 -0.4436 -0.6054 -0.9519
    4MPD2    C1   52   2.859   4.016  10.728 -0.5894  0.9915 -0.6339
    4MPD2    C2   53   2.955   3.918  10.720  0.7815  0.0715  0.1449
    4MPD2    C3   54   2.941   3.820  10.612  0.8276 -0.9761  0.1601
    4MPD2    C4   55   2.827   3.814  10.531 -0.3453 -0.9034  0.3494
    4MPD2    C5   56   2.736   3.922  10.544 -0.4811 -0.0763  0.1316
    4MPD2     H   57   3.036   3.906  10.790 -0.0644 -4.5892  0.3699
    4MPD2    H1   58   2.802   3.738  10.458 -1.8209 -2.0954  2.0924
    4MPD2    H2   59   2.697   4.113  10.630 -1.1939 -1.0192  1.0278
    4MPD2    H3   60   2.644   3.934  10.489 -0.0003 -0.9920 -0.8912
    4MPD2     N   61   3.046   3.726  10.604  0.7323  0.1706  0.5022
    4MPD2    H5   62   3.112   3.739  10.680  0.0117 -0.3178  1.2071
    4MPD2    N1   63   2.872   4.107  10.832 -0.0441  0.7356  0.6639
    4MPD2    H7   64   2.957   4.095  10.887  0.9017  2.7711 -0.3561
    5TCq1    O1   65   4.685   0.220  12.131 -0.4301  0.2668  0.4619
    5TCq1    C1   66   4.633   0.340  12.162 -0.6876  0.2209 -0.5480
    5TCq1    O2   67   4.641   0.380  12.279 -0.3358 -0.7749 -0.3302
    5TCq1    C2   68   4.525   0.371  12.069  0.1523  0.3689  0.0840
    5TCq1    C3   69   4.472   0.493  12.075  0.1380  0.1316 -0.1091
    5TCq1    C4   70   4.397   0.544  11.972  0.7280 -0.3433  1.0536
    5TCq1    C5   71   4.376   0.467  11.859 -0.1208 -0.5123 -0.7089
    5TCq1    C6   72   4.445   0.343  11.849  0.5273 -0.3444  0.3964
    5TCq1    C7   73   4.518   0.298  11.950 -0.0333  0.3448  0.0870
    5TCq1    C8   74   4.430   0.267  11.724 -0.3650  0.3722  0.4034
    5TCq1    O4   75   4.504   0.173  11.701 -0.1749 -0.0999  0.2499
    5TCq1    C9   76   4.343   0.683  11.980  0.3254  0.8544 -0.0411
    5TCq1    O5   77   4.370   0.738  12.091  0.3705  0.0234 -0.1252
    5TCq1    O6   78   4.271   0.740  11.889 -0.5673  0.3129 -0.0262
    5TCq1    H1   79   4.696   0.210  12.034 -0.1209  0.0229  0.5225
    5TCq1    H2   80   4.475   0.554  12.164  1.7286 -1.8779  1.2234
    5TCq1    H3   81   4.329   0.528  11.783 -0.8718  1.6687  1.5062
    5TCq1    H4   82   4.569   0.203  11.945  1.2757  0.9101  2.3488
    6MPD2     C   83   4.201   0.346  11.426  0.0829 -0.0818  0.5527
    6MPD2    C1   84   4.295   0.279  11.507  0.3909  1.1087  1.0078
    6MPD2    C2   85   4.348   0.162  11.451  0.3209  0.1345 -0.1392
    6MPD2    C3   86   4.314   0.108  11.327 -0.2560 -0.0305  0.2704
    6MPD2    C4   87   4.226   0.180  11.245 -0.1433  0.5309 -0.5878
    6MPD2    C5   88   4.170   0.294  11.298 -0.4025  0.2759  0.1336
    6MPD2     H   89   4.416   0.103  11.512  0.5489 -0.6196 -1.1229
    6MPD2    H1   90   4.196   0.153  11.144 -3.2636  1.0535  0.2252
    6MPD2    H2   91   4.148   0.435  11.458 -1.1119 -1.0036  1.1089
    6MPD2    H3   92   4.098   0.348  11.238 -1.0598  1.2857  1.8272
    6MPD2     N   93   4.379   4.708  11.281 -0.2815  0.1392 -0.4279
    6MPD2    H5   94   4.405   4.643  11.355  2.5164  2.1118  0.3195
    6MPD2    N1   95   4.334   0.325  11.637 -0.3559 -0.0460  0.2015
    6MPD2    H7   96   4.275   0.393  11.685 -0.2121  0.9491 -1.0323
    7TCq1    O1   97   1.276   4.516  13.272  0.0894  0.1115  0.6949
    7TCq1    C1   98   1.247   4.634  13.333  0.4518 -0.0316 -0.6119
    7TCq1    O2   99   1.235   0.018  13.273 -0.3952 -0.0686  0.3192
    7TCq1    C2  100   1.223   4.598  13.471  0.7526 -0.0595 -0.0189
    7TCq1    C3  101   1.140   4.678  13.547 -0.8150 -0.5463 -0.0572
    7TCq1    C4  102   1.121   4.644  13.678  1.4538 -0.4946 -0.3446
    7TCq1    C5  103   1.199   4.548  13.733 -0.1096  0.5309 -0.1415
    7TCq1    C6  104   1.287   4.476  13.667  0.3318  0.1610  0.0547
    7TCq1    C7  105   1.306   4.503  13.532 -0.2821 -0.0475 -0.3280
    7TCq1    C8  106   1.390   4.401  13.740  0.1029  1.3683 -0.5525
    7TCq1    O4  107   1.462   4.332  13.668 -0.5991  0.2757  0.0461
    7TCq1    C9  108   1.038   4.720  13.769 -0.1415  0.1375 -0.2256
    7TCq1    O5  109   1.041   4.679  13.889  0.2754 -0.4836  0.0410
    7TCq1    O6  110   0.965   0.084  13.719 -0.3853 -0.0564  0.1177
    7TCq1    H1  111   1.260   4.437  13.328  0.1795 -2.3223 -2.6501
    7TCq1    H2  112   1.070   0.030  13.508 -3.1246 -3.0298 -0.5358
    7TCq1    H3  113   1.175   4.523  13.836 -0.6370 -0.8791 -0.6082
    7TCq1    H4  114   1.380   4.450  13.472  0.6973  1.3181 -0.3262
    8MPD2     C  115   1.519   4.137  14.162 -0.3128  0.3004  0.0428
    8MPD2    C1  116   1.527   4.107  14.027  0.0537  0.4136  0.4125
    8MPD2    C2  117   1.492   4.202  13.929 -0.7914  0.2236  0.3285
    8MPD2    C3  118   1.440   4.323  13.967 -0.7040  1.1361 -0.0576
    8MPD2    C4  119   1.430   4.354  14.098  0.2603  0.1322 -0.5199
    8MPD2    C5  120   1.467   4.261  14.193  0.1436  0.4008 -0.0187
    8MPD2     H  121   1.506   4.177  13.824 -0.1555 -0.3333  0.5464
    8MPD2    H1  122   1.387   4.446  14.135  1.0269  0.9167 -1.5666
    8MPD2    H2  123   1.545   4.077  14.248  0.7369 -1.4866 -1.5485
    8MPD2    H3  124   1.471   4.288  14.298 -1.6169  2.6274 -0.5282
    8MPD2     N  125   1.391   4.418  13.875 -0.2351  0.2855  0.0863
    8MPD2    H5  126   1.341   4.499  13.911 -0.1737  0.3779 -0.0344
    8MPD2    N1  127   1.581   3.979  13.991 -0.2205  0.0110 -0.2248
    8MPD2    H7  128   1.630   3.928  14.064 -0.8806 -2.8630 -1.7806
    9TCq1    O1  129   3.497   2.863  11.035 -0.3340  0.6346  0.4879
    9TCq1    C1  130   3.598   2.796  11.090 -0.0809  0.2010 -0.2988
    9TCq1    O2  131   3.597   2.726  11.193 -0.5761 -0.3765 -0.2405
    9TCq1    C2  132   3.717   2.825  11.016 -0.4442 -0.1931  0.1714
    9TCq1    C3  133   3.712   2.852  10.885  0.0807 -0.4238  0.2090
    9TCq1    C4  134   3.828   2.864  10.816  0.1949 -0.5893  0.1151
    9TCq1    C5  135   3.953   2.853  10.876 -0.4977 -0.0572  0.6706
    9TCq1    C6  136   3.958   2.821  11.005  0.6429  0.4767 -0.2146
    9TCq1    C7  137   3.836   2.823  11.075 -0.3985  0.2638 -0.1939
    9TCq1    C8  138   4.075   2.833  11.083 -0.4074 -0.5823  0.6269
    9TCq1    O4  139   4.182   2.831  11.023  0.2737  0.2249 -0.8120
    9TCq1    C9  140   3.822   2.902  10.677  0.3962  0.4344  0.5593
    9TCq1    O5  141   3.710   2.920  10.620  0.2906 -0.1338 -0.0722
    9TCq1    O6  142   3.932   2.909  10.623  0.2757 -0.1134  0.7063
    9TCq1    H1  143   3.536   2.926  10.970  0.8431 -1.2633 -0.6492
    9TCq1    H2  144   3.620   2.876  10.833  1.9197  0.6226 -2.5335
    9TCq1    H3  145   4.039   2.874  10.814  0.2478 -0.3212  1.6229
    9TCq1    H4  146   3.837   2.814  11.183 -1.1862  0.2821 -0.1864
   10MPD2     C  147   4.294   2.916  11.276 -0.1579  0.3867 -0.4217
   10MPD2    C1  148   4.158   2.930  11.298 -0.4088  0.4140 -0.1671
   10MPD2    C2  149   4.119   3.013  11.407 -0.0994  0.2740 -0.2886
   10MPD2    C3  150   4.216   3.054  11.493  0.6917  0.7888 -0.1179
   10MPD2    C4  151   4.350   3.016  11.472  0.4181  0.0901 -0.2220
   10MPD2    C5  152   4.387   2.952  11.360  0.4218  0.0433 -0.3004
   10MPD2     H  153   4.016   3.043  11.415 -0.1214 -0.3759  1.7970
   10MPD2    H1  154   4.425   3.034  11.548 -1.2806  0.7028  1.3079
   10MPD2    H2  155   4.326   2.864  11.186 -1.1175  1.6906 -1.5276
   10MPD2    H3  156   4.491   2.933  11.336 -0.2431  0.0083 -3.1359
   10MPD2     N  157   4.188   3.128  11.609 -0.5693  0.1214 -0.1313
   10MPD2    H5  158   4.273   3.154  11.658 -1.5948  2.6673  0.2973
   10MPD2    N1  159   4.058   2.885  11.210 -0.0055  0.0139  0.3071
   10MPD2    H7  160   3.963   2.915  11.231 -0.2000 -0.1655 -0.3131
   11TCq1    O1  161   4.499   3.231  14.907 -0.7210  0.3886  1.1125
   11TCq1    C1  162   4.606   3.283  14.837  0.2294  0.0172  0.1683
   11TCq1    O2  163   4.618   3.401  14.810  0.3042 -0.1771 -0.1374
   11TCq1    C2  164   4.630   3.174  14.742 -0.7015 -0.0092 -0.0349
   11TCq1    C3  165   4.627   3.205  14.614  0.3073 -0.2030  0.5544
   11TCq1    C4  166   4.646   3.105  14.515 -0.7495  0.0915 -1.2146
   11TCq1    C5  167   4.663   2.975  14.565  0.0431  0.0364  0.3493
   11TCq1    C6  168   4.647   2.956  14.697 -0.3822  1.0205 -0.3081
   11TCq1    C7  169   4.647   3.049  14.792 -0.2307 -0.0177 -0.3429
   11TCq1    C8  170   4.627   2.820  14.732 -0.3593  0.0774  0.1236
   11TCq1    O4  171   4.668   2.795  14.845  0.3850 -0.1832 -0.0470
   11TCq1    C9  172   4.652   3.115  14.373  0.4168  0.3983  0.6741
   11TCq1    O5  173   4.705   3.216  14.325  0.2621 -0.2902  0.3423
   11TCq1    O6  174   4.621   3.011  14.306 -0.1103  0.2009 -0.5893
   11TCq1    H1  175   4.499   3.137  14.880  1.4143  0.3462  1.2478
   11TCq1    H2  176   4.620   3.307  14.578  0.8879 -0.1712  0.5332
   11TCq1    H3  177   4.684   2.896  14.493  0.1261 -0.9837  1.4966
   11TCq1    H4  178   4.660   3.016  14.894 -0.2503 -0.8091 -0.5962
   12MPD2     C  179   4.496   2.566  14.798 -0.2352  0.4154  0.0070
   12MPD2    C1  180   4.507   2.613  14.670 -0.0035  0.0263 -0.4909
   12MPD2    C2  181   4.454   2.544  14.565  0.6140  0.3103  0.7075
   12MPD2    C3  182   4.398   2.426  14.584  0.4845  0.4616  0.5692
   12MPD2    C4  183   4.401   2.376  14.710  0.4874 -0.1362 -0.7963
   12MPD2    C5  184   4.449   2.438  14.823 -0.1492  0.2809 -0.1954
   12MPD2     H  185   4.465   2.580  14.463 -0.2599  0.9639  0.8438
   12MPD2    H1  186   4.358   2.279  14.733 -0.3891  0.2920 -0.6199
   12MPD2    H2  187   4.537   2.628  14.877 -0.3517  3.1384 -2.0776
   12MPD2    H3  188   4.454   2.379  14.913  1.6590 -1.9235 -1.7349
   12MPD2     N  189   4.345   2.363  14.473  0.8180  0.3704  0.8524
   12MPD2    H5  190   4.375   2.401  14.384 -0.8481 -0.0011  0.1243
   12MPD2    N1  191   4.571   2.737  14.638 -0.2438  0.0214 -0.1376
   12MPD2    H7  192   4.558   2.766  14.541 -1.1941  0.5119  0.1314
   13TCq1    O1  193   4.124   2.765  10.507 -0.4185  0.0440 -0.0302
   13TCq1    C1  194   4.140   2.660  10.590 -0.1893  0.0126  0.1687
   13TCq1    O2  195   4.251   2.607  10.593 -0.4970 -0.1228 -0.9561
   13TCq1    C2  196   4.016   2.597  10.627 -0.1595 -0.0593 -0.4959
   13TCq1    C3  197   3.912   2.617  10.545 -0.4135  0.6180  0.6764
   13TCq1    C4  198   3.792   2.558  10.577 -0.3381  0.5035 -0.3473
   13TCq1    C5  199   3.780   2.486  10.694 -0.2807  0.0819  0.0227
   13TCq1    C6  200   3.888   2.475  10.780  0.7550 -0.9364  0.4091
   13TCq1    C7  201   4.004   2.527  10.743  0.0228  0.7825  0.6220
   13TCq1    C8  202   3.866   2.460  10.923  0.5174 -0.5330 -0.3589
   13TCq1    O4  203   3.934   2.529  11.000 -0.0464  0.4351 -0.3074
   13TCq1    C9  204   3.685   2.561  10.476 -0.4501 -0.2311  0.3460
   13TCq1    O5  205   3.685   2.669  10.400  0.3573 -0.5722  0.5124
   13TCq1    O6  206   3.604   2.464  10.480 -0.4126 -0.0379  0.2420
   13TCq1    H1  207   4.039   2.808  10.532 -0.4663  0.2571 -0.5563
   13TCq1    H2  208   3.926   2.679  10.457 -0.4826 -0.9521 -0.4437
   13TCq1    H3  209   3.688   2.437  10.723  0.6933 -0.7188  1.8049
   13TCq1    H4  210   4.082   2.540  10.816  1.2382  0.4498 -0.6073
   14MPD2     C  211   3.685   2.210  11.111 -0.1351  0.5643 -0.5978
   14MPD2    C1  212   3.724   2.341  11.080  0.2332 -0.5540  0.6675
   14MPD2    C2  213   3.715   2.441  11.181  0.8845  0.0970 -0.5606
   14MPD2    C3  214   3.664   2.408  11.304 -0.4743 -0.3322 -0.0079
   14MPD2    C4  215   3.631   2.276  11.332  0.9086  0.2333  0.1312
   14MPD2    C5  216   3.637   2.184  11.232  0.7010 -0.4075 -0.5529
   14MPD2     H  217   3.745   2.542  11.154 -2.0267  1.0091 -0.4472
   14MPD2    H1  218   3.588   2.245  11.427  1.2800 -0.6552  0.0009
   14MPD2    H2  219   3.694   2.127  11.042  0.3026  1.3104 -1.4412
   14MPD2    H3  220   3.617   2.081  11.259 -0.2104 -0.2927 -0.7868
   14MPD2     N  221   3.645   2.517  11.391 -0.1828 -0.0772 -0.8941
   14MPD2    H5  222   3.660   2.605  11.342 -2.0474 -0.0797 -1.4597
   14MPD2    N1  223   3.772   2.369  10.950  0.0215 -0.3796  0.2822
   14MPD2    H7  224   3.762   2.295  10.882  0.8905  1.7657 -2.1867
   15TCq1    O1  225   1.887   1.739   2.391  0.0386 -0.0375  0.1915
   15TCq1    C1  226   1.896   1.801   2.266 -0.0802  0.3082 -0.5883
   15TCq1    O2  227   1.986   1.875   2.233 -0.6446 -0.3469  0.1074
   15TCq1    C2  228   1.769   1.810   2.208 -0.3562  0.1905  0.5045
   15TCq1    C3  229   1.676   1.885   2.284  0.2735  0.2141 -0.4822
   15TCq1    C4  230   1.544   1.872   2.251  0.5222 -0.3749 -0.9135
   15TCq1    C5  231   1.504   1.793   2.142  0.5311 -1.1325  0.3419
   15TCq1    C6  232   1.606   1.743   2.061 -0.0840 -0.6394 -0.4699
   15TCq1    C7  233   1.743   1.746   2.091 -0.3572 -0.3521  0.4114
   15TCq1    C8  234   1.562   1.643   1.968 -0.4551  0.2523 -0.0703
   15TCq1    O4  235   1.640   1.555   1.945 -1.1900  0.1217  0.4627
   15TCq1    C9  236   1.443   1.919   2.336  0.2314 -0.1263 -0.0422
   15TCq1    O5  237   1.478   1.931   2.458  0.0743  0.3867  0.0826
   15TCq1    O6  238   1.323   1.893   2.300 -0.6769 -0.5729  0.0736
   15TCq1    H1  239   1.804   1.689   2.408 -1.5060  2.0960 -1.0668
   15TCq1    H2  240   1.698   1.931   2.379 -0.9683 -2.5732  1.1598
   15TCq1    H3  241   1.399   1.772   2.126  0.1397 -0.7929  2.4751
   15TCq1    H4  242   1.820   1.696   2.035 -0.1549  1.3112 -0.7829
   16MPD2     C  243   1.258   1.605   1.762 -0.0940  0.3351 -0.4701
   16MPD2    C1  244   1.360   1.564   1.843  0.4968  0.8198 -0.2437
   16MPD2    C2  245   1.394   1.429   1.847  0.3969  0.4821 -0.0893
   16MPD2    C3  246   1.338   1.336   1.767  0.3728 -0.2402  0.4298
   16MPD2    C4  247   1.240   1.379   1.679  0.0320 -0.3498 -0.2087
   16MPD2    C5  248   1.196   1.507   1.684  0.1265  0.8574 -0.7572
   16MPD2     H  249   1.469   1.391   1.916 -2.2695 -0.4545  2.2657
   16MPD2    H1  250   1.185   1.311   1.615 -0.2081  0.2641 -0.6458
   16MPD2    H2  251   1.212   1.704   1.763 -0.3830  0.2185 -1.3234
   16MPD2    H3  252   1.116   1.531   1.615 -0.5619 -0.5792 -0.4389
   16MPD2     N  253   1.406   1.212   1.755  0.4144  0.6741  0.4400
   16MPD2    H5  254   1.479   1.192   1.822  1.3750  0.8882 -0.5417
   16MPD2    N1  255   1.430   1.660   1.921 -0.2599  0.0630 -0.2524
   16MPD2    H7  256   1.385   1.749   1.943  2.3427  1.1530  0.7219
   17TCq1    O1  257   3.444   2.414  12.289 -0.1368 -0.4053 -0.0520
   17TCq1    C1  258   3.572   2.367  12.276 -0.0007 -0.0626 -0.2036
   17TCq1    O2  259   3.621   2.285  12.355  0.8576  1.0116  0.3358
   17TCq1    C2  260   3.603   2.357  12.136 -0.6385 -0.1735  0.4530
   17TCq1    C3  261   3.638   2.238  12.073  0.5776 -0.2434  0.4469
   17TCq1    C4  262   3.659   2.231  11.944 -0.3424  0.5576  0.3301
   17TCq1    C5  263   3.664   2.349  11.876  0.4165  0.3474 -0.2233
   17TCq1    C6  264   3.628   2.470  11.929  0.1320 -1.0036 -0.2675
   17TCq1    C7  265   3.601   2.473  12.063  0.4431  0.2962 -0.4957
   17TCq1    C8  266   3.698   2.597  11.886  0.5639  0.0583  0.0278
   17TCq1    O4  267   3.675   2.694  11.960  0.2452 -0.4717 -0.0162
   17TCq1    C9  268   3.704   2.106  11.881 -0.8267  0.4252  0.0046
   17TCq1    O5  269   3.739   2.017  11.962 -1.2184 -0.0084 -0.6228
   17TCq1    O6  270   3.708   2.096  11.754  0.2970  0.0290  0.0355
   17TCq1    H1  271   3.407   2.440  12.202 -0.0251 -0.4086 -0.1004
   17TCq1    H2  272   3.638   2.150  12.137  0.2376 -0.2569  0.4290
   17TCq1    H3  273   3.701   2.350  11.774 -0.7823  1.5429 -0.6415
   17TCq1    H4  274   3.567   2.564  12.111  0.7953 -0.1328  0.5543
   18MPD2     C  275   3.943   2.762  11.815  0.2929 -0.1992  0.6353
   18MPD2    C1  276   3.902   2.652  11.750 -0.0294 -0.0907  0.5044
   18MPD2    C2  277   3.974   2.606  11.642 -0.7200 -0.1977 -0.4093
   18MPD2    C3  278   4.093   2.670  11.600  0.7800  0.4321  1.0579
   18MPD2    C4  279   4.136   2.771  11.676  0.0136  1.0720 -0.0631
   18MPD2    C5  280   4.063   2.813  11.780 -0.0068 -0.3323  0.7055
   18MPD2     H  281   3.950   2.511  11.596  1.5592 -0.1039 -1.7924
   18MPD2    H1  282   4.222   2.834  11.654 -0.5167  1.5291 -0.8109
   18MPD2    H2  283   3.911   2.802  11.911  0.0492 -1.4990  1.0993
   18MPD2    H3  284   4.105   2.881  11.852  0.0807 -0.1169  0.4512
   18MPD2     N  285   4.171   2.637  11.486  0.2307  0.1756 -0.2995
   18MPD2    H5  286   4.252   2.697  11.474  1.8088 -1.5796  1.7697
   18MPD2    N1  287   3.792   2.568  11.791 -0.0507  0.8727  0.0162
   18MPD2    H7  288   3.786   2.481  11.739  3.1737  0.0008  1.0986
   19TMC2    C1  289   1.071   2.694  14.230 -0.2213  0.1532  0.0890
   19TMC2    C2  290   1.008   2.806  14.191  0.2721  0.1534  0.0435
   19TMC2    C3  291   0.871   2.809  14.194 -0.3794  0.6442 -0.3657
   19TMC2    C4  292   0.997   2.593  14.300 -1.0563  0.0070 -0.4753
   19TMC2    C5  293   0.861   2.601  14.295  0.1431 -0.8778 -0.0280
   19TMC2    C6  294   0.797   2.710  14.246  0.1503  0.3792 -0.3344
   19TMC2     C  295   1.204   2.722  14.283 -0.3558  0.3967 -0.0120
   19TMC2     O  296   1.276   2.804  14.224  0.2816 -0.6733  0.1954
   19TMC2     H  297   1.075   2.888  14.169  1.8232 -0.9134  0.7685
   19TMC2    H1  298   1.043   2.503  14.338  1.3348  1.4417  0.0895
   19TMC2    H2  299   0.690   2.706  14.231 -0.0555  1.2197  0.9287
   19TMC2    C7  300   0.785   2.487  14.347 -0.6403 -0.0366  0.1971
   19TMC2    C8  301   0.803   2.885  14.093  0.1885 -0.2172 -0.4639
   19TMC2    O1  302   0.847   2.390  14.377  0.3915 -0.6133  0.0660
   19TMC2    O2  303   0.710   2.841  14.026 -0.4569 -0.5687 -0.3020
   19TMC2    O5  304   0.860   3.001  14.072  0.4511 -0.0673 -0.4689
   19TMC2    H5  305   0.931   3.008  14.139  0.8928 -2.8879 -0.6035
   20MPD2     C  306   1.457   2.752  14.461 -0.6491 -0.5443  0.5132
   20MPD2    C1  307   1.337   2.698  14.498  1.0048  0.1038 -0.2443
   20MPD2    C2  308   1.327   2.649  14.627  0.0580  0.0529 -0.5154
   20MPD2    C3  309   1.431   2.667  14.719 -0.4999 -0.3113  0.2379
   20MPD2    C4  310   1.545   2.731  14.677  0.0654  0.9983  0.2909
   20MPD2    C5  311   1.563   2.763  14.549  0.4201 -0.5700  0.4664
   20MPD2     H  312   1.232   2.609  14.658 -0.9925  1.8129 -1.4710
   20MPD2    H1  313   1.631   2.734  14.744  1.0097 -0.8534 -0.8436
   20MPD2    H2  314   1.481   2.791  14.363  1.4814 -0.4009  1.1021
   20MPD2    H3  315   1.658   2.800  14.511  0.1896 -0.5985 -0.1350
   20MPD2     N  316   1.419   2.634  14.852 -0.5988 -0.1936 -0.6136
   20MPD2    H5  317   1.484   2.670  14.921 -2.6724  0.5124  0.9815
   20MPD2    N1  318   1.226   2.674  14.410  0.1947 -0.6376 -0.6044
   20MPD2    H7  319   1.143   2.635  14.453  0.4258 -0.0780  0.3606
   21MPD2     C  320   3.776   3.315  14.497 -0.8085  0.4160 -0.4009
   21MPD2    C1  321   3.810   3.209  14.578  0.1637 -1.1450  0.2297
   21MPD2    C2  322   3.712   3.146  14.651 -0.1523 -0.2388 -0.6839
   21MPD2    C3  323   3.578   3.176  14.629  0.4894 -0.6995 -0.4121
   21MPD2    C4  324   3.545   3.287  14.552  0.7021  0.0918 -0.7014
   21MPD2    C5  325   3.642   3.353  14.486  0.5867  0.7189 -0.2314
   21MPD2     H  326   3.739   3.067  14.720  0.6480  1.5903  1.0944
   21MPD2    H1  327   3.443   3.324  14.547 -0.1160 -1.9927  0.8071
   21MPD2    H2  328   3.851   3.370  14.440 -0.2806  0.0619 -0.0563
   21MPD2    H3  329   3.610   3.439  14.428  0.2186 -0.1382 -1.3143
   21MPD2     N  330   3.474   3.114  14.695  0.7502 -0.0337  0.2778
   21MPD2    H5  331   3.380   3.143  14.672  2.0353  2.9204 -1.4580
   21MPD2    N1  332   3.936   3.159  14.597  0.4249 -0.3588  0.1625
   21MPD2    H7  333   3.944   3.097  14.678 -2.1978 -2.7936 -1.4335
   22TCq2    C1  334   3.487   3.012  14.792 -0.0629 -0.8082 -0.2158
   22TCq2    O2  335   3.588   2.958  14.828  0.2101  0.2255 -0.4936
   22TCq2    C2  336   3.360   2.971  14.850 -0.3617  0.4452  0.9340
   22TCq2    C3  337   3.352   2.849  14.908 -0.1840  0.9235  0.3535
   22TCq2    C4  338   3.232   2.794  14.951 -0.3380  0.0600  0.1061
   22TCq2    C5  339   3.122   2.862  14.930 -0.4756  0.0109  0.3720
   22TCq2    C6  340   3.128   2.988  14.874  0.0773 -0.4073 -0.2576
   22TCq2    C7  341   3.248   3.043  14.822 -0.0003  0.1992  0.2182
   22TCq2    C8  342   2.998   3.050  14.858 -0.0415 -0.6913  0.0115
   22TCq2    O4  343   2.901   2.984  14.894 -0.6239 -0.4659  0.1571
   22TCq2    C9  344   3.240   2.664  15.009 -0.2208  0.7863  0.4566
   22TCq2    O5  345   3.142   2.621  15.072  0.2124  0.3524  0.1862
   22TCq2    O6  346   3.339   2.599  14.970 -0.6955 -0.0159 -0.0007
   22TCq2    H2  347   3.449   2.803  14.920 -1.2166 -1.4620 -0.4647
   22TCq2    H3  348   3.035   2.816  14.976 -1.7552 -0.0972 -2.1723
   22TCq2    H4  349   3.257   3.150  14.813 -0.6581  0.2927  0.6890
   23MPD2     C  350   0.405   3.796  14.966  0.5942  0.7141 -0.3926
   23MPD2    C1  351   0.277   3.782  15.016  0.1123  0.8146  0.6417
   23MPD2    C2  352   0.178   3.863  14.961 -0.4578 -0.4177  0.0410
   23MPD2    C3  353   0.206   3.963  14.867  0.0622  0.1959  0.7028
   23MPD2    C4  354   0.336   3.976  14.828 -0.0127  0.5415  0.0941
   23MPD2    C5  355   0.432   3.889  14.867 -0.5775 -0.7684  0.0433
   23MPD2     H  356   0.075   3.852  14.993 -0.8187 -0.9164 -1.2850
   23MPD2    H1  357   0.364   4.051  14.755 -1.9121  2.0345  0.8995
   23MPD2    H2  358   0.490   3.736  14.997  0.1792 -0.4706 -1.5302
   23MPD2    H3  359   0.535   3.895  14.832 -1.0818 -1.6192 -1.5679
   23MPD2     N  360   0.113   4.053  14.806 -0.3236  0.4102 -0.6135
   23MPD2    H5  361   0.140   4.117  14.732  0.8962  0.0408 -0.4826
   23MPD2    N1  362   0.239   3.701  15.121  0.1954 -0.4822 -0.4986
   23MPD2    H7  363   0.142   3.708  15.151 -0.0539 -2.1277 -0.9557
   24TCq2    C1  364   4.703   4.067  14.839 -0.2006 -0.5122  0.7138
   24TCq2    O2  365   4.641   4.026  14.939  0.0857  0.0933  0.2493
   24TCq2    C2  366   4.622   4.129  14.740 -0.3389 -0.0385 -0.3140
   24TCq2    C3  367   4.644   4.115  14.605 -0.4991 -0.0348 -0.0867
   24TCq2    C4  368   4.544   4.151  14.512  0.1105 -0.0750  1.0359
   24TCq2    C5  369   4.439   4.230  14.557  0.3834 -0.0181 -0.1301
   24TCq2    C6  370   4.436   4.251  14.692 -1.5338 -0.3787 -0.1080
   24TCq2    C7  371   4.515   4.191  14.784  0.0510  0.3016 -0.1989
   24TCq2    C8  372   4.346   4.345  14.756 -0.0288  0.2319  0.5600
   24TCq2    O4  373   4.384   4.395  14.860  0.4826  0.6720 -0.2349
   24TCq2    C9  374   4.562   4.140  14.373 -0.0794 -0.5558  0.4338
   24TCq2    O5  375   4.465   4.168  14.300 -0.3585  0.2267 -0.4732
   24TCq2    O6  376   4.667   4.084  14.331  0.3341 -0.5189 -0.9901
   24TCq2    H2  377   0.010   4.063  14.565 -2.0122 -2.0343 -0.7678
   24TCq2    H3  378   4.358   4.257  14.492  0.4470  1.8383  0.5559
   24TCq2    H4  379   4.506   4.209  14.890 -1.8365  1.0080 -0.4771
   25TMC2    C1  380   3.811   1.579  11.541  0.9200 -1.1862 -0.1650
   25TMC2    C2  381   3.845   1.709  11.510 -0.3392  0.3440 -0.1318
   25TMC2    C3  382   3.774   1.812  11.573  0.7297 -0.0388 -0.0049
   25TMC2    C4  383   3.729   1.547  11.648  0.1671  0.6979  0.2561
   25TMC2    C5  384   3.667   1.647  11.713 -0.3376  1.1054  0.2364
   25TMC2    C6  385   3.679   1.783  11.668 -0.2498 -0.3694  0.7009
   25TMC2     C  386   3.901   1.480  11.483  0.5987 -0.2804 -0.3710
   25TMC2     O  387   4.004   1.518  11.435 -0.2918 -0.4721  0.5102
   25TMC2     H  388   3.908   1.744  11.429 -1.2453  2.2672 -0.0087
   25TMC2    H1  389   3.722   1.445  11.684  0.0019 -0.3782 -2.8379
   25TMC2    H2  390   3.625   1.858  11.726 -0.9977 -0.8973  0.6817
   25TMC2    C7  391   3.566   1.624  11.810  0.5448  0.1640  0.1212
   25TMC2    C8  392   3.727   1.905  11.472 -0.0975 -0.2389  0.3413
   25TMC2    O1  393   3.533   1.716  11.885  0.3968 -0.0844  0.3761
   25TMC2    O2  394   3.728   1.872  11.356  0.1324 -0.3797 -0.5852
   25TMC2    O5  395   3.658   2.003  11.527  0.4651 -0.0258 -0.1672
   25TMC2    H5  396   3.680   2.013  11.622  2.4873  4.0643 -1.0750
   26MPD2     C  397   4.000   0.994  11.369  0.4385 -0.4733 -0.3106
   26MPD2    C1  398   3.871   0.996  11.411  0.1880  0.8580 -0.6774
   26MPD2    C2  399   3.826   1.120  11.457  0.0632  0.5877 -0.4602
   26MPD2    C3  400   3.900   1.235  11.445 -0.0043  0.6705  0.9276
   26MPD2    C4  401   4.028   1.220  11.395 -0.6735  0.0409  0.3625
   26MPD2    C5  402   4.075   1.104  11.367 -0.3755  0.0490 -0.6507
   26MPD2     H  403   3.739   1.132  11.520 -0.4384 -0.2031 -0.9981
   26MPD2    H1  404   4.098   1.303  11.386 -0.2255 -0.3921 -0.0881
   26MPD2    H2  405   4.052   0.912  11.322  1.0358 -1.2707  1.7357
   26MPD2    H3  406   4.170   1.103  11.316 -0.2720  1.7602 -0.5066
   26MPD2     N  407   3.844   1.355  11.489  0.0196 -0.0276  0.3609
   26MPD2    H5  408   3.747   1.356  11.520  0.1574 -0.0068  0.7823
   26MPD2    N1  409   3.799   0.880  11.410 -0.9302  0.1997 -0.1689
   26MPD2    H7  410   3.854   0.796  11.391  0.6214  1.1586  0.0847
   27TMC2    C1  411   2.454   4.151  12.094  0.7745  1.2583 -0.0007
   27TMC2    C2  412   2.512   4.134  11.967  1.5927 -0.1765  0.4062
   27TMC2    C3  413   2.630   4.197  11.941 -0.5136  0.1575 -0.0365
   27TMC2    C4  414   2.527   4.218  12.189  0.2182  0.4923 -0.0193
   27TMC2    C5  415   2.641   4.279  12.156 -0.0058 -0.4296  0.1968
   27TMC2    C6  416   2.681   4.287  12.029  0.2296  0.3310 -0.3799
   27TMC2     C  417   2.379   4.033  12.135  0.0150 -0.0035  0.5383
   27TMC2     O  418   2.366   3.943  12.050 -0.0887 -0.3772 -0.1263
   27TMC2     H  419   2.460   4.090  11.882  0.7456  0.8546  0.3897
   27TMC2    H1  420   2.486   4.225  12.289  0.9754  0.2927  0.3108
   27TMC2    H2  421   2.772   4.334  11.995  0.7389  0.1068  0.6562
   27TMC2    C7  422   2.705   4.356  12.259 -0.5822  0.0287  0.5118
   27TMC2    C8  423   2.699   4.172  11.817  0.2106 -0.4513 -0.2002
   27TMC2    O1  424   2.785   4.441  12.223 -0.3293  0.5157 -0.2689
   27TMC2    O2  425   2.633   4.144  11.720  0.1075  0.0904  0.0736
   27TMC2    O5  426   2.823   4.130  11.844  0.3272 -0.6846 -0.5716
   27TMC2    H5  427   2.863   4.130  11.933 -0.6978 -0.4196 -0.1169
   28MPD2     C  428   2.254   3.653  12.461  1.0113  0.3247  0.2681
   28MPD2    C1  429   2.226   3.774  12.517 -0.3548 -0.0376  0.4042
   28MPD2    C2  430   2.249   3.898  12.454  0.4647  0.7183 -0.0172
   28MPD2    C3  431   2.311   3.899  12.329 -0.3733 -0.8666  0.1306
   28MPD2    C4  432   2.338   3.772  12.270 -0.2577 -0.2015 -1.1881
   28MPD2    C5  433   2.318   3.653  12.338  0.9421  0.4242  0.5139
   28MPD2     H  434   2.218   3.990  12.501  0.5177  0.7665 -0.0770
   28MPD2    H1  435   2.388   3.770  12.174  1.6112 -0.4732 -0.2101
   28MPD2    H2  436   2.212   3.565  12.510  0.4113  0.1010 -0.6483
   28MPD2    H3  437   2.339   3.560  12.287  0.8745 -0.1721  1.5821
   28MPD2     N  438   2.344   4.025  12.268 -0.9464 -0.8901 -0.5917
   28MPD2    H5  439   2.328   4.110  12.321  1.0732 -0.2943 -0.9359
   28MPD2    N1  440   2.162   3.762  12.641  0.0906  0.0462  0.0022
   28MPD2    H7  441   2.157   3.668  12.679 -0.0040 -0.5285 -1.4273
   29MPD2     C  442   1.727   1.050  14.496 -0.5842 -0.4720  0.4359
   29MPD2    C1  443   1.797   1.033  14.612 -0.2034 -0.7410 -0.5454
   29MPD2    C2  444   1.849   1.141  14.682  0.4474 -0.1166  0.2184
   29MPD2    C3  445   1.831   1.268  14.629 -0.1736  0.2696 -0.0533
   29MPD2    C4  446   1.755   1.288  14.514 -0.1694 -0.4055 -0.5868
   29MPD2    C5  447   1.695   1.179  14.457 -0.0092 -0.2463 -0.3342
   29MPD2     H  448   1.888   1.114  14.780 -0.2800  0.3788  0.6403
   29MPD2    H1  449   1.740   1.381  14.459  0.7427 -0.8255 -1.5481
   29MPD2    H2  450   1.687   0.964  14.442 -0.3792 -0.6468  0.5602
   29MPD2    H3  451   1.642   1.193  14.364  1.0821 -1.9541 -1.2299
   29MPD2     N  452   1.883   1.385  14.698  0.8826 -0.5487 -0.5302
   29MPD2    H5  453   1.876   1.476  14.654  0.8959 -0.4398 -0.3088
   29MPD2    N1  454   1.831   0.907  14.664 -0.1170 -0.1285 -0.4839
   29MPD2    H7  455   1.906   0.899  14.732 -1.0198  0.1231  0.5506
   30TCq2    C1  456   1.948   1.381  14.815 -0.0814  0.5105 -0.4934
   30TCq2    O2  457   1.983   1.289  14.893  0.4782 -0.2331  0.9868
   30TCq2    C2  458   2.020   1.505  14.841  0.6226  0.1796 -0.2114
   30TCq2    C3  459   1.957   1.618  14.879  0.0029  0.5313 -0.4186
   30TCq2    C4  460   2.027   1.736  14.861 -0.4276 -0.2432  0.8307
   30TCq2    C5  461   2.154   1.736  14.802  0.6764  0.0634  0.0674
   30TCq2    C6  462   2.209   1.624  14.766 -1.0205  0.2863 -0.5703
   30TCq2    C7  463   2.141   1.511  14.783 -0.4425 -0.0514  0.2693
   30TCq2    C8  464   2.341   1.618  14.703 -0.4662  0.0939  1.0025
   30TCq2    O4  465   2.388   1.511  14.668 -0.0708 -0.7381 -0.1502
   30TCq2    C9  466   1.969   1.864  14.887  0.6038 -0.8127  0.8379
   30TCq2    O5  467   2.047   1.961  14.890 -0.1980  0.2182  0.7610
   30TCq2    O6  468   1.854   1.862  14.929  0.3875  0.3100 -0.4258
   30TCq2    H2  469   1.864   1.610  14.934 -0.1312  2.2671 -0.4058
   30TCq2    H3  470   2.200   1.831  14.778  0.1478  0.1885 -0.4311
   30TCq2    H4  471   2.178   1.426  14.725 -0.1704  0.6423 -0.5892
   31MPD2     C  472   0.268   0.430  15.189 -0.4136  0.0707 -0.5831
   31MPD2    C1  473   0.135   0.424  15.156 -0.0980 -0.3965  0.3493
   31MPD2    C2  474   0.063   0.325  15.209  0.2351  0.2925 -0.3152
   31MPD2    C3  475   0.122   0.235  15.301 -0.0133 -0.0153 -0.5594
   31MPD2    C4  476   0.260   0.235  15.330 -0.3646  0.2416  0.4516
   31MPD2    C5  477   0.331   0.342  15.277 -0.2201  0.0491 -0.0381
   31MPD2     H  478   4.682   0.298  15.183  0.8665 -2.9571  0.5134
   31MPD2    H1  479   0.310   0.154  15.381  1.5127  1.9225  1.3171
   31MPD2    H2  480   0.327   0.509  15.144 -0.5043  0.3597 -0.1916
   31MPD2    H3  481   0.437   0.352  15.298  0.1515 -0.6318 -1.6095
   31MPD2     N  482   0.050   0.129  15.363 -0.1638 -0.7390 -0.6195
   31MPD2    H5  483   0.098   0.065  15.426 -0.1938 -0.2408 -0.0935
   31MPD2    N1  484   0.081   0.515  15.063  0.2618 -0.2614  0.5372
   31MPD2    H7  485   0.138   0.595  15.038 -1.0695  0.9696  1.4519
   32TCq2    C1  486   4.638   0.110  15.359  0.2506 -0.6422 -0.1948
   32TCq2    O2  487   4.548   0.186  15.318  0.0802  0.6704 -0.3432
   32TCq2    C2  488   4.582   4.718  15.437 -0.0751 -0.0030 -0.1946
   32TCq2    C3  489   4.453   4.688  15.409 -0.0218 -0.7505  0.0948
   32TCq2    C4  490   4.405   4.573  15.451  0.6976  0.5375 -0.5261
   32TCq2    C5  491   4.478   4.496  15.537  0.3201  0.0570 -0.7716
   32TCq2    C6  492   4.599   4.540  15.581 -0.2799 -0.0891 -0.0780
   32TCq2    C7  493   4.657   4.648  15.530 -0.0484 -0.2456 -0.3113
   32TCq2    C8  494   4.650   4.483  15.710 -0.3167 -0.7102 -0.7309
   32TCq2    O4  495   0.047   4.471  15.741  0.3353 -0.4164 -0.2798
   32TCq2    C9  496   4.281   4.520  15.402 -0.2584  0.1959 -0.6462
   32TCq2    O5  497   4.289   4.398  15.369  0.2150 -0.0258 -0.1372
   32TCq2    O6  498   4.197   4.605  15.360  0.2477  0.7834  0.0063
   32TCq2    H2  499   4.408   0.031  15.333 -0.7393 -0.6768  0.5831
   32TCq2    H3  500   4.448   4.401  15.579 -0.0250  0.5368  0.0638
   32TCq2    H4  501   0.041   4.665  15.551 -0.6760  1.2578  1.6197
   33MPD2     C  502   4.035   2.093  10.905 -0.1639 -0.1194 -0.5244
   33MPD2    C1  503   4.119   2.192  10.867 -0.7320 -0.5247 -0.4614
   33MPD2    C2  504   4.153   2.205  10.734 -0.6335  0.3919 -0.1828
   33MPD2    C3  505   4.076   2.142  10.635 -0.4438  0.6994 -1.0284
   33MPD2    C4  506   3.985   2.051  10.677  0.1131  0.2255  0.7066
   33MPD2    C5  507   3.975   2.017  10.812 -0.4525 -0.8283 -0.1750
   33MPD2     H  508   4.221   2.286  10.713 -2.2093  1.4130 -1.3812
   33MPD2    H1  509   3.914   2.009  10.607 -0.9756  2.6564  0.3659
   33MPD2    H2  510   4.021   2.074  11.011 -0.3250 -4.0854 -1.2646
   33MPD2    H3  511   3.897   1.948  10.839 -1.9847  0.1240 -2.1879
   33MPD2     N  512   4.096   2.177  10.502 -0.5248  0.4627 -0.4663
   33MPD2    H5  513   4.027   2.137  10.440 -1.1465  1.2586 -0.2977
   33MPD2    N1  514   4.170   2.271  10.973 -0.3267 -0.8838 -0.4717
   33MPD2    H7  515   4.152   2.241  11.068 -0.7198  0.4350 -0.1336
   34TCq2    C1  516   4.174   2.279  10.456  0.5265 -0.1875  1.1089
   34TCq2    O2  517   4.271   2.346  10.502 -0.0499 -0.5165  0.8389
   34TCq2    C2  518   4.134   2.334  10.328  0.2340  0.2306 -0.1885
   34TCq2    C3  519   4.009   2.308  10.282  0.3406  0.3132 -0.2898
   34TCq2    C4  520   3.952   2.390  10.191 -0.6984 -0.2961 -0.4829
   34TCq2    C5  521   4.023   2.501  10.148  0.0383 -0.1464  0.3973
   34TCq2    C6  522   4.153   2.521  10.197 -0.3644 -0.0026  0.4222
   34TCq2    C7  523   4.216   2.434  10.283  0.6998 -0.6693  0.5990
   34TCq2    C8  524   4.213   2.655  10.173  0.4056 -0.4056 -0.4451
   34TCq2    O4  525   4.288   2.707  10.255 -0.5549  0.3462 -0.1046
   34TCq2    C9  526   3.810   2.375  10.161  0.3417 -0.4603  0.0923
   34TCq2    O5  527   3.754   2.264  10.192 -0.1769 -0.1296 -0.0148
   34TCq2    O6  528   3.750   2.484  10.145 -0.8517  0.8630 -0.1376
   34TCq2    H2  529   3.950   2.227  10.323  1.7710 -0.6854 -0.1965
   34TCq2    H3  530   3.966   2.565  10.081  0.8082  0.0521 -0.0666
   34TCq2    H4  531   4.313   2.459  10.323  0.3359  0.6115  0.6919
   35MPD2     C  532   1.639   4.500  12.211 -0.6070  0.8345 -0.9143
   35MPD2    C1  533   1.591   4.372  12.212 -0.9270 -0.1551  0.0892
   35MPD2    C2  534   1.487   4.331  12.131  0.0339 -0.1120  0.6900
   35MPD2    C3  535   1.434   4.421  12.048  0.0847  0.6799  1.4327
   35MPD2    C4  536   1.472   4.550  12.051 -0.0825  0.1594  0.0937
   35MPD2    C5  537   1.572   4.591  12.134  0.8368 -0.2341  1.0514
   35MPD2     H  538   1.452   4.229  12.136 -0.3789 -0.0294 -0.4634
   35MPD2    H1  539   1.437   4.629  11.986  0.6074 -0.9009 -1.5841
   35MPD2    H2  540   1.724   4.537  12.267 -2.8055 -0.7212  3.4086
   35MPD2    H3  541   1.616   4.689  12.129  1.5857 -0.4423  3.9939
   35MPD2     N  542   1.337   4.369  11.952 -0.2423  0.3947 -0.5786
   35MPD2    H5  543   1.301   4.276  11.967 -0.8167  0.4948 -1.3399
   35MPD2    N1  544   1.655   4.285  12.308 -0.1082 -0.3769 -0.3942
   35MPD2    H7  545   1.711   4.323  12.384 -2.0403 -0.4765  1.0746
   36TCq2    C1  546   1.296   4.434  11.842 -0.2703 -0.8260 -0.0100
   36TCq2    O2  547   1.352   4.527  11.783  0.5523  0.0145 -1.0429
   36TCq2    C2  548   1.207   4.361  11.757  0.2634  0.6315 -0.2791
   36TCq2    C3  549   1.155   4.434  11.658  0.2937  0.7463  0.1616
   36TCq2    C4  550   1.064   4.372  11.573 -0.3114  0.3603  0.3860
   36TCq2    C5  551   1.033   4.244  11.582 -0.1200 -0.6310 -0.0560
   36TCq2    C6  552   1.073   4.173  11.691 -0.8382  0.0887 -0.2161
   36TCq2    C7  553   1.155   4.237  11.786  0.1694  0.1728 -0.4308
   36TCq2    C8  554   1.048   4.029  11.707 -0.7227  0.7067  0.6135
   36TCq2    O4  555   1.002   3.970  11.611  0.0275 -0.5299 -0.1361
   36TCq2    C9  556   0.999   4.454  11.469  0.8877  0.7807  0.1320
   36TCq2    O5  557   1.033   4.576  11.459 -0.1413  0.3208 -0.0365
   36TCq2    O6  558   0.904   4.406  11.398 -0.2781 -0.3916 -0.4833
   36TCq2    H2  559   1.163   4.543  11.655 -1.7319  0.9677  2.8263
   36TCq2    H3  560   0.970   4.205  11.503  0.3452 -0.0917 -0.6943
   36TCq2    H4  561   1.200   4.187  11.871 -2.4792 -2.0404 -0.3079
   37TMC2    C1  562   3.757   4.335  11.383  0.0513 -0.4990  0.6841
   37TMC2    C2  563   3.716   4.259  11.279  0.3805 -0.5024 -0.1024
   37TMC2    C3  564   3.806   4.179  11.218  0.1709 -0.3467  0.5398
   37TMC2    C4  565   3.888   4.329  11.423 -0.6088 -0.1364  0.0314
   37TMC2    C5  566   3.978   4.247  11.357 -0.0861  0.1102  0.3544
   37TMC2    C6  567   3.937   4.166  11.253 -0.7570 -0.0509 -0.0526
   37TMC2     C  568   3.665   4.414  11.462 -0.2206 -0.1059 -0.2309
   37TMC2     O  569   3.562   4.454  11.411 -0.1553  0.2185 -0.1283
   37TMC2     H  570   3.613   4.246  11.251  0.2551  0.9207 -0.3261
   37TMC2    H1  571   3.927   4.390  11.505 -1.9278  2.3333 -1.1625
   37TMC2    H2  572   4.005   4.104  11.196  0.2747  0.1096  1.0107
   37TMC2    C7  573   4.109   4.228  11.419  0.4826 -0.6222 -0.3342
   37TMC2    C8  574   3.770   4.080  11.110  0.5792  0.7183 -0.4874
   37TMC2    O1  575   4.146   4.311  11.499 -0.3362 -0.4900  0.0041
   37TMC2    O2  576   3.812   3.964  11.110 -0.5096  0.0447 -0.3008
   37TMC2    O5  577   3.668   4.134  11.038  0.0515  0.5043 -0.2791
   37TMC2    H5  578   3.664   4.231  11.044  3.4655  0.7250 -1.3421
   38MPD2     C  579   3.508   4.570  11.935 -0.4625  0.6588  0.5346
   38MPD2    C1  580   3.620   4.487  11.948 -0.2938 -0.2113  0.4907
   38MPD2    C2  581   3.693   4.449  11.832 -0.1186 -0.4679 -0.3142
   38MPD2    C3  582   3.642   4.477  11.706  0.0444 -0.1238  0.2251
   38MPD2    C4  583   3.527   4.553  11.702  0.1352 -0.4248 -0.1774
   38MPD2    C5  584   3.469   4.600  11.814  0.0345  0.0241  0.6452
   38MPD2     H  585   3.781   4.389  11.851  0.1223  0.0596  0.2008
   38MPD2    H1  586   3.484   4.589  11.609  0.9317  2.7872  0.6918
   38MPD2    H2  587   3.459   4.610  12.023 -0.3837 -1.0024  1.3384
   38MPD2    H3  588   3.386   4.668  11.795  1.2513  1.5632  0.8375
   38MPD2     N  589   3.704   4.414  11.593 -0.2185 -0.2359 -0.0534
   38MPD2    H5  590   3.791   4.364  11.611  0.0839 -0.0633 -1.0109
   38MPD2    N1  591   3.675   4.443  12.072  0.1080 -0.2444  0.2101
   38MPD2    H7  592   3.771   4.414  12.078  0.6897  1.4560 -0.7991
   39MPD2     C  593   1.465   0.800   2.039  0.6861  0.1299 -0.1637
   39MPD2    C1  594   1.415   0.935   2.038  0.2225 -0.2575 -0.6868
   39MPD2    C2  595   1.303   0.967   1.963 -0.3162 -0.6459  0.0340
   39MPD2    C3  596   1.249   0.870   1.882  0.6178  1.4024  0.0791
   39MPD2    C4  597   1.302   0.744   1.885  0.2047  0.3776 -0.2126
   39MPD2    C5  598   1.411   0.711   1.956 -0.6608 -0.2985 -0.2291
   39MPD2     H  599   1.269   1.066   1.937 -1.9742 -1.3582 -0.4972
   39MPD2    H1  600   1.260   0.670   1.818 -1.2602  0.7002  0.3467
   39MPD2    H2  601   1.561   0.774   2.083  0.6419 -2.9064 -1.8574
   39MPD2    H3  602   1.445   0.608   1.952  2.8864  0.8478  0.8175
   39MPD2     N  603   1.130   0.891   1.809  0.0232  0.6313 -0.9698
   39MPD2    H5  604   1.108   0.815   1.746 -1.6002 -0.6513  1.1365
   39MPD2    N1  605   1.492   1.035   2.093 -0.1513  0.0819 -0.7026
   39MPD2    H7  606   1.585   1.007   2.124 -0.4931 -1.9325 -1.4830
   40TCq2    C1  607   1.454   1.164   2.121  0.5577  0.0109  0.3572
   40TCq2    O2  608   1.338   1.206   2.114 -0.3788 -0.1746  0.3211
   40TCq2    C2  609   1.554   1.255   2.170  0.1590 -0.4548 -0.1393
   40TCq2    C3  610   1.520   1.352   2.265 -0.2121 -0.5809 -0.8729
   40TCq2    C4  611   1.621   1.439   2.301  0.2805  0.2082  0.6916
   40TCq2    C5  612   1.750   1.417   2.255  0.8961  0.3396  0.4717
   40TCq2    C6  613   1.784   1.314   2.174 -0.1570  0.1760  0.0067
   40TCq2    C7  614   1.683   1.234   2.126 -0.1598  1.0248 -0.3673
   40TCq2    C8  615   1.921   1.293   2.130  0.3348 -0.1561  0.2624
   40TCq2    O4  616   2.006   1.354   2.196  0.2749 -0.0991 -0.2965
   40TCq2    C9  617   1.589   1.539   2.406 -0.9276  0.0800  0.2713
   40TCq2    O5  618   1.477   1.524   2.458 -0.1496  0.2812  0.0146
   40TCq2    O6  619   1.683   1.593   2.464 -0.1512  0.8416 -0.0825
   40TCq2    H2  620   1.416   1.374   2.283  0.1318  0.4767 -0.1692
   40TCq2    H3  621   1.831   1.476   2.296  2.1303 -0.7304 -0.4317
   40TCq2    H4  622   1.701   1.159   2.051  1.1216  1.0093 -0.0371
   41TMC2    C1  623   0.548   4.540  13.983 -0.7388 -0.2938  0.5367
   41TMC2    C2  624   0.658   4.526  14.069 -0.4564 -0.8589  0.0531
   41TMC2    C3  625   0.781   4.514  14.008  0.5299  0.0505 -0.1647
   41TMC2    C4  626   0.568   4.540  13.850 -0.0133 -0.5595 -0.4052
   41TMC2    C5  627   0.690   4.517  13.795  0.3613 -0.0334 -0.0556
   41TMC2    C6  628   0.800   4.499  13.868  0.4547  0.4600 -0.1845
   41TMC2     C  629   0.409   4.521  14.032  0.7672 -0.4815  0.2901
   41TMC2     O  630   0.323   4.499  13.948 -0.2393 -0.1184 -0.3347
   41TMC2     H  631   0.641   4.516  14.175 -1.2930  3.0043  0.2987
   41TMC2    H1  632   0.480   4.548  13.787  0.5253 -0.8373 -1.1873
   41TMC2    H2  633   0.900   4.487  13.828  1.1490 -0.9926  2.0026
   41TMC2    C7  634   0.696   4.523  13.645 -0.4589 -0.0783  0.2898
   41TMC2    C8  635   0.877   4.442  14.091  0.6567  0.0367  0.8544
   41TMC2    O1  636   0.635   4.617  13.600  0.6844 -0.6827 -0.0925
   41TMC2    O2  637   0.845   4.363  14.175 -0.6151 -0.3857 -0.0217
   41TMC2    O5  638   1.003   4.479  14.050  0.3727 -0.6219  0.5261
   41TMC2    H5  639   1.005   4.553  13.985  2.9078 -1.7714 -0.7415
   42MPD2     C  640   0.146   4.525  14.186  0.0134 -0.1543 -0.0567
   42MPD2    C1  641   0.277   4.554  14.234 -0.1763  0.0203  0.2331
   42MPD2    C2  642   0.297   4.568  14.366  0.1205  0.6756 -0.7647
   42MPD2    C3  643   0.190   4.539  14.454 -0.1871 -0.0644 -0.0918
   42MPD2    C4  644   0.060   4.515  14.401 -0.7145 -0.2132  0.0971
   42MPD2    C5  645   0.038   4.516  14.273  0.3764 -0.0553 -0.8126
   42MPD2     H  646   0.397   4.586  14.402  0.3745  0.2115 -1.2287
   42MPD2    H1  647   4.701   4.477  14.465 -1.4555  3.4417  1.3512
   42MPD2    H2  648   0.134   4.490  14.085 -1.0005 -0.7842  0.2814
   42MPD2    H3  649   4.663   4.484  14.233  0.4156 -0.1461 -0.8342
   42MPD2     N  650   0.215   4.505  14.591 -0.2126 -0.0221  0.5658
   42MPD2    H5  651   0.140   4.463  14.645  0.7444 -0.8310  1.2757
   42MPD2    N1  652   0.399   4.545  14.164  0.2939 -0.4870 -0.2997
   42MPD2    H7  653   0.482   4.557  14.221  0.0466 -0.0532 -0.0352
   43MPD2     C  654   1.875   1.190   1.042 -0.6878 -0.2820  0.6487
   43MPD2    C1  655   2.011   1.224   1.023 -0.1048  0.7301 -0.2520
   43MPD2    C2  656   2.069   1.301   1.121  0.7280 -0.4018  0.0459
   43MPD2    C3  657   1.997   1.366   1.221  0.0350 -0.1247 -0.1098
   43MPD2    C4  658   1.861   1.344   1.221 -0.7419  0.2418  0.4100
   43MPD2    C5  659   1.800   1.264   1.131  0.0850 -0.0957  0.0427
   43MPD2     H  660   2.171   1.330   1.100  0.5993  0.1163  0.1460
   43MPD2    H1  661   1.797   1.399   1.289 -2.7587 -1.1957 -0.3002
   43MPD2    H2  662   1.810   1.137   0.973 -0.7079 -0.5748  0.8930
   43MPD2    H3  663   1.693   1.248   1.135  0.1092 -0.5915 -1.2061
   43MPD2     N  664   2.046   1.476   1.290 -0.2826 -0.0630  0.1559
   43MPD2    H5  665   1.980   1.527   1.348  0.2417  0.1689  0.5455
   43MPD2    N1  666   2.088   1.197   0.913 -0.0356  0.0381  0.0058
   43MPD2    H7  667   2.173   1.245   0.886  0.0366  0.8885  1.7849
   44TCq2    C1  668   2.507   1.778   1.507  0.4508  0.5112  0.0459
   44TCq2    O2  669   2.573   1.697   1.441 -0.0285  0.3900 -0.1362
   44TCq2    C2  670   2.364   1.755   1.490 -0.2463  0.2603 -0.5095
   44TCq2    C3  671   2.274   1.857   1.509 -0.0959  0.4757 -0.6491
   44TCq2    C4  672   2.146   1.839   1.467 -0.4837 -0.9510 -0.5639
   44TCq2    C5  673   2.101   1.727   1.400 -0.2350  0.4638 -0.5720
   44TCq2    C6  674   2.199   1.635   1.381 -0.0982 -0.6897 -0.7339
   44TCq2    C7  675   2.330   1.639   1.423 -1.2358 -0.0726 -0.5274
   44TCq2    C8  676   2.176   1.518   1.298  0.0225  0.1087 -0.9112
   44TCq2    O4  677   2.278   1.477   1.246  0.0051 -0.2461  0.7943
   44TCq2    C9  678   2.054   1.951   1.487 -0.0741 -0.4444 -0.8875
   44TCq2    O5  679   1.948   1.945   1.425  0.3872 -0.3163  0.0781
   44TCq2    O6  680   2.104   2.065   1.507  0.3757 -0.1955 -0.0858
   44TCq2    H2  681   2.294   1.950   1.561  0.8283  0.5884 -1.2065
   44TCq2    H3  682   2.000   1.723   1.361 -0.4232  1.2856 -0.1469
   44TCq2    H4  683   2.398   1.557   1.403  0.5304  1.2600 -0.0336
   45TMC2    C1  684   2.744   3.901   9.918 -0.3574 -0.7590  0.1590
   45TMC2    C2  685   2.729   3.778   9.969 -0.4462 -0.4872  0.6319
   45TMC2    C3  686   2.769   3.764  10.100  0.1909 -0.5693 -0.0172
   45TMC2    C4  687   2.796   4.002   9.990 -0.6239 -0.5791  0.6558
   45TMC2    C5  688   2.837   3.977  10.115  0.3887 -0.1676 -0.0211
   45TMC2    C6  689   2.829   3.858  10.174 -0.8250  0.2509 -0.1177
   45TMC2     C  690   2.672   3.932   9.803  0.1060  0.2892  0.0613
   45TMC2     O  691   2.657   3.839   9.726  0.4635 -0.7240 -0.4296
   45TMC2     H  692   2.686   3.705   9.902 -0.7829  0.5395 -0.2759
   45TMC2    H1  693   2.807   4.102   9.950  0.6172 -0.4962  1.2025
   45TMC2    H2  694   2.859   3.839  10.276 -3.1382  0.1008  0.5416
   45TMC2    C7  695   2.948   4.058  10.163  0.5578 -0.3121  0.1936
   45TMC2    C8  696   2.742   3.644  10.174  0.4611  0.2028  0.7790
   45TMC2    O1  697   2.952   4.177  10.129  0.0022  0.3083  0.3430
   45TMC2    O2  698   2.774   3.537  10.130 -0.0627 -0.3675  0.1459
   45TMC2    O5  699   2.635   3.673  10.242  0.1477  0.0063  0.6676
   45TMC2    H5  700   2.618   3.769  10.233  1.0409  0.1655  0.6782
   46MPD2     C  701   2.470   4.024   9.611  0.0701 -0.0611 -0.8810
   46MPD2    C1  702   2.538   4.109   9.699  0.0039  0.2119 -0.7591
   46MPD2    C2  703   2.507   4.244   9.699  0.4096  0.0334 -0.2504
   46MPD2    C3  704   2.404   4.296   9.622 -0.9291 -0.0522  0.6262
   46MPD2    C4  705   2.342   4.213   9.538 -0.1350  0.9059  0.5357
   46MPD2    C5  706   2.372   4.084   9.528 -1.0680  0.3294 -0.0869
   46MPD2     H  707   2.559   4.307   9.769  0.8772 -0.4783 -0.1413
   46MPD2    H1  708   2.269   4.250   9.467 -1.9698  0.4700  2.2039
   46MPD2    H2  709   2.472   3.916   9.612  0.6012 -0.0523 -0.7886
   46MPD2    H3  710   2.304   4.023   9.468  1.3987 -1.0031 -1.5569
   46MPD2     N  711   2.373   4.434   9.638 -0.1705 -0.9380  0.2104
   46MPD2    H5  712   2.440   4.481   9.698 -0.8414 -0.3081  0.4689
   46MPD2    N1  713   2.641   4.062   9.782 -0.2399 -0.0493 -0.0012
   46MPD2    H7  714   2.671   4.127   9.854 -0.2751  0.2801 -0.2849
   47TMC2    C1  715   4.120   0.165  10.125  0.4433  0.0713 -0.4692
   47TMC2    C2  716   4.113   0.039  10.071 -0.5586 -0.2347 -0.3328
   47TMC2    C3  717   4.004   4.718  10.000 -0.0979  0.0953  0.1521
   47TMC2    C4  718   4.018   0.255  10.098  0.4746  0.1484  0.3413
   47TMC2    C5  719   3.911   0.205  10.032 -0.2375  0.6313  0.2525
   47TMC2    C6  720   3.901   0.081   9.984  0.2668 -0.3254  0.2696
   47TMC2     C  721   4.241   0.214  10.195  0.0154 -0.4482 -0.6790
   47TMC2     O  722   4.244   0.333  10.221 -0.3144  0.4683 -0.2636
   47TMC2     H  723   4.195   4.688  10.078 -0.6667 -0.1242  2.0178
   47TMC2    H1  724   4.012   0.351  10.147  2.7605  0.1112  0.6798
   47TMC2    H2  725   3.817   0.051   9.922  1.7301 -1.2100 -1.2884
   47TMC2    C7  726   3.804   0.299   9.995  0.4915  0.1688  0.2902
   47TMC2    C8  727   3.997   4.591   9.948 -0.3492 -0.3503 -0.4323
   47TMC2    O1  728   3.833   0.420  10.005 -0.4947  0.0370 -0.6478
   47TMC2    O2  729   3.926   4.565   9.852  0.2632 -0.1219 -0.2716
   47TMC2    O5  730   4.017   4.512  10.051  0.3072 -0.4552 -0.3120
   47TMC2    H5  731   4.040   4.562  10.132 -0.4278  0.6715 -0.8018
   48MPD2     C  732   4.535   0.280  10.230  0.1252 -0.0319  0.3864
   48MPD2    C1  733   4.484   0.155  10.231 -0.0389  0.1512 -0.4806
   48MPD2    C2  734   4.572   0.053  10.236 -0.0350 -0.7457 -0.4179
   48MPD2    C3  735   4.711   0.076  10.240  0.0336 -0.6528  0.0464
   48MPD2    C4  736   0.041   0.204  10.248 -0.2019  0.4406 -0.5625
   48MPD2    C5  737   4.669   0.313  10.243  0.8675 -0.4660 -0.2448
   48MPD2     H  738   4.539   4.672  10.221 -1.7072 -0.5744  2.2780
   48MPD2    H1  739   0.148   0.226  10.247  0.0653 -0.8318  0.7988
   48MPD2    H2  740   4.464   0.359  10.208  0.3665  0.6168  2.0267
   48MPD2    H3  741   4.710   0.413  10.235 -0.2084 -0.2718 -3.2602
   48MPD2     N  742   0.066   4.674  10.242  0.3271 -0.1464  0.4713
   48MPD2    H5  743   0.011   4.589  10.238 -0.9414  0.7351 -0.6933
   48MPD2    N1  744   4.341   0.125  10.209 -0.1129  0.2504  0.1314
   48MPD2    H7  745   4.318   0.026  10.203 -0.4252  0.3952 -0.9871
   49MPD2     C  746   2.834   1.451  10.085 -0.4616  0.3975  0.1239
   49MPD2    C1  747   2.864   1.432  10.219 -0.1771 -0.2730 -0.3345
   49MPD2    C2  748   2.930   1.536  10.284 -0.3336 -0.5879 -0.3455
   49MPD2    C3  749   2.972   1.651  10.218  0.0889 -0.0536 -0.9951
   49MPD2    C4  750   2.937   1.670  10.081  0.2223  0.8890  1.0250
   49MPD2    C5  751   2.862   1.572  10.021 -0.0056  0.4922  0.0204
   49MPD2     H  752   2.946   1.523  10.391 -0.5203 -1.2489 -0.3986
   49MPD2    H1  753   2.950   1.759  10.020 -0.7406 -0.9226 -1.8266
   49MPD2    H2  754   2.784   1.375  10.026  0.5027  0.0195 -0.1943
   49MPD2    H3  755   2.834   1.578   9.917  0.4678 -0.5645 -0.1724
   49MPD2     N  756   3.037   1.760  10.281 -0.7452 -0.3944 -0.4459
   49MPD2    H5  757   3.065   1.840  10.225 -2.2242 -0.5286 -1.3792
   49MPD2    N1  758   2.835   1.312  10.287  0.1149  0.3573 -0.3251
   49MPD2    H7  759   2.860   1.311  10.385  1.1806 -0.8535 -0.6106
   50TCq2    C1  760   2.764   1.206  10.239  1.0330  0.5696 -0.5423
   50TCq2    O2  761   2.703   1.194  10.134  0.3462 -0.2606  0.4424
   50TCq2    C2  762   2.745   1.094  10.324  0.7708 -0.7098 -0.0422
   50TCq2    C3  763   2.637   1.011  10.300  0.3322  0.1589  0.3837
   50TCq2    C4  764   2.623   0.903  10.384 -0.0978  0.4624  0.4207
   50TCq2    C5  765   2.707   0.865  10.487  0.3745 -0.8594  0.9944
   50TCq2    C6  766   2.803   0.961  10.514  0.8055  0.4135  0.4229
   50TCq2    C7  767   2.826   1.064  10.425 -0.2316  0.7667 -0.2802
   50TCq2    C8  768   2.907   0.926  10.610 -0.0269  0.5922 -0.2120
   50TCq2    O4  769   2.897   0.824  10.671 -0.3417  0.0480  0.0527
   50TCq2    C9  770   2.510   0.816  10.366 -0.6630 -0.2003 -0.8007
   50TCq2    O5  771   2.406   0.866  10.316 -0.0066  0.0896  0.6856
   50TCq2    O6  772   2.512   0.719  10.450 -0.3394  0.1947 -0.1759
   50TCq2    H2  773   2.574   1.017  10.212 -0.5262 -0.4239  0.9562
   50TCq2    H3  774   2.690   0.781  10.553 -1.8498 -1.3668 -0.2361
   50TCq2    H4  775   2.904   1.137  10.439  0.3815  0.4491 -2.1005
   51MPD2     C  776   4.134   0.177   1.228 -0.3969 -0.0847  0.8761
   51MPD2    C1  777   4.217   0.089   1.298  0.5141  0.1651  0.5112
   51MPD2    C2  778   4.175   0.051   1.419 -0.1471 -0.0816 -0.1457
   51MPD2    C3  779   4.047   0.065   1.465  0.3036  0.2472  0.7039
   51MPD2    C4  780   3.963   0.133   1.383 -0.1063  0.4435  0.4222
   51MPD2    C5  781   4.002   0.189   1.266 -0.6561 -0.0197  0.1002
   51MPD2     H  782   4.252   4.718   1.473 -0.8163 -0.8537  0.0427
   51MPD2    H1  783   3.862   0.151   1.415 -0.0359 -1.8082  1.8486
   51MPD2    H2  784   4.158   0.208   1.127  2.4138  1.9437  2.1606
   51MPD2    H3  785   3.937   0.254   1.208 -0.0787  0.6124  0.1511
   51MPD2     N  786   3.992   0.026   1.594  0.0358 -0.2256 -0.3071
   51MPD2    H5  787   3.897   0.053   1.616  0.6920 -0.9360  3.3531
   51MPD2    N1  788   4.345   0.066   1.261  0.2127  0.5304  0.6203
   51MPD2    H7  789   4.381   4.695   1.285 -0.4123 -0.0190 -0.5078
   52TCq2    C1  790   4.054   4.655   1.673 -0.7897 -0.1746 -0.2843
   52TCq2    O2  791   4.156   4.596   1.656 -0.1719  0.1580 -0.1576
   52TCq2    C2  792   3.993   4.650   1.807 -0.6791 -0.0263 -0.3643
   52TCq2    C3  793   4.057   4.565   1.889  0.3678  0.4529 -0.5251
   52TCq2    C4  794   4.030   4.576   2.019  0.2541 -0.4178 -0.4177
   52TCq2    C5  795   3.948   4.672   2.068 -0.0635 -0.6812 -0.2486
   52TCq2    C6  796   3.908   0.052   1.982 -0.6164  0.5255  0.2587
   52TCq2    C7  797   3.927   0.040   1.850 -0.5152 -0.5111  0.2273
   52TCq2    C8  798   3.805   0.146   2.023 -0.0907 -0.4972  0.4874
   52TCq2    O4  799   3.751   0.134   2.133  0.3422  0.7769 -0.3011
   52TCq2    C9  800   4.085   4.479   2.110  0.4582  0.0051  0.9688
   52TCq2    O5  801   4.196   4.426   2.094  0.1476  0.3240 -0.1916
   52TCq2    O6  802   4.009   4.428   2.197 -0.2496  0.1624  0.0369
   52TCq2    H2  803   4.125   4.487   1.858 -0.1413 -0.4783  0.7137
   52TCq2    H3  804   3.937   4.671   2.176 -2.8958 -1.7661 -0.5458
   52TCq2    H4  805   3.872   0.098   1.776 -1.3250 -0.8975  0.5243
   53TMC2    C1  806   4.635   4.123  11.909  0.3755  0.3602 -0.4270
   53TMC2    C2  807   0.001   4.076  12.006  0.4818 -0.5716  0.0433
   53TMC2    C3  808   4.694   4.099  12.140 -0.7388 -0.5351 -0.4033
   53TMC2    C4  809   4.530   4.204  11.949 -0.1747 -0.2047 -0.2108
   53TMC2    C5  810   4.510   4.224  12.081 -0.1867 -0.1833  0.1513
   53TMC2    C6  811   4.584   4.167  12.179 -0.4886 -0.2028  0.0305
   53TMC2     C  812   4.635   4.061  11.783 -0.2576 -0.2510  0.2308
   53TMC2     O  813   4.703   3.964  11.758  1.1859 -0.0265 -0.2582
   53TMC2     H  814   0.080   4.010  11.973  0.4249 -1.0513  0.8825
   53TMC2    H1  815   4.454   4.253  11.888 -2.0436 -0.2574  2.0675
   53TMC2    H2  816   4.582   4.192  12.284 -1.4426 -0.1767  0.0081
   53TMC2    C7  817   4.410   4.324  12.115 -0.0091 -0.4254 -0.2455
   53TMC2    C8  818   0.089   4.133  12.220 -0.2713 -0.1640  0.7749
   53TMC2    O1  819   4.376   4.409  12.033 -0.6647 -0.3863  0.2314
   53TMC2    O2  820   0.070   4.218  12.306  0.3170  0.4346  0.3973
   53TMC2    O5  821   0.200   4.130  12.145  0.0680 -0.3954  0.4475
   53TMC2    H5  822   0.217   4.044  12.101  0.7041 -0.4179  0.7459
   54MPD2     C  823   4.511   3.922  11.543 -0.1078 -0.4353 -0.6915
   54MPD2    C1  824   4.471   4.053  11.587 -0.3240  0.9314  0.3800
   54MPD2    C2  825   4.361   4.112  11.532 -0.3023  0.7136 -0.2005
   54MPD2    C3  826   4.287   4.052  11.430  0.2909  0.1739  0.2694
   54MPD2    C4  827   4.331   3.928  11.382  0.1892  0.1081  0.2788
   54MPD2    C5  828   4.438   3.865  11.439 -0.2372  0.0146 -0.7853
   54MPD2     H  829   4.324   4.204  11.576 -1.5415  0.5147 -0.8204
   54MPD2    H1  830   4.268   3.869  11.315 -1.2058  1.4209  0.4153
   54MPD2    H2  831   4.600   3.865  11.567 -1.6604 -1.9063  1.5350
   54MPD2    H3  832   4.450   3.760  11.414  0.5489 -0.0107 -0.3133
   54MPD2     N  833   4.167   4.107  11.383 -0.4462 -0.2013 -0.5884
   54MPD2    H5  834   4.110   4.042  11.330 -2.1555  2.3620 -1.9398
   54MPD2    N1  835   4.534   4.114  11.702 -0.9023 -0.1284 -0.8806
   54MPD2    H7  836   4.490   4.201  11.729 -3.1678 -1.4911 -0.2277
   55MPD2     C  837   0.507   1.308  17.353  1.0528 -0.5415 -0.2167
   55MPD2    C1  838   0.494   1.327  17.490 -0.4393  0.5140  0.3350
   55MPD2    C2  839   0.380   1.375  17.546 -0.2352 -0.1774 -0.5715
   55MPD2    C3  840   0.283   1.413  17.462 -0.1335  0.1043  0.2830
   55MPD2    C4  841   0.299   1.413  17.324  0.2700  0.5185  0.3846
   55MPD2    C5  842   0.415   1.359  17.272 -0.9343 -0.1537  1.5624
   55MPD2     H  843   0.363   1.375  17.653 -0.3508  1.8013 -0.5749
   55MPD2    H1  844   0.231   1.450  17.249  1.1423  0.5233 -0.4002
   55MPD2    H2  845   0.596   1.258  17.316  1.8320  0.7183 -0.0291
   55MPD2    H3  846   0.430   1.336  17.167  0.2122 -1.2877  1.9683
   55MPD2     N  847   0.167   1.463  17.528  0.0803  0.2952 -0.2738
   55MPD2    H5  848   0.180   1.481  17.627 -3.6973  2.0043 -0.0899
   55MPD2    N1  849   0.597   1.264  17.571  0.4173  0.6285 -0.1351
   55MPD2    H7  850   0.668   1.213  17.519 -0.5877 -0.4737 -0.4337
   56TCq2    C1  851   0.602   1.268   0.023 -0.1881  0.4224 -0.5267
   56TCq2    O2  852   0.548   1.340   0.100  0.1636  0.1522 -0.1535
   56TCq2    C2  853   0.704   1.178   0.076 -0.6669  0.5475  0.2630
   56TCq2    C3  854   0.745   1.066  17.682 -0.0478  0.2981 -0.4553
   56TCq2    C4  855   0.807   0.959   0.054 -0.5268 -0.7329  0.2956
   56TCq2    C5  856   0.830   0.964   0.187  1.1067  0.6629  0.7359
   56TCq2    C6  857   0.800   1.077   0.257 -0.3870 -0.4303 -0.5334
   56TCq2    C7  858   0.729   1.186   0.207  0.6141  0.0675 -0.0636
   56TCq2    C8  859   0.811   1.077   0.406  0.1747  0.1422  0.0502
   56TCq2    O4  860   0.908   1.018   0.447  0.4666  0.1722 -0.6915
   56TCq2    C9  861   0.851   0.845  17.664  0.6296 -0.0101 -0.1728
   56TCq2    O5  862   0.817   0.838  17.538 -0.1838  0.9154 -0.1978
   56TCq2    O6  863   0.921   0.760   0.048  0.0687  0.0885 -0.3690
   56TCq2    H2  864   0.734   1.056  17.575 -2.1232 -3.1918  0.0509
   56TCq2    H3  865   0.893   0.893   0.238  0.4864 -1.4324 -1.3626
   56TCq2    H4  866   0.713   1.272   0.271  1.3767  0.9473 -1.0793
   57TMC2    C1  867   4.020   2.808  13.954 -0.3157  0.3570  0.2196
   57TMC2    C2  868   4.123   2.783  14.032  0.4922  0.0817  0.2120
   57TMC2    C3  869   4.248   2.761  13.983  0.3243 -0.7134  0.2316
   57TMC2    C4  870   4.046   2.804  13.821  0.5411 -0.1611  0.7635
   57TMC2    C5  871   4.162   2.760  13.772  0.9656  0.2348 -0.1835
   57TMC2    C6  872   4.273   2.742  13.853  0.6489 -0.9380  0.5997
   57TMC2     C  873   3.895   2.861  14.009  0.1545 -0.7774 -0.3434
   57TMC2     O  874   3.821   2.915  13.929  0.1568 -0.2394 -0.5122
   57TMC2     H  875   4.114   2.789  14.140  2.2688 -0.3704  0.3936
   57TMC2    H1  876   3.969   2.841  13.754  0.8109 -3.5137 -1.3661
   57TMC2    H2  877   4.375   2.739  13.818  0.2963 -2.6168 -0.2974
   57TMC2    C7  878   4.178   2.782  13.630 -0.9616 -0.1432 -0.3442
   57TMC2    C8  879   4.340   2.706  14.080  0.7253  0.0710 -0.3841
   57TMC2    O1  880   4.090   2.835  13.564  0.0260 -0.2166 -0.2671
   57TMC2    O2  881   4.343   2.747  14.196  0.3926  0.5530 -0.3994
   57TMC2    O5  882   4.370   2.576  14.035  0.0191 -0.1592  0.2409
   57TMC2    H5  883   4.342   2.552  13.944  0.3985 -0.2722  0.1553
   58MPD2     C  884   3.553   2.945  14.349 -0.6547  0.3130  0.1857
   58MPD2    C1  885   3.581   3.014  14.235  0.3265  1.0130  0.0841
   58MPD2    C2  886   3.685   2.975  14.163  0.8646 -0.8988  0.0026
   58MPD2    C3  887   3.764   2.866  14.210 -0.0596 -0.2338  0.3204
   58MPD2    C4  888   3.737   2.799  14.324 -0.5417  0.1132 -0.6862
   58MPD2    C5  889   3.628   2.847  14.402 -0.6403  0.7089 -0.0949
   58MPD2     H  890   3.701   3.028  14.070 -0.6224  0.1902  0.3827
   58MPD2    H1  891   3.796   2.718  14.366 -1.7856 -1.5255 -2.0742
   58MPD2    H2  892   3.459   2.953  14.402 -0.0969  0.9473  1.0958
   58MPD2    H3  893   3.595   2.792  14.490  0.7753  1.7221  1.0754
   58MPD2     N  894   3.870   2.815  14.138 -0.8570  0.2765  0.1445
   58MPD2    H5  895   3.923   2.740  14.182 -0.9830 -0.6664 -1.2887
   58MPD2    N1  896   3.503   3.123  14.187  0.1843  0.4148 -0.4964
   58MPD2    H7  897   3.531   3.176  14.105 -0.8404 -0.6556 -1.5188
   59MPD2     C  898   1.983   3.409  13.289 -0.0867 -0.3084  0.1224
   59MPD2    C1  899   2.082   3.359  13.204  0.0876 -0.0562 -0.2876
   59MPD2    C2  900   2.210   3.407  13.201  0.0326 -0.6515 -0.4602
   59MPD2    C3  901   2.241   3.521  13.276 -0.4915 -0.5980  0.1015
   59MPD2    C4  902   2.138   3.574  13.362  0.6396  0.6083 -0.0998
   59MPD2    C5  903   2.014   3.511  13.372  0.6676 -0.1918 -0.9227
   59MPD2     H  904   2.286   3.363  13.137  0.7008 -1.6414  1.0237
   59MPD2    H1  905   2.146   3.662  13.424 -2.5575  1.2421 -0.6212
   59MPD2    H2  906   1.882   3.370  13.296 -0.4667  0.9935  1.8789
   59MPD2    H3  907   1.941   3.549  13.443  0.3801  0.1719 -1.4140
   59MPD2     N  908   2.366   3.585  13.268 -0.3018 -0.5382  0.0073
   59MPD2    H5  909   2.365   3.679  13.306 -1.5680 -1.4589  2.2144
   59MPD2    N1  910   2.061   3.243  13.123  0.0309  0.4228 -0.2113
   59MPD2    H7  911   2.143   3.226  13.065  1.0262 -1.1191  1.6432
   60TCq2    C1  912   1.950   3.167  13.120 -0.5409  0.9426  0.7885
   60TCq2    O2  913   1.869   3.136  13.205 -0.1922 -0.3106 -0.1201
   60TCq2    C2  914   1.946   3.094  12.994  0.1300  0.2797 -0.6200
   60TCq2    C3  915   1.867   2.976  12.995  0.3353  0.2889  0.0845
   60TCq2    C4  916   1.848   2.910  12.874  0.6407  0.0792 -0.0617
   60TCq2    C5  917   1.875   2.975  12.758 -0.3219 -0.8254 -0.6478
   60TCq2    C6  918   1.945   3.091  12.756  0.6730 -0.4147 -0.9110
   60TCq2    C7  919   1.983   3.151  12.874  0.1880 -0.0892  0.0104
   60TCq2    C8  920   1.975   3.152  12.630 -0.1245 -0.6579  0.6340
   60TCq2    O4  921   1.995   3.075  12.538 -0.0667 -0.5431  0.1215
   60TCq2    C9  922   1.804   2.774  12.875 -0.0481  0.4181  0.0494
   60TCq2    O5  923   1.789   2.723  12.990  0.0662  0.5551 -0.3888
   60TCq2    O6  924   1.754   2.737  12.766 -0.1353 -0.3524 -0.1617
   60TCq2    H2  925   1.848   2.921  13.087  0.8119  0.0098  0.0128
   60TCq2    H3  926   1.859   2.914  12.669 -2.9448  0.8367 -1.3189
   60TCq2    H4  927   2.045   3.240  12.871  1.4957 -0.9554  0.9606
   61MPD2     C  928   0.736   4.368  14.956  0.3819 -0.1115  0.2830
   61MPD2    C1  929   0.817   4.407  15.054 -0.0544  1.0044  0.1541
   61MPD2    C2  930   0.939   4.460  15.013  0.0326 -0.2455  0.3790
   61MPD2    C3  931   0.974   4.467  14.878  0.0828 -0.2768  0.4141
   61MPD2    C4  932   0.882   4.438  14.787  1.1828 -0.7346 -0.2623
   61MPD2    C5  933   0.755   4.396  14.821 -0.1175  0.0500 -0.0249
   61MPD2     H  934   0.998   4.517  15.085  2.8061  0.6179 -2.5837
   61MPD2    H1  935   0.907   4.432  14.682  2.1012  0.7810 -0.1298
   61MPD2    H2  936   0.655   4.303  14.987  1.7009 -1.7323  0.3098
   61MPD2    H3  937   0.693   4.360  14.740 -1.9966  0.3603  1.2840
   61MPD2     N  938   1.091   4.531  14.830 -0.0127 -0.2759 -0.2842
   61MPD2    H5  939   1.089   4.544  14.730  1.5945 -0.1213 -0.2977
   61MPD2    N1  940   0.783   4.405  15.194 -0.3988  0.8473  0.0830
   61MPD2    H7  941   0.850   4.437  15.264  0.9796  0.5979 -1.1306
   62TCq2    C1  942   0.657   4.382  15.244 -0.3276 -0.3768 -0.4915
   62TCq2    O2  943   0.559   4.323  15.198 -0.0943  0.3186 -0.4710
   62TCq2    C2  944   0.645   4.414  15.387  0.0675  0.1242  0.5990
   62TCq2    C3  945   0.545   4.356  15.465  0.1411  0.4858  0.1892
   62TCq2    C4  946   0.537   4.391  15.601  0.4312 -0.0852 -0.7514
   62TCq2    C5  947   0.611   4.489  15.658  0.8247  0.3823  0.1648
   62TCq2    C6  948   0.706   4.547  15.577 -0.2222  0.1663  1.0942
   62TCq2    C7  949   0.731   4.509  15.446  0.2859  0.1173  0.5705
   62TCq2    C8  950   0.783   4.664  15.629 -0.2338 -0.2011  0.2108
   62TCq2    O4  951   0.891   4.702  15.581  0.1401  0.1090 -0.0596
   62TCq2    C9  952   0.441   4.328  15.685  1.1136 -0.7016  0.5005
   62TCq2    O5  953   0.433   4.373  15.801 -0.3637  0.3969 -0.4004
   62TCq2    O6  954   0.365   4.243  15.636  0.0726  0.0146 -0.1565
   62TCq2    H2  955   0.496   4.270  15.421 -0.6271  0.8033  0.4217
   62TCq2    H3  956   0.596   4.525  15.760 -0.5137 -0.2339  0.1851
   62TCq2    H4  957   0.805   4.565  15.389  1.2797 -1.0869  0.6745
   63TMC2    C1  958   0.407   0.018  11.190 -0.1652  0.3869  0.1115
   63TMC2    C2  959   0.517   4.688  11.245 -0.5116  0.8512  0.3271
   63TMC2    C3  960   0.636   0.033  11.237  0.4281  0.1735  0.2128
   63TMC2    C4  961   0.420   0.133  11.116  0.2831 -0.5833 -0.0739
   63TMC2    C5  962   0.541   0.171  11.077 -0.3396 -0.2588 -0.0558
   63TMC2    C6  963   0.652   0.131  11.151 -0.5118 -0.7340  0.1931
   63TMC2     C  964   0.295   4.651  11.157 -1.1800  0.1273 -0.0385
   63TMC2     O  965   0.206   4.702  11.085  0.2252  0.1312  0.2118
   63TMC2     H  966   0.495   4.624  11.330 -1.1060  2.6272  1.5286
   63TMC2    H1  967   0.340   0.172  11.054  0.3823 -0.3418 -0.0513
   63TMC2    H2  968   0.750   0.178  11.146 -1.2312  1.0195  2.7816
   63TMC2    C7  969   0.554   0.247  10.954  0.4519 -0.0546  0.2640
   63TMC2    C8  970   0.749   4.700  11.308  0.0858  0.1059  0.3100
   63TMC2    O1  971   0.452   0.254  10.889 -0.0694 -0.3291  0.1627
   63TMC2    O2  972   0.856   0.035  11.280  0.4990 -0.0033 -0.0956
   63TMC2    O5  973   0.725   4.565  11.316  0.4708  0.4016 -0.1153
   63TMC2    H5  974   0.796   4.502  11.343 -1.0559 -0.5602  1.6410
   64MPD2     C  975   0.082   4.207  11.034 -0.0868  0.2719  0.3892
   64MPD2    C1  976   0.195   4.184  11.100 -0.2982  0.3509 -0.0769
   64MPD2    C2  977   0.262   4.289  11.170  0.4268 -0.1520 -0.2919
   64MPD2    C3  978   0.217   4.421  11.158  0.4803  0.8918 -0.1891
   64MPD2    C4  979   0.101   4.444  11.091 -0.1248 -0.0423 -0.2070
   64MPD2    C5  980   0.036   4.338  11.033  0.2747 -0.4536 -0.4225
   64MPD2     H  981   0.350   4.263  11.228 -0.0727 -3.1714 -0.9206
   64MPD2    H1  982   0.062   4.545  11.088  0.6397  0.2196 -1.1273
   64MPD2    H2  983   0.026   4.132  10.979  1.0265 -0.7700  0.6892
   64MPD2    H3  984   4.663   4.348  10.979 -0.4633  2.3142  1.3963
   64MPD2     N  985   0.308   4.522  11.193  0.3500  0.5106 -0.2986
   64MPD2    H5  986   0.386   4.501  11.254 -2.5523 -0.8685  2.9302
   64MPD2    N1  987   0.255   4.052  11.108 -0.0438  0.1594 -0.0210
   64MPD2    H7  988   0.343   4.046  11.158 -1.0236  0.7890  1.7716
   65MPD2     C  989   2.135   4.179  16.070 -0.5567  0.2742  0.2691
   65MPD2    C1  990   2.139   4.132  15.941  0.6734  0.2488 -0.4354
   65MPD2    C2  991   2.087   4.008  15.913 -0.4034  0.5820  0.2196
   65MPD2    C3  992   2.041   3.926  16.012 -0.3574  0.9312  0.1030
   65MPD2    C4  993   2.044   3.972  16.140  0.1775 -0.5301 -0.7855
   65MPD2    C5  994   2.083   4.102  16.168  0.2692  0.5697  0.0726
   65MPD2     H  995   2.082   3.983  15.807  0.9951 -0.1345  0.3136
   65MPD2    H1  996   2.004   3.909  16.218  3.9170 -0.6482  1.0327
   65MPD2    H2  997   2.189   4.270  16.094  1.5828 -0.7834 -0.4896
   65MPD2    H3  998   2.085   4.132  16.272 -1.7399 -1.9353  0.8394
   65MPD2     N  999   1.988   3.802  15.982  0.1409 -0.0452 -0.4112
   65MPD2    H5 1000   1.954   3.750  16.061 -1.0857  0.2530 -0.7345
   65MPD2    N1 1001   2.181   4.214  15.834  0.3850  0.2696 -1.0595
   65MPD2    H7 1002   2.210   4.162  15.753  1.4916 -1.1752  0.2588
   66TCq2    C1 1003   2.180   4.354  15.829  0.2426  0.3103  0.0642
   66TCq2    O2 1004   2.148   4.424  15.923 -0.2955  0.3251  0.1043
   66TCq2    C2 1005   2.154   4.393  15.689 -0.1772  0.3009  0.1827
   66TCq2    C3 1006   2.198   4.299  15.600  0.5702 -0.0158  0.0924
   66TCq2    C4 1007   2.109   4.277  15.495  1.0844 -0.5405  0.0422
   66TCq2    C5 1008   1.987   4.328  15.494 -0.1366  0.1173 -0.2791
   66TCq2    C6 1009   1.955   4.422  15.581 -0.4266 -0.0061 -0.2834
   66TCq2    C7 1010   2.038   4.458  15.685 -0.5029  0.2223  0.3139
   66TCq2    C8 1011   1.817   4.448  15.595 -0.0281 -0.1066  0.1176
   66TCq2    O4 1012   1.751   4.444  15.494 -0.0516 -0.0781 -0.2808
   66TCq2    C9 1013   2.142   4.164  15.409  0.7699 -0.4464  0.5328
   66TCq2    O5 1014   2.248   4.104  15.446  0.0895 -0.0223 -0.7134
   66TCq2    O6 1015   2.053   4.125  15.324  0.0736 -0.1718 -0.2540
   66TCq2    H2 1016   2.292   4.246  15.605  0.3610 -0.0961  3.6917
   66TCq2    H3 1017   1.929   4.294  15.409 -0.9336  2.4117 -0.6457
   66TCq2    H4 1018   2.021   4.541  15.753 -1.7451 -0.3249  0.6754
   67MPD2     C 1019   2.032   3.457  14.293  0.3268  0.2417  0.2735
   67MPD2    C1 1020   1.981   3.565  14.364 -0.1103 -0.3526 -0.0056
   67MPD2    C2 1021   1.856   3.623  14.327  0.3060  0.0090 -0.0765
   67MPD2    C3 1022   1.777   3.552  14.239 -0.1159 -0.2409 -0.8029
   67MPD2    C4 1023   1.829   3.449  14.168 -0.4213 -0.5986  0.2969
   67MPD2    C5 1024   1.959   3.408  14.193  0.3234 -0.4990 -0.4999
   67MPD2     H 1025   1.817   3.713  14.374  0.2342  1.0872 -2.2222
   67MPD2    H1 1026   1.770   3.383  14.106  2.0077 -1.4165 -1.1168
   67MPD2    H2 1027   2.131   3.416  14.310  0.3266  1.7721  3.9076
   67MPD2    H3 1028   1.998   3.327  14.132  2.1435  0.6480 -0.8245
   67MPD2     N 1029   1.638   3.585  14.221  0.0934 -0.8362  0.8865
   67MPD2    H5 1030   1.589   3.565  14.135  1.3656  1.5714 -0.4062
   67MPD2    N1 1031   2.047   3.625  14.473  0.1610 -0.1947 -0.4299
   67MPD2    H7 1032   1.995   3.691  14.530 -0.8695 -0.3367 -1.2056
   68TCq2    C1 1033   2.169   3.589  14.529 -0.4978 -0.6632  0.3315
   68TCq2    O2 1034   2.239   3.492  14.498  0.1059  0.0582 -0.2721
   68TCq2    C2 1035   2.179   3.660  14.660  0.1703 -0.2400 -0.2360
   68TCq2    C3 1036   2.088   3.756  14.690 -0.4004 -0.2446 -0.1663
   68TCq2    C4 1037   2.095   3.812  14.815  0.5643 -0.3958  0.5544
   68TCq2    C5 1038   2.186   3.771  14.911  0.4342 -0.5302 -0.1332
   68TCq2    C6 1039   2.274   3.670  14.876 -0.2345 -0.0650  0.2318
   68TCq2    C7 1040   2.265   3.616  14.755 -0.0656 -0.0964 -0.4918
   68TCq2    C8 1041   2.364   3.601  14.966 -0.2637  0.3448  0.1127
   68TCq2    O4 1042   2.434   3.515  14.912 -0.1497  0.0583  0.5978
   68TCq2    C9 1043   1.985   3.905  14.847 -0.4065 -0.5746  0.0856
   68TCq2    O5 1044   1.919   3.945  14.749  0.0682 -0.5428 -0.2109
   68TCq2    O6 1045   1.993   3.956  14.962 -0.2142 -0.1972  0.1171
   68TCq2    H2 1046   2.014   3.795  14.622  0.9716  1.8441 -0.4782
   68TCq2    H3 1047   2.183   3.813  15.011  2.1108 -1.4210  0.2878
   68TCq2    H4 1048   2.327   3.531  14.726 -0.6733 -0.5712 -0.3947
   69TMC2    C1 1049   4.245   4.569  13.022  0.5067  0.2091 -0.0454
   69TMC2    C2 1050   4.108   4.568  13.030  0.0601 -0.1317 -0.2023
   69TMC2    C3 1051   4.038   4.669  12.967  0.4845 -0.0281 -0.3799
   69TMC2    C4 1052   4.305   4.679  12.968 -0.4144 -0.0355  0.4519
   69TMC2    C5 1053   4.234   0.043  12.887  0.3943  0.4546  0.1393
   69TMC2    C6 1054   4.100   0.041  12.892  0.2075  0.4716 -0.2444
   69TMC2     C 1055   4.295   4.445  12.971  0.9314 -0.0672 -0.4595
   69TMC2     O 1056   4.236   4.341  12.997 -0.5527  0.1949 -0.4631
   69TMC2     H 1057   4.059   4.482  13.074  0.7981  0.0808  1.0397
   69TMC2    H1 1058   4.412   4.692  12.972 -0.4002  0.4383 -1.4366
   69TMC2    H2 1059   4.057   0.115  12.827  0.4365  0.0266 -0.9017
   69TMC2    C7 1060   4.295   0.056  12.758  1.2590  0.3607 -0.2229
   69TMC2    C8 1061   3.896   4.637  12.954 -0.3078  0.7828  0.7076
   69TMC2    O1 1062   4.413   0.025  12.760 -0.2816 -0.0986 -0.0565
   69TMC2    O2 1063   3.846   4.529  12.980  1.3923  0.4096 -0.5037
   69TMC2    O5 1064   3.832   0.040  12.950  0.4356 -0.1686  0.2507
   69TMC2    H5 1065   3.892   0.112  12.922 -0.2129 -0.4825 -1.9393
   70MPD2     C 1066   4.535   4.385  12.696 -0.7592 -0.7687  0.2497
   70MPD2    C1 1067   4.462   4.367  12.810  0.5213 -0.2630 -0.6866
   70MPD2    C2 1068   4.469   4.241  12.872 -0.2277  0.4609  0.2720
   70MPD2    C3 1069   4.545   4.138  12.816 -0.7862 -0.1906 -0.1484
   70MPD2    C4 1070   4.616   4.161  12.698  0.4102  0.1721 -0.5125
   70MPD2    C5 1071   4.607   4.286  12.635 -0.2266 -0.0442  0.0601
   70MPD2     H 1072   4.413   4.222  12.962 -1.7433  1.5367 -0.4540
   70MPD2    H1 1073   4.673   4.081  12.653 -1.3632 -1.2879 -0.1793
   70MPD2    H2 1074   4.528   4.480  12.645  0.2735 -1.2659 -0.8104
   70MPD2    H3 1075   4.654   4.310  12.540 -0.6727 -1.6039 -0.5496
   70MPD2     N 1076   4.533   4.010  12.869  0.2222  0.1804  0.3103
   70MPD2    H5 1077   4.475   4.005  12.952 -0.9298 -2.4796 -0.6744
   70MPD2    N1 1078   4.381   4.472  12.871  0.6535 -0.2260  0.0155
   70MPD2    H7 1079   4.385   4.563  12.827  0.8867 -0.2873 -0.0917
   71TMC2    C1 1080   0.799   3.855   1.793 -0.1499  1.0314 -0.2426
   71TMC2    C2 1081   0.859   3.745   1.857  0.2924  0.3067  0.1443
   71TMC2    C3 1082   0.769   3.663   1.913 -0.3630 -0.4085 -0.0018
   71TMC2    C4 1083   0.665   3.886   1.792 -0.5080 -0.5493 -0.0732
   71TMC2    C5 1084   0.583   3.801   1.857 -0.6365  0.1271 -0.1860
   71TMC2    C6 1085   0.631   3.687   1.917  0.4325 -0.6824 -0.1023
   71TMC2     C 1086   0.890   3.958   1.743 -0.2907 -0.3287  0.5351
   71TMC2     O 1087   0.833   4.035   1.669 -0.1724 -0.0123 -0.5494
   71TMC2     H 1088   0.960   3.711   1.836  0.4841  0.6515  0.5083
   71TMC2    H1 1089   0.625   3.976   1.746  0.0301 -1.0800 -1.5901
   71TMC2    H2 1090   0.566   3.613   1.964 -2.0338  0.4692 -1.7067
   71TMC2    C7 1091   0.441   3.824   1.867  0.0146  0.3073 -0.0977
   71TMC2    C8 1092   0.826   3.533   1.962  0.0948  0.0713  0.2082
   71TMC2    O1 1093   0.375   3.747   1.939  0.2719  0.1258  0.3880
   71TMC2    O2 1094   0.932   3.496   1.919  0.1314  0.2905 -0.2298
   71TMC2    O5 1095   0.790   3.526   2.091 -0.5103  0.6217 -0.2180
   71TMC2    H5 1096   0.716   3.583   2.122  0.4974  0.2147  2.9590
   72MPD2     C 1097   1.321   4.247   1.722 -0.0273  0.0741  0.4081
   72MPD2    C1 1098   1.200   4.262   1.655 -1.0623 -0.7176 -0.4064
   72MPD2    C2 1099   1.095   4.171   1.674  0.1212 -0.0747 -0.3361
   72MPD2    C3 1100   1.112   4.064   1.765  0.0310 -0.1268 -0.2239
   72MPD2    C4 1101   1.231   4.056   1.836 -0.0966  0.2891 -0.3574
   72MPD2    C5 1102   1.333   4.149   1.814 -0.3957  0.4785  0.2517
   72MPD2     H 1103   1.005   4.176   1.613 -0.8129  0.5140  1.1039
   72MPD2    H1 1104   1.246   3.985   1.916 -1.4005  0.3697 -0.0369
   72MPD2    H2 1105   1.403   4.317   1.720  0.5988 -0.7249 -1.2789
   72MPD2    H3 1106   1.422   4.140   1.876 -1.7317  2.0433  2.3864
   72MPD2     N 1107   1.019   3.959   1.792 -0.1269 -0.3274 -0.4657
   72MPD2    H5 1108   1.054   3.880   1.846  1.8923  1.0164  0.1892
   72MPD2    N1 1109   1.179   4.369   1.566 -0.1952  0.3648  0.0584
   72MPD2    H7 1110   1.103   4.360   1.500  0.4173 -1.4948 -0.3887
   73TMC2    C1 1111   1.136   1.906  14.297  0.2948  0.5136  0.3260
   73TMC2    C2 1112   1.045   1.886  14.392  0.3639  0.0617  0.0279
   73TMC2    C3 1113   1.083   1.833  14.512 -0.2882 -0.3456  0.2435
   73TMC2    C4 1114   1.258   1.853  14.306 -0.0097 -0.5895 -0.0046
   73TMC2    C5 1115   1.297   1.812  14.432 -0.3237 -0.1617  0.7234
   73TMC2    C6 1116   1.212   1.793  14.538  0.2175 -0.1366  0.2285
   73TMC2     C 1117   1.153   2.045  14.255  0.0478  0.5047  0.0992
   73TMC2     O 1118   1.269   2.084  14.269  0.0991  0.2191  0.3344
   73TMC2     H 1119   0.962   1.956  14.390  0.7895  0.5663  0.1095
   73TMC2    H1 1120   1.338   1.865  14.234 -0.2006  1.8940  0.2083
   73TMC2    H2 1121   1.258   1.749  14.626 -1.0323  0.1951  1.0433
   73TMC2    C7 1122   1.431   1.840  14.470 -0.4894  0.4846 -0.5231
   73TMC2    C8 1123   0.976   1.798  14.612 -0.1397  1.4218  0.0236
   73TMC2    O1 1124   1.493   1.763  14.538  0.0261  0.3613 -0.0187
   73TMC2    O2 1125   0.860   1.790  14.578  0.2820  0.2964  0.3434
   73TMC2    O5 1126   1.026   1.841  14.729  0.0264  0.0770 -0.1869
   73TMC2    H5 1127   1.124   1.849  14.734  0.3034 -0.9403 -4.1219
   74MPD2     C 1128   1.070   2.465  13.962  1.3889 -0.1304 -0.3918
   74MPD2    C1 1129   1.179   2.435  14.042 -0.4657 -0.9608 -0.0777
   74MPD2    C2 1130   1.163   2.320  14.123  0.2735 -0.3265 -0.4745
   74MPD2    C3 1131   1.056   2.235  14.116 -0.3899  0.1237 -0.4228
   74MPD2    C4 1132   0.947   2.277  14.049  0.4511 -0.4043 -0.3462
   74MPD2    C5 1133   0.960   2.387  13.962 -0.1484 -1.1036  0.2294
   74MPD2     H 1134   1.245   2.283  14.184 -0.7466 -0.0026  1.0862
   74MPD2    H1 1135   0.854   2.222  14.039 -0.0105 -0.0272  2.0189
   74MPD2    H2 1136   1.070   2.553  13.899 -0.7935  0.3958  0.3349
   74MPD2    H3 1137   0.871   2.421  13.912 -0.3430 -2.5237 -0.3780
   74MPD2     N 1138   1.044   2.114  14.195  0.1691 -0.8175  0.4934
   74MPD2    H5 1139   0.949   2.079  14.194  0.2856 -1.0903 -0.8764
   74MPD2    N1 1140   1.295   2.515  14.036  0.2866 -0.3195 -0.3034
   74MPD2    H7 1141   1.297   2.584  13.962  0.1727  3.0592  2.7925
   75TCq2    C1 1142   1.567   3.672  14.310  0.2344  0.4368  0.1578
   75TCq2    O2 1143   1.579   3.686  14.429  0.0628  0.3740 -0.4596
   75TCq2    C2 1144   1.464   3.745  14.246 -0.1579  0.2243  0.6571
   75TCq2    C3 1145   1.397   3.841  14.316 -0.1981 -0.4847 -0.4422
   75TCq2    C4 1146   1.289   3.913  14.257 -0.2997  0.2236  0.3261
   75TCq2    C5 1147   1.244   3.883  14.133 -0.5766 -0.6160 -0.5563
   75TCq2    C6 1148   1.311   3.783  14.062  0.2653  0.3410  0.2373
   75TCq2    C7 1149   1.414   3.715  14.122  0.5576  0.0117  0.3997
   75TCq2    C8 1150   1.260   3.757  13.930 -0.2334  0.2396  0.3087
   75TCq2    O4 1151   1.288   3.648  13.878 -0.0769  0.5481 -0.4173
   75TCq2    C9 1152   1.212   4.011  14.334  0.0009 -0.5032  0.8686
   75TCq2    O5 1153   1.229   4.012  14.459  0.2025  0.2525  0.1439
   75TCq2    O6 1154   1.118   4.079  14.284  0.1840 -0.1966  0.2239
   75TCq2    H2 1155   1.443   3.876  14.408  1.5060 -2.4841 -0.5196
   75TCq2    H3 1156   1.147   3.919  14.101  0.1676  0.3142 -1.7884
   75TCq2    H4 1157   1.460   3.638  14.062  0.5322  0.4354 -0.1709
   76MPD2     C 1158   0.594   4.415  12.406  0.2015 -0.4569 -0.1693
   76MPD2    C1 1159   0.534   4.343  12.305 -0.1622  0.3788  0.6149
   76MPD2    C2 1160   0.598   4.228  12.278 -0.7495  0.1172 -0.4807
   76MPD2    C3 1161   0.711   4.181  12.347 -0.2071 -0.1599  0.5541
   76MPD2    C4 1162   0.782   4.269  12.418  0.3264 -0.3803 -0.0078
   76MPD2    C5 1163   0.719   4.384  12.460  0.4929  0.4209 -0.5824
   76MPD2     H 1164   0.544   4.161  12.212 -0.4752  0.8425 -1.4440
   76MPD2    H1 1165   0.880   4.249  12.460  0.0756  0.4302  0.9515
   76MPD2    H2 1166   0.547   4.502  12.452 -1.1469  0.5427 -3.4631
   76MPD2    H3 1167   0.767   4.442  12.537  1.8779  0.3334 -1.3715
   76MPD2     N 1168   0.766   4.057  12.322  0.5507  0.6436 -0.5961
   76MPD2    H5 1169   0.831   4.015  12.388  0.3948  0.1244 -0.7724
   76MPD2    N1 1170   0.404   4.377  12.265 -0.0968  0.0210 -0.0965
   76MPD2    H7 1171   0.359   4.311  12.202  0.0573  1.3247 -1.5642
   77TCq2    C1 1172   0.736   3.981  12.209 -0.2467 -0.6989  0.0187
   77TCq2    O2 1173   0.686   4.022  12.103  0.4801  0.3338  0.2061
   77TCq2    C2 1174   0.783   3.845  12.207 -0.2457 -0.0742 -0.4027
   77TCq2    C3 1175   0.722   3.752  12.130 -0.5699 -0.4065  0.3848
   77TCq2    C4 1176   0.744   3.618  12.149 -0.2851 -0.1432  0.6689
   77TCq2    C5 1177   0.851   3.581  12.235  0.1124 -0.5420 -0.1493
   77TCq2    C6 1178   0.918   3.680  12.303  0.3822 -0.6168 -0.1559
   77TCq2    C7 1179   0.885   3.811  12.295  0.5520 -0.0329 -0.2754
   77TCq2    C8 1180   1.039   3.629  12.374 -0.2873 -0.3030  0.4885
   77TCq2    O4 1181   1.076   3.514  12.362 -0.8836 -0.4595 -0.4904
   77TCq2    C9 1182   0.667   3.520  12.086 -0.2485  0.2084  0.2601
   77TCq2    O5 1183   0.701   3.399  12.105  0.1195 -0.2709  0.1197
   77TCq2    O6 1184   0.582   3.572  12.002 -0.2782  0.2570 -0.2348
   77TCq2    H2 1185   0.641   3.785  12.066 -1.7078  0.1543  2.0944
   77TCq2    H3 1186   0.875   3.478  12.258  0.4003  0.0454  2.1960
   77TCq2    H4 1187   0.941   3.884  12.352  0.8140 -1.4086  1.2306
   78MPD1     C 1188   4.220   2.680   1.390 -0.4931  1.2263  0.2142
   78MPD1    C1 1189   4.181   2.565   1.455  0.1584  1.0027  0.5849
   78MPD1    C2 1190   4.084   2.578   1.556 -0.5223  0.7214 -0.5472
   78MPD1    C3 1191   4.033   2.700   1.598  0.0770  0.5071 -0.2821
   78MPD1    C4 1192   4.085   2.812   1.534 -0.3135 -0.7770  0.0230
   78MPD1    C5 1193   4.182   2.803   1.437 -0.3900 -0.1722  0.3408
   78MPD1     H 1194   4.051   2.489   1.608 -1.0322  0.0385 -2.0380
   78MPD1    H1 1195   4.050   2.907   1.570  1.0024 -0.6569  0.9936
   78MPD1    H2 1196   4.277   2.673   1.298 -2.6597 -0.4756 -1.0262
   78MPD1    H3 1197   4.225   2.891   1.391 -0.8485 -0.0088  0.2162
   78MPD1     N 1198   3.928   2.720   1.692  0.2569 -0.0568  0.3958
   78MPD1    H5 1199   3.885   2.812   1.703  2.1488  0.6308  2.0833
   78MPD1    N1 1200   4.223   2.440   1.405  0.1450 -0.1022  0.2946
   78MPD1    H6 1201   4.229   2.378   1.486 -1.8414  2.5390  2.4691
   78MPD1    H7 1202   4.307   2.443   1.347  1.4813  0.2578  2.2405
   79TCq2    C1 1203   3.874   2.623   1.776  0.2943  0.0826  0.6430
   79TCq2    O2 1204   3.897   2.501   1.784 -0.2288 -0.4383 -0.5349
   79TCq2    C2 1205   3.771   2.670   1.870  0.6774  0.1410  0.0540
   79TCq2    C3 1206   3.711   2.575   1.955  0.8989 -0.3097 -0.1079
   79TCq2    C4 1207   3.672   2.620   2.077 -0.6260 -0.0980 -0.1368
   79TCq2    C5 1208   3.675   2.754   2.115  0.4091  0.5892  0.0271
   79TCq2    C6 1209   3.722   2.846   2.029  0.2629  0.6174  0.7984
   79TCq2    C7 1210   3.772   2.802   1.909  0.0323  0.0806 -0.0347
   79TCq2    C8 1211   3.719   2.991   2.060 -0.6942 -0.2800 -0.4203
   79TCq2    O4 1212   3.627   3.022   2.133 -0.0960  0.0148 -0.2228
   79TCq2    C9 1213   3.623   2.524   2.168 -0.3397  0.4527  0.5849
   79TCq2    O5 1214   3.595   2.406   2.122 -0.1763 -0.1200 -0.2028
   79TCq2    O6 1215   3.553   2.558   2.266  0.2208 -0.1331  0.1072
   79TCq2    H2 1216   3.710   2.470   1.930 -0.4718  0.1283 -1.8791
   79TCq2    H3 1217   3.632   2.779   2.211  0.5257  0.8238  0.0174
   79TCq2    H4 1218   3.818   2.877   1.846  2.6583  0.2407  2.0795
   80MPD2     C 1219   4.411   3.918  12.369  0.9971  0.0637  0.4405
   80MPD2    C1 1220   4.332   3.955  12.259  1.0269 -0.2694  0.3086
   80MPD2    C2 1221   4.218   4.022  12.285 -0.3643 -0.2874  0.3886
   80MPD2    C3 1222   4.182   4.074  12.407 -0.4744  0.4141 -0.4707
   80MPD2    C4 1223   4.257   4.039  12.518  0.3754  0.3824  0.1853
   80MPD2    C5 1224   4.373   3.965  12.498 -0.2157  0.1469 -0.3569
   80MPD2     H 1225   4.150   4.031  12.201 -0.4745 -0.4002  0.4681
   80MPD2    H1 1226   4.232   4.089  12.610 -2.0713 -0.2329 -0.1538
   80MPD2    H2 1227   4.507   3.868  12.376  1.3308  0.7438  0.6962
   80MPD2    H3 1228   4.448   3.943  12.574 -0.1538 -0.6177 -0.6393
   80MPD2     N 1229   4.067   4.152  12.420  0.0082  0.2518 -0.0207
   80MPD2    H5 1230   4.035   4.164  12.516  2.3385 -0.5361  0.8657
   80MPD2    N1 1231   4.358   3.912  12.130 -0.0942  0.7703  0.1666
   80MPD2    H7 1232   4.284   3.926  12.061  0.3085 -0.9575 -0.6437
   81TCq2    C1 1233   4.470   3.851  12.080 -0.2177 -0.6217 -0.4043
   81TCq2    O2 1234   4.578   3.818  12.133  0.3353  0.3159  0.4489
   81TCq2    C2 1235   4.440   3.771  11.961 -0.3599 -0.1892  0.6680
   81TCq2    C3 1236   4.544   3.723  11.879 -0.0866 -0.0004 -0.7509
   81TCq2    C4 1237   4.505   3.658  11.761  0.5058  0.0069  0.3022
   81TCq2    C5 1238   4.377   3.621  11.734 -0.3198  0.9984 -0.4197
   81TCq2    C6 1239   4.277   3.680  11.820 -0.1367 -0.2477 -0.0408
   81TCq2    C7 1240   4.305   3.758  11.930  0.7169  0.1556 -0.1420
   81TCq2    C8 1241   4.136   3.637  11.791  0.0354  0.2688 -0.1156
   81TCq2    O4 1242   4.107   3.627  11.673 -0.2893 -0.2814 -0.0263
   81TCq2    C9 1243   4.606   3.609  11.669  0.7765  0.4350  0.5849
   81TCq2    O5 1244   4.571   3.538  11.571 -0.5954  0.3574  0.1814
   81TCq2    O6 1245   0.004   3.637  11.696 -0.1363 -0.1077  0.0665
   81TCq2    H2 1246   4.640   3.742  11.925 -0.7281  1.1748  0.1183
   81TCq2    H3 1247   4.351   3.564  11.646  1.0663  0.6338 -0.5864
   81TCq2    H4 1248   4.222   3.781  11.996 -1.1038  0.3786 -2.5328
   82MPD2     C 1249   2.066   3.773  10.810 -0.1426 -0.4181 -0.2199
   82MPD2    C1 1250   2.035   3.724  10.681 -0.7789 -0.6189  0.1846
   82MPD2    C2 1251   2.085   3.601  10.655 -0.2721  0.2732 -0.0496
   82MPD2    C3 1252   2.156   3.524  10.752  0.1822  0.1486  0.5486
   82MPD2    C4 1253   2.186   3.581  10.872  0.3363 -0.0014 -0.2943
   82MPD2    C5 1254   2.150   3.707  10.897  0.3020  0.3133 -0.5562
   82MPD2     H 1255   2.068   3.567  10.554 -1.5926  1.3435 -0.1919
   82MPD2    H1 1256   2.244   3.526  10.945  0.6271 -1.9050 -1.9567
   82MPD2    H2 1257   2.036   3.874  10.838  2.4057  0.6453 -1.2779
   82MPD2    H3 1258   2.190   3.758  10.985 -0.5206 -0.3946  0.2336
   82MPD2     N 1259   2.208   3.396  10.726  0.2604  0.2707 -0.2715
   82MPD2    H5 1260   2.264   3.358  10.802  0.3720  2.2107  0.6045
   82MPD2    N1 1261   1.946   3.804  10.605  0.1186 -0.1385  0.6496
   82MPD2    H7 1262   1.924   3.899  10.634  0.8475  0.4193 -0.6209
   83TCq2    C1 1263   2.193   3.312  10.619  0.0224 -0.0064  0.4479
   83TCq2    O2 1264   2.139   3.337  10.513 -0.1295  0.0670 -0.2536
   83TCq2    C2 1265   2.235   3.174  10.649 -0.1132  0.3744  0.0238
   83TCq2    C3 1266   2.247   3.101  10.531 -0.8486  0.2855 -0.2915
   83TCq2    C4 1267   2.237   2.967  10.541 -0.7003 -0.1854 -0.2211
   83TCq2    C5 1268   2.229   2.903  10.662 -0.1238 -0.2048  0.0783
   83TCq2    C6 1269   2.225   2.983  10.775 -0.8965 -0.2192  0.5207
   83TCq2    C7 1270   2.224   3.122  10.773  0.1524  0.2425  0.6004
   83TCq2    C8 1271   2.193   2.916  10.903 -0.0119 -0.3054 -0.1213
   83TCq2    O4 1272   2.133   2.981  10.990  0.0591  1.0172  0.4978
   83TCq2    C9 1273   2.235   2.881  10.425  0.1502 -0.0565  0.2997
   83TCq2    O5 1274   2.219   2.758  10.455  0.4015  0.1170 -0.1179
   83TCq2    O6 1275   2.231   2.931  10.310  0.4419 -0.4732  0.3871
   83TCq2    H2 1276   2.252   3.153  10.436  0.2707  1.5664  0.4682
   83TCq2    H3 1277   2.211   2.796  10.667  0.1277 -0.2747 -0.5860
   83TCq2    H4 1278   2.213   3.179  10.864  4.2911  0.6996  0.8319
   84TCq2    C1 1279   3.082   1.758  10.414  0.3710 -0.1110 -0.0867
   84TCq2    O2 1280   3.030   1.695  10.507  0.3302 -0.3886 -0.0616
   84TCq2    C2 1281   3.173   1.868  10.443  0.4345  0.1414 -0.0370
   84TCq2    C3 1282   3.257   1.916  10.347 -0.5723 -0.4737  0.2616
   84TCq2    C4 1283   3.336   2.026  10.371 -0.0512 -0.4060  0.1920
   84TCq2    C5 1284   3.321   2.084  10.489  0.4918  0.2025 -0.2750
   84TCq2    C6 1285   3.241   2.034  10.588 -0.1793 -0.2878 -0.8569
   84TCq2    C7 1286   3.163   1.926  10.567  0.5092 -0.7168 -0.0319
   84TCq2    C8 1287   3.223   2.110  10.711 -0.7947 -0.7242  1.2484
   84TCq2    O4 1288   3.180   2.052  10.807  0.2044  0.0710 -0.6883
   84TCq2    C9 1289   3.425   2.086  10.269 -0.2914 -0.0392 -0.1545
   84TCq2    O5 1290   3.450   2.019  10.167  0.0650  0.2488 -0.3631
   84TCq2    O6 1291   3.516   2.160  10.317 -0.0805  0.1549  0.0274
   84TCq2    H2 1292   3.273   1.866  10.252  0.3304  1.3269 -0.5351
   84TCq2    H3 1293   3.393   2.162  10.514 -0.0704  0.4709  0.4909
   84TCq2    H4 1294   3.088   1.899  10.640  1.2040  1.3086  1.4274
   85MPD2     C 1295   3.891   0.007  16.655  0.3378  0.8932  0.0832
   85MPD2    C1 1296   3.818   4.707  16.542 -0.1388  0.4089 -0.0413
   85MPD2    C2 1297   3.818   0.088  16.449  0.2433  0.4956 -0.2676
   85MPD2    C3 1298   3.882   0.208  16.483  0.2735 -0.3954 -0.3488
   85MPD2    C4 1299   3.959   0.222  16.596 -0.1999  0.2310  0.3507
   85MPD2    C5 1300   3.957   0.126  16.688 -0.3436 -0.9529 -0.3147
   85MPD2     H 1301   3.780   0.054  16.353 -0.1505 -0.7374  0.3244
   85MPD2    H1 1302   4.017   0.309  16.627  0.8518  0.0688 -1.1713
   85MPD2    H2 1303   3.894   4.653  16.733  1.4111 -0.4858 -1.2765
   85MPD2    H3 1304   4.021   0.134  16.775 -0.9660  1.8876 -0.1139
   85MPD2     N 1305   3.876   0.312  16.387 -0.5921 -0.0158  0.3334
   85MPD2    H5 1306   3.839   0.283  16.298 -1.2973 -2.8682  1.5726
   85MPD2    N1 1307   3.753   4.585  16.516 -0.3376  0.4688 -0.7179
   85MPD2    H7 1308   3.706   4.572  16.427 -1.6423  1.9178 -0.2215
   86TCq2    C1 1309   3.898   0.447  16.416  0.2139  0.6153 -0.2226
   86TCq2    O2 1310   3.911   0.504  16.521 -0.7661 -0.1677  0.0464
   86TCq2    C2 1311   3.911   0.531  16.295 -0.8240 -0.1661  0.4891
   86TCq2    C3 1312   3.976   0.653  16.301 -0.4393 -0.2122 -0.9600
   86TCq2    C4 1313   4.044   0.696  16.196  0.1110 -0.3929  0.0418
   86TCq2    C5 1314   4.045   0.627  16.079 -0.0109 -0.2179 -0.2824
   86TCq2    C6 1315   3.971   0.512  16.073  0.6942  0.4025 -0.1550
   86TCq2    C7 1316   3.895   0.474  16.172 -1.0996  0.5460  0.8846
   86TCq2    C8 1317   4.024   0.414  15.970 -0.1310  0.3428 -0.5844
   86TCq2    O4 1318   4.019   0.300  16.009  0.2986  0.5570  0.6099
   86TCq2    C9 1319   4.141   0.806  16.215  0.3492  0.9145  0.1868
   86TCq2    O5 1320   4.120   0.896  16.301  0.4607  0.4229  0.1518
   86TCq2    O6 1321   4.223   0.821  16.123  0.1312  0.0985  0.8058
   86TCq2    H2 1322   4.004   0.695  16.397  1.3707  3.2708 -3.0166
   86TCq2    H3 1323   4.114   0.658  16.001  1.6362 -2.3221  0.3186
   86TCq2    H4 1324   3.842   0.381  16.153  0.3470 -0.1427  0.1778
   87MPD2     C 1325   1.581   3.526   1.987  0.1206  0.0263  0.0328
   87MPD2    C1 1326   1.496   3.455   1.909 -0.2596 -0.3765  0.2432
   87MPD2    C2 1327   1.402   3.511   1.825 -0.2060  0.2044 -0.1295
   87MPD2    C3 1328   1.402   3.646   1.804 -0.1081 -0.0099 -0.6479
   87MPD2    C4 1329   1.491   3.724   1.874 -0.1953 -0.1619  0.2492
   87MPD2    C5 1330   1.572   3.662   1.967 -0.2321  0.0001  0.4978
   87MPD2     H 1331   1.332   3.456   1.763  2.5565  0.8173 -3.7855
   87MPD2    H1 1332   1.495   3.832   1.874 -1.0781 -0.1286 -0.1279
   87MPD2    H2 1333   1.656   3.479   2.049  0.8764  2.0712  0.6608
   87MPD2    H3 1334   1.641   3.720   2.027 -0.2194  1.8288 -1.3083
   87MPD2     N 1335   1.332   3.721   1.703 -0.6690 -0.0939  0.3584
   87MPD2    H5 1336   1.358   3.819   1.689 -0.9867 -0.0086  0.3777
   87MPD2    N1 1337   1.519   3.311   1.908 -0.0151  0.0962 -0.5033
   87MPD2    H7 1338   1.593   3.275   1.967 -0.6154 -1.2370 -0.5755
   88TCq2    C1 1339   1.465   3.220   1.821 -0.6455  0.6510 -0.8269
   88TCq2    O2 1340   1.395   3.223   1.720 -0.2703  0.4425 -0.2372
   88TCq2    C2 1341   1.527   3.090   1.836 -0.1034  0.0325  0.3268
   88TCq2    C3 1342   1.581   3.050   1.959 -0.0663  0.1198 -0.2158
   88TCq2    C4 1343   1.681   2.955   1.958  0.5081 -0.1248 -0.0599
   88TCq2    C5 1344   1.738   2.907   1.843  0.4123  0.2951 -0.1791
   88TCq2    C6 1345   1.675   2.947   1.726 -0.7028 -0.2969 -0.1884
   88TCq2    C7 1346   1.571   3.039   1.716  0.4062 -0.2819  0.2106
   88TCq2    C8 1347   1.735   2.907   1.594  0.9655  0.4784 -0.2139
   88TCq2    O4 1348   1.723   2.992   1.509  0.4205 -0.0428  0.1718
   88TCq2    C9 1349   1.763   2.950   2.076  0.0436 -0.3478 -0.0837
   88TCq2    O5 1350   1.730   3.034   2.163  0.1418 -0.2086 -0.0339
   88TCq2    O6 1351   1.887   2.922   2.066 -0.7543 -0.0154  0.3955
   88TCq2    H2 1352   1.557   3.105   2.049  0.9427 -0.7541  0.5881
   88TCq2    H3 1353   1.835   2.860   1.834  0.6902  1.0804 -1.3086
   88TCq2    H4 1354   1.542   3.079   1.620 -0.3777  0.3673  0.7088
   89MPD2     C 1355   2.185   1.208   2.015 -0.5111 -0.2899 -0.4800
   89MPD2    C1 1356   2.062   1.198   1.945  0.7211 -0.2853  0.1587
   89MPD2    C2 1357   2.064   1.156   1.813 -0.2034  0.3673 -0.3475
   89MPD2    C3 1358   2.188   1.138   1.753 -0.0633 -0.1184 -0.1743
   89MPD2    C4 1359   2.306   1.142   1.822 -0.1323 -0.2155  0.0914
   89MPD2    C5 1360   2.307   1.172   1.957 -0.4339 -0.1615  0.4929
   89MPD2     H 1361   1.972   1.149   1.757 -0.3977 -1.1178  0.1584
   89MPD2    H1 1362   2.403   1.109   1.786 -1.5783 -3.1148 -1.1173
   89MPD2    H2 1363   2.189   1.240   2.118  0.4567 -1.7841 -0.0562
   89MPD2    H3 1364   2.401   1.171   2.010  0.2086  0.8654 -0.6319
   89MPD2     N 1365   2.186   1.098   1.619  0.3143  0.0820 -0.3972
   89MPD2    H5 1366   2.097   1.067   1.580  0.8143 -1.5946 -0.2243
   89MPD2    N1 1367   1.939   1.232   2.011 -0.3773  0.5621  0.4822
   89MPD2    H7 1368   1.851   1.210   1.964 -0.2678 -0.8182  0.9106
   90TCq2    C1 1369   2.298   1.102   1.534  0.6491  0.0372  0.4651
   90TCq2    O2 1370   2.403   1.162   1.551 -0.2230 -0.2100 -0.6829
   90TCq2    C2 1371   2.269   1.050   1.407 -0.5921 -0.1263 -0.1301
   90TCq2    C3 1372   2.204   0.932   1.402 -0.8180 -0.1680 -0.1705
   90TCq2    C4 1373   2.173   0.882   1.273  0.7599 -0.2033  0.4417
   90TCq2    C5 1374   2.225   0.942   1.161 -0.2227  0.2821 -0.6868
   90TCq2    C6 1375   2.306   1.052   1.179  0.2554 -0.1530  0.1118
   90TCq2    C7 1376   2.331   1.109   1.299 -0.1480  0.1852 -0.3955
   90TCq2    C8 1377   2.379   1.097   1.062 -0.3678 -0.1456  0.4350
   90TCq2    O4 1378   2.366   1.028   0.968  0.1701 -0.0653  0.2019
   90TCq2    C9 1379   2.099   0.761   1.263  0.7658  0.0989 -0.4150
   90TCq2    O5 1380   2.055   0.720   1.154  0.1597  0.1887 -0.0911
   90TCq2    O6 1381   2.107   0.695   1.371 -0.0958  0.2012  0.0679
   90TCq2    H2 1382   2.167   0.883   1.492  0.7184 -1.3813 -0.2008
   90TCq2    H3 1383   2.203   0.894   1.067  0.7124  1.0338 -1.2863
   90TCq2    H4 1384   2.402   1.190   1.315  0.2031 -0.2578  0.3287
   91TMC2    C1 1385   3.937   1.344  17.037 -0.2012  0.4008 -0.1603
   91TMC2    C2 1386   3.983   1.413  16.929  0.0402 -0.9887 -0.3368
   91TMC2    C3 1387   3.900   1.490  16.852 -1.2456  0.6586  0.0800
   91TMC2    C4 1388   3.812   1.348  17.069  0.3791  0.3630  0.0992
   91TMC2    C5 1389   3.719   1.403  16.982  0.6794  0.4928  0.7272
   91TMC2    C6 1390   3.759   1.486  16.880 -0.4001  0.3581  0.2543
   91TMC2     C 1391   4.015   1.224  17.070 -0.1913  0.4655  0.3097
   91TMC2     O 1392   3.947   1.125  17.101 -0.1050 -0.3788  0.0812
   91TMC2     H 1393   4.087   1.417  16.898  0.3209 -0.4872  0.6998
   91TMC2    H1 1394   3.776   1.281  17.146  0.2067  0.0921 -0.2137
   91TMC2    H2 1395   3.685   1.521  16.809  1.2538  1.4264 -0.9395
   91TMC2    C7 1396   3.589   1.343  16.983 -0.4597 -0.7549  0.3948
   91TMC2    C8 1397   3.953   1.580  16.755 -0.9476  0.4732 -0.3791
   91TMC2    O1 1398   3.530   1.323  17.087  0.4807  0.2953  0.3872
   91TMC2    O2 1399   4.072   1.577  16.715 -0.5283  0.1468  0.5398
   91TMC2    O5 1400   3.864   1.689  16.755 -0.6111  0.4648  0.4300
   91TMC2    H5 1401   3.784   1.678  16.810 -0.3335 -1.1462  0.5259
   92MPD2     C 1402   4.166   0.987  16.985 -1.1021 -0.0988 -0.4187
   92MPD2    C1 1403   4.216   1.111  16.984  0.0337  0.0961  0.0453
   92MPD2    C2 1404   4.344   1.131  16.931 -0.5232 -0.1491 -0.3054
   92MPD2    C3 1405   4.423   1.036  16.881  0.1868 -0.1060  0.3141
   92MPD2    C4 1406   4.364   0.912  16.867 -0.0546  0.7729 -0.3000
   92MPD2    C5 1407   4.235   0.889  16.916 -0.2783 -0.3775 -0.7248
   92MPD2     H 1408   4.385   1.231  16.931 -1.7985  0.3778  1.7254
   92MPD2    H1 1409   4.410   0.817  16.841  0.1907  0.7583  0.1711
   92MPD2    H2 1410   4.066   0.965  17.021 -1.5242 -1.1630 -2.2327
   92MPD2    H3 1411   4.201   0.786  16.921 -0.2712 -0.2907  0.8175
   92MPD2     N 1412   4.554   1.061  16.827 -0.1457 -0.0010  0.0903
   92MPD2    H5 1413   4.586   1.157  16.818 -2.0828  0.6744  0.2684
   92MPD2    N1 1414   4.145   1.222  17.024  0.3655 -0.5564 -0.4920
   92MPD2    H7 1415   4.192   1.312  17.015  0.8476 -0.7168  0.3361
   93MPD2     C 1416   0.572   1.936  14.023 -0.2547  0.0419 -0.1473
   93MPD2    C1 1417   0.606   1.825  13.953 -0.7350 -1.1340 -0.3203
   93MPD2    C2 1418   0.514   1.755  13.885 -0.7957  0.5672  0.6344
   93MPD2    C3 1419   0.381   1.789  13.897  0.3075  0.2711  0.5429
   93MPD2    C4 1420   0.343   1.900  13.968 -0.1926  0.8345  0.9538
   93MPD2    C5 1421   0.436   1.963  14.038 -0.5135  0.4761  0.2794
   93MPD2     H 1422   0.535   1.669  13.823 -1.4187 -0.2181  1.5201
   93MPD2    H1 1423   0.246   1.947  13.967 -0.0005  1.2138  0.3568
   93MPD2    H2 1424   0.653   1.990  14.070  1.9206 -1.6479 -1.9409
   93MPD2    H3 1425   0.420   2.057  14.091 -1.6785  1.0601 -1.0781
   93MPD2     N 1426   0.297   1.716  13.816 -0.3319 -0.0642  0.1734
   93MPD2    H5 1427   0.338   1.652  13.748 -1.2509  0.4953 -0.9141
   93MPD2    N1 1428   0.741   1.782  13.928 -1.2680 -0.6641 -0.1557
   93MPD2    H7 1429   0.747   1.703  13.865 -0.2970 -1.0421  0.4038
   94TCq2    C1 1430   0.858   1.839  13.973 -0.1778  1.2589  0.3714
   94TCq2    O2 1431   0.871   1.945  14.033  0.1477 -0.0817  0.2241
   94TCq2    C2 1432   0.972   1.758  13.942  0.1927  0.6420 -0.2393
   94TCq2    C3 1433   0.958   1.622  13.911  0.1894  0.0973 -0.3276
   94TCq2    C4 1434   1.069   1.547  13.892  0.3958  0.6849  0.0168
   94TCq2    C5 1435   1.193   1.605  13.903  0.4697  0.3708 -0.8271
   94TCq2    C6 1436   1.199   1.741  13.951  0.5896 -0.4736 -0.6418
   94TCq2    C7 1437   1.092   1.814  13.978  0.6229  0.5858  0.3496
   94TCq2    C8 1438   1.337   1.790  13.964 -0.9865 -0.4955  0.6779
   94TCq2    O4 1439   1.418   1.700  13.982 -0.3706 -0.2036  0.0524
   94TCq2    C9 1440   1.060   1.407  13.859  0.3720 -0.0587  1.2581
   94TCq2    O5 1441   1.166   1.340  13.853  0.4395  0.0887 -0.4745
   94TCq2    O6 1442   0.949   1.347  13.879 -0.0985 -0.1682 -0.3491
   94TCq2    H2 1443   0.865   1.574  13.883 -0.3288  0.7730  0.2705
   94TCq2    H3 1444   1.280   1.540  13.904  2.4259  2.9905  0.0137
   94TCq2    H4 1445   1.097   1.920  14.001 -1.0501  0.2548  2.2822
   95TMC2    C1 1446   1.251   3.165  16.504 -0.6254  0.3351 -0.5492
   95TMC2    C2 1447   1.271   3.195  16.639  0.0034  0.0068  0.4929
   95TMC2    C3 1448   1.240   3.091  16.728 -0.5943  0.1188 -0.6952
   95TMC2    C4 1449   1.207   3.047  16.458 -0.1606 -0.0720  0.5331
   95TMC2    C5 1450   1.178   2.951  16.551  0.7319 -0.5303  0.6606
   95TMC2    C6 1451   1.195   2.974  16.679  0.3945 -0.2832  0.0638
   95TMC2     C 1452   1.301   3.265  16.404  0.3760 -0.2237  0.7069
   95TMC2     O 1453   1.337   3.225  16.298 -0.4546  0.2567  0.0428
   95TMC2     H 1454   1.325   3.283  16.672  0.0163  0.7144 -1.4703
   95TMC2    H1 1455   1.182   3.033  16.353 -1.0970  2.5429  0.3989
   95TMC2    H2 1456   1.170   2.891  16.744 -0.9417  0.2292  0.2133
   95TMC2    C7 1457   1.089   2.839  16.524 -1.6374  0.4128 -0.3999
   95TMC2    C8 1458   1.215   3.118  16.871  0.3198  0.8352  0.1003
   95TMC2    O1 1459   1.018   2.803  16.620 -0.0034 -0.2792 -0.0449
   95TMC2    O2 1460   1.140   3.048  16.935  0.3040 -0.2585  0.6274
   95TMC2    O5 1461   1.252   3.241  16.908 -0.0619 -0.1510 -0.3109
   95TMC2    H5 1462   1.333   3.279  16.870  0.2455 -1.2515 -0.7518
   96MPD2     C 1463   1.523   3.718  16.315 -0.1497  0.3459 -0.8503
   96MPD2    C1 1464   1.515   3.604  16.235 -0.0204 -0.2824 -0.4088
   96MPD2    C2 1465   1.450   3.489  16.277 -0.4077  0.1076 -0.1206
   96MPD2    C3 1466   1.382   3.494  16.396 -0.6290 -0.3635  0.2069
   96MPD2    C4 1467   1.392   3.609  16.477 -0.1249  0.2604 -0.0464
   96MPD2    C5 1468   1.461   3.717  16.435 -0.5353  0.4695 -0.1131
   96MPD2     H 1469   1.452   3.404  16.210  1.4827 -0.0210  0.1123
   96MPD2    H1 1470   1.351   3.610  16.578 -1.8133 -0.2614 -0.7352
   96MPD2    H2 1471   1.582   3.806  16.295  1.0592 -0.3481 -0.3200
   96MPD2    H3 1472   1.480   3.794  16.509  0.8812  1.2842 -1.3058
   96MPD2     N 1473   1.315   3.389  16.454 -0.5285  0.3270 -0.0281
   96MPD2    H5 1474   1.270   3.405  16.543 -0.1977  4.6151 -0.6102
   96MPD2    N1 1475   1.598   3.612  16.122  0.0689  0.3910 -0.0848
   96MPD2    H7 1476   1.656   3.694  16.106 -0.4802  0.7126 -0.4457
   97MPD2     C 1477   3.818   4.320   1.768 -0.4689  0.4544  0.2908
   97MPD2    C1 1478   3.761   4.424   1.703 -0.6932  0.0406 -0.9309
   97MPD2    C2 1479   3.803   4.448   1.571  1.1389 -0.3027 -0.1458
   97MPD2    C3 1480   3.891   4.359   1.511  0.2677  0.0027  0.4182
   97MPD2    C4 1481   3.944   4.252   1.583 -0.7429  0.4110 -0.9342
   97MPD2    C5 1482   3.897   4.227   1.707 -0.4680  0.0256  0.4664
   97MPD2     H 1483   3.755   4.520   1.506 -0.0615  0.7049  1.8730
   97MPD2    H1 1484   4.013   4.183   1.535 -1.8047 -1.6410  0.5516
   97MPD2    H2 1485   3.787   4.300   1.870 -1.2249 -2.7821 -0.5970
   97MPD2    H3 1486   3.932   4.143   1.765 -0.6539  0.0928  0.6745
   97MPD2     N 1487   3.936   4.376   1.372  0.1699  0.2587 -0.4783
   97MPD2    H5 1488   4.010   4.315   1.338  0.8641  0.1920  1.1408
   97MPD2    N1 1489   3.677   4.510   1.780  0.3520 -0.4350  0.3071
   97MPD2    H7 1490   3.647   4.480   1.872  1.6557 -1.2958  0.4584
   98TCq2    C1 1491   3.894   4.478   1.287  0.1790 -0.7329 -0.4710
   98TCq2    O2 1492   3.803   4.562   1.290 -0.4969 -0.3276 -0.3037
   98TCq2    C2 1493   3.973   4.472   1.172  0.6741  0.3856 -0.1703
   98TCq2    C3 1494   4.028   4.355   1.121 -0.3213 -0.5311  0.0614
   98TCq2    C4 1495   4.092   4.355   0.997  0.1048  0.3979 -0.4794
   98TCq2    C5 1496   4.101   4.471   0.920  0.6754 -0.2066 -0.8083
   98TCq2    C6 1497   4.044   4.580   0.971 -0.4742  0.2554  0.3044
   98TCq2    C7 1498   3.982   4.587   1.095 -0.6436  0.5721 -0.0895
   98TCq2    C8 1499   4.065   4.703   0.892 -0.1940 -0.5711  0.2617
   98TCq2    O4 1500   4.145   4.698   0.799 -0.1899 -0.3671 -0.0229
   98TCq2    C9 1501   4.134   4.235   0.942  0.0973 -0.3748 -1.0537
   98TCq2    O5 1502   4.194   4.241   0.834 -0.0985 -0.7008  0.2742
   98TCq2    O6 1503   4.155   4.134   1.012 -0.3964 -0.3306 -0.0788
   98TCq2    H2 1504   4.015   4.259   1.169  0.9858 -0.5399  0.3796
   98TCq2    H3 1505   4.138   4.465   0.819  2.5387  0.4399 -0.1575
   98TCq2    H4 1506   3.955   4.683   1.138  0.5397 -0.0205  1.9591
   99MPD2     C 1507   2.935   1.932   1.697  0.7400 -0.2755  0.3399
   99MPD2    C1 1508   2.835   1.993   1.769  0.8218  0.1215  0.6133
   99MPD2    C2 1509   2.707   1.985   1.724 -0.0959  0.5356  0.1788
   99MPD2    C3 1510   2.672   1.914   1.608 -1.0883  0.5366 -0.4384
   99MPD2    C4 1511   2.774   1.863   1.535  0.6208 -0.1476  0.3135
   99MPD2    C5 1512   2.900   1.868   1.582  0.0364 -0.0684 -0.0484
   99MPD2     H 1513   2.629   2.042   1.773 -1.2999 -0.3051 -0.7219
   99MPD2    H1 1514   2.768   1.809   1.442  1.5939  0.3029 -0.0124
   99MPD2    H2 1515   3.040   1.929   1.723  1.3156  3.6256 -1.5373
   99MPD2    H3 1516   2.975   1.810   1.531  0.2202 -0.1633  0.3352
   99MPD2     N 1517   2.542   1.892   1.578  0.8738 -0.1460  0.1393
   99MPD2    H5 1518   2.465   1.920   1.638 -0.2230  0.4232 -1.5503
   99MPD2    N1 1519   2.863   2.064   1.889 -0.0757  0.3279  0.2142
   99MPD2    H7 1520   2.786   2.106   1.940  0.3845  0.3354  0.9128
  100TCq2    C1 1521   2.986   2.087   1.946 -0.4437 -0.3465 -0.0043
  100TCq2    O2 1522   3.101   2.056   1.911  0.0739 -0.0984  0.5806
  100TCq2    C2 1523   2.966   2.162   2.067 -0.4313 -0.1414 -0.3315
  100TCq2    C3 1524   3.073   2.233   2.109  0.1828  0.6918 -0.2846
  100TCq2    C4 1525   3.057   2.342   2.192  0.2604 -0.0903  0.1518
  100TCq2    C5 1526   2.938   2.369   2.252  0.1803  0.4542 -0.3920
  100TCq2    C6 1527   2.837   2.293   2.217 -0.4736  0.0045 -0.3962
  100TCq2    C7 1528   2.844   2.182   2.133  0.5549 -0.9558 -0.1780
  100TCq2    C8 1529   2.722   2.319   2.300  0.0516 -0.7177 -0.4664
  100TCq2    O4 1530   2.742   2.386   2.403  0.1587  0.4743  1.3591
  100TCq2    C9 1531   3.160   2.440   2.212  0.0059  0.5988  0.3976
  100TCq2    O5 1532   3.130   2.540   2.282 -0.5140 -0.0089 -0.1054
  100TCq2    O6 1533   3.283   2.407   2.195  0.6918 -0.1435  0.1043
  100TCq2    H2 1534   3.166   2.218   2.056  0.3999  0.7178  0.0928
  100TCq2    H3 1535   2.937   2.463   2.308 -2.2503 -0.3508  0.9250
  100TCq2    H4 1536   2.758   2.118   2.118  1.0038 -1.5579 -0.1693
  101MPD2     C 1537   3.169   4.201  12.961  0.7888  0.1490 -0.2112
  101MPD2    C1 1538   3.075   4.128  12.884 -1.6304 -0.1687  0.0910
  101MPD2    C2 1539   2.995   4.037  12.947  1.1146 -0.0453  0.0233
  101MPD2    C3 1540   3.008   4.011  13.084  0.1129  0.3768 -0.8465
  101MPD2    C4 1541   3.089   4.087  13.160  0.0668 -0.0371 -0.2894
  101MPD2    C5 1542   3.176   4.174  13.096  0.5157  0.2426 -0.1755
  101MPD2     H 1543   2.927   3.982  12.882  0.0246  2.1184 -0.6672
  101MPD2    H1 1544   3.102   4.079  13.268 -2.2195 -0.0249 -0.0145
  101MPD2    H2 1545   3.226   4.284  12.920  1.2091 -0.6011 -1.1463
  101MPD2    H3 1546   3.240   4.234  13.161  1.7574 -1.0883 -0.1611
  101MPD2     N 1547   2.930   3.919  13.161 -0.2598  0.0004 -0.1996
  101MPD2    H5 1548   2.932   3.922  13.262 -0.6304 -2.2340 -0.1106
  101MPD2    N1 1549   3.081   4.147  12.742  0.7189  0.7504  1.1402
  101MPD2    H7 1550   3.154   4.211  12.712  0.9539 -0.8592 -1.7340
  102TCq2    C1 1551   3.114   4.472  12.355 -0.3646  0.4294  0.3565
  102TCq2    O2 1552   3.169   4.533  12.451 -0.0742  0.3260  0.0413
  102TCq2    C2 1553   3.075   4.331  12.376  0.1010  0.0045 -0.3012
  102TCq2    C3 1554   3.028   4.257  12.269  0.2650 -0.3545 -0.2073
  102TCq2    C4 1555   2.986   4.126  12.283  0.5996 -0.5762  0.1141
  102TCq2    C5 1556   2.984   4.075  12.411  0.6877 -0.4884 -0.5834
  102TCq2    C6 1557   3.032   4.149  12.515 -0.3348  0.5537 -0.2471
  102TCq2    C7 1558   3.072   4.282  12.506 -0.1569  0.2036  0.5346
  102TCq2    C8 1559   3.003   4.099  12.647 -0.5897 -0.7790  0.4172
  102TCq2    O4 1560   2.915   4.016  12.648 -0.2171 -0.0902  0.2256
  102TCq2    C9 1561   2.957   4.053  12.167  0.3846 -0.5846 -0.0089
  102TCq2    O5 1562   2.951   3.927  12.179  0.5689 -0.0043  0.0396
  102TCq2    O6 1563   2.950   4.113  12.055  1.1322  0.4403  0.2973
  102TCq2    H2 1564   3.031   4.294  12.167 -1.4216  0.7970  0.1577
  102TCq2    H3 1565   2.942   3.974  12.411 -1.4109  0.3912  0.1813
  102TCq2    H4 1566   3.103   4.353  12.582 -1.7866  0.3512  1.0509
  103TMC2    C1 1567   1.303   3.982  13.034 -0.2242 -0.2891  0.3979
  103TMC2    C2 1568   1.343   3.877  13.122  0.4980  0.2522 -0.5985
  103TMC2    C3 1569   1.352   3.910  13.254 -0.0930 -0.0121  0.3468
  103TMC2    C4 1570   1.259   4.104  13.072 -0.4246  0.1831 -0.2981
  103TMC2    C5 1571   1.244   4.115  13.213 -0.2980 -0.0259  0.1381
  103TMC2    C6 1572   1.303   4.034  13.301  0.4644  0.2263 -0.5208
  103TMC2     C 1573   1.282   3.946  12.895  0.3578  0.3559  0.5884
  103TMC2     O 1574   1.206   4.016  12.831 -0.5350 -0.2430  0.4641
  103TMC2     H 1575   1.355   3.777  13.082 -1.7526 -0.6470  0.9829
  103TMC2    H1 1576   1.221   4.177  13.001  0.3527  1.0022  0.1315
  103TMC2    H2 1577   1.295   4.052  13.408  3.2169  0.9170 -0.4259
  103TMC2    C7 1578   1.180   4.230  13.267 -0.3637  0.7385  0.8652
  103TMC2    C8 1579   1.394   3.805  13.336  0.1565  0.4126 -0.5493
  103TMC2    O1 1580   1.221   4.280  13.370 -0.0561  0.3422  0.0772
  103TMC2    O2 1581   1.399   3.690  13.297 -0.0432 -0.1420  0.1692
  103TMC2    O5 1582   1.481   3.860  13.419  0.6759 -0.4822 -0.2507
  103TMC2    H5 1583   1.484   3.958  13.420 -0.7576 -0.4511  1.5531
  104MPD2     C 1584   1.401   3.655  12.715 -0.2592 -0.4335 -0.0811
  104MPD2    C1 1585   1.318   3.752  12.747  0.7736  0.7024  0.2702
  104MPD2    C2 1586   1.208   3.782  12.670 -0.0171 -0.3426  0.0284
  104MPD2    C3 1587   1.187   3.704  12.555 -0.5018 -0.2687 -0.3954
  104MPD2    C4 1588   1.295   3.621  12.513  0.3990 -0.3543  0.2472
  104MPD2    C5 1589   1.393   3.591  12.596  0.0440  0.4948  0.1801
  104MPD2     H 1590   1.135   3.860  12.689 -0.8348 -1.3176  0.8830
  104MPD2    H1 1591   1.304   3.575  12.415  1.4723 -0.8898  0.6012
  104MPD2    H2 1592   1.475   3.626  12.790 -0.2674  3.0622  1.2493
  104MPD2    H3 1593   1.471   3.522  12.567 -1.8078 -2.1118  1.4221
  104MPD2     N 1594   1.072   3.718  12.472 -0.1103 -0.3234  0.0261
  104MPD2    H5 1595   1.007   3.792  12.496 -0.9263 -0.4561 -1.8145
  104MPD2    N1 1596   1.352   3.833  12.856 -0.4724  0.1178 -0.4201
  104MPD2    H7 1597   1.436   3.813  12.909  0.0440 -0.1847 -1.3393
  105MPD2     C 1598   2.670   3.027   0.314  0.3843 -0.2688 -0.8724
  105MPD2    C1 1599   2.534   3.041   0.286 -0.2930 -0.3023 -0.4296
  105MPD2    C2 1600   2.445   3.030   0.386 -0.1585 -0.4299 -0.2610
  105MPD2    C3 1601   2.487   3.015   0.518  0.0539 -0.1742  0.8312
  105MPD2    C4 1602   2.625   3.004   0.541 -0.2812  0.9923 -0.7397
  105MPD2    C5 1603   2.718   3.005   0.440 -0.0483 -0.0697  0.1004
  105MPD2     H 1604   2.339   3.042   0.365  0.5223  1.8372 -2.4076
  105MPD2    H1 1605   2.674   2.992   0.637 -1.6496  0.0580 -0.1531
  105MPD2    H2 1606   2.747   3.048   0.241  0.6272 -1.1459 -0.8689
  105MPD2    H3 1607   2.826   3.012   0.455  0.2526  1.2741 -2.8360
  105MPD2     N 1608   2.385   3.014   0.618  0.2955 -0.6033 -0.0490
  105MPD2    H5 1609   2.291   3.029   0.583 -0.2733 -1.2742  1.1839
  105MPD2    N1 1610   2.479   3.070   0.157 -0.6828 -0.0264 -0.4783
  105MPD2    H7 1611   2.386   3.110   0.161 -1.3736 -1.9173  1.8167
  106TCq2    C1 1612   2.407   3.002   0.756 -0.2469  0.7774  0.2637
  106TCq2    O2 1613   2.507   2.968   0.814 -0.4817  0.0897  0.3571
  106TCq2    C2 1614   2.280   3.016   0.829 -0.7848  0.3179 -0.7428
  106TCq2    C3 1615   2.172   3.083   0.777  0.3975 -0.2464  0.2983
  106TCq2    C4 1616   2.045   3.052   0.829 -0.1438  0.1920  0.0925
  106TCq2    C5 1617   2.034   2.962   0.931  1.3200 -0.6888  0.6273
  106TCq2    C6 1618   2.147   2.900   0.975 -0.0588 -0.0845 -0.3354
  106TCq2    C7 1619   2.266   2.919   0.919 -0.6671 -0.2139 -0.0982
  106TCq2    C8 1620   2.146   2.816   1.098  0.7716  0.2924  0.2851
  106TCq2    O4 1621   2.250   2.748   1.116 -0.2241  0.5952  0.1652
  106TCq2    C9 1622   1.927   3.118   0.779  0.2591  0.4999  0.2814
  106TCq2    O5 1623   1.831   3.041   0.771 -0.5194 -0.1241 -0.2076
  106TCq2    O6 1624   1.948   3.219   0.708  0.3545 -0.5393  0.6716
  106TCq2    H2 1625   2.177   3.156   0.697  2.2094 -1.0035 -0.2699
  106TCq2    H3 1626   1.941   2.953   0.986  0.2063 -0.9029 -1.2851
  106TCq2    H4 1627   2.358   2.871   0.952 -1.6955 -0.8470  1.8569
  107TMC2    C1 1628   3.162   2.401  11.626 -0.3883 -0.4534  0.1438
  107TMC2    C2 1629   3.151   2.265  11.645 -0.0072 -0.0209 -0.1302
  107TMC2    C3 1630   3.172   2.184  11.535  0.2303  0.4913 -0.1035
  107TMC2    C4 1631   3.203   2.453  11.507 -0.2086 -0.1706 -0.6215
  107TMC2    C5 1632   3.236   2.369  11.403 -0.2320  0.9804  0.1351
  107TMC2    C6 1633   3.205   2.233  11.410  0.0295  0.3706  0.1388
  107TMC2     C 1634   3.119   2.483  11.734 -0.5489 -0.0232  0.8073
  107TMC2     O 1635   3.074   2.425  11.835 -0.5572  0.0983  0.4740
  107TMC2     H 1636   3.117   2.226  11.741  0.1407  1.8641  0.6776
  107TMC2    H1 1637   3.233   2.557  11.501 -1.6098  0.4849  3.8323
  107TMC2    H2 1638   3.227   2.165  11.328  0.4942 -0.4334  0.9424
  107TMC2    C7 1639   3.300   2.422  11.281  0.3593 -0.2820 -0.2944
  107TMC2    C8 1640   3.179   2.039  11.566 -0.4132  0.5940 -0.0189
  107TMC2    O1 1641   3.320   2.541  11.284  0.2046 -0.2822 -0.0494
  107TMC2    O2 1642   3.084   1.970  11.533 -0.3144  0.2088 -0.1032
  107TMC2    O5 1643   3.248   2.025  11.681 -0.1427  0.1776  0.2930
  107TMC2    H5 1644   3.322   2.087  11.701 -1.0853  0.9512  1.3307
  108MPD2     C 1645   2.974   2.813  11.704  0.2064 -0.1826 -0.4834
  108MPD2    C1 1646   3.014   2.695  11.768  0.1371  0.2490 -0.4338
  108MPD2    C2 1647   2.982   2.689  11.905  0.6033  0.6953  0.2712
  108MPD2    C3 1648   2.913   2.796  11.968  0.7634  0.0552  0.1947
  108MPD2    C4 1649   2.870   2.907  11.896  0.1669  0.5249  0.0614
  108MPD2    C5 1650   2.910   2.916  11.765  0.1606 -0.8087 -0.3412
  108MPD2     H 1651   3.013   2.604  11.965 -3.3755 -0.0965  1.1544
  108MPD2    H1 1652   2.812   2.983  11.945  0.6263  1.0731 -0.2315
  108MPD2    H2 1653   2.999   2.824  11.599 -0.3729  2.9553 -0.2855
  108MPD2    H3 1654   2.897   3.011  11.714  0.6357  0.0287  1.1067
  108MPD2     N 1655   2.873   2.794  12.109  0.1649 -0.1038  0.0098
  108MPD2    H5 1656   2.812   2.867  12.142  2.0585  1.0298  1.0115
  108MPD2    N1 1657   3.085   2.604  11.692  0.0951  0.9419  0.8960
  108MPD2    H7 1658   3.075   2.619  11.592 -2.8774 -0.1701  1.0422
  109MPD2     C 1659   3.408   3.683   2.753 -1.3738 -0.1178  0.6092
  109MPD2    C1 1660   3.388   3.779   2.663  1.0687  0.8157  0.6262
  109MPD2    C2 1661   3.393   3.918   2.689 -0.0340 -0.3248  0.6413
  109MPD2    C3 1662   3.398   3.956   2.819  0.2748 -0.2888 -0.1000
  109MPD2    C4 1663   3.430   3.856   2.913  0.0577 -0.1772  0.6459
  109MPD2    C5 1664   3.427   3.724   2.880 -0.1512 -0.2461 -0.3914
  109MPD2     H 1665   3.374   3.990   2.611 -1.0159 -0.5315  0.6888
  109MPD2    H1 1666   3.454   3.864   3.018  1.9258 -4.1818  0.4918
  109MPD2    H2 1667   3.418   3.576   2.733  0.9998  0.2614 -0.2026
  109MPD2    H3 1668   3.450   3.650   2.956 -0.0434 -1.1010 -1.2513
  109MPD2     N 1669   3.412   4.096   2.843 -0.0757 -0.3218  0.7849
  109MPD2    H5 1670   3.410   4.155   2.759 -1.6013  0.7080  1.5437
  109MPD2    N1 1671   3.360   3.724   2.533 -0.0852  0.2636  0.0568
  109MPD2    H7 1672   3.356   3.625   2.513  0.3293  0.3232 -0.3193
  110TCq2    C1 1673   3.431   4.159   2.964 -0.4702  0.4498 -0.5742
  110TCq2    O2 1674   3.454   4.109   3.070 -0.2268  0.2157  0.2873
  110TCq2    C2 1675   3.448   4.305   2.944  0.5502  0.0791 -0.0606
  110TCq2    C3 1676   3.442   4.378   3.064 -0.3151 -0.1146 -0.7392
  110TCq2    C4 1677   3.404   4.513   3.053 -0.0155  0.0624 -0.0211
  110TCq2    C5 1678   3.367   4.574   2.935  0.2746 -0.3215 -0.0571
  110TCq2    C6 1679   3.381   4.498   2.822 -0.2687  0.6210 -0.4136
  110TCq2    C7 1680   3.425   4.362   2.823  0.4760 -0.2625 -0.3980
  110TCq2    C8 1681   3.347   4.550   2.683 -0.6068  0.5628  0.7902
  110TCq2    O4 1682   3.391   4.492   2.583 -0.5165 -0.1102 -0.3484
  110TCq2    C9 1683   3.406   4.600   3.174  0.0123 -0.3630  0.6355
  110TCq2    O5 1684   3.391   0.006   3.157 -0.2543 -0.2846 -0.6732
  110TCq2    O6 1685   3.440   4.541   3.275  0.0230 -0.2258 -0.3043
  110TCq2    H2 1686   3.453   4.342   3.165  1.1086  1.9932 -0.1539
  110TCq2    H3 1687   3.347   4.680   2.930 -0.3772 -0.5394 -1.8656
  110TCq2    H4 1688   3.437   4.311   2.728 -0.8695  1.0286 -1.2724
  111TMC2    C1 1689   3.346   4.699  11.133 -0.0464  0.1683 -0.2056
  111TMC2    C2 1690   3.395   4.623  11.034  0.4596 -1.0991 -0.5929
  111TMC2    C3 1691   3.527   4.592  11.050  0.3610 -0.4966  0.0309
  111TMC2    C4 1692   3.420   0.032  11.231  0.2678 -0.7357 -0.4463
  111TMC2    C5 1693   3.559   4.719  11.240 -0.3498 -0.0232 -0.6478
  111TMC2    C6 1694   3.608   4.630  11.153  0.5421 -0.3873 -0.6889
  111TMC2     C 1695   3.205   0.007  11.126 -0.0542 -0.9050 -0.6490
  111TMC2     O 1696   3.168   0.036  11.016  0.0102  0.2072 -0.0712
  111TMC2     H 1697   3.342   4.585  10.947  1.1696  0.4166 -1.6768
  111TMC2    H1 1698   3.383   0.088  11.316  1.5669 -1.0300  0.3218
  111TMC2    H2 1699   3.715   4.610  11.153  0.4703 -0.7592  0.0871
  111TMC2    C7 1700   3.638   0.041  11.348  0.5582 -0.6480 -0.2900
  111TMC2    C8 1701   3.578   4.493  10.962 -0.2559 -0.2330 -0.6559
  111TMC2    O1 1702   3.578   0.108  11.432  0.3626 -0.0239 -0.6114
  111TMC2    O2 1703   3.699   4.472  10.967 -0.1148 -0.4125 -0.1789
  111TMC2    O5 1704   3.482   4.397  10.990  0.4190 -0.6863 -0.3898
  111TMC2    H5 1705   3.387   4.418  11.002  0.5067 -0.9079  0.6796
  112MPD2     C 1706   2.726   0.033  11.333 -0.0336 -0.4601 -0.2605
  112MPD2    C1 1707   2.771   0.063  11.201 -0.3229 -0.0717 -0.6079
  112MPD2    C2 1708   2.904   0.050  11.170  0.4602  0.2522  0.3836
  112MPD2    C3 1709   2.993   0.001  11.264  0.2682 -0.5913 -0.2045
  112MPD2    C4 1710   2.945   4.681  11.387 -0.1080 -0.3459 -0.8293
  112MPD2    C5 1711   2.817   4.714  11.432 -0.0333 -0.2120 -0.4046
  112MPD2     H 1712   2.944   0.069  11.071 -2.3451 -0.1195 -0.8093
  112MPD2    H1 1713   3.017   4.652  11.463  0.9820  2.5729 -0.7345
  112MPD2    H2 1714   2.623   0.032  11.364  0.2159  0.8636  0.6331
  112MPD2    H3 1715   2.793   4.707  11.537 -0.1558 -2.4877 -0.5908
  112MPD2     N 1716   3.131   4.708  11.245 -0.0747  0.1643 -0.3250
  112MPD2    H5 1717   3.177   4.683  11.332  2.3736  1.6427 -1.2110
  112MPD2    N1 1718   2.679   0.123  11.109 -0.2536 -0.4627  0.0274
  112MPD2    H7 1719   2.719   0.146  11.018 -2.8913 -1.9194 -1.4780
  113MPD2     C 1720   1.259   2.384   1.528 -0.1512 -0.2193 -0.9295
  113MPD2    C1 1721   1.167   2.435   1.619 -0.4999 -0.2432  0.5586
  113MPD2    C2 1722   1.031   2.406   1.605  0.0693  1.2016  0.5993
  113MPD2    C3 1723   0.991   2.321   1.501  0.4017 -0.0136  0.1865
  113MPD2    C4 1724   1.084   2.282   1.402 -0.3472  0.1685  0.2988
  113MPD2    C5 1725   1.215   2.316   1.420 -0.5921 -0.5145 -0.5033
  113MPD2     H 1726   0.958   2.433   1.680 -1.2082 -0.6851  0.0388
  113MPD2    H1 1727   1.056   2.225   1.314  2.3806 -0.1438 -0.3471
  113MPD2    H2 1728   1.367   2.387   1.537 -0.3487 -0.5041  1.4013
  113MPD2    H3 1729   1.288   2.287   1.345 -0.0149 -1.9971  0.6311
  113MPD2     N 1730   0.854   2.298   1.473 -0.5732  0.6028 -0.0631
  113MPD2    H5 1731   0.841   2.262   1.379  2.4663 -2.7891  0.7822
  113MPD2    N1 1732   1.209   2.488   1.742  0.0879 -0.1914 -0.3720
  113MPD2    H7 1733   1.133   2.515   1.803 -2.4509 -2.8670 -2.3463
  114TCq2    C1 1734   0.750   2.314   1.554  0.4072 -0.7572 -0.7778
  114TCq2    O2 1735   0.748   2.381   1.658  0.2994 -0.4192 -0.0326
  114TCq2    C2 1736   0.633   2.235   1.511 -0.2160 -0.1148  0.6146
  114TCq2    C3 1737   0.515   2.258   1.573  0.6176  0.7041  0.3021
  114TCq2    C4 1738   0.418   2.168   1.563  0.0295 -0.4106 -0.4574
  114TCq2    C5 1739   0.440   2.050   1.509 -0.6287  0.2956  0.7704
  114TCq2    C6 1740   0.558   2.025   1.451  0.5092 -0.3595  0.2819
  114TCq2    C7 1741   0.658   2.117   1.446  0.0486 -0.2979 -0.2378
  114TCq2    C8 1742   0.598   1.887   1.428 -0.2293 -0.3795  0.3222
  114TCq2    O4 1743   0.707   1.855   1.474  0.4204  0.1549  0.2179
  114TCq2    C9 1744   0.286   2.195   1.619 -0.0440 -0.0238 -0.3031
  114TCq2    O5 1745   0.184   2.133   1.582  0.0971  0.3476 -0.0875
  114TCq2    O6 1746   0.276   2.291   1.703 -0.1627 -0.4614 -0.5287
  114TCq2    H2 1747   0.491   2.352   1.620 -0.6469 -0.4835  2.0526
  114TCq2    H3 1748   0.361   1.976   1.507 -0.4385  0.1467 -0.8752
  114TCq2    H4 1749   0.748   2.095   1.390  0.3038  1.0628 -0.3548
  115TMC2    C1 1750   1.235   4.684   0.399 -0.3253 -1.0292 -0.6467
  115TMC2    C2 1751   1.370   4.655   0.407 -0.9363  0.9269 -0.1173
  115TMC2    C3 1752   1.458   0.038   0.416 -0.1314 -0.2575 -0.8314
  115TMC2    C4 1753   1.187   0.089   0.417  0.8798  0.1313 -0.0791
  115TMC2    C5 1754   1.283   0.184   0.447 -0.9750 -0.9276 -0.1422
  115TMC2    C6 1755   1.419   0.164   0.450  0.6945 -0.7836  0.4321
  115TMC2     C 1756   1.170   4.596   0.300 -0.9969  0.4184 -0.5085
  115TMC2     O 1757   1.236   4.528   0.220 -0.4711 -0.4844  1.0413
  115TMC2     H 1758   1.406   4.553   0.398  1.4155  1.5972  1.7513
  115TMC2    H1 1759   1.084   0.112   0.395  0.9134  0.6335  0.2777
  115TMC2    H2 1760   1.490   0.238   0.488 -1.2802 -0.0500  2.7010
  115TMC2    C7 1761   1.243   0.313   0.468  0.1438 -1.0274  0.5701
  115TMC2    C8 1762   1.586   4.719   0.470 -0.7060  0.4572  0.0290
  115TMC2    O1 1763   1.136   0.335   0.518  0.1484 -0.2970 -0.5979
  115TMC2    O2 1764   1.607   4.604   0.507 -0.2025  0.2249  0.4900
  115TMC2    O5 1765   1.666   0.067   0.381 -0.3672  0.1781  0.0773
  115TMC2    H5 1766   1.616   0.131   0.327  0.3943  0.7366  0.0358
  116MPD2     C 1767   0.737   4.409   0.099 -0.0506 -0.7566  0.2674
  116MPD2    C1 1768   0.861   4.436   0.040 -0.3809 -0.4061 -0.1359
  116MPD2    C2 1769   0.959   4.491   0.117 -0.1125  0.0477 -0.1852
  116MPD2    C3 1770   0.940   4.512   0.253  0.6166 -0.6167  0.5965
  116MPD2    C4 1771   0.818   4.478   0.318 -0.2381 -0.3551  0.1080
  116MPD2    C5 1772   0.715   4.434   0.231  0.0715  0.3564  0.6745
  116MPD2     H 1773   1.051   4.509   0.062 -0.1121 -0.9956 -0.5279
  116MPD2    H1 1774   0.794   4.501   0.422 -2.7446 -0.5544 -0.4239
  116MPD2    H2 1775   0.658   4.359   0.043 -0.6792  1.5996 -0.9379
  116MPD2    H3 1776   0.620   4.426   0.282  0.5423  0.7576  1.6213
  116MPD2     N 1777   1.042   4.577   0.328 -0.7963 -0.1801  0.1169
  116MPD2    H5 1778   1.004   4.601   0.419  0.6026  1.0348  0.3885
  116MPD2    N1 1779   0.899   4.393  17.602  0.5463 -0.3005 -0.3132
  116MPD2    H7 1780   0.993   4.413  17.571  1.8171 -2.0074  2.4499
  117TMC2    C1 1781   0.420   1.700  14.277  0.3373 -0.8128  0.9734
  117TMC2    C2 1782   0.521   1.627  14.229  0.3926  0.1014 -0.0892
  117TMC2    C3 1783   0.648   1.674  14.255 -0.4747  0.3583  0.1845
  117TMC2    C4 1784   0.431   1.826  14.340 -0.1473 -0.0913 -0.3299
  117TMC2    C5 1785   0.564   1.871  14.360 -0.4942 -0.4401 -0.4155
  117TMC2    C6 1786   0.670   1.792  14.321  0.3525  0.1361  0.8643
  117TMC2     C 1787   0.290   1.628  14.269 -0.0348  0.2575 -0.3830
  117TMC2     O 1788   0.292   1.506  14.260 -0.0106  0.4248  0.0893
  117TMC2     H 1789   0.497   1.533  14.180 -0.1514  0.7355 -1.0321
  117TMC2    H1 1790   0.347   1.880  14.381 -1.6966 -2.1163 -0.8455
  117TMC2    H2 1791   0.775   1.814  14.332  0.8713 -0.7332 -2.3992
  117TMC2    C7 1792   0.586   2.008  14.413 -1.0606 -0.4825  0.0229
  117TMC2    C8 1793   0.768   1.605  14.213  0.3175  0.3197 -0.1136
  117TMC2    O1 1794   0.697   2.049  14.427  1.2268  0.3183 -1.1533
  117TMC2    O2 1795   0.876   1.637  14.259  0.0347 -0.4522  0.0242
  117TMC2    O5 1796   0.746   1.493  14.135 -0.2367  0.4252 -0.2298
  117TMC2    H5 1797   0.653   1.497  14.103 -0.4449  1.3322  0.4910
  118MPD2     C 1798   0.355   2.278  14.498  0.2501 -0.1138 -0.0329
  118MPD2    C1 1799   0.472   2.221  14.457  0.2943  0.5500 -0.7377
  118MPD2    C2 1800   0.572   2.305  14.416 -0.4717  0.1132 -0.4586
  118MPD2    C3 1801   0.560   2.443  14.427 -0.4125  0.1831  0.2359
  118MPD2    C4 1802   0.440   2.498  14.459  0.0589 -0.0408 -0.3283
  118MPD2    C5 1803   0.343   2.413  14.498 -0.4653  0.2795 -0.4591
  118MPD2     H 1804   0.654   2.261  14.361 -0.3777  0.1166 -0.3214
  118MPD2    H1 1805   0.420   2.605  14.454  0.0750 -0.0100  0.2366
  118MPD2    H2 1806   0.270   2.216  14.524  0.0068 -0.4342 -1.6383
  118MPD2    H3 1807   0.251   2.453  14.540 -0.7336  1.4324 -2.1441
  118MPD2     N 1808   0.662   2.533  14.377 -0.2969  0.1245  0.7492
  118MPD2    H5 1809   0.643   2.632  14.383  1.4381  0.5228 -0.2354
  118MPD2    N1 1810   0.470   2.078  14.439  0.5927 -0.3534  0.4793
  118MPD2    H7 1811   0.376   2.041  14.447 -0.3323  1.6047 -1.3930
  119MPD2     C 1812   3.721   3.447  13.836  0.3973 -0.9490 -0.2882
  119MPD2    C1 1813   3.584   3.485  13.831 -0.0165 -0.1851  0.6628
  119MPD2    C2 1814   3.518   3.498  13.713  0.2546  0.2370 -0.4737
  119MPD2    C3 1815   3.584   3.477  13.591  0.0659  0.1306 -0.8945
  119MPD2    C4 1816   3.716   3.440  13.602  0.2575 -0.0836 -0.8896
  119MPD2    C5 1817   3.783   3.415  13.717 -0.1248  0.3210  0.2068
  119MPD2     H 1818   3.412   3.521  13.726  0.4743  0.3775  1.0692
  119MPD2    H1 1819   3.770   3.432  13.508  0.0924 -1.3393 -0.8776
  119MPD2    H2 1820   3.771   3.432  13.931 -0.0580  0.0810  0.1145
  119MPD2    H3 1821   3.889   3.394  13.719  0.3448  2.6609  0.4493
  119MPD2     N 1822   3.529   3.492  13.465  0.2920  0.4718 -0.4879
  119MPD2    H5 1823   3.579   3.462  13.382 -0.6816 -1.1784 -0.4642
  119MPD2    N1 1824   3.526   3.508  13.955 -0.4321 -0.2283 -0.0403
  119MPD2    H7 1825   3.580   3.481  14.037 -0.6402  0.7680  0.4260
  120TCq2    C1 1826   3.407   3.553  13.447 -0.0546  0.1851  0.1529
  120TCq2    O2 1827   3.334   3.608  13.530  0.5620 -0.1441  0.7354
  120TCq2    C2 1828   3.348   3.511  13.322 -0.2314 -0.0796 -0.1642
  120TCq2    C3 1829   3.424   3.456  13.226 -0.1904 -0.2650  0.5856
  120TCq2    C4 1830   3.363   3.373  13.134  0.0922  0.1875 -0.1217
  120TCq2    C5 1831   3.230   3.343  13.139  0.6008 -0.3977 -0.3238
  120TCq2    C6 1832   3.154   3.410  13.229 -0.0865 -0.0389  0.6713
  120TCq2    C7 1833   3.212   3.497  13.318 -0.7730 -0.8963 -0.0991
  120TCq2    C8 1834   3.024   3.354  13.248  0.0463  0.1126  0.7445
  120TCq2    O4 1835   2.950   3.325  13.154  0.1736  0.1400  0.8557
  120TCq2    C9 1836   3.448   3.310  13.036 -0.3675 -0.4550 -0.2485
  120TCq2    O5 1837   3.395   3.225  12.956  0.1599 -0.3936  0.0658
  120TCq2    O6 1838   3.571   3.303  13.064 -0.6643  0.1666 -0.2682
  120TCq2    H2 1839   3.532   3.466  13.223 -0.1806 -1.5433 -3.1588
  120TCq2    H3 1840   3.172   3.278  13.074  1.1713 -1.3300  0.0997
  120TCq2    H4 1841   3.158   3.532  13.406  1.9390 -1.2962  1.7403
  121TMC2    C1 1842   0.142   0.363  14.626  0.6171  0.1287  0.5066
  121TMC2    C2 1843   0.158   0.298  14.746  0.5942 -0.3087  0.4785
  121TMC2    C3 1844   0.091   0.178  14.757 -0.9399  0.0444 -0.0760
  121TMC2    C4 1845   0.075   0.305  14.523 -0.3673  0.2572 -0.2062
  121TMC2    C5 1846   0.005   0.191  14.543  0.2268 -0.0735  0.2317
  121TMC2    C6 1847   0.019   0.118  14.658 -0.3326  0.4279 -0.0247
  121TMC2     C 1848   0.246   0.459  14.586  0.3093  0.2886 -0.2599
  121TMC2     O 1849   0.300   0.523  14.673 -0.5366 -0.2637 -0.3996
  121TMC2     H 1850   0.202   0.360  14.824 -0.1572  0.7866  0.0370
  121TMC2    H1 1851   0.051   0.369  14.439 -2.2889  0.9382  0.8482
  121TMC2    H2 1852   4.698   0.018  14.669  0.0012  0.1964 -0.8581
  121TMC2    C7 1853   4.606   0.175  14.469 -0.0971 -0.0556  0.2327
  121TMC2    C8 1854   0.083   0.119  14.888  0.3121  0.0914  0.7949
  121TMC2    O1 1855   4.563   0.278  14.412 -0.0543  0.3762  0.3105
  121TMC2    O2 1856   4.714   0.044  14.929  0.0756  0.7252  0.0995
  121TMC2    O5 1857   0.215   0.112  14.920 -0.8730  0.4192  0.1941
  121TMC2    H5 1858   0.263   0.145  14.840  0.8357  0.2380  1.1468
  122MPD2     C 1859   0.495   0.570  14.450  0.3371  0.1354  0.1224
  122MPD2    C1 1860   0.384   0.517  14.384  0.4000 -0.3430 -0.1817
  122MPD2    C2 1861   0.391   0.518  14.244  0.1380  0.4876 -0.3287
  122MPD2    C3 1862   0.510   0.556  14.173 -0.9695 -0.4471 -0.4254
  122MPD2    C4 1863   0.621   0.590  14.246 -0.2318 -0.0027 -0.4321
  122MPD2    C5 1864   0.608   0.605  14.384 -0.2923 -0.2903 -0.2338
  122MPD2     H 1865   0.304   0.478  14.194  0.8055 -0.7241 -0.5108
  122MPD2    H1 1866   0.708   0.638  14.201  2.1205  0.3464  4.5024
  122MPD2    H2 1867   0.486   0.576  14.558 -0.6472 -1.3860  0.1321
  122MPD2    H3 1868   0.695   0.643  14.437 -0.8130  1.1572 -0.4175
  122MPD2     N 1869   0.522   0.550  14.033  0.1978  0.2503  0.1681
  122MPD2    H5 1870   0.617   0.562  13.998  0.1126 -1.5123 -0.6653
  122MPD2    N1 1871   0.267   0.468  14.448 -0.4310  0.4945 -0.3818
  122MPD2    H7 1872   0.201   0.414  14.392 -0.8684  0.3740  0.2518
  123MPD2     C 1873   2.155   2.087   9.355 -0.3707 -0.7386 -0.0819
  123MPD2    C1 1874   2.157   2.221   9.335 -0.1370  0.3952  1.4619
  123MPD2    C2 1875   2.265   2.279   9.260 -0.0202  0.3690 -0.3598
  123MPD2    C3 1876   2.372   2.201   9.214 -1.0046  0.7041  0.2966
  123MPD2    C4 1877   2.362   2.063   9.234  0.2227 -0.3855  0.5863
  123MPD2    C5 1878   2.254   2.011   9.309 -0.0868 -1.1949  0.4308
  123MPD2     H 1879   2.270   2.387   9.252  1.9240  0.2526 -0.7147
  123MPD2    H1 1880   2.447   2.000   9.209 -0.5749 -0.4810 -1.8970
  123MPD2    H2 1881   2.073   2.043   9.410  0.3105 -0.8570  0.8346
  123MPD2    H3 1882   2.247   1.903   9.313 -1.5707 -1.0960  0.3716
  123MPD2     N 1883   2.484   2.265   9.160  0.9267 -0.3998  0.2407
  123MPD2    H5 1884   2.493   2.363   9.183 -0.3252  0.4980 -3.1842
  123MPD2    N1 1885   2.063   2.305   9.390 -0.0448 -0.0735 -0.8620
  123MPD2    H7 1886   1.984   2.263   9.439  0.0250  0.4282 -0.3291
  124TCq2    C1 1887   2.576   2.205   9.077 -0.3914 -1.0794 -0.1966
  124TCq2    O2 1888   2.569   2.098   9.018 -0.1655  0.1285 -0.9557
  124TCq2    C2 1889   2.685   2.295   9.030  0.4963  0.4228  0.3785
  124TCq2    C3 1890   2.725   2.294   8.902  0.5874  0.2088  0.1181
  124TCq2    C4 1891   2.845   2.361   8.867 -0.1749  0.0248  0.1584
  124TCq2    C5 1892   2.917   2.418   8.966  0.7172 -0.1184 -0.5867
  124TCq2    C6 1893   2.873   2.415   9.101  0.6903 -0.1220  0.1566
  124TCq2    C7 1894   2.753   2.363   9.132 -0.3541  0.6747 -0.2251
  124TCq2    C8 1895   2.968   2.418   9.210  0.5731 -0.0650 -0.5617
  124TCq2    O4 1896   2.938   2.354   9.312  0.3907  0.2757 -0.1641
  124TCq2    C9 1897   2.883   2.373   8.728  0.9622  0.9537 -0.4325
  124TCq2    O5 1898   2.970   2.461   8.711  0.3801 -0.6001  0.1449
  124TCq2    O6 1899   2.793   2.347   8.642  0.4942 -0.7444 -0.5243
  124TCq2    H2 1900   2.669   2.248   8.821  0.2503 -0.3274  0.6592
  124TCq2    H3 1901   2.998   2.482   8.932 -1.3622  1.7039 -2.0604
  124TCq2    H4 1902   2.727   2.358   9.237 -1.7794 -1.0182 -0.6635
  125TMC2    C1 1903   3.539   0.954   9.570  0.9009 -0.5310 -1.1280
  125TMC2    C2 1904   3.478   0.985   9.451 -0.3720 -0.5143 -0.2732
  125TMC2    C3 1905   3.416   0.884   9.381  0.5578 -0.9068  0.0731
  125TMC2    C4 1906   3.528   0.827   9.627  0.6583 -0.2441  0.3206
  125TMC2    C5 1907   3.445   0.734   9.561 -0.3224  0.6061 -0.0020
  125TMC2    C6 1908   3.389   0.758   9.431 -0.9100  0.1181 -0.0356
  125TMC2     C 1909   3.645   1.048   9.613 -0.7769 -0.6291 -1.0026
  125TMC2     O 1910   3.639   1.167   9.580 -0.3867  0.0762 -0.6393
  125TMC2     H 1911   3.499   1.081   9.406 -2.8836  1.1670  2.1603
  125TMC2    H1 1912   3.571   0.805   9.724  2.4407 -0.4317 -0.5091
  125TMC2    H2 1913   3.338   0.687   9.367 -0.6381 -1.7512  1.7925
  125TMC2    C7 1914   3.394   0.623   9.634 -0.1384  0.1075  0.2822
  125TMC2    C8 1915   3.371   0.912   9.246 -0.0853 -0.6322 -0.1844
  125TMC2    O1 1916   3.302   0.566   9.579 -0.0621  0.0644  0.3213
  125TMC2    O2 1917   3.368   1.024   9.199 -0.0580 -0.1353 -0.7968
  125TMC2    O5 1918   3.433   0.817   9.176  0.0331  0.3583 -0.4490
  125TMC2    H5 1919   3.444   0.737   9.231  1.7250  1.0898  0.2875
  126MPD1     C 1920   4.108   1.147   9.803  0.0732 -0.0524  0.6324
  126MPD1    C1 1921   4.093   1.014   9.804  0.2992 -0.3201 -0.4938
  126MPD1    C2 1922   3.969   0.968   9.759 -0.3309  0.0361  0.0051
  126MPD1    C3 1923   3.863   1.045   9.720 -0.7652  0.3004 -0.3591
  126MPD1    C4 1924   3.876   1.181   9.730 -0.0708  0.0149 -0.5209
  126MPD1    C5 1925   4.000   1.235   9.775  0.4394 -0.2910 -0.4699
  126MPD1     H 1926   3.947   0.862   9.756  0.4323 -0.1383  0.3796
  126MPD1    H1 1927   3.805   1.260   9.709 -0.2240  0.2672  0.9094
  126MPD1    H2 1928   4.205   1.192   9.822  1.4802 -3.4323  1.3339
  126MPD1    H3 1929   4.008   1.343   9.771  1.2301 -0.3331  0.0504
  126MPD1     N 1930   3.747   0.979   9.673  0.1459  0.1871 -0.8719
  126MPD1    H5 1931   3.746   0.879   9.656 -0.0194  0.4374 -2.3394
  126MPD1    N1 1932   4.203   0.929   9.788 -0.1419 -0.0212  0.0220
  126MPD1    H6 1933   4.179   0.834   9.815 -1.2790  0.4381  0.6205
  126MPD1    H7 1934   4.280   0.959   9.848 -0.8593  1.0233  0.4186
  127MPD2     C 1935   4.710   3.814   9.833 -0.2143 -0.2250 -0.5070
  127MPD2    C1 1936   0.041   3.785   9.954  0.2614  0.4993 -0.0977
  127MPD2    C2 1937   0.110   3.878  10.023  0.1230 -0.4523 -0.0228
  127MPD2    C3 1938   0.130   4.005   9.963 -0.0069 -0.4504 -0.4433
  127MPD2    C4 1939   0.066   4.039   9.847  0.1923  0.4183  1.3477
  127MPD2    C5 1940   0.001   3.941   9.777  0.2445 -0.4621  0.2509
  127MPD2     H 1941   0.162   3.859  10.116  1.0414  0.8865 -0.2586
  127MPD2    H1 1942   0.079   4.137   9.801  0.1956 -0.3983 -0.3805
  127MPD2    H2 1943   4.658   3.741   9.772 -1.1588  0.7059 -0.8108
  127MPD2    H3 1944   4.670   3.959   9.683 -0.5115 -0.0390  0.7588
  127MPD2     N 1945   0.188   4.103  10.050  0.0365 -0.8000  0.3444
  127MPD2    H5 1946   0.237   4.067  10.132  0.3237  0.2657  0.6337
  127MPD2    N1 1947   0.028   3.647   9.985 -0.5228 -0.0868  0.3761
  127MPD2    H7 1948   4.705   3.584   9.919 -2.3744  0.4155  1.1082
  128TCq2    C1 1949   0.073   3.590  10.102  0.7689 -0.2281  0.4796
  128TCq2    O2 1950   0.137   3.634  10.199  0.1225  0.6533  0.0323
  128TCq2    C2 1951   0.026   3.451  10.125  0.9554  0.1339 -0.0042
  128TCq2    C3 1952   0.071   3.383  10.234 -0.6465  0.3040 -0.2313
  128TCq2    C4 1953   0.009   3.263  10.263  0.2584 -0.3523 -0.4454
  128TCq2    C5 1954   4.612   3.223  10.196  0.1883  0.1504  0.2815
  128TCq2    C6 1955   4.562   3.302  10.099  0.2767 -0.1281 -0.0330
  128TCq2    C7 1956   4.629   3.415  10.064  0.6426  0.3606 -0.3449
  128TCq2    C8 1957   4.454   3.249  10.015 -0.0479 -0.2909  0.8331
  128TCq2    O4 1958   4.435   3.303   9.906 -0.3255  0.1746 -0.0385
  128TCq2    C9 1959   0.048   3.191  10.380  0.1425  0.1847 -0.0708
  128TCq2    O5 1960   0.147   3.237  10.438 -0.0732  0.3990 -0.3019
  128TCq2    O6 1961   0.012   3.073  10.386  0.0101  0.2879  0.0148
  128TCq2    H2 1962   0.168   3.391  10.283 -1.4803  1.9505  1.1396
  128TCq2    H3 1963   4.562   3.137  10.238 -1.9120  0.4583 -1.5749
  128TCq2    H4 1964   4.590   3.474   9.981  1.8891 -0.1603 -1.2921
  129MPD2     C 1965   4.705   4.045   1.406  0.2350 -0.4972  0.3749
  129MPD2    C1 1966   4.596   4.117   1.445 -0.1382  0.0075  0.5461
  129MPD2    C2 1967   4.582   4.246   1.399 -0.6506  0.3618  0.7569
  129MPD2    C3 1968   4.681   4.310   1.331  0.0158  0.7045  0.0005
  129MPD2    C4 1969   0.073   4.245   1.297 -0.3122  0.5634  0.0628
  129MPD2    C5 1970   0.077   4.110   1.325  0.3699 -0.3050 -0.0910
  129MPD2     H 1971   4.501   4.312   1.427 -3.0101 -2.0346 -0.3198
  129MPD2    H1 1972   0.154   4.278   1.234  1.2142 -0.5781  1.4418
  129MPD2    H2 1973   4.713   3.938   1.419 -0.7011 -0.4224  1.6035
  129MPD2    H3 1974   0.152   4.050   1.276  2.7690  1.0223  1.9801
  129MPD2     N 1975   4.653   4.442   1.290 -0.0498 -0.2441 -0.8977
  129MPD2    H5 1976   4.561   4.480   1.304  0.9194  1.9547 -0.4908
  129MPD2    N1 1977   4.496   4.067   1.532  0.2772 -0.0608 -0.0359
  129MPD2    H7 1978   4.421   4.132   1.554 -0.2726  0.2938 -2.9382
  130TCq2    C1 1979   4.481   3.941   1.572 -0.5985 -0.1228  0.2375
  130TCq2    O2 1980   4.543   3.842   1.535 -0.1053 -0.0784 -0.0904
  130TCq2    C2 1981   4.363   3.927   1.657 -0.1201  0.0783 -0.0344
  130TCq2    C3 1982   4.333   4.026   1.751 -0.3732  0.4392  0.3580
  130TCq2    C4 1983   4.215   3.999   1.820 -0.3551  0.1319  0.0448
  130TCq2    C5 1984   4.135   3.895   1.798 -0.1307 -0.8041  0.0920
  130TCq2    C6 1985   4.174   3.798   1.706  0.6063 -0.5326 -0.3520
  130TCq2    C7 1986   4.292   3.808   1.644  0.0192  0.1525 -0.4225
  130TCq2    C8 1987   4.102   3.672   1.705 -0.1806  0.5095 -1.2224
  130TCq2    O4 1988   3.996   3.674   1.761  0.7468  0.1948 -0.1958
  130TCq2    C9 1989   4.190   4.086   1.936 -0.8822 -0.2789 -0.2871
  130TCq2    O5 1990   4.075   4.088   1.986 -0.1465  0.2181  0.0617
  130TCq2    O6 1991   4.291   4.134   1.988  0.1564  0.2960 -0.5423
  130TCq2    H2 1992   4.396   4.112   1.768  1.9311 -1.6231  2.2018
  130TCq2    H3 1993   4.045   3.887   1.858  1.2465 -0.3772  2.2237
  130TCq2    H4 1994   4.327   3.731   1.577  1.0884  0.3297 -0.0770
  131MPD2     C 1995   1.885   3.296   9.377  0.4484  0.5843 -0.8017
  131MPD2    C1 1996   2.004   3.229   9.402  0.4704 -0.2096 -0.4426
  131MPD2    C2 1997   2.000   3.091   9.432  0.2665  0.2205  0.0355
  131MPD2    C3 1998   1.879   3.024   9.440 -0.1355  0.4643  0.4024
  131MPD2    C4 1999   1.764   3.097   9.430 -0.9727 -0.0383 -0.3967
  131MPD2    C5 2000   1.769   3.228   9.385  0.3596  0.2945 -0.0583
  131MPD2     H 2001   2.091   3.032   9.438 -0.4814 -1.2877 -3.3554
  131MPD2    H1 2002   1.670   3.049   9.409 -0.2826 -1.3640 -0.4675
  131MPD2    H2 2003   1.893   3.402   9.357 -1.5891  1.1414  1.3429
  131MPD2    H3 2004   1.677   3.280   9.365  1.1207  2.1490  1.2794
  131MPD2     N 2005   1.877   2.891   9.470  0.3541  0.1484  0.7993
  131MPD2    H5 2006   1.969   2.849   9.482  1.0641  1.5977  0.3457
  131MPD2    N1 2007   2.115   3.306   9.431  0.1802 -0.4404 -0.1906
  131MPD2    H7 2008   2.110   3.407   9.429  0.4892 -0.4018  0.7444
  132TCq2    C1 2009   2.635   3.418   9.647  0.8971  0.0354  0.1391
  132TCq2    O2 2010   2.642   3.306   9.692  0.4806  0.4501  0.4292
  132TCq2    C2 2011   2.520   3.446   9.569 -0.2630 -0.2893  0.5092
  132TCq2    C3 2012   2.510   3.570   9.499  0.1330  0.6368  0.2744
  132TCq2    C4 2013   2.402   3.594   9.422  0.0765  0.2223  0.0791
  132TCq2    C5 2014   2.312   3.494   9.416  0.1505 -1.0227 -0.0472
  132TCq2    C6 2015   2.327   3.372   9.477 -0.5779  0.0532 -0.2995
  132TCq2    C7 2016   2.431   3.345   9.555 -0.0431 -0.7545 -0.5067
  132TCq2    C8 2017   2.236   3.258   9.454  0.5889  0.1131  0.2867
  132TCq2    O4 2018   2.282   3.149   9.472  0.4574  0.4839 -0.4812
  132TCq2    C9 2019   2.385   3.720   9.355  0.3055 -0.3243  0.1850
  132TCq2    O5 2020   2.272   3.744   9.308 -0.3910 -0.0532 -0.2442
  132TCq2    O6 2021   2.480   3.802   9.362  0.2666  0.3458 -0.0639
  132TCq2    H2 2022   2.576   3.655   9.503  0.6032  0.2794  0.0985
  132TCq2    H3 2023   2.226   3.514   9.355  2.2134  0.7659 -2.3583
  132TCq2    H4 2024   2.444   3.251   9.607  1.5743 -0.7673 -0.9081
  133MPD2     C 2025   2.969   0.515   9.636  0.4726  0.6507  0.2879
  133MPD2    C1 2026   2.961   0.400   9.564  0.1751 -0.0549  0.5695
  133MPD2    C2 2027   2.839   0.326   9.558 -0.0770  0.3385 -0.4867
  133MPD2    C3 2028   2.735   0.359   9.642  0.6216  0.7522  0.6903
  133MPD2    C4 2029   2.744   0.472   9.726 -0.7136 -0.6942 -0.1976
  133MPD2    C5 2030   2.863   0.546   9.722 -0.5133 -0.5869  0.4757
  133MPD2     H 2031   2.834   0.252   9.478  2.3486 -2.5291  2.0446
  133MPD2    H1 2032   2.666   0.511   9.791 -0.6669 -1.1996  0.1662
  133MPD2    H2 2033   3.053   0.583   9.635  1.7907 -0.9901 -0.4677
  133MPD2    H3 2034   2.872   0.630   9.790  4.6257 -0.7308 -0.0614
  133MPD2     N 2035   2.607   0.294   9.634  0.2618 -0.6974  0.5917
  133MPD2    H5 2036   2.541   0.323   9.705  0.5533  2.0837 -0.2651
  133MPD2    N1 2037   3.075   0.366   9.487  0.6416  0.1252  0.1009
  133MPD2    H7 2038   3.164   0.416   9.489 -0.4901  2.3274 -4.7226
  134TCq2    C1 2039   3.098   0.251   9.415 -0.6178  0.9745 -0.2555
  134TCq2    O2 2040   3.027   0.152   9.414  0.0217 -0.2486 -0.1974
  134TCq2    C2 2041   3.231   0.236   9.355  0.0507 -0.2793  0.5460
  134TCq2    C3 2042   3.317   0.342   9.329  0.1030 -0.3284 -0.3622
  134TCq2    C4 2043   3.440   0.318   9.268  0.2572 -0.2831  0.5693
  134TCq2    C5 2044   3.484   0.187   9.242  0.2816 -0.1854  0.9385
  134TCq2    C6 2045   3.391   0.082   9.259  0.1719 -0.4032 -0.1141
  134TCq2    C7 2046   3.267   0.104   9.311  0.7557  0.0869  0.0891
  134TCq2    C8 2047   3.423   4.658   9.254  0.3129  0.5097  0.0942
  134TCq2    O4 2048   3.517   4.631   9.179  0.3926 -0.1738  0.1754
  134TCq2    C9 2049   3.529   0.422   9.225 -0.2031 -0.0155  0.4990
  134TCq2    O5 2050   3.489   0.540   9.228 -0.6069 -0.3652 -0.2486
  134TCq2    O6 2051   3.643   0.389   9.179  0.1575 -0.0925 -0.0320
  134TCq2    H2 2052   3.296   0.447   9.345  2.2347  0.0178  0.0341
  134TCq2    H3 2053   3.580   0.169   9.196 -0.1047  0.0875  0.0382
  134TCq2    H4 2054   3.186   0.034   9.300  0.8321  0.2014 -1.2505
  135MPD2     C 2055   4.231   1.077  10.223 -0.2605  0.0240  0.0122
  135MPD2    C1 2056   4.124   1.015  10.167  0.3349  0.2767  0.2458
  135MPD2    C2 2057   4.123   0.893  10.103 -0.0601 -0.5792  0.2353
  135MPD2    C3 2058   4.246   0.831  10.095  0.4641  0.0721 -0.4146
  135MPD2    C4 2059   4.363   0.888  10.152 -0.6764  0.6168 -0.2771
  135MPD2    C5 2060   4.349   1.009  10.223  0.5934 -0.4379 -0.0694
  135MPD2     H 2061   4.033   0.845  10.066  0.1553 -0.1347 -0.8840
  135MPD2    H1 2062   4.456   0.831  10.154 -1.3277 -0.4695 -1.1338
  135MPD2    H2 2063   4.225   1.173  10.273 -0.3103  0.6885 -1.2662
  135MPD2    H3 2064   4.436   1.052  10.270 -0.6989 -0.0687  1.9712
  135MPD2     N 2065   4.260   0.701  10.031 -1.0986 -0.6557  0.0518
  135MPD2    H5 2066   4.353   0.660  10.039  0.0088  2.1114  1.0437
  135MPD2    N1 2067   4.000   1.079  10.166  0.6345 -0.2000 -0.2048
  135MPD2    H7 2068   3.932   1.040  10.101  0.4625 -1.8992  0.9952
  136TCq2    C1 2069   3.966   1.182  10.251  0.2292 -0.0736 -0.0992
  136TCq2    O2 2070   4.010   1.230  10.353  0.1411  0.1319  0.6053
  136TCq2    C2 2071   3.874   1.269  10.182 -0.1378 -0.6667  0.1730
  136TCq2    C3 2072   3.878   1.404  10.217  0.2547  0.1752 -0.5376
  136TCq2    C4 2073   3.792   1.485  10.145  0.2510  0.7761 -0.3480
  136TCq2    C5 2074   3.697   1.431  10.058  0.4890  0.7493  0.7666
  136TCq2    C6 2075   3.703   1.298  10.026  0.0445  0.2456  0.6184
  136TCq2    C7 2076   3.786   1.212  10.096 -0.3689  0.0344 -0.1880
  136TCq2    C8 2077   3.593   1.242   9.937  0.1954 -0.3719  0.1620
  136TCq2    O4 2078   3.546   1.320   9.850  0.1166  0.2431  0.5682
  136TCq2    C9 2079   3.783   1.633  10.180 -0.3148  0.3584 -0.0190
  136TCq2    O5 2080   3.869   1.679  10.254  0.0076 -0.8993 -0.4846
  136TCq2    O6 2081   3.719   1.703  10.095  0.2071  0.6489 -0.3475
  136TCq2    H2 2082   3.937   1.443  10.298  0.9341 -0.3230 -0.7971
  136TCq2    H3 2083   3.636   1.501  10.002  2.6635  1.9641 -0.1259
  136TCq2    H4 2084   3.789   1.105  10.079 -0.1937 -0.2565  1.5992
  137MPD2     C 2085   4.495   4.127  10.741  0.3002 -0.9660  0.4192
  137MPD2    C1 2086   4.381   4.136  10.656 -0.2804 -0.1627 -0.5751
  137MPD2    C2 2087   4.342   4.256  10.605 -0.2432  0.4803 -0.0190
  137MPD2    C3 2088   4.407   4.377  10.639  0.1198 -0.8990 -0.5469
  137MPD2    C4 2089   4.520   4.366  10.719 -0.2958 -0.1114  0.4882
  137MPD2    C5 2090   4.566   4.242  10.763  0.1336  0.2002 -0.4731
  137MPD2     H 2091   4.257   4.257  10.537 -2.1071  4.1611  2.3045
  137MPD2    H1 2092   4.571   4.449  10.766 -2.1151  1.1641  0.1958
  137MPD2    H2 2093   4.546   4.034  10.764 -0.5387 -1.1117  1.6813
  137MPD2    H3 2094   4.657   4.217  10.816  0.2214 -2.9822 -2.1174
  137MPD2     N 2095   4.355   4.504  10.600 -0.3486  0.1440 -0.5565
  137MPD2    H5 2096   4.277   4.499  10.534 -0.3003  0.8410 -0.6615
  137MPD2    N1 2097   4.307   4.028  10.602  0.2234 -0.4606  0.2322
  137MPD2    H7 2098   4.224   4.049  10.547  1.5360  1.3396 -1.0344
  138TCq2    C1 2099   4.335   3.895  10.621 -0.2931 -0.8215  0.0155
  138TCq2    O2 2100   4.415   3.842  10.699  0.0738 -0.5604 -0.1998
  138TCq2    C2 2101   4.272   3.812  10.518 -0.3010 -0.3765  0.3304
  138TCq2    C3 2102   4.183   3.724  10.565  0.9838  0.3474 -0.2279
  138TCq2    C4 2103   4.076   3.683  10.484 -0.3525 -0.2589  0.3234
  138TCq2    C5 2104   4.054   3.747  10.363 -0.0660  0.3710  0.6640
  138TCq2    C6 2105   4.148   3.837  10.319  0.3052  0.1942 -0.4838
  138TCq2    C7 2106   4.256   3.868  10.399  0.5485  0.1583 -0.1938
  138TCq2    C8 2107   4.121   3.927  10.218 -0.5173  0.9292 -0.3755
  138TCq2    O4 2108   4.201   3.998  10.161 -0.3868 -0.2218 -0.7506
  138TCq2    C9 2109   3.979   3.585  10.533 -0.0175 -0.4226  0.7673
  138TCq2    O5 2110   3.885   3.549  10.460  0.9849  0.0202 -0.1781
  138TCq2    O6 2111   3.995   3.540  10.651 -0.0411  0.2283 -0.5167
  138TCq2    H2 2112   4.192   3.689  10.667  1.1612  1.1516  0.0305
  138TCq2    H3 2113   3.976   3.710  10.297  1.0938 -1.9242  0.5894
  138TCq2    H4 2114   4.333   3.935  10.363 -0.4400  1.9366  1.0214
  139TMC2    C1 2115   0.177   2.755  13.212 -0.0157 -0.6244 -0.3281
  139TMC2    C2 2116   0.131   2.817  13.101  0.2521 -0.9062 -0.3129
  139TMC2    C3 2117   0.017   2.887  13.106 -0.6865 -0.0953 -0.4345
  139TMC2    C4 2118   0.117   2.770  13.335 -0.0431 -0.9854 -0.3655
  139TMC2    C5 2119   0.008   2.851  13.345  0.7534 -0.6621  0.3323
  139TMC2    C6 2120   4.674   2.905  13.234 -0.1882  0.0505  0.2032
  139TMC2     C 2121   0.305   2.698  13.191  0.4587 -0.2948  0.4697
  139TMC2     O 2122   0.323   2.640  13.085 -0.2003  0.3830  0.7406
  139TMC2     H 2123   0.171   2.798  13.002 -0.0934  1.9373 -0.9821
  139TMC2    H1 2124   0.168   2.729  13.421 -1.0611 -0.4096  0.5175
  139TMC2    H2 2125   4.587   2.969  13.240  1.1655  2.0663 -1.5946
  139TMC2    C7 2126   4.665   2.887  13.478  0.4933 -0.3556 -0.8104
  139TMC2    C8 2127   4.650   2.911  12.991  0.6168  0.6988 -0.2785
  139TMC2    O1 2128   4.573   2.964  13.463 -0.2719  1.1358 -0.2642
  139TMC2    O2 2129   4.537   2.952  13.018 -0.0900 -0.0372  0.0733
  139TMC2    O5 2130   4.677   2.815  12.899 -0.2283  0.0764 -0.0746
  139TMC2    H5 2131   0.053   2.804  12.880 -0.2139 -1.3713  0.7602
  140MPD2     C 2132   0.546   2.614  13.460  0.2301 -0.2965 -1.0041
  140MPD2    C1 2133   0.501   2.624  13.331  0.2454  0.0454  0.6480
  140MPD2    C2 2134   0.560   2.547  13.225 -0.1792  0.4289  0.2788
  140MPD2    C3 2135   0.659   2.456  13.261  0.2752 -0.3523  0.0437
  140MPD2    C4 2136   0.694   2.442  13.394  0.1350 -0.3393  0.1264
  140MPD2    C5 2137   0.641   2.526  13.489 -0.2635  0.8389  0.2753
  140MPD2     H 2138   0.535   2.552  13.120  0.6860 -2.4521 -0.0836
  140MPD2    H1 2139   0.771   2.378  13.435  0.6823 -0.0997 -0.5353
  140MPD2    H2 2140   0.507   2.674  13.541 -1.4781 -4.0053  0.8991
  140MPD2    H3 2141   0.667   2.518  13.594  0.3922 -2.7657 -0.1291
  140MPD2     N 2142   0.706   2.372  13.158  0.0032  0.2857 -0.3302
  140MPD2    H5 2143   0.672   2.388  13.064 -0.2715  1.7953  0.0195
  140MPD2    N1 2144   0.384   2.699  13.307  0.2582 -0.5304  0.7312
  140MPD2    H7 2145   0.357   2.751  13.390  1.0619  0.4553  0.3853
  141TCq2    C1 2146   0.334   4.529  14.662 -0.3437 -0.5412 -0.9633
  141TCq2    O2 2147   0.439   4.580  14.626  0.0408  0.2624  0.3482
  141TCq2    C2 2148   0.312   4.490  14.800 -0.2803 -0.6336  0.1952
  141TCq2    C3 2149   0.208   4.411  14.843  0.0928 -0.6528 -0.1555
  141TCq2    C4 2150   0.184   4.408  14.975 -0.0289  0.0980 -0.0814
  141TCq2    C5 2151   0.257   4.481  15.065  0.1455 -0.6159  0.1404
  141TCq2    C6 2152   0.361   4.561  15.015  0.0390 -0.4026 -0.2555
  141TCq2    C7 2153   0.401   4.554  14.885  0.3162 -0.0271  0.1152
  141TCq2    C8 2154   0.441   4.617  15.111  0.2709  0.0287  0.2720
  141TCq2    O4 2155   0.392   4.631  15.222 -0.0594  0.2478  0.1572
  141TCq2    C9 2156   0.062   4.347  15.014 -0.2024 -0.0583 -0.0277
  141TCq2    O5 2157   4.686   4.368  14.938  0.0135 -0.1371  0.5109
  141TCq2    O6 2158   0.039   4.321  15.134  0.3229  0.1437 -0.5063
  141TCq2    H2 2159   0.140   4.364  14.773 -0.5747  1.7029 -1.0726
  141TCq2    H3 2160   0.232   4.476  15.170 -1.0300  2.8805  0.0402
  141TCq2    H4 2161   0.465   4.625  14.835  0.6910 -1.5229 -1.5062
  142MPD2     C 2162   2.839   2.075  10.546  0.8805  0.1791  0.3214
  142MPD2    C1 2163   2.814   2.058  10.415  0.4643 -0.4968  0.0333
  142MPD2    C2 2164   2.873   2.142  10.321  0.1984  0.6138  0.0737
  142MPD2    C3 2165   2.959   2.243  10.357  0.4590  0.9887 -0.1856
  142MPD2    C4 2166   2.982   2.260  10.491 -0.5910  0.0185  0.0156
  142MPD2    C5 2167   2.923   2.176  10.585 -0.0586  0.0947  0.6279
  142MPD2     H 2168   2.860   2.118  10.216  0.1872  1.5856 -0.1512
  142MPD2    H1 2169   3.042   2.345  10.522 -0.1487 -0.6597  0.9995
  142MPD2    H2 2170   2.792   2.015  10.622 -1.5895  2.9090  0.9751
  142MPD2    H3 2171   2.949   2.188  10.690 -0.8555  3.7140  0.3886
  142MPD2     N 2172   3.026   2.330  10.273  0.1618  0.6298  0.4886
  142MPD2    H5 2173   3.084   2.399  10.319  2.8270 -0.5232 -1.1293
  142MPD2    N1 2174   2.740   1.948  10.372 -0.2844  0.1134  0.4501
  142MPD2    H7 2175   2.731   1.871  10.438  4.6880 -1.1407 -0.3854
  143TCq2    C1 2176   3.025   2.316  10.140 -0.5044  0.0116 -0.8402
  143TCq2    O2 2177   2.988   2.223  10.070 -0.4072  0.5884  0.0532
  143TCq2    C2 2178   3.106   2.411  10.069 -0.3117  0.6770  0.1430
  143TCq2    C3 2179   3.206   2.477  10.132  0.4785  0.0923 -0.0704
  143TCq2    C4 2180   3.294   2.546  10.056 -0.0237  0.1351  0.5236
  143TCq2    C5 2181   3.296   2.530   9.921  0.1261 -0.0861  0.3107
  143TCq2    C6 2182   3.204   2.448   9.862 -0.2351 -0.0545  0.1461
  143TCq2    C7 2183   3.105   2.394   9.933 -0.1114  0.1629 -0.0187
  143TCq2    C8 2184   3.173   2.456   9.716 -0.0438  0.0048 -0.2314
  143TCq2    O4 2185   3.088   2.381   9.668 -0.3711 -0.0993 -0.0278
  143TCq2    C9 2186   3.408   2.605  10.123 -0.1965  0.7241 -0.0740
  143TCq2    O5 2187   3.425   2.556  10.237  0.7949  0.4306 -0.2900
  143TCq2    O6 2188   3.492   2.673  10.055 -0.0796  0.7400  0.2652
  143TCq2    H2 2189   3.202   2.498  10.238 -0.8698 -1.0573  0.1079
  143TCq2    H3 2190   3.375   2.571   9.858  0.5226 -2.0427 -0.4594
  143TCq2    H4 2191   3.016   2.349   9.891 -0.1069 -0.7242  0.9020
  144MPD2     C 2192   1.046   1.937   1.283 -0.3482  0.5758 -0.0287
  144MPD2    C1 2193   0.994   1.813   1.251 -0.3556  0.0114  0.3995
  144MPD2    C2 2194   1.063   1.695   1.282 -0.8834  0.7232  0.4807
  144MPD2    C3 2195   1.192   1.702   1.338 -0.0663 -0.2106  0.8114
  144MPD2    C4 2196   1.243   1.830   1.368  0.2299  0.0362 -0.3240
  144MPD2    C5 2197   1.166   1.939   1.354  0.2417  0.7384 -0.2584
  144MPD2     H 2198   1.007   1.603   1.272  0.7282 -0.3591  1.2896
  144MPD2    H1 2199   1.338   1.851   1.416  0.2892 -2.0674  0.4759
  144MPD2    H2 2200   0.985   2.027   1.281 -1.3264 -0.0737  0.5735
  144MPD2    H3 2201   1.197   2.028   1.408 -2.7545  1.2561  0.5645
  144MPD2     N 2202   1.276   1.595   1.367  0.2126  0.4578 -0.1396
  144MPD2    H5 2203   1.359   1.628   1.416 -1.8385 -0.7467  4.1249
  144MPD2    N1 2204   0.865   1.793   1.185  0.2591 -0.3806  0.0013
  144MPD2    H7 2205   0.838   1.695   1.182 -1.1158  0.0366 -0.8703
  145TCq2    C1 2206   1.245   1.463   1.335 -0.4190 -0.0619  0.1909
  145TCq2    O2 2207   1.147   1.422   1.274  0.0275  0.2211 -0.5006
  145TCq2    C2 2208   1.354   1.371   1.355 -0.2850  0.1414  0.2439
  145TCq2    C3 2209   1.350   1.264   1.270  0.2899 -0.4512 -0.0787
  145TCq2    C4 2210   1.444   1.171   1.283 -0.4643  1.2722 -0.1932
  145TCq2    C5 2211   1.546   1.186   1.367  0.3443 -0.1884 -0.3158
  145TCq2    C6 2212   1.557   1.298   1.439 -0.2994  0.2580 -0.2580
  145TCq2    C7 2213   1.459   1.397   1.437 -0.5334  0.0633 -0.3865
  145TCq2    C8 2214   1.671   1.315   1.520 -0.5543  0.0206  0.1363
  145TCq2    O4 2215   1.740   1.212   1.538 -0.3562 -0.3511  0.2332
  145TCq2    C9 2216   1.435   1.049   1.199  0.4858  0.2651  0.4550
  145TCq2    O5 2217   1.393   1.078   1.086 -0.2731 -0.3358 -0.1951
  145TCq2    O6 2218   1.475   0.939   1.248 -0.3267  0.0082 -0.5138
  145TCq2    H2 2219   1.269   1.257   1.198  0.3964  0.2519 -0.2708
  145TCq2    H3 2220   1.634   1.123   1.365 -0.0787 -0.7636 -0.9262
  145TCq2    H4 2221   1.457   1.480   1.506  0.9715 -0.4378  0.2611
  146TMC2    C1 2222   2.411   0.463  12.998  0.2537 -0.2585 -0.7286
  146TMC2    C2 2223   2.274   0.464  13.011  0.5147  0.0606  0.6496
  146TMC2    C3 2224   2.209   0.427  12.898 -0.1175  0.2467  0.5552
  146TMC2    C4 2225   2.488   0.439  12.887  0.1361  0.2305  0.2429
  146TMC2    C5 2226   2.414   0.396  12.781 -0.0802 -0.3482 -0.1940
  146TMC2    C6 2227   2.275   0.390  12.783  0.1052  0.3719 -0.1036
  146TMC2     C 2228   2.479   0.511  13.120  0.4401  0.3721 -0.0225
  146TMC2     O 2229   2.412   0.568  13.208  1.3272  0.3195 -0.5628
  146TMC2     H 2230   2.219   0.459  13.104 -0.1358 -0.7472  0.2272
  146TMC2    H1 2231   2.592   0.470  12.883 -0.2535  1.2534 -1.8019
  146TMC2    H2 2232   2.224   0.356  12.694  0.9326 -0.8134 -0.1382
  146TMC2    C7 2233   2.484   0.381  12.655  0.1089  0.8553  0.0706
  146TMC2    C8 2234   2.062   0.431  12.895  0.2528 -0.4280  1.2039
  146TMC2    O1 2235   2.422   0.404  12.553 -0.1115 -0.2905  0.9953
  146TMC2    O2 2236   2.002   0.530  12.923 -0.1413  0.5443 -0.4351
  146TMC2    O5 2237   2.044   0.311  12.966 -0.2565  0.2164  0.4018
  146TMC2    H5 2238   2.092   0.233  12.930 -0.2601  0.5652 -0.3730
  147MPD2     C 2239   2.906   0.238  12.400  0.5809 -0.8275  0.2031
  147MPD2    C1 2240   2.918   0.203  12.528 -0.3977 -0.2036  0.0915
  147MPD2    C2 2241   2.812   0.225  12.613  0.1394 -0.3690  0.0559
  147MPD2    C3 2242   2.698   0.300  12.572  0.1340 -0.4004  0.0375
  147MPD2    C4 2243   2.686   0.323  12.438 -0.0477  0.0934  0.1183
  147MPD2    C5 2244   2.787   0.290  12.355 -0.9581 -0.2480 -0.3039
  147MPD2     H 2245   2.826   0.212  12.720  0.0923 -1.0456 -0.0200
  147MPD2    H1 2246   2.599   0.380  12.406  1.4952  2.3316 -0.0956
  147MPD2    H2 2247   2.983   0.203  12.332  1.4616 -0.8324  1.2038
  147MPD2    H3 2248   2.795   0.320  12.251  2.6597  1.9891  0.5901
  147MPD2     N 2249   2.605   0.334  12.681  0.1797 -0.4551  0.0922
  147MPD2    H5 2250   2.639   0.312  12.774  2.0439  0.9325 -0.2555
  147MPD2    N1 2251   3.050   0.152  12.569 -0.2032  0.5359 -0.3593
  147MPD2    H7 2252   3.125   0.130  12.503 -0.7192  0.7656 -1.0253
  148MPD2     C 2253   2.801   3.456  10.734 -0.2048  0.2261  0.2338
  148MPD2    C1 2254   2.797   3.397  10.606  0.5162 -0.3150 -0.8462
  148MPD2    C2 2255   2.691   3.430  10.526  0.3721  0.1968  0.7509
  148MPD2    C3 2256   2.594   3.522  10.560  0.4034 -0.4218 -0.5941
  148MPD2    C4 2257   2.603   3.575  10.684  0.5586 -0.2458 -0.2397
  148MPD2    C5 2258   2.700   3.544  10.775 -0.2006  0.2194 -0.1170
  148MPD2     H 2259   2.686   3.386  10.427 -1.7770 -2.1473  1.9211
  148MPD2    H1 2260   2.530   3.650  10.713  0.7663 -0.4840  0.9039
  148MPD2    H2 2261   2.881   3.427  10.801 -1.7141 -1.1954  1.3907
  148MPD2    H3 2262   2.711   3.588  10.873  2.5871  1.7554 -1.1547
  148MPD2     N 2263   2.479   3.544  10.478 -0.5679 -0.3820  0.3576
  148MPD2    H5 2264   2.421   3.625  10.495  1.3511  0.8846  0.9100
  148MPD2    N1 2265   2.895   3.309  10.552 -0.4375  0.0369 -0.2788
  148MPD2    H7 2266   2.881   3.295  10.453  0.9572 -2.7027 -0.1028
  149TCq2    C1 2267   3.000   3.253  10.617  0.5120 -0.8628 -0.3054
  149TCq2    O2 2268   3.027   3.270  10.736  0.4341  0.1629 -0.3964
  149TCq2    C2 2269   3.086   3.171  10.538  0.2763  0.5651 -0.1135
  149TCq2    C3 2270   3.223   3.188  10.561  0.1385  0.4949  0.0878
  149TCq2    C4 2271   3.307   3.125  10.473 -0.2121 -0.3150  0.4656
  149TCq2    C5 2272   3.262   3.023  10.400  0.2482  0.0667 -0.0422
  149TCq2    C6 2273   3.123   3.002  10.389  0.4693  0.3992 -0.3613
  149TCq2    C7 2274   3.035   3.087  10.445 -0.5671  0.6364 -0.6140
  149TCq2    C8 2275   3.067   2.885  10.327 -0.2302 -0.4467 -0.1496
  149TCq2    O4 2276   2.964   2.836  10.368 -0.5784  0.3066 -0.4863
  149TCq2    C9 2277   3.449   3.136  10.501 -0.0815 -0.4044 -0.5198
  149TCq2    O5 2278   3.486   3.203  10.599 -0.2422 -0.1764  0.1419
  149TCq2    O6 2279   3.517   3.046  10.452  0.3887 -0.4952 -0.1833
  149TCq2    H2 2280   3.259   3.253  10.640 -1.5572 -1.1214  2.1931
  149TCq2    H3 2281   3.333   2.967  10.340 -2.9574 -2.9689 -0.9807
  149TCq2    H4 2282   2.928   3.083  10.435 -0.5804 -1.3195  0.4012
  150MPD2     C 2283   4.610   3.016  12.228 -1.0440  0.4977 -0.2011
  150MPD2    C1 2284   4.556   3.133  12.180  0.8105  0.1322  1.3467
  150MPD2    C2 2285   4.629   3.252  12.186 -0.4612 -0.2644  0.9687
  150MPD2    C3 2286   0.028   3.253  12.249  0.3860 -0.2319  0.1204
  150MPD2    C4 2287   0.080   3.138  12.306 -0.2999 -0.4675  0.5956
  150MPD2    C5 2288   0.006   3.018  12.301 -0.1717 -0.0889 -0.5410
  150MPD2     H 2289   4.582   3.342  12.148  1.3081 -0.2106 -1.0852
  150MPD2    H1 2290   0.176   3.141  12.357  0.3569  1.8265 -0.7565
  150MPD2    H2 2291   4.562   2.919  12.220  2.3884 -1.3738  1.8384
  150MPD2    H3 2292   0.036   2.930  12.357 -0.3177  0.2157  0.0173
  150MPD2     N 2293   0.088   3.376  12.261 -0.2545 -0.2314  0.3651
  150MPD2    H5 2294   0.033   3.446  12.213  0.0936  1.8600  2.9985
  150MPD2    N1 2295   4.441   3.121  12.100 -0.1025  0.4148 -0.2330
  150MPD2    H7 2296   4.394   3.032  12.093 -0.4443  0.8102 -2.8481
  151TCq2    C1 2297   0.213   3.402  12.326 -0.3277  0.5254 -0.0526
  151TCq2    O2 2298   0.289   3.337  12.393  0.2826  0.3055  0.1946
  151TCq2    C2 2299   0.254   3.541  12.312  0.0741  0.4889 -0.3120
  151TCq2    C3 2300   0.219   3.609  12.195 -0.0865  0.2464  0.0380
  151TCq2    C4 2301   0.289   3.725  12.165 -0.3828  0.6484  0.2285
  151TCq2    C5 2302   0.385   3.775  12.248 -0.2570  0.6215 -0.1185
  151TCq2    C6 2303   0.420   3.698  12.351  0.9138  0.2604  0.1731
  151TCq2    C7 2304   0.362   3.579  12.390  0.4223 -0.1041  0.4850
  151TCq2    C8 2305   0.529   3.744  12.428  0.1676 -0.4142  0.4219
  151TCq2    O4 2306   0.530   3.867  12.448 -0.1376  0.4731  0.4828
  151TCq2    C9 2307   0.249   3.794  12.044  0.0393  0.3663 -0.0654
  151TCq2    O5 2308   0.278   3.914  12.036  0.4822  0.0936 -0.2966
  151TCq2    O6 2309   0.196   3.734  11.942  0.1431 -0.0545 -0.2263
  151TCq2    H2 2310   0.152   3.569  12.120  2.1436 -2.0688 -0.7366
  151TCq2    H3 2311   0.437   3.862  12.210  0.0907  0.8876  0.9778
  151TCq2    H4 2312   0.395   3.530  12.481  3.1759 -1.3755 -1.1836
  152MPD2     C 2313   4.326   2.897  12.820  0.5788 -0.7657  0.1094
  152MPD2    C1 2314   4.348   2.987  12.719 -0.6384 -0.2782  0.0452
  152MPD2    C2 2315   4.242   3.044  12.656  0.7878  0.6592  0.2663
  152MPD2    C3 2316   4.114   3.005  12.681 -0.1143 -0.1069  0.0212
  152MPD2    C4 2317   4.095   2.912  12.786  0.4441  0.5283 -0.1724
  152MPD2    C5 2318   4.200   2.856  12.846  0.1969 -0.2922  0.3722
  152MPD2     H 2319   4.259   3.115  12.576  1.0453  1.0033  0.6262
  152MPD2    H1 2320   3.998   2.873  12.817  1.0979 -0.8279  0.1602
  152MPD2    H2 2321   4.402   2.829  12.856 -0.2391 -1.4874  0.4737
  152MPD2    H3 2322   4.167   2.774  12.910  0.1576 -0.3439  0.2853
  152MPD2     N 2323   4.010   3.071  12.615  0.0892 -0.3063  0.3557
  152MPD2    H5 2324   4.040   3.137  12.543 -0.3807 -1.4582 -0.9062
  152MPD2    N1 2325   4.486   3.007  12.695 -0.0158  0.2538 -0.5122
  152MPD2    H7 2326   4.547   2.974  12.770  1.0270 -0.4889 -1.6994
  153TCq2    C1 2327   4.530   3.104  12.608 -0.6555 -0.6025 -0.0975
  153TCq2    O2 2328   4.472   3.168  12.520  0.1019  0.4001  0.1226
  153TCq2    C2 2329   4.675   3.116  12.624 -0.2036  0.3735  0.4532
  153TCq2    C3 2330   0.029   3.015  12.673 -0.5820 -0.3409  0.4644
  153TCq2    C4 2331   0.160   3.036  12.719 -0.1153  0.0278 -0.0381
  153TCq2    C5 2332   0.214   3.158  12.710 -1.0042 -0.7319  0.6068
  153TCq2    C6 2333   0.135   3.260  12.655 -0.2416  0.1303 -0.1112
  153TCq2    C7 2334   0.005   3.238  12.613 -0.4642  0.7204  0.3348
  153TCq2    C8 2335   0.161   3.396  12.698 -0.4035  0.3406 -0.6702
  153TCq2    O4 2336   0.080   3.486  12.676  0.1893  0.4877 -0.4159
  153TCq2    C9 2337   0.237   2.924  12.768  0.3004  0.0224 -0.3373
  153TCq2    O5 2338   0.176   2.814  12.775 -0.2977  0.1713  0.1611
  153TCq2    O6 2339   0.342   2.946  12.841 -0.3873  0.1975  1.2163
  153TCq2    H2 2340   4.705   2.917  12.681  2.5564 -1.9202 -1.6935
  153TCq2    H3 2341   0.317   3.169  12.742  0.4271 -2.1344 -3.4803
  153TCq2    H4 2342   4.668   3.317  12.566  1.1738  0.6321 -1.7857
  154MPD2     C 2343   0.564   2.795   0.928  0.4329 -0.1354 -0.2261
  154MPD2    C1 2344   0.671   2.771   1.009 -0.3274 -1.0066  0.5968
  154MPD2    C2 2345   0.646   2.814   1.139 -0.3904 -0.3188  0.5470
  154MPD2    C3 2346   0.533   2.865   1.190  0.1758 -0.2117 -0.6632
  154MPD2    C4 2347   0.422   2.878   1.104  0.6966  0.0927 -0.1718
  154MPD2    C5 2348   0.448   2.842   0.968  0.3490  0.1388 -0.2298
  154MPD2     H 2349   0.727   2.799   1.210  0.8682  0.6831 -0.6598
  154MPD2    H1 2350   0.323   2.911   1.131  1.3808  2.3816 -0.4475
  154MPD2    H2 2351   0.561   2.766   0.823 -2.4346 -0.5140 -0.0495
  154MPD2    H3 2352   0.369   2.851   0.895 -0.6694 -0.0691  0.8388
  154MPD2     N 2353   0.524   2.909   1.327  0.1293  0.7940  0.9297
  154MPD2    H5 2354   0.607   2.909   1.386  0.2648 -0.7773  0.7557
  154MPD2    N1 2355   0.788   2.703   0.964 -0.4687  0.4355 -0.4485
  154MPD2    H7 2356   0.792   2.675   0.866 -0.2212  2.4709 -1.0173
  155TCq2    C1 2357   0.888   2.649   1.038 -0.9148 -0.3321 -0.1285
  155TCq2    O2 2358   0.905   2.636   1.161  0.1819  0.4674 -0.3872
  155TCq2    C2 2359   0.990   2.589   0.953  0.8335 -0.6389  0.5449
  155TCq2    C3 2360   1.025   2.657   0.838 -0.1562 -0.9488  0.4290
  155TCq2    C4 2361   1.126   2.609   0.770  0.5794  0.1157  0.3749
  155TCq2    C5 2362   1.200   2.500   0.810 -0.0606  0.3503  0.2451
  155TCq2    C6 2363   1.154   2.433   0.911  0.4372  0.2975  0.1645
  155TCq2    C7 2364   1.046   2.474   0.984 -0.4798  0.4307 -0.1138
  155TCq2    C8 2365   1.232   2.333   0.983  0.1598  0.6023 -0.0273
  155TCq2    O4 2366   1.157   2.246   1.030 -0.4833 -0.3036 -0.2334
  155TCq2    C9 2367   1.172   2.679   0.652 -0.2866 -0.2288 -0.4266
  155TCq2    O5 2368   1.113   2.787   0.627 -0.0773 -0.6671  0.5325
  155TCq2    O6 2369   1.242   2.619   0.567  0.6228 -0.3724 -0.4577
  155TCq2    H2 2370   0.973   2.748   0.811  1.1450 -0.3016  0.0816
  155TCq2    H3 2371   1.280   2.459   0.750 -1.1590  1.4621 -1.9882
  155TCq2    H4 2372   1.021   2.422   1.075 -1.0305 -2.0903 -1.7079
  156MPD2     C 2373   0.092   0.486  11.878 -0.7587 -1.1179 -0.5384
  156MPD2    C1 2374   0.008   0.582  11.818 -0.2468 -0.1363 -0.3916
  156MPD2    C2 2375   4.706   0.702  11.888  0.1604  0.1294 -0.4106
  156MPD2    C3 2376   0.046   0.729  12.012  0.4645  0.2455 -0.4556
  156MPD2    C4 2377   0.125   0.633  12.073  0.3782 -0.0484  0.9758
  156MPD2    C5 2378   0.142   0.517  12.006 -0.4929 -0.1748 -0.5074
  156MPD2     H 2379   4.645   0.782  11.847 -2.5193 -0.9207  1.5491
  156MPD2    H1 2380   0.167   0.654  12.171  2.2433 -0.8932  0.3355
  156MPD2    H2 2381   0.121   0.400  11.818 -4.9279 -1.8926 -1.4356
  156MPD2    H3 2382   0.204   0.443  12.054 -0.3504  0.7389  0.7154
  156MPD2     N 2383   0.019   0.849  12.077 -0.0908 -0.3223 -0.8710
  156MPD2    H5 2384   4.709   0.933  12.029 -2.0777 -0.1959  0.6166
  156MPD2    N1 2385   4.673   0.555  11.690  0.0685  0.5206  0.2466
  156MPD2    H7 2386   4.712   0.474  11.644 -1.1336  0.0828 -0.0036
  157TCq2    C1 2387   4.575   0.626  11.624 -0.0275  0.9512  0.3278
  157TCq2    O2 2388   4.508   0.720  11.660  0.2462  0.1008 -0.0760
  157TCq2    C2 2389   4.566   0.577  11.482  0.7519 -0.3079  0.1429
  157TCq2    C3 2390   4.628   0.462  11.441 -0.2184  0.2500 -0.2552
  157TCq2    C4 2391   4.593   0.405  11.323 -0.4171 -0.1578  0.1282
  157TCq2    C5 2392   4.502   0.458  11.238 -0.3945  0.0444  0.2045
  157TCq2    C6 2393   4.443   0.572  11.291 -0.2940 -0.1329 -0.3611
  157TCq2    C7 2394   4.468   0.627  11.408 -0.4883 -0.0320 -0.1455
  157TCq2    C8 2395   4.356   0.651  11.201 -0.1609  0.0255  0.5180
  157TCq2    O4 2396   4.301   0.601  11.104  0.0421 -0.2577 -0.0853
  157TCq2    C9 2397   4.646   0.272  11.292  0.0485  0.7763 -1.1885
  157TCq2    O5 2398   4.631   0.228  11.177  0.1975 -0.3140  0.3886
  157TCq2    O6 2399   0.017   0.225  11.371  0.0362  0.1623 -0.0597
  157TCq2    H2 2400   4.710   0.418  11.496 -1.1779 -2.3826 -0.9377
  157TCq2    H3 2401   4.494   0.415  11.139 -1.3150  2.2042 -0.6605
  157TCq2    H4 2402   4.406   0.702  11.456 -1.9417  0.1926 -2.4216
  158TMC2    C1 2403   0.194   4.067  13.779  0.2439  0.7327 -0.2427
  158TMC2    C2 2404   0.180   4.181  13.846  0.1318 -0.0897 -0.2928
  158TMC2    C3 2405   0.090   4.274  13.796  0.5723 -0.3318  0.1599
  158TMC2    C4 2406   0.128   4.050  13.656  0.4769 -0.3587  0.2239
  158TMC2    C5 2407   0.044   4.146  13.605 -0.1944 -1.1216 -0.3848
  158TMC2    C6 2408   0.035   4.262  13.668  0.5667 -0.2283 -0.4244
  158TMC2     C 2409   0.290   3.976  13.831  0.7471 -0.9632  0.5014
  158TMC2     O 2410   0.359   3.912  13.753  0.0879 -0.3295  0.0497
  158TMC2     H 2411   0.227   4.185  13.944 -1.9553  1.6290  0.6366
  158TMC2    H1 2412   0.146   3.955  13.606 -0.5995 -0.4998  0.1184
  158TMC2    H2 2413   4.697   4.340  13.620 -0.1436 -0.4217  0.1356
  158TMC2    C7 2414   4.644   4.100  13.537 -0.9953 -0.6370  0.0510
  158TMC2    C8 2415   0.038   4.381  13.874  0.5347 -0.0754 -0.6565
  158TMC2    O1 2416   4.579   4.184  13.478  0.0001  0.4804  0.1234
  158TMC2    O2 2417   4.683   4.458  13.813  0.2667 -0.3047 -0.1018
  158TMC2    O5 2418   4.716   4.305  13.980  0.5303 -0.3216  1.0462
  158TMC2    H5 2419   0.069   4.253  14.019  1.0471  0.6794  1.4089
  159MPD2     C 2420   0.563   3.738  14.219  0.3016 -0.3735  0.2231
  159MPD2    C1 2421   0.470   3.825  14.268  0.3048  0.6340 -0.0005
  159MPD2    C2 2422   0.390   3.904  14.183  0.4296  0.2808  0.0391
  159MPD2    C3 2423   0.394   3.890  14.043  0.3338 -0.2879  0.6982
  159MPD2    C4 2424   0.486   3.801  14.000  0.2520  0.1433  0.2058
  159MPD2    C5 2425   0.567   3.734  14.080  0.0202  0.0258  0.3431
  159MPD2     H 2426   0.320   3.973  14.229  0.3398 -1.1525  2.0710
  159MPD2    H1 2427   0.496   3.783  13.893  0.2029 -0.4621  0.3030
  159MPD2    H2 2428   0.639   3.701  14.287 -2.4130 -2.3502  2.1895
  159MPD2    H3 2429   0.644   3.675  14.031  1.8019  1.6493  1.1927
  159MPD2     N 2430   0.300   3.967  13.967 -0.4916  0.0772 -0.3912
  159MPD2    H5 2431   0.234   4.022  14.020 -1.1222  0.3774 -1.4970
  159MPD2    N1 2432   0.453   3.820  14.409 -0.1538  0.0358  0.1248
  159MPD2    H7 2433   0.505   3.752  14.464 -1.9774 -2.2361 -0.9962
  160TMC2    C1 2434   4.573   1.710   1.549  0.6393  0.0249 -0.6102
  160TMC2    C2 2435   4.533   1.832   1.593  0.4183  0.4498  0.2487
  160TMC2    C3 2436   4.631   1.910   1.649  0.3148  0.1251 -0.5134
  160TMC2    C4 2437   4.698   1.662   1.565  0.0029 -0.1640 -0.3113
  160TMC2    C5 2438   0.058   1.738   1.650  0.6535  0.4235 -0.2221
  160TMC2    C6 2439   0.029   1.859   1.698 -0.0991 -0.4289 -0.4903
  160TMC2     C 2440   4.505   1.666   1.434  0.4678 -0.6266 -0.5210
  160TMC2     O 2441   4.508   1.548   1.409 -0.2021  0.3695  0.9065
  160TMC2     H 2442   4.431   1.861   1.574  0.0262 -0.1898  1.3220
  160TMC2    H1 2443   0.013   1.577   1.508 -0.4216 -0.1769 -0.5509
  160TMC2    H2 2444   0.092   1.930   1.749 -1.2946 -0.1506  0.5952
  160TMC2    C7 2445   0.197   1.694   1.676  0.2922 -0.2254  0.7794
  160TMC2    C8 2446   4.586   2.037   1.706  0.4750  0.2200  0.4634
  160TMC2    O1 2447   0.227   1.587   1.625  0.1780 -0.7107  0.3826
  160TMC2    O2 2448   4.485   2.040   1.776 -0.0186 -0.0308  0.7487
  160TMC2    O5 2449   4.676   2.141   1.703  0.2198  0.0859 -0.1058
  160TMC2    H5 2450   0.036   2.141   1.646  2.1192 -1.3542  2.5641
  161MPD2     C 2451   4.308   1.644   1.212  0.3360 -0.1890  0.0049
  161MPD2    C1 2452   4.362   1.761   1.267 -0.4345  0.8669 -0.0755
  161MPD2    C2 2453   4.318   1.877   1.205 -0.1028 -0.1794  0.4188
  161MPD2    C3 2454   4.232   1.870   1.093 -0.4676 -0.0136  0.5196
  161MPD2    C4 2455   4.186   1.748   1.044 -0.0218 -0.2264  0.4523
  161MPD2    C5 2456   4.221   1.634   1.110  0.3445 -0.3817 -0.2492
  161MPD2     H 2457   4.353   1.971   1.246  0.2501  0.1852 -0.7035
  161MPD2    H1 2458   4.133   1.744   0.949 -0.8301  0.9470  0.8515
  161MPD2    H2 2459   4.320   1.559   1.280 -1.3647  1.2261  2.0478
  161MPD2    H3 2460   4.186   1.534   1.087 -0.9398 -0.6979  3.0223
  161MPD2     N 2461   4.188   1.979   1.021 -0.4402  0.0162 -0.3141
  161MPD2    H5 2462   4.119   1.968   0.948 -0.8307 -1.6687  0.3156
  161MPD2    N1 2463   4.453   1.769   1.364  0.9067  0.5527  0.1110
  161MPD2    H7 2464   4.499   1.858   1.378 -1.3766  1.8972 -0.8314
  162TMC2    C1 2465   2.910   4.040   1.629 -0.2394  0.6179 -0.0131
  162TMC2    C2 2466   2.926   4.176   1.667 -0.2756  0.2482 -0.2028
  162TMC2    C3 2467   2.951   4.196   1.795  0.3130  0.2337  0.0092
  162TMC2    C4 2468   2.934   3.934   1.726  0.2646 -0.7877 -0.0033
  162TMC2    C5 2469   2.955   3.967   1.853  0.2031  0.5279 -0.3180
  162TMC2    C6 2470   2.956   4.099   1.893 -0.4152 -0.3743  0.0864
  162TMC2     C 2471   2.906   4.004   1.486  0.0201 -0.2592  0.1449
  162TMC2     O 2472   2.957   3.900   1.447 -0.3040  0.5309 -0.0566
  162TMC2     H 2473   2.909   4.260   1.600  3.7982 -0.6089 -2.2999
  162TMC2    H1 2474   2.931   3.831   1.692  0.3034 -0.2382 -1.6731
  162TMC2    H2 2475   2.978   4.133   1.993  0.1509 -0.2076 -0.0983
  162TMC2    C7 2476   2.993   3.871   1.956 -0.3304  0.4372 -0.1802
  162TMC2    C8 2477   2.930   4.332   1.845  0.6199  0.5528 -0.4702
  162TMC2    O1 2478   3.015   3.910   2.070 -0.4063 -0.1569 -0.1584
  162TMC2    O2 2479   2.899   4.350   1.961 -0.6975 -0.3395 -0.2194
  162TMC2    O5 2480   2.989   4.424   1.763 -0.2836 -0.2208  0.2998
  162TMC2    H5 2481   3.036   4.381   1.688 -1.1668  0.7620 -0.8349
  163MPD2     C 2482   2.907   4.191   1.013  0.4275 -0.8797  0.1745
  163MPD2    C1 2483   2.956   4.071   1.057  0.8737 -0.9340  0.3724
  163MPD2    C2 2484   2.933   4.039   1.189 -0.3009 -0.1277  0.3503
  163MPD2    C3 2485   2.866   4.123   1.272 -0.4622  0.2339  0.1273
  163MPD2    C4 2486   2.807   4.240   1.219 -0.5886  0.2038 -0.4650
  163MPD2    C5 2487   2.835   4.274   1.091 -0.7470  0.2981 -0.3269
  163MPD2     H 2488   2.970   3.944   1.228  1.0848  0.7999  1.2936
  163MPD2    H1 2489   2.745   4.303   1.283  0.9582  1.2736 -0.0025
  163MPD2    H2 2490   2.921   4.232   0.914  0.8734  0.6531  0.8781
  163MPD2    H3 2491   2.804   4.368   1.045 -0.8900  1.5454  2.3266
  163MPD2     N 2492   2.852   4.107   1.413  0.0054 -0.3355  0.3588
  163MPD2    H5 2493   2.798   4.177   1.462 -0.1769  0.1720 -0.5717
  163MPD2    N1 2494   3.010   3.994   0.960  0.0531  0.2921  0.0590
  163MPD2    H7 2495   3.024   4.034   0.868 -0.8934  2.7174  0.9608
  164TCq2    C1 2496   2.778   4.185  10.884  0.1286 -0.2232 -0.3239
  164TCq2    O2 2497   2.657   4.163  10.880 -0.3892  0.0686  0.0022
  164TCq2    C2 2498   2.841   4.247  11.001 -0.6035  0.1283 -0.3263
  164TCq2    C3 2499   2.976   4.277  10.992 -0.5142  0.2984  0.0766
  164TCq2    C4 2500   3.042   4.295  11.111  0.3082 -0.5524 -0.7270
  164TCq2    C5 2501   2.974   4.294  11.230 -0.1897  0.1777 -0.4103
  164TCq2    C6 2502   2.840   4.276  11.225  0.7611  0.3735 -0.0724
  164TCq2    C7 2503   2.769   4.255  11.112 -0.6685  0.6593  0.1117
  164TCq2    C8 2504   2.763   4.295  11.346  0.3550 -0.1691 -0.0462
  164TCq2    O4 2505   2.644   4.273  11.335 -0.1698 -0.4155  0.1625
  164TCq2    C9 2506   3.184   4.327  11.103  0.8742 -0.4617 -0.0785
  164TCq2    O5 2507   3.225   4.376  10.992  0.4550  0.2693 -0.2884
  164TCq2    O6 2508   3.249   4.318  11.209  0.1168 -0.2709 -0.1486
  164TCq2    H2 2509   3.033   4.284  10.900  0.2457 -3.4173  0.2591
  164TCq2    H3 2510   3.040   4.325  11.311  0.6798 -1.2309 -0.5624
  164TCq2    H4 2511   2.662   4.238  11.118 -0.4441 -1.0719 -0.8033
  165MPD2     C 2512   3.556   0.328   2.011 -0.2066 -0.1049 -0.5919
  165MPD2    C1 2513   3.663   0.327   1.928  0.2379  0.0051  0.3117
  165MPD2    C2 2514   3.661   0.426   1.831  0.1117  0.4957  0.5894
  165MPD2    C3 2515   3.550   0.510   1.812  0.3255 -0.3601  0.3297
  165MPD2    C4 2516   3.435   0.498   1.882  0.0183  0.1518 -0.0570
  165MPD2    C5 2517   3.441   0.410   1.990 -0.2889  0.3153 -0.0261
  165MPD2     H 2518   3.753   0.438   1.775 -1.2531  3.8499 -0.9430
  165MPD2    H1 2519   3.343   0.553   1.870  0.7329  1.7490  1.8352
  165MPD2    H2 2520   3.547   0.248   2.083 -0.1807 -2.1966 -2.9367
  165MPD2    H3 2521   3.352   0.406   2.051 -1.1780  0.2303 -1.3156
  165MPD2     N 2522   3.549   0.618   1.717  0.1879  0.1283  0.1057
  165MPD2    H5 2523   3.457   0.659   1.701 -0.2670 -1.2171 -0.7247
  165MPD2    N1 2524   3.779   0.251   1.932  0.0339  0.0877  0.3042
  165MPD2    H7 2525   3.858   0.262   1.869  0.3088 -0.2040  0.5960
  166TCq2    C1 2526   3.658   0.672   1.667  0.3043  0.1378 -0.3135
  166TCq2    O2 2527   3.774   0.647   1.693  0.0916  0.6644  0.1470
  166TCq2    C2 2528   3.630   0.782   1.568  0.1812  0.0531  0.3657
  166TCq2    C3 2529   3.504   0.816   1.522  0.0299 -0.3983  0.1168
  166TCq2    C4 2530   3.503   0.898   1.410 -0.1737 -0.1711  0.4784
  166TCq2    C5 2531   3.612   0.958   1.355  0.2361 -0.2724 -0.4736
  166TCq2    C6 2532   3.732   0.941   1.423  0.5959  0.6275  0.5315
  166TCq2    C7 2533   3.744   0.850   1.529  0.0045  0.6388  0.6691
  166TCq2    C8 2534   3.852   1.002   1.375 -0.0125  0.2536  0.7348
  166TCq2    O4 2535   3.957   0.968   1.431  0.3830  0.1012 -0.6212
  166TCq2    C9 2536   3.373   0.927   1.350  0.1140 -0.5983  0.0119
  166TCq2    O5 2537   3.368   0.966   1.232 -1.1967  0.1491 -0.1299
  166TCq2    O6 2538   3.269   0.914   1.421 -0.4742 -0.0379 -0.7156
  166TCq2    H2 2539   3.415   0.766   1.559 -0.6770 -1.4990 -3.0528
  166TCq2    H3 2540   3.584   1.021   1.271  1.6516  2.1575  0.8800
  166TCq2    H4 2541   3.841   0.810   1.554 -0.7798 -0.9883  1.1064
  167TMC2    C1 2542   2.596   4.232  13.066 -0.0899 -1.0213  0.3154
  167TMC2    C2 2543   2.513   4.302  13.146  0.2445  0.2788 -0.2621
  167TMC2    C3 2544   2.396   4.244  13.175  0.4227 -0.6665  0.4122
  167TMC2    C4 2545   2.564   4.107  13.012 -0.7764  0.4569 -0.5256
  167TMC2    C5 2546   2.445   4.052  13.040  0.1247 -0.3446  0.7305
  167TMC2    C6 2547   2.359   4.121  13.129 -0.1190 -0.8631  0.2320
  167TMC2     C 2548   2.682   4.316  12.985 -0.3276  0.1321 -0.0300
  167TMC2     O 2549   2.722   4.422  13.029 -0.0687 -0.1885 -0.0317
  167TMC2     H 2550   2.533   4.407  13.163  1.6336  0.2095 -1.4550
  167TMC2    H1 2551   2.628   4.046  12.950  0.0396 -0.3977  1.1679
  167TMC2    H2 2552   2.254   4.095  13.139 -0.1590  0.6784  3.5591
  167TMC2    C7 2553   2.415   3.908  13.006 -0.8558 -0.5629  0.4075
  167TMC2    C8 2554   2.284   4.322  13.214  0.1566 -0.4171  0.0599
  167TMC2    O1 2555   2.347   3.856  13.092  0.4538  0.1769  0.2154
  167TMC2    O2 2556   2.241   4.300  13.327 -1.0630 -1.1027  0.2080
  167TMC2    O5 2557   2.295   4.441  13.140  0.3341  0.1839 -0.5778
  167TMC2    H5 2558   2.335   4.428  13.051 -0.1492 -1.9162 -0.5013
  168MPD2     C 2559   2.811   4.446  12.753  0.9162 -0.3964 -0.6138
  168MPD2    C1 2560   2.715   4.347  12.743  0.0030 -0.0229 -0.3220
  168MPD2    C2 2561   2.669   4.308  12.617 -0.0562 -1.0466 -0.9910
  168MPD2    C3 2562   2.714   4.370  12.505  0.5319 -0.6842 -0.4161
  168MPD2    C4 2563   2.805   4.468  12.518  0.4099  0.0164 -0.6722
  168MPD2    C5 2564   2.848   4.512  12.637 -0.4489  0.9572  0.4503
  168MPD2     H 2565   2.605   4.221  12.611 -1.0145 -0.3012 -1.6196
  168MPD2    H1 2566   2.839   4.524  12.432 -0.7205  0.8652 -0.5661
  168MPD2    H2 2567   2.862   4.485  12.840 -1.1900  1.4485 -0.2099
  168MPD2    H3 2568   2.921   4.592  12.643  0.2642  0.0494  4.0730
  168MPD2     N 2569   2.659   4.320  12.381 -0.2224 -0.2046  0.4768
  168MPD2    H5 2570   2.583   4.253  12.382 -0.4645  0.0357 -0.9101
  168MPD2    N1 2571   2.667   4.278  12.858  0.6435 -0.5133 -0.4948
  168MPD2    H7 2572   2.619   4.190  12.845  0.9105 -1.0070  1.8663
  169MPD1     C 2573   4.714   2.381  10.293 -0.0641  0.0426 -0.4963
  169MPD1    C1 2574   4.594   2.365  10.223 -0.5577  0.1584 -0.6476
  169MPD1    C2 2575   4.550   2.457  10.124  1.8455 -0.3322  0.4605
  169MPD1    C3 2576   4.626   2.572  10.097 -0.4110  0.4993 -0.0279
  169MPD1    C4 2577   0.017   2.593  10.174 -0.2421  0.4364  0.0293
  169MPD1    C5 2578   0.062   2.501  10.263  0.0420 -0.3014  0.7544
  169MPD1     H 2579   4.474   2.427  10.052 -2.2365  2.1364  3.7616
  169MPD1    H1 2580   0.079   2.680  10.161  0.6276 -0.2383 -0.3710
  169MPD1    H2 2581   0.038   2.315  10.367 -2.3358 -2.4299 -1.3588
  169MPD1    H3 2582   0.147   2.523  10.328  0.4803 -1.1880  0.4805
  169MPD1     N 2583   4.571   2.666  10.001  0.1125  0.4258 -0.0167
  169MPD1    H5 2584   4.501   2.631   9.937  0.4080  0.2073 -0.2237
  169MPD1    N1 2585   4.521   2.241  10.238  0.3732 -0.8138 -0.0687
  169MPD1    H6 2586   4.541   2.200  10.329  1.0455 -0.0061  0.1445
  169MPD1    H7 2587   4.423   2.238  10.211  0.4366  0.4571 -0.4169
  170MPD1     C 2588   3.672   1.111  13.019 -0.5844 -0.1206 -0.3157
  170MPD1    C1 2589   3.592   1.222  12.986 -0.3538  0.6711  0.2113
  170MPD1    C2 2590   3.550   1.303  13.085  0.0485 -0.1423  0.5865
  170MPD1    C3 2591   3.569   1.264  13.219 -1.0407 -0.2219 -0.0754
  170MPD1    C4 2592   3.644   1.152  13.246  0.5993 -0.0641 -0.4856
  170MPD1    C5 2593   3.698   1.072  13.146  0.0940  0.2084  0.0265
  170MPD1     H 2594   3.487   1.390  13.069 -1.3761 -1.2084  0.4327
  170MPD1    H1 2595   3.662   1.119  13.347 -0.1891 -1.1139 -0.6933
  170MPD1    H2 2596   3.701   1.039  12.943  2.3731  0.3704  0.3434
  170MPD1    H3 2597   3.757   0.983  13.164  0.9166  0.6674 -0.3848
  170MPD1     N 2598   3.529   1.358  13.322 -0.5995  0.2979  0.7049
  170MPD1    H5 2599   3.456   1.427  13.307 -0.0885  0.0747 -2.7771
  170MPD1    N1 2600   3.540   1.234  12.858 -0.5678 -0.3930  0.2444
  170MPD1    H6 2601   3.591   1.183  12.786 -1.7585 -0.2607 -0.7014
  170MPD1    H7 2602   3.533   1.334  12.840  0.6335 -0.4871 -0.7569
  171MPD1     C 2603   2.062   2.888  15.584  0.1942  0.5210  0.0062
  171MPD1    C1 2604   1.962   2.809  15.630 -0.0562 -0.3127 -0.4676
  171MPD1    C2 2605   2.000   2.676  15.656  0.3249 -0.0862  0.1273
  171MPD1    C3 2606   2.125   2.622  15.636 -0.3443  0.4977 -0.4501
  171MPD1    C4 2607   2.208   2.701  15.563  0.1700 -0.6013 -0.5808
  171MPD1    C5 2608   2.181   2.836  15.544  0.8993  0.3846  0.2854
  171MPD1     H 2609   1.923   2.620  15.707 -0.2791  0.5533 -0.0881
  171MPD1    H1 2610   2.305   2.663  15.532  1.2396  2.3440 -0.8583
  171MPD1    H2 2611   2.043   2.995  15.583  0.2851  0.5506  1.1222
  171MPD1    H3 2612   2.256   2.903  15.503  1.4192 -0.3201  0.0823
  171MPD1     N 2613   2.150   2.486  15.640  0.5855 -0.7078  0.3617
  171MPD1    H5 2614   2.226   2.452  15.581  1.0425  1.3661 -0.2261
  171MPD1    N1 2615   1.840   2.863  15.670 -0.0780  0.5605  0.0882
  171MPD1    H6 2616   1.803   2.939  15.614 -1.0318 -0.3570 -0.5287
  171MPD1    H7 2617   1.768   2.792  15.663 -2.0330  2.3589  2.0679
  172MPD1     C 2618   0.695   1.201   1.051  0.1871 -0.3855 -0.0768
  172MPD1    C1 2619   0.689   1.290   0.950 -0.5225  0.1426 -0.3293
  172MPD1    C2 2620   0.801   1.371   0.932 -0.4029 -0.4862 -0.3440
  172MPD1    C3 2621   0.918   1.358   1.013 -0.3846  0.3845 -0.5579
  172MPD1    C4 2622   0.918   1.253   1.105 -0.0141 -0.6788 -0.0277
  172MPD1    C5 2623   0.808   1.182   1.122 -0.1674 -0.4235 -0.3534
  172MPD1     H 2624   0.788   1.452   0.861 -0.0501  0.6715  0.8945
  172MPD1    H1 2625   1.004   1.246   1.170 -0.7991  2.3711  1.3133
  172MPD1    H2 2626   0.611   1.137   1.077 -0.4247 -0.2680 -1.7519
  172MPD1    H3 2627   0.800   1.093   1.183  0.1797 -0.0595  0.2223
  172MPD1     N 2628   1.029   1.438   1.004  0.3203  0.0010 -0.3503
  172MPD1    H5 2629   1.102   1.407   1.067 -0.2916  1.9538  1.3264
  172MPD1    N1 2630   0.567   1.324   0.894  0.5529 -0.7431 -0.1896
  172MPD1    H6 2631   0.583   1.388   0.818  1.1316 -1.0051 -0.2841
  172MPD1    H7 2632   0.522   1.239   0.860 -0.4183 -0.3392  0.0831
  173MPD1     C 2633   2.081   0.499  14.396 -0.7673  0.1973  0.8554
  173MPD1    C1 2634   2.218   0.494  14.405  0.7993  0.0753 -0.7351
  173MPD1    C2 2635   2.272   0.611  14.443 -0.4370 -0.2707 -0.0784
  173MPD1    C3 2636   2.208   0.731  14.466  0.4570 -0.1662  0.0865
  173MPD1    C4 2637   2.079   0.736  14.446  0.5162 -0.6706 -0.7619
  173MPD1    C5 2638   2.013   0.619  14.418 -0.4595  0.8371  0.1660
  173MPD1     H 2639   2.378   0.613  14.467 -0.0346 -0.0171 -1.8378
  173MPD1    H1 2640   2.021   0.825  14.465  1.2678 -0.1420 -0.9178
  173MPD1    H2 2641   2.026   0.406  14.384  0.1718 -0.0150 -1.6323
  173MPD1    H3 2642   1.905   0.623  14.410 -0.4017  0.1684 -0.9348
  173MPD1     N 2643   2.280   0.842  14.525  0.2507  0.7304 -0.0382
  173MPD1    H5 2644   2.381   0.841  14.514  0.3665  2.5593  0.9976
  173MPD1    N1 2645   2.289   0.375  14.420 -0.1991 -0.0095 -0.0482
  173MPD1    H6 2646   2.389   0.373  14.404 -0.4530 -1.1226 -1.5355
  173MPD1    H7 2647   2.249   0.304  14.358  0.1122  0.4474 -0.7721
  174MPD1     C 2648   3.070   1.452  14.410 -0.5480 -0.0024 -0.3241
  174MPD1    C1 2649   2.969   1.413  14.324 -0.1510  0.1451 -0.2308
  174MPD1    C2 2650   2.857   1.343  14.376 -0.2810  0.3488  0.3610
  174MPD1    C3 2651   2.849   1.312  14.502 -0.3674 -0.4104 -0.1823
  174MPD1    C4 2652   2.964   1.334  14.577 -0.0018 -0.0819  0.0795
  174MPD1    C5 2653   3.071   1.414  14.538  0.2874 -0.9373  0.4881
  174MPD1     H 2654   2.779   1.318  14.305  0.3496 -2.2266  0.5751
  174MPD1    H1 2655   2.964   1.302  14.680  0.4477 -0.7674 -0.1365
  174MPD1    H2 2656   3.140   1.528  14.375  0.1419 -0.8707 -0.8143
  174MPD1    H3 2657   3.157   1.436  14.601 -0.6083 -1.0775  1.7743
  174MPD1     N 2658   2.738   1.251  14.566 -0.2305  0.5374 -0.0445
  174MPD1    H5 2659   2.745   1.234  14.666  0.1373 -2.3627 -0.5859
  174MPD1    N1 2660   2.964   1.469  14.199 -0.5929  0.2300  0.2659
  174MPD1    H6 2661   2.910   1.411  14.135  0.7183  0.1015 -0.7119
  174MPD1    H7 2662   3.058   1.474  14.161 -0.2063 -1.9084  0.9216
  175MPD1     C 2663   1.371   2.505  15.820 -1.1538 -0.0550  0.5295
  175MPD1    C1 2664   1.250   2.460  15.764 -0.2962  0.1889 -0.1605
  175MPD1    C2 2665   1.180   2.370  15.842  0.1871 -0.0751 -0.3607
  175MPD1    C3 2666   1.247   2.300  15.942  0.1622  0.4373 -0.4425
  175MPD1    C4 2667   1.369   2.341  15.990  0.0216  0.2304  0.5554
  175MPD1    C5 2668   1.432   2.450  15.931  0.8124  0.0233 -0.4128
  175MPD1     H 2669   1.078   2.345  15.812  0.2283  0.3577 -0.8769
  175MPD1    H1 2670   1.415   2.302  16.080 -2.1223 -2.0934  0.6576
  175MPD1    H2 2671   1.421   2.590  15.774 -0.0754 -0.7616  0.4125
  175MPD1    H3 2672   1.529   2.485  15.965  0.3176  0.1627  0.8541
  175MPD1     N 2673   1.194   2.195  16.021 -0.6293 -0.0706  0.1614
  175MPD1    H5 2674   1.258   2.147  16.083  0.4299  0.0773 -0.8235
  175MPD1    N1 2675   1.188   2.529  15.661  0.4743 -0.0891 -1.0501
  175MPD1    H6 2676   1.259   2.563  15.596  1.3720 -1.2603 -0.7033
  175MPD1    H7 2677   1.117   2.475  15.612  0.0049  0.6031 -1.1266
  176MPD1     C 2678   3.571   0.345  17.287  1.3655  0.0937  0.7066
  176MPD1    C1 2679   3.444   0.351  17.236 -0.7715  0.6587 -0.6350
  176MPD1    C2 2680   3.339   0.362  17.328 -0.3461  0.5773 -0.1307
  176MPD1    C3 2681   3.353   0.367  17.469  0.1671 -0.0443  0.6115
  176MPD1    C4 2682   3.478   0.392  17.518 -0.4202 -0.3186 -0.1179
  176MPD1    C5 2683   3.581   0.379  17.421 -0.0577 -0.3350  0.9916
  176MPD1     H 2684   3.237   0.351  17.294 -0.0520  0.6386 -1.0364
  176MPD1    H1 2685   3.511   0.417  17.618  0.4331  1.8557 -0.9251
  176MPD1    H2 2686   3.661   0.347  17.226  0.0677 -0.2368 -1.2125
  176MPD1    H3 2687   3.686   0.398  17.441  0.2063 -0.8864  0.1293
  176MPD1     N 2688   3.239   0.378  17.553  0.5402  0.0057  0.6934
  176MPD1    H5 2689   3.150   0.352  17.512  0.4706  0.9508  0.2341
  176MPD1    N1 2690   3.410   0.315  17.100 -0.3541 -0.4584 -0.4605
  176MPD1    H6 2691   3.482   0.340  17.033 -1.0482  0.7760 -0.7429
  176MPD1    H7 2692   3.322   0.354  17.067 -0.9635 -3.2223 -2.0728
  177MPD1     C 2693   0.787   3.963  10.616  0.3063 -0.4518 -0.7666
  177MPD1    C1 2694   0.654   3.917  10.617 -0.0433 -0.1887 -0.0288
  177MPD1    C2 2695   0.562   3.999  10.553  0.1915 -0.7325 -0.9321
  177MPD1    C3 2696   0.602   4.114  10.482  1.0370 -1.1196  0.3873
  177MPD1    C4 2697   0.738   4.142  10.470  0.0887 -0.5605  0.2671
  177MPD1    C5 2698   0.824   4.070  10.547 -0.2729  0.2629 -0.0171
  177MPD1     H 2699   0.455   3.987  10.565  0.3397 -0.0149  1.0755
  177MPD1    H1 2700   0.777   4.220  10.406 -0.9015  0.3009  0.7228
  177MPD1    H2 2701   0.862   3.912  10.674  1.3216 -1.1561 -2.7076
  177MPD1    H3 2702   0.931   4.089  10.537 -0.8864  3.6758 -0.0794
  177MPD1     N 2703   0.504   4.183  10.411  0.3437  0.4515  0.1178
  177MPD1    H5 2704   0.413   4.140  10.398  0.2615  1.2661 -2.0270
  177MPD1    N1 2705   0.616   3.833  10.722  0.4542  0.2672  0.4590
  177MPD1    H6 2706   0.520   3.801  10.721  0.3662  0.5626 -1.6602
  177MPD1    H7 2707   0.680   3.754  10.728 -0.8196 -0.8620 -0.8849
  178MPD1     C 2708   3.196   0.537   0.656  0.2701  0.5779  0.0016
  178MPD1    C1 2709   3.238   0.409   0.679  0.1756 -0.4950  0.7217
  178MPD1    C2 2710   3.311   0.337   0.583 -0.2513 -0.3463  0.1732
  178MPD1    C3 2711   3.328   0.401   0.462  0.2978  0.5495  0.2375
  178MPD1    C4 2712   3.300   0.534   0.447 -0.0353 -0.1737 -0.0269
  178MPD1    C5 2713   3.241   0.607   0.546 -0.3125  0.5531 -0.0415
  178MPD1     H 2714   3.336   0.233   0.598 -0.8391 -0.3945  0.7943
  178MPD1    H1 2715   3.325   0.595   0.361  1.2500 -1.4254 -0.5498
  178MPD1    H2 2716   3.149   0.584   0.742  0.4591 -2.0307  1.5033
  178MPD1    H3 2717   3.224   0.713   0.530  0.7341  0.0903 -4.1118
  178MPD1     N 2718   3.379   0.336   0.354  0.0784  0.0403  0.0778
  178MPD1    H5 2719   3.395   0.388   0.268 -1.2026 -0.8395 -0.6979
  178MPD1    N1 2720   3.200   0.335   0.796 -0.4753 -0.4104  0.3483
  178MPD1    H6 2721   3.176   0.403   0.868  1.3747 -0.4812  1.0283
  178MPD1    H7 2722   3.255   0.254   0.824  3.3702  1.7886 -0.8556
  179MPD1     C 2723   3.105   3.666  15.407 -0.0844 -0.4617  0.3181
  179MPD1    C1 2724   3.208   3.620  15.490 -0.2346  1.0398 -0.3345
  179MPD1    C2 2725   3.205   3.492  15.543  0.7037  0.2486 -0.0332
  179MPD1    C3 2726   3.110   3.402  15.485  0.1218 -0.1442 -0.4460
  179MPD1    C4 2727   3.011   3.442  15.397  0.0306  0.0067  0.5810
  179MPD1    C5 2728   3.007   3.577  15.366  0.5734  0.4409  0.7219
  179MPD1     H 2729   3.263   3.471  15.632  0.0538  0.5732  0.4724
  179MPD1    H1 2730   2.946   3.370  15.349 -1.9924  1.8318  0.5931
  179MPD1    H2 2731   3.100   3.769  15.371 -0.2407  0.2293  2.3213
  179MPD1    H3 2732   2.926   3.627  15.314  2.4287 -0.1266 -2.7192
  179MPD1     N 2733   3.107   3.262  15.518 -0.3064 -0.1950  0.4553
  179MPD1    H5 2734   3.038   3.205  15.470 -0.8325  2.4668 -1.9051
  179MPD1    N1 2735   3.300   3.714  15.536  0.1159 -0.4777 -0.4090
  179MPD1    H6 2736   3.388   3.673  15.567  1.9039  0.6775 -3.9752
  179MPD1    H7 2737   3.296   3.791  15.470 -0.4548 -0.8303 -0.7830
  180MPD1     C 2738   2.310   4.707  15.058 -0.3716  0.1741 -0.4297
  180MPD1    C1 2739   2.446   0.016  15.038 -0.4965 -0.3346  0.1166
  180MPD1    C2 2740   2.486   0.010  14.911  0.0556 -0.7690 -0.0244
  180MPD1    C3 2741   2.407   4.697  14.804 -0.0710 -0.1738  0.0501
  180MPD1    C4 2742   2.270   4.675  14.825 -0.0573 -0.1279 -0.1783
  180MPD1    C5 2743   2.224   4.679  14.955 -0.2576  0.5227  0.6962
  180MPD1     H 2744   2.593   0.011  14.895 -0.3019  2.8971 -2.2574
  180MPD1    H1 2745   2.195   4.656  14.749  1.3739 -1.8029 -1.1916
  180MPD1    H2 2746   2.274   4.704  15.161  1.1007  0.0516  0.0758
  180MPD1    H3 2747   2.118   4.671  14.975 -0.3612  0.8409  0.2712
  180MPD1     N 2748   2.470   4.677  14.680 -0.2475 -0.2661  0.0299
  180MPD1    H5 2749   2.571   4.686  14.681 -0.0407 -2.4782  0.6938
  180MPD1    N1 2750   2.533   0.043  15.142  0.4191 -0.4115 -0.0164
  180MPD1    H6 2751   2.499   0.108  15.213  2.4659 -1.6369  2.0781
  180MPD1    H7 2752   2.624   0.080  15.114  0.4615 -0.7718 -0.3577
  181MPD1     C 2753   1.138   1.765   9.094 -0.4834 -0.6487  0.2811
  181MPD1    C1 2754   1.148   1.638   9.147 -0.5865  0.5059 -0.2685
  181MPD1    C2 2755   1.084   1.618   9.268 -0.5512  0.2856  0.5204
  181MPD1    C3 2756   1.026   1.726   9.333 -0.1445 -0.3406 -0.5085
  181MPD1    C4 2757   1.014   1.852   9.281 -0.2636 -0.1547  0.6724
  181MPD1    C5 2758   1.067   1.860   9.152 -0.2019 -0.0118 -0.7354
  181MPD1     H 2759   1.078   1.518   9.310  1.0411  0.4025  1.0167
  181MPD1    H1 2760   0.957   1.933   9.325  1.5272  1.8995 -0.7980
  181MPD1    H2 2761   1.177   1.792   8.996  0.7545  0.1708  0.9949
  181MPD1    H3 2762   1.060   1.953   9.098 -0.8470  0.3055 -0.1154
  181MPD1     N 2763   0.958   1.714   9.454  0.8700  0.6652  0.3138
  181MPD1    H5 2764   0.911   1.794   9.494  0.6222  0.7226 -0.0969
  181MPD1    N1 2765   1.187   1.539   9.064 -0.4204  0.4857  0.2015
  181MPD1    H6 2766   1.253   1.574   8.995 -1.4647  0.6568 -0.7261
  181MPD1    H7 2767   1.227   1.457   9.109  0.0641 -0.1844 -1.4654
  182MPD1     C 2768   0.641   0.571   1.865 -0.4212  0.6033  0.2745
  182MPD1    C1 2769   0.687   0.517   1.745  0.0285  0.0462 -0.1140
  182MPD1    C2 2770   0.599   0.516   1.634 -0.0828 -0.4573  0.3141
  182MPD1    C3 2771   0.466   0.549   1.650 -0.0405  0.7085 -0.0771
  182MPD1    C4 2772   0.419   0.578   1.780 -0.2223 -0.6753 -0.2273
  182MPD1    C5 2773   0.505   0.597   1.884 -0.1146 -0.0138  0.3750
  182MPD1     H 2774   0.632   0.486   1.535 -2.2959  0.6013 -0.7391
  182MPD1    H1 2775   0.317   0.607   1.804  0.1797  0.4291  0.1711
  182MPD1    H2 2776   0.700   0.606   1.949  0.1840  0.4010 -0.0581
  182MPD1    H3 2777   0.476   0.647   1.975  2.0523 -0.8458  1.5027
  182MPD1     N 2778   0.368   0.542   1.550  0.0528  0.0081 -0.2884
  182MPD1    H5 2779   0.274   0.577   1.568  1.0267  0.8294  3.1728
  182MPD1    N1 2780   0.823   0.485   1.721 -0.6140  0.8789 -0.2786
  182MPD1    H6 2781   0.873   0.441   1.798  1.3829  0.3976 -1.8357
  182MPD1    H7 2782   0.844   0.424   1.642  1.5006  1.6241 -0.2784
  183MPD1     C 2783   1.420   1.973   9.372  0.0388 -0.4757 -0.2474
  183MPD1    C1 2784   1.418   2.094   9.441 -0.3176 -0.3605  0.2538
  183MPD1    C2 2785   1.336   2.112   9.553  0.5074  0.6693  0.5472
  183MPD1    C3 2786   1.258   2.007   9.603  0.0889 -0.8998 -0.0389
  183MPD1    C4 2787   1.266   1.886   9.525 -0.0349  0.0961  0.1433
  183MPD1    C5 2788   1.347   1.869   9.416  1.0682 -0.0184 -0.1429
  183MPD1     H 2789   1.337   2.204   9.610 -1.5031  0.5090  0.8264
  183MPD1    H1 2790   1.210   1.801   9.562  0.0752 -1.7126 -3.9364
  183MPD1    H2 2791   1.493   1.962   9.292  2.5037  1.4687  1.7697
  183MPD1    H3 2792   1.348   1.785   9.349 -0.1509 -0.3916  0.3091
  183MPD1     N 2793   1.189   2.018   9.726 -0.2867  0.0478 -0.1994
  183MPD1    H5 2794   1.172   2.108   9.769 -0.7948  0.2777 -0.8828
  183MPD1    N1 2795   1.501   2.205   9.404  0.3890  0.1120  0.3320
  183MPD1    H6 2796   1.522   2.202   9.305  0.8820  1.2685  0.3976
  183MPD1    H7 2797   1.464   2.297   9.427  0.9318 -0.4456  3.3889
  184MPD1     C 2798   4.396   3.414  10.461  0.3630  0.4973  0.0059
  184MPD1    C1 2799   4.516   3.467  10.497  0.3553  0.2031 -0.4977
  184MPD1    C2 2800   4.559   3.581  10.442 -0.6731 -0.0660  0.3626
  184MPD1    C3 2801   4.490   3.645  10.340  0.5879  0.2022 -0.2449
  184MPD1    C4 2802   4.368   3.592  10.302 -0.1304 -0.1320  0.1775
  184MPD1    C5 2803   4.325   3.474  10.358  0.3595  0.8995 -0.6911
  184MPD1     H 2804   4.647   3.628  10.485 -0.1670 -0.5372 -0.1539
  184MPD1    H1 2805   4.319   3.627  10.212 -0.3276  0.2694  0.4387
  184MPD1    H2 2806   4.348   3.335  10.517 -0.1284  0.1682 -0.8804
  184MPD1    H3 2807   4.242   3.419  10.315  0.5959  1.3757 -1.7604
  184MPD1     N 2808   4.530   3.758  10.272  0.4109  0.5526 -0.0683
  184MPD1    H5 2809   4.487   3.786  10.184 -0.8298 -1.5472 -0.1304
  184MPD1    N1 2810   4.585   3.418  10.610  0.6592 -0.0742  0.5024
  184MPD1    H6 2811   4.570   3.317  10.612 -0.2927  0.0501 -0.2107
  184MPD1    H7 2812   4.686   3.427  10.617  0.7308 -1.0035  0.6057
  185MPD1     C 2813   4.178   3.962   9.551 -0.1132  0.2468 -0.6693
  185MPD1    C1 2814   4.268   4.058   9.555 -0.3785  0.5061 -0.0181
  185MPD1    C2 2815   4.331   4.099   9.676  0.2505  0.3275 -0.1269
  185MPD1    C3 2816   4.300   4.030   9.798  0.0327 -0.1258  0.5043
  185MPD1    C4 2817   4.208   3.929   9.784 -0.4586 -0.3797  0.1308
  185MPD1    C5 2818   4.150   3.896   9.667  0.0378  1.0073 -0.3501
  185MPD1     H 2819   4.410   4.173   9.668 -0.9454  1.6986  0.7077
  185MPD1    H1 2820   4.202   3.861   9.868 -1.5324 -0.3124  0.0989
  185MPD1    H2 2821   4.128   3.924   9.463  1.0420 -1.2346 -0.6818
  185MPD1    H3 2822   4.082   3.812   9.660  1.9041 -0.4390 -1.0716
  185MPD1     N 2823   4.362   4.054   9.923  0.4041 -0.3754 -0.0311
  185MPD1    H5 2824   4.329   3.998  10.001  0.4540  0.4133  0.5591
  185MPD1    N1 2825   4.307   4.101   9.432 -0.0518 -0.2695 -0.2160
  185MPD1    H6 2826   4.345   4.195   9.439 -2.2679  0.5087  1.4599
  185MPD1    H7 2827   4.252   4.081   9.349  1.9213  1.6812 -2.0182
  186MPD1     C 2828   3.256   4.109  15.962  0.0759  0.3144 -0.2174
  186MPD1    C1 2829   3.211   4.089  16.094  0.0151 -0.1286  0.1728
  186MPD1    C2 2830   3.279   3.993  16.166 -0.3863  0.1596 -0.6191
  186MPD1    C3 2831   3.371   3.906  16.106  0.1254  0.1470  0.7417
  186MPD1    C4 2832   3.401   3.924  15.972  0.6341 -0.1450  0.3024
  186MPD1    C5 2833   3.342   4.026  15.900  0.4103  0.0133  0.4746
  186MPD1     H 2834   3.241   3.988  16.268  0.4571 -0.4778 -0.3358
  186MPD1    H1 2835   3.468   3.854  15.922 -3.2852 -3.3078 -0.5363
  186MPD1    H2 2836   3.214   4.186  15.899  1.6488  0.7408 -0.7473
  186MPD1    H3 2837   3.358   4.039  15.793  0.7049 -1.0809  0.3942
  186MPD1     N 2838   3.436   3.806  16.182  0.2107 -0.0658 -1.1782
  186MPD1    H5 2839   3.485   3.736  16.127  1.9342  0.9603 -0.9320
  186MPD1    N1 2840   3.120   4.185  16.154  0.0105 -0.2599  0.1116
  186MPD1    H6 2841   3.051   4.219  16.088 -0.1408  1.3785  1.1228
  186MPD1    H7 2842   3.059   4.139  16.222 -1.7918  1.5516 -0.2706
  187MPD1     C 2843   3.040   0.748   0.318  0.0785 -0.0092 -0.3763
  187MPD1    C1 2844   2.917   0.696   0.361 -0.0354  0.1219 -0.4904
  187MPD1    C2 2845   2.811   0.696   0.270 -0.3618  0.1471  0.7153
  187MPD1    C3 2846   2.824   0.745   0.148  0.5658 -0.6844  0.0673
  187MPD1    C4 2847   2.949   0.806   0.106 -0.0625 -0.1740 -0.4441
  187MPD1    C5 2848   3.060   0.790   0.188 -0.3473 -0.2053 -0.1780
  187MPD1     H 2849   2.711   0.659   0.289 -0.4074  0.2904  0.7497
  187MPD1    H1 2850   2.957   0.858   0.012  0.7649  1.7632  0.6967
  187MPD1    H2 2851   3.113   0.769   0.395  0.6418 -1.1033 -0.6148
  187MPD1    H3 2852   3.151   0.833   0.147  1.1064 -2.8644  0.2429
  187MPD1     N 2853   2.712   0.764   0.062 -0.1576 -0.1983  0.3436
  187MPD1    H5 2854   2.725   0.834  17.673 -1.1455 -0.5315 -0.1464
  187MPD1    N1 2855   2.903   0.650   0.491 -0.5244 -0.0634 -0.6219
  187MPD1    H6 2856   2.992   0.607   0.517 -0.8881 -0.1499  0.4748
  187MPD1    H7 2857   2.814   0.603   0.506 -0.5865  0.9039  2.0426
  188MPD1     C 2858   2.136   0.194  10.245  0.1230  0.4688  0.6002
  188MPD1    C1 2859   2.232   0.165  10.152  0.4827  1.1751  0.1419
  188MPD1    C2 2860   2.228   0.040  10.084 -0.2142  0.0904 -0.2168
  188MPD1    C3 2861   2.156   4.653  10.143  0.3014 -0.0154  0.2075
  188MPD1    C4 2862   2.074   4.686  10.252  0.0192  0.1842 -0.3142
  188MPD1    C5 2863   2.062   0.094  10.297  0.1527  0.4553  0.8554
  188MPD1     H 2864   2.299   0.014  10.007 -1.8551 -2.0564 -1.0041
  188MPD1    H1 2865   2.005   4.612  10.291 -0.6254  0.4224 -1.0017
  188MPD1    H2 2866   2.130   0.286  10.302 -0.0020  0.3186  0.8295
  188MPD1    H3 2867   2.004   0.123  10.384  0.7294 -2.0790  2.0842
  188MPD1     N 2868   2.138   4.521  10.104  0.2840 -0.4816  0.0604
  188MPD1    H5 2869   2.067   4.474  10.159 -0.9586  1.6589  0.2666
  188MPD1    N1 2870   2.304   0.272  10.091  0.5208 -0.0247 -0.1457
  188MPD1    H6 2871   2.389   0.266  10.036  0.3816 -1.1526 -0.2342
  188MPD1    H7 2872   2.314   0.347  10.160 -1.8428  1.3550 -1.2928
  189MPD1     C 2873   0.234   0.133   0.185  0.4074  1.5885 -0.0648
  189MPD1    C1 2874   0.162   0.094   0.301 -0.0120  0.2442 -0.4525
  189MPD1    C2 2875   0.043   0.164   0.324 -0.1397 -0.6371  0.5933
  189MPD1    C3 2876   0.005   0.280   0.250 -0.4657 -0.6816  0.7112
  189MPD1    C4 2877   0.089   0.324   0.150 -0.2212 -0.0070  0.1862
  189MPD1    C5 2878   0.197   0.248   0.123  0.2348  0.7547 -0.2400
  189MPD1     H 2879   4.692   0.139   0.401 -1.3527 -0.1509 -0.3707
  189MPD1    H1 2880   0.074   0.417   0.096 -0.2638  0.4410  0.9732
  189MPD1    H2 2881   0.307   0.070   0.137  0.1866  1.2522  0.0336
  189MPD1    H3 2882   0.264   0.270   0.041  1.0729 -0.8462  0.0338
  189MPD1     N 2883   4.615   0.350   0.302  0.5682 -0.8805  0.0054
  189MPD1    H5 2884   4.560   0.293   0.366 -1.2930  0.5625 -0.3010
  189MPD1    N1 2885   0.188   4.689   0.358 -0.3511 -0.0550 -0.0847
  189MPD1    H6 2886   0.289   4.678   0.367 -0.7444 -1.6134  2.2445
  189MPD1    H7 2887   0.144   4.692   0.449 -0.0256  2.2758 -0.0021
  190MPD1     C 2888   3.398   0.011  16.742 -0.3161 -0.1945 -0.1254
  190MPD1    C1 2889   3.318   4.627  16.722  0.2163 -0.2342  0.5669
  190MPD1    C2 2890   3.328   4.572  16.593  0.7973 -0.0013 -0.3136
  190MPD1    C3 2891   3.408   4.625  16.490 -0.2433 -0.2403 -0.2214
  190MPD1    C4 2892   3.471   0.023  16.512 -0.5517 -0.1166  0.2200
  190MPD1    C5 2893   3.475   0.068  16.642 -0.0828  0.0070  0.3090
  190MPD1     H 2894   3.269   4.482  16.579  2.7171 -0.9940 -1.8832
  190MPD1    H1 2895   3.528   0.076  16.436  2.0256  0.3445  2.4456
  190MPD1    H2 2896   3.409   0.053  16.841  0.1948 -1.7604  0.4866
  190MPD1    H3 2897   3.538   0.153  16.664  2.0253 -0.8284 -2.4009
  190MPD1     N 2898   3.408   4.558  16.364  0.4401  0.5330  0.1157
  190MPD1    H5 2899   3.358   4.471  16.351 -0.1896  0.4756  2.7454
  190MPD1    N1 2900   3.245   4.577  16.833 -0.3768 -0.2758  0.1277
  190MPD1    H6 2901   3.156   4.533  16.810 -0.8851  0.7841  0.0700
  190MPD1    H7 2902   3.235   4.643  16.909  0.9754  0.3152 -0.2092
  191MPD1     C 2903   2.013   1.825  12.078 -0.3824  0.4199  0.2116
  191MPD1    C1 2904   2.063   1.887  12.186 -0.3435  0.1190  0.1847
  191MPD1    C2 2905   2.163   1.977  12.169  0.5688  0.9914 -0.0038
  191MPD1    C3 2906   2.239   1.982  12.053 -0.2177  0.3763 -0.7417
  191MPD1    C4 2907   2.203   1.891  11.952  0.2992  0.1398  0.0224
  191MPD1    C5 2908   2.086   1.822  11.962 -0.3548 -0.4404 -0.2859
  191MPD1     H 2909   2.193   2.046  12.247  0.0341  1.4075 -0.1617
  191MPD1    H1 2910   2.253   1.874  11.857 -2.3297 -1.6305 -1.0249
  191MPD1    H2 2911   1.920   1.770  12.084 -0.9318  1.3862  0.5067
  191MPD1    H3 2912   2.051   1.773  11.872 -3.7792  1.2021  0.1575
  191MPD1     N 2913   2.352   2.066  12.046 -0.4665  0.6015  0.4153
  191MPD1    H5 2914   2.370   2.131  12.122 -1.1631  0.6617  0.5328
  191MPD1    N1 2915   1.986   1.892  12.303  0.3807  0.0032  0.2342
  191MPD1    H6 2916   1.959   1.799  12.334 -1.3060  0.1893 -0.6663
  191MPD1    H7 2917   2.039   1.933  12.380  0.6721  0.7093 -0.3439
  192MPD1     C 2918   2.526   2.960  11.718 -0.2482 -0.2398  0.3412
  192MPD1    C1 2919   2.468   2.919  11.839  0.5620  0.1791  0.1837
  192MPD1    C2 2920   2.506   2.795  11.896 -0.9385  0.2602  0.2868
  192MPD1    C3 2921   2.589   2.708  11.828 -0.6298 -0.4400 -0.0276
  192MPD1    C4 2922   2.644   2.751  11.703 -0.0927  0.6187 -0.3050
  192MPD1    C5 2923   2.609   2.875  11.649 -0.5263 -0.3453  0.2672
  192MPD1     H 2924   2.459   2.763  11.988 -0.9375 -0.4433  0.0398
  192MPD1    H1 2925   2.711   2.686  11.647  0.7594  2.5829 -1.5604
  192MPD1    H2 2926   2.507   3.060  11.679 -0.8272 -1.5713 -2.7323
  192MPD1    H3 2927   2.664   2.916  11.566 -1.2955  0.5657  0.1938
  192MPD1     N 2928   2.628   2.579  11.885  0.3019  0.3473  0.2692
  192MPD1    H5 2929   2.692   2.528  11.825  1.1948 -1.1819  2.5378
  192MPD1    N1 2930   2.398   3.009  11.923  0.1277  0.1433 -0.7437
  192MPD1    H6 2931   2.335   2.970  11.992  0.4695  0.3668 -0.3113
  192MPD1    H7 2932   2.337   3.067  11.866 -1.0489  0.1661  0.5434
  193MPD1     C 2933   1.876   1.812  16.292 -0.3067  0.1710  0.2875
  193MPD1    C1 2934   1.831   1.917  16.371  0.6335  0.6614  0.3257
  193MPD1    C2 2935   1.902   1.937  16.490  0.2876 -0.8564  0.0899
  193MPD1    C3 2936   2.015   1.866  16.530 -0.2700  0.4384 -0.0266
  193MPD1    C4 2937   2.065   1.776  16.433 -0.7396 -0.4063 -0.1214
  193MPD1    C5 2938   1.991   1.742  16.325  0.3408 -0.0915  0.2581
  193MPD1     H 2939   1.872   2.016  16.558 -1.0211 -2.0180  0.8614
  193MPD1    H1 2940   2.154   1.717  16.445 -1.5805 -1.3764  1.3255
  193MPD1    H2 2941   1.832   1.779  16.199 -0.4398  0.2770  0.3139
  193MPD1    H3 2942   2.012   1.655  16.264  1.5029  0.1565  0.2969
  193MPD1     N 2943   2.081   1.875  16.657 -0.4492 -0.4268  0.9088
  193MPD1    H5 2944   2.159   1.814  16.677  0.9947  1.4317  0.9803
  193MPD1    N1 2945   1.711   1.987  16.338  0.3430 -0.1145 -0.0782
  193MPD1    H6 2946   1.705   2.069  16.398 -0.5315  0.3823 -0.8443
  193MPD1    H7 2947   1.715   2.025  16.243 -1.3901  0.9472  0.2637
  194MPD1     C 2948   1.063   3.489   0.119  0.6390 -0.5216 -0.2778
  194MPD1    C1 2949   0.995   3.436   0.009 -1.4072 -0.6364  0.5506
  194MPD1    C2 2950   0.955   3.304   0.002 -0.3423 -0.3431  0.5507
  194MPD1    C3 2951   0.967   3.222   0.120  0.1538 -0.4308 -0.5700
  194MPD1    C4 2952   1.032   3.277   0.236 -0.6014 -0.3014  0.2027
  194MPD1    C5 2953   1.084   3.402   0.224  0.4076  0.3517 -0.3419
  194MPD1     H 2954   0.911   3.268  17.594  0.7902  1.2554 -0.6030
  194MPD1    H1 2955   1.042   3.204   0.316 -1.1889 -0.0357  0.5165
  194MPD1    H2 2956   1.114   3.585   0.123  0.9634 -0.7646  1.4410
  194MPD1    H3 2957   1.129   3.458   0.306  0.4512  0.4644 -0.4426
  194MPD1     N 2958   0.913   3.088   0.125  0.4257 -0.1089  0.1125
  194MPD1    H5 2959   0.896   3.055   0.220 -1.9747 -1.5777 -0.8188
  194MPD1    N1 2960   0.978   3.509  17.573 -0.2921  0.0881 -0.2446
  194MPD1    H6 2961   0.977   3.611  17.577  3.0303  0.0608  1.4450
  194MPD1    H7 2962   0.890   3.493  17.525  0.3548 -2.1461 -0.6796
  195MPD1     C 2963   2.084   1.396   0.186 -0.3114  0.0680 -0.4256
  195MPD1    C1 2964   1.994   1.356   0.282 -0.1241  0.1115  0.6358
  195MPD1    C2 2965   1.992   1.227   0.332 -0.0175 -0.0283  0.2758
  195MPD1    C3 2966   2.088   1.130   0.288 -0.3414  0.2330  0.1392
  195MPD1    C4 2967   2.174   1.173   0.186  0.1093  0.1763  0.1824
  195MPD1    C5 2968   2.175   1.301   0.142 -0.1587 -0.2346 -0.3173
  195MPD1     H 2969   1.921   1.204   0.411 -0.6516 -0.8883 -0.5574
  195MPD1    H1 2970   2.253   1.113   0.144 -0.1955  0.3229 -0.5953
  195MPD1    H2 2971   2.091   1.499   0.153 -1.5242  0.2538 -0.0980
  195MPD1    H3 2972   2.246   1.341   0.072  0.4288  0.1508  0.5008
  195MPD1     N 2973   2.084   0.990   0.315  0.0107  0.3999 -0.2316
  195MPD1    H5 2974   2.150   0.928   0.270 -2.3719 -0.9678 -1.8814
  195MPD1    N1 2975   1.918   1.459   0.345  0.1672  0.0848 -0.0699
  195MPD1    H6 2976   1.827   1.426   0.377  0.5681 -1.3229 -0.3844
  195MPD1    H7 2977   1.902   1.532   0.276  0.4549  0.8852  0.7062
  196MPD1     C 2978   0.786   4.215   0.866 -0.6311 -0.2330 -0.4375
  196MPD1    C1 2979   0.868   4.310   0.809  0.5165  0.2288 -0.8552
  196MPD1    C2 2980   0.953   4.387   0.892 -0.1149 -0.8601  0.9976
  196MPD1    C3 2981   0.966   4.354   1.030 -0.6160 -0.3223  0.1000
  196MPD1    C4 2982   0.878   4.259   1.085 -1.3472 -0.5821  0.4621
  196MPD1    C5 2983   0.790   4.191   1.001 -0.8111  0.2152  0.0950
  196MPD1     H 2984   1.012   4.471   0.856  0.6754 -1.5507  0.6933
  196MPD1    H1 2985   0.883   4.244   1.193 -0.8358 -1.0211  0.3754
  196MPD1    H2 2986   0.713   4.160   0.808  0.9480 -0.4155 -2.2572
  196MPD1    H3 2987   0.719   4.125   1.049  1.1752 -1.1626  1.0852
  196MPD1     N 2988   1.047   4.422   1.121 -0.4270 -0.3995 -0.3508
  196MPD1    H5 2989   1.054   4.393   1.218  1.5482 -0.0456 -0.3837
  196MPD1    N1 2990   0.855   4.350   0.676  0.5100 -0.2308 -0.1608
  196MPD1    H6 2991   0.938   4.391   0.633  0.2929 -0.7715 -1.0988
  196MPD1    H7 2992   0.821   4.276   0.615 -1.2515 -0.8906  1.6385
  197MPD1     C 2993   0.594   2.103  17.469 -0.2726  0.5724 -0.0747
  197MPD1    C1 2994   0.711   2.066  17.529 -0.1997  0.8055 -0.8323
  197MPD1    C2 2995   0.831   2.115  17.480 -0.2425  1.3435  0.8054
  197MPD1    C3 2996   0.836   2.175  17.363  0.0559 -0.0619  0.4397
  197MPD1    C4 2997   0.719   2.204  17.296 -0.2527 -0.3097  0.0906
  197MPD1    C5 2998   0.601   2.162  17.349 -0.7757  0.0584 -0.6007
  197MPD1     H 2999   0.920   2.088  17.534 -0.0576  1.4258  0.5435
  197MPD1    H1 3000   0.722   2.250  17.198  0.6397 -0.2302  0.1565
  197MPD1    H2 3001   0.500   2.080  17.519 -0.5542  0.0351 -0.8593
  197MPD1    H3 3002   0.507   2.197  17.309 -0.3143 -0.4856 -2.1719
  197MPD1     N 3003   0.953   2.231  17.310  0.7060 -0.1610  0.3573
  197MPD1    H5 3004   0.948   2.294  17.231  1.8822 -0.5530 -0.0280
  197MPD1    N1 3005   0.719   2.024  17.662 -0.4654  0.0030  0.8137
  197MPD1    H6 3006   0.652   1.954   0.007 -1.1199 -0.2839 -1.4241
  197MPD1    H7 3007   0.815   2.005   0.005 -0.8910 -0.2533  2.1264
  198MPD1     C 3008   2.546   1.159  15.921  0.5674 -0.5540  0.4677
  198MPD1    C1 3009   2.642   1.214  15.840 -0.5210 -0.0285 -0.3610
  198MPD1    C2 3010   2.772   1.187  15.878  0.1378 -0.2504 -0.1948
  198MPD1    C3 3011   2.807   1.107  15.983 -0.1147 -0.7741  0.7050
  198MPD1    C4 3012   2.703   1.060  16.063  0.3575  0.9199  0.0235
  198MPD1    C5 3013   2.573   1.088  16.033 -0.2184 -0.2286 -0.4022
  198MPD1     H 3014   2.854   1.220  15.816 -0.8394 -0.1440 -1.4373
  198MPD1    H1 3015   2.721   0.994  16.148 -2.9518 -0.4104 -0.2964
  198MPD1    H2 3016   2.441   1.165  15.894  0.4106 -2.1005  0.7354
  198MPD1    H3 3017   2.492   1.045  16.091  1.4463 -1.0732  1.2890
  198MPD1     N 3018   2.944   1.081  16.011  0.2897 -0.5027  0.1536
  198MPD1    H5 3019   3.010   1.118  15.943 -0.0887  1.7704  1.0303
  198MPD1    N1 3020   2.609   1.262  15.710 -0.2873  0.6017 -0.1194
  198MPD1    H6 3021   2.679   1.323  15.670 -1.9451 -0.1623 -4.2062
  198MPD1    H7 3022   2.514   1.298  15.706 -0.2785  0.5211 -1.2051
  199MPD1     C 3023   4.316   1.360  10.031 -0.5418 -0.8199 -0.1882
  199MPD1    C1 3024   4.401   1.446   9.958  0.2259 -0.9297 -0.3655
  199MPD1    C2 3025   4.342   1.558   9.900 -0.0962 -0.1216 -0.2660
  199MPD1    C3 3026   4.206   1.579   9.906  0.1655 -0.2873  0.3821
  199MPD1    C4 3027   4.122   1.487   9.975 -0.2552  0.0556  0.1579
  199MPD1    C5 3028   4.186   1.380  10.035  0.2965  0.2189 -0.3749
  199MPD1     H 3029   4.407   1.624   9.844  1.1420 -1.5294 -0.4934
  199MPD1    H1 3030   4.016   1.499   9.993 -0.3635 -0.6757  0.0036
  199MPD1    H2 3031   4.357   1.268  10.073  0.1381 -0.1766  0.5448
  199MPD1    H3 3032   4.135   1.303  10.091  2.0185 -0.5643  0.1358
  199MPD1     N 3033   4.137   1.681   9.835  0.1563  0.1094  0.1225
  199MPD1    H5 3034   4.038   1.695   9.849 -0.0448  1.0948 -2.3467
  199MPD1    N1 3035   4.534   1.413   9.922 -0.0689  0.0798 -0.0492
  199MPD1    H6 3036   4.595   1.489   9.891 -0.0590 -0.4301 -1.2945
  199MPD1    H7 3037   4.575   1.349   9.989 -3.3954 -1.4492  0.5109
  200MPD1     C 3038   3.493   1.891  15.579 -1.0918  0.1131 -0.8311
  200MPD1    C1 3039   3.622   1.903  15.626 -0.5676  0.0704  0.6193
  200MPD1    C2 3040   3.722   1.949  15.546  0.2538 -0.3791 -0.3114
  200MPD1    C3 3041   3.692   1.998  15.420 -0.1259  0.2460  0.7511
  200MPD1    C4 3042   3.561   1.985  15.371 -0.7265  0.3042  0.8478
  200MPD1    C5 3043   3.464   1.935  15.451  0.3848 -0.8266 -0.2331
  200MPD1     H 3044   3.820   1.957  15.593  0.2073 -1.9467  0.0511
  200MPD1    H1 3045   3.517   2.025  15.281  0.7223 -0.6205 -0.2550
  200MPD1    H2 3046   3.409   1.860  15.639 -1.3544  0.8328 -0.8369
  200MPD1    H3 3047   3.360   1.932  15.421 -0.3258 -0.1219  2.1359
  200MPD1     N 3048   3.791   2.064  15.350  0.0948  0.2450 -0.1290
  200MPD1    H5 3049   3.881   2.072  15.397  0.0019  0.7021 -0.0237
  200MPD1    N1 3050   3.654   1.838  15.747 -0.0176  0.4501  0.0579
  200MPD1    H6 3051   3.752   1.847  15.775  0.9250 -1.1645 -2.8111
  200MPD1    H7 3052   3.590   1.844  15.827  2.0125  0.6411  1.6794
  201MPD1     C 3053   2.450   1.435  13.258  0.5830 -0.3897 -0.8164
  201MPD1    C1 3054   2.351   1.444  13.345 -0.4547 -0.1551 -0.0787
  201MPD1    C2 3055   2.304   1.331  13.414  0.0212  0.4817  0.4926
  201MPD1    C3 3056   2.388   1.221  13.419 -0.2915 -0.6855  0.3345
  201MPD1    C4 3057   2.500   1.221  13.333  0.0756 -0.8800  0.1149
  201MPD1    C5 3058   2.533   1.328  13.258 -0.1023 -0.0034  0.3761
  201MPD1     H 3059   2.209   1.338  13.467 -0.1622  1.4890  0.0256
  201MPD1    H1 3060   2.573   1.140  13.327  3.7990  2.3750  1.1618
  201MPD1    H2 3061   2.480   1.519  13.197 -2.9702  1.5869  0.2045
  201MPD1    H3 3062   2.618   1.334  13.191 -0.5246 -0.8407 -0.2360
  201MPD1     N 3063   2.357   1.110  13.500 -0.1518  0.9103 -0.1612
  201MPD1    H5 3064   2.272   1.109  13.557  1.4240 -0.0955  2.1857
  201MPD1    N1 3065   2.257   1.547  13.331 -0.1350  0.0825 -0.1057
  201MPD1    H6 3066   2.294   1.639  13.310 -3.5657  1.1839 -1.2604
  201MPD1    H7 3067   2.181   1.547  13.400 -0.5921  0.1757 -0.6065
  202MPD1     C 3068   1.901   1.243  10.016  0.2510 -0.2197  0.0351
  202MPD1    C1 3069   1.926   1.126  10.084  0.3756  0.2065  0.2428
  202MPD1    C2 3070   1.809   1.071  10.134 -0.7545  0.6140 -0.0547
  202MPD1    C3 3071   1.683   1.138  10.144 -0.0364  0.7266  0.3972
  202MPD1    C4 3072   1.679   1.259  10.079  0.4547 -0.4450 -0.2008
  202MPD1    C5 3073   1.779   1.308  10.009  0.3763 -0.2588 -0.4815
  202MPD1     H 3074   1.820   0.971  10.173 -0.0298  1.3167  1.5623
  202MPD1    H1 3075   1.582   1.309  10.074  1.8372  2.2058 -0.8078
  202MPD1    H2 3076   1.974   1.293   9.952  0.0508  1.0793  0.8105
  202MPD1    H3 3077   1.764   1.398   9.950  0.7940 -0.2099 -0.5180
  202MPD1     N 3078   1.565   1.088  10.209  0.5414  0.0589  0.0203
  202MPD1    H5 3079   1.476   1.132  10.190  1.1565  0.8975 -0.9390
  202MPD1    N1 3080   2.022   1.038  10.035 -0.0525  0.9101 -0.4170
  202MPD1    H6 3081   2.034   0.971  10.110 -1.4487 -0.9277 -1.8232
  202MPD1    H7 3082   2.114   1.075  10.013  1.4926 -2.7452 -0.0666
  203MPD1     C 3083   0.266   2.019  13.255  0.5105  0.3113  0.2371
  203MPD1    C1 3084   0.332   2.021  13.134  0.4116 -0.0603 -0.0567
  203MPD1    C2 3085   0.319   1.919  13.048 -0.0112 -0.3348  0.2190
  203MPD1    C3 3086   0.239   1.815  13.076  0.8473 -0.0024 -0.0880
  203MPD1    C4 3087   0.154   1.826  13.185 -0.2683 -0.0620  0.3160
  203MPD1    C5 3088   0.170   1.927  13.272  0.3713  0.0741  0.3272
  203MPD1     H 3089   0.377   1.917  12.957 -0.8094 -0.2683 -0.2926
  203MPD1    H1 3090   0.073   1.756  13.206 -0.1527 -0.1739  0.3858
  203MPD1    H2 3091   0.260   2.101  13.325  1.9898  0.5735  0.0497
  203MPD1    H3 3092   0.096   1.935  13.351  0.6123  0.3950  0.5220
  203MPD1     N 3093   0.251   1.695  13.005  0.1992 -0.1461 -0.0380
  203MPD1    H5 3094   0.315   1.681  12.928 -0.2455 -0.3070 -0.3780
  203MPD1    N1 3095   0.444   2.115  13.114 -0.4081 -0.0132  0.3033
  203MPD1    H6 3096   0.417   2.208  13.144  0.2132  0.0549  0.6516
  203MPD1    H7 3097   0.447   2.125  13.013  1.2005 -1.3328  0.2168
  204MPD1     C 3098   0.023   2.127   0.371 -0.2344 -0.2022  0.2145
  204MPD1    C1 3099   0.050   2.200   0.258  0.8404 -0.1734 -0.4335
  204MPD1    C2 3100   4.681   2.176   0.151  0.1992  0.9194  0.5622
  204MPD1    C3 3101   4.571   2.091   0.159  0.6855 -0.2721 -0.3378
  204MPD1    C4 3102   4.547   2.028   0.275  0.0831  1.0561  0.2380
  204MPD1    C5 3103   4.631   2.049   0.382  0.2649 -0.0238  0.3692
  204MPD1     H 3104   4.703   2.224   0.056 -0.2651  0.7845  0.3833
  204MPD1    H1 3105   4.471   1.953   0.297 -0.0536  0.2384 -3.0436
  204MPD1    H2 3106   0.086   2.123   0.460  1.4235 -0.3909 -0.9735
  204MPD1    H3 3107   4.611   1.999   0.476  1.6280 -0.4380  0.4334
  204MPD1     N 3108   4.499   2.050   0.043 -0.0003  0.2104 -0.2329
  204MPD1    H5 3109   4.533   2.093  17.642  0.9872 -1.2406 -0.5739
  204MPD1    N1 3110   0.182   2.259   0.246 -0.6071 -0.3011 -0.0607
  204MPD1    H6 3111   0.192   2.346   0.193  0.8625 -1.1594 -1.1711
  204MPD1    H7 3112   0.225   2.273   0.338  3.7962 -0.4150 -2.1052
  205MPD1     C 3113   0.406   1.423  16.781 -0.7529  0.0431  0.9136
  205MPD1    C1 3114   0.424   1.291  16.817 -0.2838  0.1505 -0.0313
  205MPD1    C2 3115   0.341   1.236  16.907 -0.0851 -0.6679  0.4495
  205MPD1    C3 3116   0.228   1.303  16.952  0.2660 -0.0244  0.4185
  205MPD1    C4 3117   0.192   1.428  16.900  0.9929  0.1758 -0.5790
  205MPD1    C5 3118   0.291   1.490  16.827  0.2858  0.5446 -0.0404
  205MPD1     H 3119   0.375   1.144  16.953  0.3847 -1.3266 -1.2532
  205MPD1    H1 3120   0.102   1.480  16.929  1.7397 -1.1797  4.2820
  205MPD1    H2 3121   0.471   1.480  16.717 -1.4100 -0.2079  0.0225
  205MPD1    H3 3122   0.274   1.595  16.806  0.0358  0.5175  0.0273
  205MPD1     N 3123   0.137   1.248  17.050 -0.8905  0.1814 -0.3887
  205MPD1    H5 3124   0.061   1.306  17.085 -2.2959 -0.7563 -1.9373
  205MPD1    N1 3125   0.543   1.224  16.790 -0.1054 -0.1871 -0.1383
  205MPD1    H6 3126   0.590   1.257  16.706  1.9574 -1.3106  0.5678
  205MPD1    H7 3127   0.530   1.123  16.790 -3.6460  0.2727  1.6805
  206MPD1     C 3128   0.736   3.834  15.898 -0.1688  0.4817 -0.1947
  206MPD1    C1 3129   0.776   3.862  16.026 -0.1212 -0.3913  0.2300
  206MPD1    C2 3130   0.696   3.947  16.103 -0.1140  0.7117  0.9632
  206MPD1    C3 3131   0.579   4.010  16.055 -0.4126  0.0216  0.8629
  206MPD1    C4 3132   0.540   3.972  15.923 -0.3259 -0.4488 -0.5891
  206MPD1    C5 3133   0.618   3.889  15.857 -0.4370  0.5953 -0.4651
  206MPD1     H 3134   0.742   3.969  16.199  0.0986 -1.1473  1.2911
  206MPD1    H1 3135   0.450   4.004  15.872  0.2182  0.9954 -0.6334
  206MPD1    H2 3136   0.774   3.762  15.827 -0.3062 -0.7895  1.0228
  206MPD1    H3 3137   0.580   3.865  15.759 -1.7295 -2.4155  0.7873
  206MPD1     N 3138   0.496   4.091  16.135  0.1247 -0.3090 -0.6163
  206MPD1    H5 3139   0.413   4.119  16.084 -1.5011 -1.4336  1.4296
  206MPD1    N1 3140   0.901   3.819  16.078  0.2386  0.2745  0.1482
  206MPD1    H6 3141   0.883   3.781  16.171  0.2722  0.0380  0.0588
  206MPD1    H7 3142   0.943   3.740  16.031  1.0776  0.3275  0.8133
  207MPD1     C 3143   1.897   1.837   9.872  0.2002 -0.6139 -0.1457
  207MPD1    C1 3144   2.001   1.930   9.860 -0.2641  0.3142 -0.3165
  207MPD1    C2 3145   2.125   1.904   9.914  0.0821 -0.0793  0.5970
  207MPD1    C3 3146   2.149   1.778   9.976  0.4330  0.0893  0.1441
  207MPD1    C4 3147   2.046   1.689   9.978  0.4770 -0.0857  0.0322
  207MPD1    C5 3148   1.923   1.710   9.926  0.0932  0.2447 -0.4867
  207MPD1     H 3149   2.213   1.967   9.905 -0.0276 -0.1634 -1.0009
  207MPD1    H1 3150   2.059   1.592  10.023 -1.3674 -0.4776 -0.2650
  207MPD1    H2 3151   1.791   1.856   9.858  0.0503  1.6535  4.0378
  207MPD1    H3 3152   1.842   1.638   9.929 -0.2885  0.7384  1.0133
  207MPD1     N 3153   2.272   1.766  10.042  0.1900 -0.4300 -0.0657
  207MPD1    H5 3154   2.341   1.838  10.023  1.2125 -1.2139  0.7200
  207MPD1    N1 3155   1.968   2.063   9.821 -0.1479  0.1671  0.4734
  207MPD1    H6 3156   2.047   2.103   9.770  0.1502 -2.0874 -0.8325
  207MPD1    H7 3157   1.890   2.054   9.756  0.1276  1.7022 -0.0791
  208MPD1     C 3158   0.808   0.092  17.323 -0.2406 -0.5709 -0.9571
  208MPD1    C1 3159   0.888   0.190  17.382  0.4337  0.4810 -0.7477
  208MPD1    C2 3160   0.833   0.255  17.498  0.3932 -0.3096  0.4762
  208MPD1    C3 3161   0.714   0.215  17.567 -0.3397 -0.7493  0.3327
  208MPD1    C4 3162   0.659   0.097  17.515 -0.2859 -0.4922 -0.0625
  208MPD1    C5 3163   0.709   0.043  17.399  0.4309  0.3973  0.5360
  208MPD1     H 3164   0.889   0.342  17.532  0.4789 -0.2885  0.2815
  208MPD1    H1 3165   0.568   0.050  17.550 -1.7891  3.0462  0.7493
  208MPD1    H2 3166   0.842   0.047  17.230 -2.4299  0.0372 -2.0387
  208MPD1    H3 3167   0.665   4.672  17.361  0.3833  0.8049 -0.3866
  208MPD1     N 3168   0.661   0.286  17.684  0.3482 -0.0141 -0.5888
  208MPD1    H5 3169   0.697   0.379   0.017  1.2471 -0.7091  1.2311
  208MPD1    N1 3170   0.994   0.249  17.316 -0.2369  0.4846  0.3372
  208MPD1    H6 3171   1.064   0.279  17.383 -0.5922 -0.4538  1.1187
  208MPD1    H7 3172   1.028   0.168  17.264 -0.9774  0.5263 -0.2189
  209MPD1     C 3173   2.711   0.669  11.512  0.1975 -0.0891  0.2726
  209MPD1    C1 3174   2.626   0.733  11.428  0.3194  0.1796 -0.4586
  209MPD1    C2 3175   2.675   0.819  11.330  0.7415  1.0025  0.3111
  209MPD1    C3 3176   2.813   0.852  11.327  0.1615  0.0988 -0.1428
  209MPD1    C4 3177   2.897   0.794  11.422 -0.0406  0.1075  0.5670
  209MPD1    C5 3178   2.844   0.703  11.513  0.2116 -0.1050 -0.8707
  209MPD1     H 3179   2.609   0.854  11.250  2.2629  0.8567 -1.0068
  209MPD1    H1 3180   3.004   0.811  11.421  0.1198 -0.8894  1.1630
  209MPD1    H2 3181   2.676   0.587  11.573 -1.1398  0.0532 -0.3249
  209MPD1    H3 3182   2.911   0.655  11.584  1.4407  1.9340 -0.6512
  209MPD1     N 3183   2.857   0.953  11.239  0.1348 -0.3934  0.3606
  209MPD1    H5 3184   2.804   0.989  11.160  1.7899  1.0983 -0.0529
  209MPD1    N1 3185   2.485   0.701  11.415 -0.2494  0.2403 -0.3116
  209MPD1    H6 3186   2.446   0.674  11.505 -0.2895  2.7233  0.4151
  209MPD1    H7 3187   2.429   0.783  11.392  0.0142 -0.1968 -2.5315
  210MPD1     C 3188   3.437   1.871  11.093  0.1411 -0.2484  0.5529
  210MPD1    C1 3189   3.379   1.817  11.208  0.1832 -0.0375  0.2872
  210MPD1    C2 3190   3.287   1.711  11.198  0.2562  0.1954  0.2095
  210MPD1    C3 3191   3.286   1.647  11.074  0.3857  0.0768  0.6757
  210MPD1    C4 3192   3.340   1.709  10.964 -0.0944 -0.8431 -0.5099
  210MPD1    C5 3193   3.407   1.823  10.972 -0.5050  0.1648 -0.2519
  210MPD1     H 3194   3.225   1.674  11.278 -0.4492  1.3195  0.1873
  210MPD1    H1 3195   3.323   1.663  10.867 -1.3307 -1.1614 -0.1395
  210MPD1    H2 3196   3.490   1.965  11.094 -2.0717  1.0169 -0.7535
  210MPD1    H3 3197   3.456   1.874  10.889 -0.2641  1.9410  0.9787
  210MPD1     N 3198   3.224   1.520  11.058 -0.0306 -0.1548  0.2114
  210MPD1    H5 3199   3.213   1.489  10.962  1.6694 -2.2410  0.6985
  210MPD1    N1 3200   3.392   1.889  11.328  0.0246 -1.0796 -0.0948
  210MPD1    H6 3201   3.481   1.937  11.343 -0.5863  0.3651 -1.1815
  210MPD1    H7 3202   3.378   1.824  11.406 -0.6964  0.5669  1.1462
  211MPD1     C 3203   0.734   0.823  17.131 -0.0273 -0.1261  0.2022
  211MPD1    C1 3204   0.615   0.870  17.186 -0.2961 -0.0609 -0.0783
  211MPD1    C2 3205   0.518   0.904  17.099  0.6014 -0.5892  0.3976
  211MPD1    C3 3206   0.524   0.886  16.962  0.2049 -0.1716  0.3436
  211MPD1    C4 3207   0.635   0.824  16.911 -0.3208 -0.3695 -0.0650
  211MPD1    C5 3208   0.740   0.792  17.000  0.5181  0.3281 -0.0139
  211MPD1     H 3209   0.430   0.949  17.142  0.2200 -0.4052 -0.5845
  211MPD1    H1 3210   0.642   0.802  16.805 -2.5120 -0.2068 -0.2361
  211MPD1    H2 3211   0.818   0.802  17.197 -1.7337  1.0052  2.7110
  211MPD1    H3 3212   0.825   0.742  16.954 -0.0128 -0.4445 -0.1390
  211MPD1     N 3213   0.405   0.914  16.879  0.6705 -0.2568 -0.0328
  211MPD1    H5 3214   0.329   0.954  16.933 -0.0743 -0.2890 -1.0521
  211MPD1    N1 3215   0.604   0.933  17.316 -0.3203 -0.5678 -0.2813
  211MPD1    H6 3216   0.679   0.907  17.381 -1.4144 -1.5995  0.5864
  211MPD1    H7 3217   0.511   0.922  17.355 -0.6805  0.6179 -0.8132
  212MPD1     C 3218   4.678   4.072  16.761  0.6640  0.0442  0.3736
  212MPD1    C1 3219   4.620   4.119  16.874 -0.1122 -0.6317  0.0760
  212MPD1    C2 3220   4.503   4.058  16.924 -0.0112  0.3982  0.7598
  212MPD1    C3 3221   4.439   3.963  16.855 -0.1373 -0.4498  0.5124
  212MPD1    C4 3222   4.499   3.915  16.745  0.4984 -0.4606 -0.3109
  212MPD1    C5 3223   4.608   3.975  16.695  0.4397 -0.0489  0.1962
  212MPD1     H 3224   4.468   4.098  17.018  2.0870  2.0412  0.8356
  212MPD1    H1 3225   4.460   3.828  16.692  0.6791 -0.2148 -0.8428
  212MPD1    H2 3226   0.052   4.100  16.717 -0.3509  1.0152 -1.1887
  212MPD1    H3 3227   4.651   3.927  16.608 -0.7903 -0.6596 -0.0861
  212MPD1     N 3228   4.319   3.901  16.899  0.0266 -0.4655  0.1215
  212MPD1    H5 3229   4.304   3.810  16.859  2.3376  0.1846 -2.2247
  212MPD1    N1 3230   4.688   4.212  16.951  0.2587  0.6676 -0.1487
  212MPD1    H6 3231   0.048   4.251  16.901  2.0764 -3.7160 -0.7216
  212MPD1    H7 3232   4.618   4.282  16.975 -0.9571 -0.8919  0.8375
  213MPD1     C 3233   3.087   0.343  15.799 -0.0698 -0.3999  0.3428
  213MPD1    C1 3234   3.078   0.428  15.692 -0.4491 -0.0706 -0.0415
  213MPD1    C2 3235   2.949   0.455  15.651 -1.1290 -0.3808  0.1014
  213MPD1    C3 3236   2.835   0.416  15.718  0.5238 -0.0682 -0.4355
  213MPD1    C4 3237   2.852   0.335  15.837  0.4048  0.4421 -0.2124
  213MPD1    C5 3238   2.981   0.299  15.869 -1.0339 -0.2505 -0.3173
  213MPD1     H 3239   2.929   0.521  15.566 -1.3162  0.0551  0.4845
  213MPD1    H1 3240   2.771   0.284  15.886  1.5645  0.3388  1.6259
  213MPD1    H2 3241   3.183   0.301  15.826 -0.7310 -3.0278 -1.3805
  213MPD1    H3 3242   2.989   0.233  15.955  0.0982 -1.2641 -1.1939
  213MPD1     N 3243   2.710   0.461  15.665  0.3081 -0.1702 -0.3120
  213MPD1    H5 3244   2.707   0.524  15.586 -0.2186 -0.1562 -0.2805
  213MPD1    N1 3245   3.186   0.420  15.598 -0.3380 -0.1172  0.0940
  213MPD1    H6 3246   3.169   0.495  15.532 -0.6648  0.9332  1.3807
  213MPD1    H7 3247   3.274   0.428  15.647 -1.2275  0.1232  1.6526
  214MPD1     C 3248   1.825   0.082  15.577 -0.1382  0.8430  0.6228
  214MPD1    C1 3249   1.810   0.184  15.667 -0.2671  0.4482  0.1874
  214MPD1    C2 3250   1.896   0.294  15.653  0.4320  0.9792  0.6707
  214MPD1    C3 3251   1.998   0.288  15.558 -0.5583 -0.6044  0.3202
  214MPD1    C4 3252   1.999   0.189  15.460 -0.1341  0.4322  0.5406
  214MPD1    C5 3253   1.915   0.084  15.468  0.1476 -0.2816  0.4371
  214MPD1     H 3254   1.881   0.381  15.716 -0.9867  2.3914 -1.6069
  214MPD1    H1 3255   2.084   0.186  15.392 -0.0819 -0.6468  0.6482
  214MPD1    H2 3256   1.757   4.717  15.574  1.4131 -0.2138 -5.1205
  214MPD1    H3 3257   1.909   0.011  15.387 -0.1180 -3.4307  3.2791
  214MPD1     N 3258   2.095   0.392  15.543 -0.2720  0.3189 -1.0138
  214MPD1    H5 3259   2.170   0.386  15.474  0.4508 -1.0989 -0.1240
  214MPD1    N1 3260   1.695   0.199  15.734 -0.3686  0.1093 -0.5011
  214MPD1    H6 3261   1.642   0.115  15.755 -0.5817  0.5483  0.7427
  214MPD1    H7 3262   1.705   0.253  15.820 -2.0587 -0.9572  0.3568
  215MPD1     C 3263   1.863   0.929  10.710 -0.6003 -0.4276  0.4607
  215MPD1    C1 3264   1.911   1.019  10.620 -0.2065 -0.2777  0.9267
  215MPD1    C2 3265   2.019   1.093  10.658 -0.2169 -0.0260  0.2291
  215MPD1    C3 3266   2.073   1.090  10.780  0.4534 -0.2146  0.8227
  215MPD1    C4 3267   2.015   1.007  10.871  0.5935 -0.1404  0.0164
  215MPD1    C5 3268   1.907   0.927  10.840 -0.5575  0.3593  0.1591
  215MPD1     H 3269   2.073   1.141  10.576 -0.0326 -1.7263 -0.6464
  215MPD1    H1 3270   2.046   0.999  10.975 -0.0356  0.6111  0.2632
  215MPD1    H2 3271   1.776   0.871  10.680  0.3588 -0.6222 -1.9492
  215MPD1    H3 3272   1.870   0.870  10.925 -1.2284  0.5602 -0.0003
  215MPD1     N 3273   2.183   1.175  10.812 -0.2687 -0.0212 -0.3425
  215MPD1    H5 3274   2.206   1.252  10.750  0.0414 -0.5788 -0.9182
  215MPD1    N1 3275   1.882   1.006  10.482  0.3233 -0.6981 -0.3051
  215MPD1    H6 3276   1.792   0.965  10.458 -0.9407  0.6560  2.1707
  215MPD1    H7 3277   1.902   1.088  10.426  1.1954 -0.4729  0.3466
  216MPD1     C 3278   0.767   3.443   0.367 -0.6367 -0.1982 -0.0192
  216MPD1    C1 3279   0.733   3.362   0.474 -0.1151  0.1088 -0.6900
  216MPD1    C2 3280   0.611   3.296   0.462 -0.0068 -0.0849  0.7029
  216MPD1    C3 3281   0.520   3.320   0.363  0.5637  0.0811  0.4755
  216MPD1    C4 3282   0.551   3.412   0.268 -0.4417  0.1906 -0.2717
  216MPD1    C5 3283   0.677   3.458   0.266 -0.0759  0.7180  0.5940
  216MPD1     H 3284   0.584   3.212   0.525  0.8611 -0.3016  0.7920
  216MPD1    H1 3285   0.491   3.420   0.178  0.1729  0.7886 -0.6314
  216MPD1    H2 3286   0.865   3.490   0.367 -1.3503  1.2929  1.7486
  216MPD1    H3 3287   0.707   3.528   0.189 -1.3784  1.3145  0.6307
  216MPD1     N 3288   0.401   3.250   0.365  0.3232 -0.0497 -0.1011
  216MPD1    H5 3289   0.383   3.178   0.434  0.1997 -1.7596 -1.9348
  216MPD1    N1 3290   0.830   3.319   0.563  0.3067 -0.1651  0.2072
  216MPD1    H6 3291   0.780   3.290   0.646 -1.5399 -2.1132 -1.5797
  216MPD1    H7 3292   0.898   3.392   0.581  1.2927 -1.6184  2.4008
  217MPD1     C 3293   3.578   0.121   9.593 -0.1510  0.1310  0.1347
  217MPD1    C1 3294   3.673   0.038   9.636 -0.9475  0.5450 -0.6838
  217MPD1    C2 3295   3.803   0.088   9.642 -0.0569  1.0369  0.0446
  217MPD1    C3 3296   3.834   0.224   9.638  0.3259 -0.5398  0.1419
  217MPD1    C4 3297   3.729   0.301   9.617 -0.2344 -0.0688 -0.2061
  217MPD1    C5 3298   3.606   0.251   9.585  0.4950 -0.1032 -0.0458
  217MPD1     H 3299   3.886   0.021   9.660 -0.0562  0.5283 -1.9187
  217MPD1    H1 3300   3.730   0.409   9.619 -0.4756 -0.0875  0.6861
  217MPD1    H2 3301   3.475   0.092   9.578 -0.2385  0.5895 -0.1486
  217MPD1    H3 3302   3.525   0.320   9.561  0.8449  0.3713  0.1444
  217MPD1     N 3303   3.960   0.286   9.660  0.1962 -0.3329 -0.1973
  217MPD1    H5 3304   3.968   0.388   9.660 -0.8654 -0.2478 -1.0555
  217MPD1    N1 3305   3.648   4.621   9.631  0.7767  0.0076 -0.0775
  217MPD1    H6 3306   3.548   4.611   9.647  0.9830 -0.6483  0.7876
  217MPD1    H7 3307   3.694   4.573   9.708 -0.7971 -3.0487 -1.0569
  218MPD1     C 3308   1.730   1.766  13.081 -0.1244  0.2703 -0.2110
  218MPD1    C1 3309   1.768   1.632  13.094  0.9026  0.2830 -0.1276
  218MPD1    C2 3310   1.894   1.594  13.055 -0.0263 -0.2866 -0.2382
  218MPD1    C3 3311   1.988   1.688  13.026  0.6130  0.1749  0.0159
  218MPD1    C4 3312   1.963   1.827  13.037 -0.4739  0.2487 -0.5166
  218MPD1    C5 3313   1.827   1.857  13.056  0.1095  0.1300  0.6699
  218MPD1     H 3314   1.911   1.487  13.060  2.2699  0.1708  1.8119
  218MPD1    H1 3315   2.038   1.902  13.015  1.1365 -0.5371  2.2935
  218MPD1    H2 3316   1.625   1.789  13.094  0.2650  2.3612 -0.8059
  218MPD1    H3 3317   1.793   1.960  13.046 -1.6377 -0.3346  1.7689
  218MPD1     N 3318   2.118   1.642  12.998  0.7087  0.4561 -0.0973
  218MPD1    H5 3319   2.129   1.543  13.014  0.3230  0.5432  0.6962
  218MPD1    N1 3320   1.675   1.528  13.101  0.2844  0.2440 -0.4670
  218MPD1    H6 3321   1.711   1.440  13.138  3.6187  2.0719  0.6272
  218MPD1    H7 3322   1.592   1.553  13.154  1.1299  0.5952  0.6940
  219MPD1     C 3323   2.662   1.784  12.146  1.3181  0.1413  0.7418
  219MPD1    C1 3324   2.733   1.823  12.262 -0.1170 -0.5900 -0.3473
  219MPD1    C2 3325   2.692   1.780  12.387 -0.1177  0.5271  0.0670
  219MPD1    C3 3326   2.584   1.694  12.404  0.2973 -0.0037  0.1568
  219MPD1    C4 3327   2.529   1.648  12.290 -0.1207 -0.0369  0.0088
  219MPD1    C5 3328   2.558   1.698  12.163 -0.5317  0.8076 -0.7014
  219MPD1     H 3329   2.747   1.806  12.477  1.4976 -1.9727 -0.2085
  219MPD1    H1 3330   2.456   1.567  12.294  0.3439 -0.5004 -0.8682
  219MPD1    H2 3331   2.685   1.831  12.050 -1.2459 -0.9716 -0.4181
  219MPD1    H3 3332   2.505   1.660  12.077  0.0430  0.0787 -0.7419
  219MPD1     N 3333   2.537   1.650  12.529 -0.0617  0.0339 -0.3610
  219MPD1    H5 3334   2.468   1.575  12.519  1.3786 -0.9509 -3.0895
  219MPD1    N1 3335   2.831   1.926  12.247 -0.4959  0.0767 -1.4599
  219MPD1    H6 3336   2.898   1.897  12.176  0.3761 -1.9514  0.2153
  219MPD1    H7 3337   2.884   1.926  12.334 -2.4829  2.3262 -0.2469
  220MPD1     C 3338   1.606   2.667  10.345 -0.5215 -0.2547  0.0567
  220MPD1    C1 3339   1.741   2.627  10.333  0.1786 -0.3304 -0.0904
  220MPD1    C2 3340   1.773   2.499  10.335 -0.0776  0.5821 -0.3310
  220MPD1    C3 3341   1.671   2.406  10.317 -0.2743 -0.4514  0.1934
  220MPD1    C4 3342   1.537   2.445  10.307  0.3055 -0.1122  0.0977
  220MPD1    C5 3343   1.508   2.572  10.332  0.8190  0.4846  0.1617
  220MPD1     H 3344   1.874   2.468  10.355  0.0902  0.1565 -1.8340
  220MPD1    H1 3345   1.460   2.372  10.287  2.2954 -2.2575  0.1500
  220MPD1    H2 3346   1.588   2.773  10.362 -0.9597 -0.4644  0.9200
  220MPD1    H3 3347   1.403   2.598  10.345  0.4697  0.1054 -1.9388
  220MPD1     N 3348   1.719   2.278  10.304  0.0705 -0.3993 -0.0413
  220MPD1    H5 3349   1.816   2.263  10.330  0.2283 -0.9264 -0.9111
  220MPD1    N1 3350   1.849   2.714  10.346 -0.5626 -0.4818 -0.3822
  220MPD1    H6 3351   1.932   2.687  10.294 -0.3403 -2.5593  1.0504
  220MPD1    H7 3352   1.825   2.803  10.303 -3.0935 -1.3111 -0.7128
  221MPD1     C 3353   4.567   0.720  17.244 -0.6070 -0.4249 -0.0612
  221MPD1    C1 3354   4.680   0.653  17.261  0.0232 -0.4678  0.3113
  221MPD1    C2 3355   0.006   0.571  17.161  0.4926 -0.1533  0.1202
  221MPD1    C3 3356   4.648   0.554  17.044  0.7031  0.6427  0.0495
  221MPD1    C4 3357   4.535   0.627  17.033  0.3585 -0.5310  0.3837
  221MPD1    C5 3358   4.500   0.712  17.128  0.2151 -0.7040 -0.0047
  221MPD1     H 3359   0.094   0.509  17.165  0.0243 -0.8608 -0.4326
  221MPD1    H1 3360   4.475   0.642  16.945  2.4736 -1.4354 -1.2148
  221MPD1    H2 3361   4.529   0.791  17.317 -1.1437 -0.9521  0.1761
  221MPD1    H3 3362   4.415   0.776  17.110  1.1770  0.9443  1.2845
  221MPD1     N 3363   4.689   0.486  16.933  0.1404 -0.0257 -0.2334
  221MPD1    H5 3364   4.619   0.471  16.860  0.6272 -3.5819  0.0440
  221MPD1    N1 3365   0.032   0.666  17.384 -0.4831 -0.1097 -0.7692
  221MPD1    H6 3366   0.075   0.578  17.408 -0.7373  0.0619  0.3110
  221MPD1    H7 3367   4.686   0.698  17.454 -1.2328 -0.0862 -1.4882
  222MPD1     C 3368   3.727   3.113   0.674  0.5680  0.5435 -0.8342
  222MPD1    C1 3369   3.670   3.159   0.791  0.5125  0.1271 -0.1812
  222MPD1    C2 3370   3.670   3.294   0.816 -0.2350  0.1542  0.4001
  222MPD1    C3 3371   3.710   3.381   0.720 -1.2701 -0.5420  0.4985
  222MPD1    C4 3372   3.768   3.337   0.611  0.6082  0.0262  0.1072
  222MPD1    C5 3373   3.772   3.203   0.586 -0.1681  0.1912  0.0592
  222MPD1     H 3374   3.618   3.334   0.902 -0.0667 -2.4896  1.7452
  222MPD1    H1 3375   3.805   3.411   0.541  0.6377 -1.6163 -1.6271
  222MPD1    H2 3376   3.729   3.009   0.643  1.1869  0.0564  0.8438
  222MPD1    H3 3377   3.812   3.170   0.491 -3.7165 -0.3328 -1.2581
  222MPD1     N 3378   3.690   3.522   0.726 -0.2429  0.1873 -0.1200
  222MPD1    H5 3379   3.727   3.579   0.651  1.3312  3.0188  2.8302
  222MPD1    N1 3380   3.604   3.066   0.877 -0.1082  0.6531  0.6762
  222MPD1    H6 3381   3.571   2.982   0.830  0.9576 -0.3126  1.6652
  222MPD1    H7 3382   3.527   3.115   0.923  0.4362  2.2489 -0.1074
  223MPD1     C 3383   3.239   4.099   1.410  0.0768 -0.0686  0.5901
  223MPD1    C1 3384   3.306   3.983   1.416  0.6786  0.1004 -0.3616
  223MPD1    C2 3385   3.368   3.938   1.301 -0.8192 -0.3600  0.6702
  223MPD1    C3 3386   3.348   3.994   1.173  0.6995 -0.4959  0.1843
  223MPD1    C4 3387   3.263   4.099   1.169 -0.5481  0.4106  0.2828
  223MPD1    C5 3388   3.217   4.158   1.284 -0.6639  0.0961  0.6139
  223MPD1     H 3389   3.425   3.847   1.319 -0.1406 -0.2083 -0.7022
  223MPD1    H1 3390   3.222   4.148   1.082 -0.8348  0.1166  0.2525
  223MPD1    H2 3391   3.205   4.154   1.498  1.2022  0.4534  0.6998
  223MPD1    H3 3392   3.157   4.248   1.283 -1.1519 -0.2378  0.2626
  223MPD1     N 3393   3.402   3.926   1.058  0.1876  0.1045  0.0758
  223MPD1    H5 3394   3.454   3.840   1.070  0.2418  0.0216 -0.7365
  223MPD1    N1 3395   3.337   3.925   1.543  0.4420 -0.3178  0.6297
  223MPD1    H6 3396   3.362   3.827   1.542 -0.0009 -0.4059 -1.0816
  223MPD1    H7 3397   3.262   3.935   1.611 -0.8162 -0.1425 -0.7936
  224MPD1     C 3398   1.875   0.520  10.279  0.2555  0.0568  0.3251
  224MPD1    C1 3399   1.847   0.574  10.156 -0.7317 -0.9465 -0.6310
  224MPD1    C2 3400   1.714   0.601  10.130  0.5112  0.4211  0.2738
  224MPD1    C3 3401   1.612   0.553  10.216 -0.6121  0.4423 -0.4193
  224MPD1    C4 3402   1.645   0.477  10.320 -0.3676  0.2862 -0.2627
  224MPD1    C5 3403   1.775   0.468  10.352 -0.1348  0.0285 -0.3257
  224MPD1     H 3404   1.698   0.659  10.039 -1.5618 -0.6151 -0.0078
  224MPD1    H1 3405   1.575   0.440  10.394  1.3204  0.8079  1.5902
  224MPD1    H2 3406   1.974   0.490  10.310  0.8473  2.0255  0.3458
  224MPD1    H3 3407   1.798   0.418  10.445  2.4408  1.4292 -0.2194
  224MPD1     N 3408   1.475   0.585  10.192 -0.4612 -0.0190 -0.7460
  224MPD1    H5 3409   1.404   0.536  10.245 -0.7097  1.5374  0.3514
  224MPD1    N1 3410   1.953   0.619  10.072  0.2288 -0.1903 -0.5470
  224MPD1    H6 3411   2.026   0.548  10.076  0.9957  0.6821  1.3734
  224MPD1    H7 3412   1.930   0.625   9.974 -1.3691 -0.3677 -0.1865
  225MPD1     C 3413   2.472   2.897  12.803  0.5987  0.1866  0.1491
  225MPD1    C1 3414   2.399   2.774  12.807  0.3277 -0.3272  0.0453
  225MPD1    C2 3415   2.282   2.757  12.727  0.2514 -0.2154  0.3950
  225MPD1    C3 3416   2.254   2.848  12.625 -0.0617  0.3493  0.4180
  225MPD1    C4 3417   2.325   2.965  12.629  0.3010 -0.6530 -0.2981
  225MPD1    C5 3418   2.431   2.985  12.709 -0.3003 -0.0869 -0.8598
  225MPD1     H 3419   2.228   2.664  12.739 -0.8144  0.3874  0.2869
  225MPD1    H1 3420   2.288   3.050  12.573 -0.2367 -0.6098  0.1216
  225MPD1    H2 3421   2.562   2.920  12.859  0.2427  1.5367  0.1526
  225MPD1    H3 3422   2.484   3.076  12.686  1.8805 -0.4675  2.7327
  225MPD1     N 3423   2.148   2.846  12.540  0.8708  0.1742 -0.0348
  225MPD1    H5 3424   2.125   2.933  12.493 -0.7597 -0.3227 -0.1684
  225MPD1    N1 3425   2.413   2.692  12.925 -0.1879  0.0971 -0.3230
  225MPD1    H6 3426   2.387   2.595  12.910  0.8180 -0.2752  0.3440
  225MPD1    H7 3427   2.511   2.688  12.952  0.0834  1.9859 -1.0530
  226MPD1     C 3428   0.378   3.283   9.489 -0.2512  0.4086  0.1079
  226MPD1    C1 3429   0.453   3.229   9.590 -0.5337  0.7289  0.0717
  226MPD1    C2 3430   0.407   3.108   9.650  0.8979 -0.3651  0.5704
  226MPD1    C3 3431   0.301   3.038   9.600 -0.0017  1.3005  0.1625
  226MPD1    C4 3432   0.222   3.097   9.503  0.1521 -0.0937 -0.4325
  226MPD1    C5 3433   0.259   3.221   9.453 -0.3314  0.6108  0.8472
  226MPD1     H 3434   0.462   3.069   9.735 -0.1182 -2.1493  0.4183
  226MPD1    H1 3435   0.119   3.069   9.480 -0.4317  1.4965  0.2419
  226MPD1    H2 3436   0.412   3.368   9.432  0.3186  0.6377  0.7855
  226MPD1    H3 3437   0.199   3.272   9.379  2.0048 -0.8069 -2.0383
  226MPD1     N 3438   0.266   2.913   9.658  0.1515  0.0482 -0.2654
  226MPD1    H5 3439   0.321   2.882   9.738  1.7788  1.4224 -0.8534
  226MPD1    N1 3440   0.577   3.290   9.628  0.2234 -0.1895  0.1334
  226MPD1    H6 3441   0.610   3.266   9.721  0.2754  1.8288  0.6283
  226MPD1    H7 3442   0.575   3.391   9.626  3.1589 -0.1413  0.6054
  227MPD1     C 3443   4.685   1.884   9.608 -0.1325  0.4766  0.1789
  227MPD1    C1 3444   0.101   1.920   9.601 -0.5208  0.0114 -0.0904
  227MPD1    C2 3445   0.134   2.046   9.648  0.0503 -0.5246  0.1183
  227MPD1    C3 3446   0.037   2.138   9.656 -0.8691  0.6879  0.8512
  227MPD1    C4 3447   4.623   2.105   9.660  0.1156  0.1623 -0.3487
  227MPD1    C5 3448   4.593   1.978   9.627 -0.0230 -0.0179 -1.1069
  227MPD1     H 3449   0.241   2.065   9.647  0.1052 -0.7536  1.0523
  227MPD1    H1 3450   4.547   2.181   9.677  0.0742  0.6431 -2.7002
  227MPD1    H2 3451   4.650   1.783   9.588  0.5959  0.7249 -2.4084
  227MPD1    H3 3452   4.488   1.950   9.631 -0.0712  0.2666 -0.2911
  227MPD1     N 3453   0.083   2.274   9.680  0.1398  0.3954  0.8019
  227MPD1    H5 3454   0.178   2.292   9.709  0.1860  0.3384  0.6881
  227MPD1    N1 3455   0.196   1.820   9.591 -0.0480  0.0221 -0.4556
  227MPD1    H6 3456   0.278   1.857   9.542 -0.4363  0.9675 -0.3917
  227MPD1    H7 3457   0.168   1.745   9.528  1.7741 -0.9652 -0.1027
  228MPD1     C 3458   3.769   0.594  12.473  0.5894  0.0418 -0.2568
  228MPD1    C1 3459   3.691   0.541  12.374  1.4163 -0.1703 -0.7273
  228MPD1    C2 3460   3.609   0.438  12.409 -0.1461  0.5592  0.3134
  228MPD1    C3 3461   3.611   0.371  12.532  0.4906  0.0994  0.0121
  228MPD1    C4 3462   3.709   0.413  12.621  0.0310  0.7181 -0.0450
  228MPD1    C5 3463   3.792   0.518  12.588  0.6272 -0.8368  1.0558
  228MPD1     H 3464   3.536   0.412  12.334 -0.0796 -0.9624  0.7794
  228MPD1    H1 3465   3.726   0.353  12.710 -0.7731  0.4690 -0.0604
  228MPD1    H2 3466   3.824   0.686  12.455 -3.1644  2.3653  0.0284
  228MPD1    H3 3467   3.870   0.555  12.654  0.2034 -1.2855  1.8159
  228MPD1     N 3468   3.533   0.260  12.554  0.1911 -0.3372  0.0374
  228MPD1    H5 3469   3.451   0.250  12.495  1.8981 -1.5591 -2.1268
  228MPD1    N1 3470   3.670   0.602  12.254 -0.0428  0.4019  0.0473
  228MPD1    H6 3471   3.754   0.647  12.220  0.7839 -2.2954 -1.5252
  228MPD1    H7 3472   3.633   0.535  12.186 -0.7453  2.3453 -1.4878
  229MPD1     C 3473   2.928   3.758  14.902  0.2282 -0.0894  0.5101
  229MPD1    C1 3474   2.890   3.630  14.952 -0.1304  0.1419  0.0245
  229MPD1    C2 3475   2.987   3.550  15.019 -0.7506 -0.7253  0.3730
  229MPD1    C3 3476   3.125   3.595  15.029  0.0623 -0.3964  0.1391
  229MPD1    C4 3477   3.156   3.722  14.974 -0.4658  0.0926  0.2253
  229MPD1    C5 3478   3.059   3.796  14.913  0.0616  0.1977 -0.3844
  229MPD1     H 3479   2.953   3.464  15.076 -0.3945 -0.9096  0.3082
  229MPD1    H1 3480   3.257   3.761  14.979  0.4312 -2.0840 -1.1672
  229MPD1    H2 3481   2.863   3.833  14.860  2.3227  0.3203 -1.9954
  229MPD1    H3 3482   3.087   3.889  14.864 -1.1404  0.9822  0.4057
  229MPD1     N 3483   3.223   3.516  15.078  0.1505  0.0008  0.0970
  229MPD1    H5 3484   3.305   3.565  15.112 -1.3181 -0.4993  4.4358
  229MPD1    N1 3485   2.755   3.603  14.953  0.2376 -0.3162 -0.3902
  229MPD1    H6 3486   2.714   3.647  14.871  1.0830 -0.7936 -1.0665
  229MPD1    H7 3487   2.729   3.505  14.950  0.2233 -0.3759  1.6168
  230MPD1     C 3488   3.676   3.553  15.969  0.0656 -0.6872  0.0678
  230MPD1    C1 3489   3.611   3.433  15.964 -0.1598 -0.0971  0.0635
  230MPD1    C2 3490   3.551   3.391  15.848  0.9866  0.2844  0.0471
  230MPD1    C3 3491   3.561   3.466  15.734  0.7031  0.2279 -0.4979
  230MPD1    C4 3492   3.624   3.591  15.737 -0.4470  0.0347  0.5859
  230MPD1    C5 3493   3.683   3.629  15.852 -0.4907 -0.1797  0.6236
  230MPD1     H 3494   3.507   3.293  15.830 -3.2447  2.2727 -0.5204
  230MPD1    H1 3495   3.634   3.653  15.649  0.5020 -0.7213  0.1545
  230MPD1    H2 3496   3.718   3.587  16.064 -0.0571  1.1791 -0.5433
  230MPD1    H3 3497   3.731   3.727  15.852 -0.0728 -0.3894 -3.6049
  230MPD1     N 3498   3.509   3.410  15.615  0.6809  0.2402  0.6942
  230MPD1    H5 3499   3.449   3.330  15.626  0.2265  0.3735 -0.8182
  230MPD1    N1 3500   3.588   3.356  16.080  0.0642 -0.0657  0.0183
  230MPD1    H6 3501   3.595   3.256  16.062  0.1386 -0.1924  0.7950
  230MPD1    H7 3502   3.668   3.373  16.139  0.5732 -1.9989 -0.1137
  231MPD1     C 3503   1.486   0.350  16.022 -0.5148 -0.3051 -0.6759
  231MPD1    C1 3504   1.427   0.350  15.896  0.9234 -0.3694 -0.9125
  231MPD1    C2 3505   1.489   0.432  15.802  0.0231  0.3235 -0.4527
  231MPD1    C3 3506   1.593   0.522  15.832 -0.3692  0.1849  0.0971
  231MPD1    C4 3507   1.640   0.520  15.965  0.0060 -0.1189  0.1525
  231MPD1    C5 3508   1.585   0.436  16.060  0.4549  0.0523  0.4859
  231MPD1     H 3509   1.449   0.441  15.701 -1.3176 -0.8940 -0.0112
  231MPD1    H1 3510   1.719   0.583  16.004 -0.9500  0.1431  1.6849
  231MPD1    H2 3511   1.466   0.282  16.104 -0.7745 -0.3803 -0.7992
  231MPD1    H3 3512   1.618   0.427  16.163 -0.5123 -3.1157  0.5308
  231MPD1     N 3513   1.649   0.595  15.726  0.1429  0.7027 -0.2793
  231MPD1    H5 3514   1.608   0.591  15.633  0.9380  1.6794 -0.6791
  231MPD1    N1 3515   1.323   0.268  15.861  0.2465  0.4428 -0.3428
  231MPD1    H6 3516   1.263   0.223  15.930 -0.0395  1.2567 -0.0663
  231MPD1    H7 3517   1.259   0.319  15.801 -0.9411  0.1237  0.6708
  232MPD1     C 3518   3.921   2.575   0.515  0.1041  0.1152  0.3344
  232MPD1    C1 3519   3.824   2.658   0.574  0.2476 -0.4730 -0.5170
  232MPD1    C2 3520   3.707   2.683   0.500  0.2272  0.0480  0.1170
  232MPD1    C3 3521   3.674   2.604   0.393  0.1045  0.3777  0.3826
  232MPD1    C4 3522   3.765   2.513   0.346  0.2343 -0.0770 -0.3311
  232MPD1    C5 3523   3.887   2.497   0.411 -0.0418 -0.1676 -0.2180
  232MPD1     H 3524   3.628   2.750   0.530 -0.4258 -0.1392 -1.1817
  232MPD1    H1 3525   3.729   2.433   0.282  0.1009  2.0487 -2.8830
  232MPD1    H2 3526   4.021   2.561   0.554 -0.1887 -3.3195 -0.1601
  232MPD1    H3 3527   3.952   2.414   0.383 -2.0974 -2.5842  2.1546
  232MPD1     N 3528   3.548   2.624   0.343  0.3820 -0.8606  0.3115
  232MPD1    H5 3529   3.498   2.700   0.387 -0.8109 -2.8743  2.4529
  232MPD1    N1 3530   3.859   2.731   0.690 -0.7462 -0.1127  0.3680
  232MPD1    H6 3531   3.774   2.746   0.744  0.2062 -1.5239  2.2291
  232MPD1    H7 3532   3.914   2.666   0.745  2.4720  2.5457  0.3052
  233MPD1     C 3533   3.487   0.577   0.976  0.1660 -0.8541  0.1580
  233MPD1    C1 3534   3.508   0.460   1.049  0.0504  0.0469  0.6099
  233MPD1    C2 3535   3.608   0.467   1.149  0.4218 -0.1878  0.0080
  233MPD1    C3 3536   3.688   0.580   1.168  0.3476 -0.1188 -0.3753
  233MPD1    C4 3537   3.655   0.693   1.107  0.0073  0.2079 -0.7515
  233MPD1    C5 3538   3.561   0.690   1.011  0.5830 -0.2533  0.0302
  233MPD1     H 3539   3.632   0.377   1.205 -1.7963 -0.2237  0.8985
  233MPD1    H1 3540   3.715   0.782   1.119 -2.4434  2.0385 -2.0697
  233MPD1    H2 3541   3.414   0.584   0.895  0.2817  1.6210  0.2501
  233MPD1    H3 3542   3.541   0.779   0.951 -0.2134  0.8808  1.9887
  233MPD1     N 3543   3.802   0.587   1.256 -0.5592 -0.1902  0.2689
  233MPD1    H5 3544   3.866   0.664   1.240 -1.0973  0.1069 -0.4599
  233MPD1    N1 3545   3.454   0.341   1.000  0.3189 -0.1564  0.2309
  233MPD1    H6 3546   3.369   0.357   0.946 -0.9599  1.3805  2.6442
  233MPD1    H7 3547   3.443   0.268   1.070 -0.9980  0.4798  0.6963
  234MPD1     C 3548   0.347   3.922   9.517  0.4041  0.9308  0.3979
  234MPD1    C1 3549   0.267   4.030   9.490 -0.6842 -0.2894 -0.2965
  234MPD1    C2 3550   0.283   4.140   9.571 -0.4271 -0.2140  0.3654
  234MPD1    C3 3551   0.369   4.136   9.682  0.1138  0.6498 -0.1472
  234MPD1    C4 3552   0.433   4.016   9.708  0.0488  0.3938 -0.6990
  234MPD1    C5 3553   0.421   3.907   9.630  0.0609 -0.0189 -0.4543
  234MPD1     H 3554   0.223   4.226   9.543  0.7437  0.0796 -1.2604
  234MPD1    H1 3555   0.491   4.006   9.799  0.6464 -0.2616 -1.1602
  234MPD1    H2 3556   0.356   3.844   9.443  1.8299  0.9164  0.5745
  234MPD1    H3 3557   0.479   3.816   9.637 -1.3874 -0.9428 -0.6130
  234MPD1     N 3558   0.371   4.256   9.758 -0.1535 -0.2000  0.4723
  234MPD1    H5 3559   0.316   4.333   9.720 -0.7153 -0.7141  0.2431
  234MPD1    N1 3560   0.206   4.053   9.361  0.1973 -0.0607 -0.5542
  234MPD1    H6 3561   0.167   3.964   9.331 -0.9875  1.3076 -3.0631
  234MPD1    H7 3562   0.141   4.131   9.354  1.1654  0.9571  1.7380
  235MPD1     C 3563   1.238   2.324   9.960  0.1443  0.1124 -0.0901
  235MPD1    C1 3564   1.210   2.417   9.857  0.0531  0.2246 -0.3239
  235MPD1    C2 3565   1.314   2.441   9.758 -0.0261 -0.4102 -0.8104
  235MPD1    C3 3566   1.445   2.387   9.787  0.3102 -0.3978  0.2740
  235MPD1    C4 3567   1.459   2.295   9.890 -0.0432  0.1214  0.2536
  235MPD1    C5 3568   1.358   2.257   9.967  0.0690  0.0741 -0.7338
  235MPD1     H 3569   1.307   2.499   9.667 -3.5571  0.4926  0.0442
  235MPD1    H1 3570   1.552   2.241   9.906  1.0115  1.2130 -2.1298
  235MPD1    H2 3571   1.164   2.294  10.033  0.5617  1.3284  0.8355
  235MPD1    H3 3572   1.373   2.182  10.043  1.4100  0.0955 -0.9827
  235MPD1     N 3573   1.550   2.426   9.703  0.6270  0.4377 -0.0947
  235MPD1    H5 3574   1.526   2.501   9.639  0.8658  1.2948  0.8144
  235MPD1    N1 3575   1.079   2.453   9.832 -0.2899 -0.5812  0.2646
  235MPD1    H6 3576   1.035   2.461   9.923 -0.9856 -1.2973 -0.0094
  235MPD1    H7 3577   1.073   2.543   9.783 -0.0072  0.5060  2.2152
  236MPD1     C 3578   2.164   4.328  10.397 -0.4485 -0.3824  0.4237
  236MPD1    C1 3579   2.059   4.262  10.350 -0.1548 -0.5326  0.4613
  236MPD1    C2 3580   2.085   4.129  10.317  0.1075  0.3072 -0.0958
  236MPD1    C3 3581   2.198   4.065  10.352 -0.0695 -0.1341  0.0052
  236MPD1    C4 3582   2.298   4.128  10.419 -0.1428 -1.0616 -0.4962
  236MPD1    C5 3583   2.279   4.264  10.447  0.6782  0.3273  0.4484
  236MPD1     H 3584   2.005   4.083  10.260 -0.2606  1.0904 -0.2072
  236MPD1    H1 3585   2.391   4.072  10.426  0.3057 -0.1358  0.7700
  236MPD1    H2 3586   2.166   4.431  10.432 -0.1456 -0.2340 -0.0312
  236MPD1    H3 3587   2.357   4.320  10.498  1.4246 -0.2143 -0.1056
  236MPD1     N 3588   2.224   3.930  10.319  0.5645 -0.6457 -0.0168
  236MPD1    H5 3589   2.307   3.892  10.363  0.0374  0.1732  1.6878
  236MPD1    N1 3590   1.946   4.333  10.301  0.2897  0.4666  0.0842
  236MPD1    H6 3591   1.934   4.412  10.365  3.5940  0.3959  0.8075
  236MPD1    H7 3592   1.857   4.285  10.293  1.4487 -1.7547  0.7722
  237MPD1     C 3593   2.059   1.456  15.380 -0.3205 -0.3991  0.7664
  237MPD1    C1 3594   2.053   1.509  15.509  0.2355 -0.0450 -0.6263
  237MPD1    C2 3595   1.925   1.520  15.569  0.1833 -0.1602  0.5128
  237MPD1    C3 3596   1.810   1.500  15.492  0.1295  1.0215  0.0663
  237MPD1    C4 3597   1.822   1.462  15.360  0.6357 -0.0261  0.7033
  237MPD1    C5 3598   1.944   1.441  15.305 -0.0357  0.2539  0.8655
  237MPD1     H 3599   1.917   1.549  15.673 -0.9282 -0.8002  0.6092
  237MPD1    H1 3600   1.735   1.438  15.300 -0.2940 -0.2508  2.1202
  237MPD1    H2 3601   2.155   1.445  15.332 -0.0078 -0.9822  1.5356
  237MPD1    H3 3602   1.938   1.396  15.206  0.1937  0.8298  0.5932
  237MPD1     N 3603   1.681   1.512  15.533 -1.0509 -0.3039  0.0375
  237MPD1    H5 3604   1.604   1.478  15.477  0.6499 -2.3336 -1.0789
  237MPD1    N1 3605   2.166   1.520  15.592 -0.1474 -1.1154 -0.1854
  237MPD1    H6 3606   2.161   1.599  15.655  0.0553 -0.4078 -1.0527
  237MPD1    H7 3607   2.257   1.518  15.546 -0.8465 -0.7955 -1.5802
  238MPD1     C 3608   3.816   1.376  15.239 -0.1213  0.0579 -0.2547
  238MPD1    C1 3609   3.793   1.288  15.339  0.1523 -0.3265 -0.2832
  238MPD1    C2 3610   3.712   1.176  15.315 -0.2761 -0.3858  0.2041
  238MPD1    C3 3611   3.655   1.158  15.187  0.0727 -0.2001 -0.2714
  238MPD1    C4 3612   3.697   1.239  15.089 -0.9305 -0.2549 -0.1249
  238MPD1    C5 3613   3.778   1.343  15.116 -0.4977  0.4767  0.2382
  238MPD1     H 3614   3.675   1.118  15.399 -0.2513 -1.4132 -0.4928
  238MPD1    H1 3615   3.652   1.235  14.990 -1.2930 -0.1656  0.0371
  238MPD1    H2 3616   3.869   1.470  15.247  0.3327 -0.2775  0.6796
  238MPD1    H3 3617   3.789   1.413  15.034  1.5246 -1.0915 -0.8601
  238MPD1     N 3618   3.553   1.073  15.158 -0.3501 -0.1575  0.2165
  238MPD1    H5 3619   3.532   1.085  15.060 -0.9286 -0.3986  0.3135
  238MPD1    N1 3620   3.826   1.319  15.473 -0.2160 -0.1164 -0.1984
  238MPD1    H6 3621   3.914   1.369  15.485 -0.7476  0.8645 -0.3662
  238MPD1    H7 3622   3.847   1.242  15.536 -0.7508  1.2603  1.6554
  239MPD1     C 3623   4.276   1.302  14.787  0.1775  0.4661  0.2496
  239MPD1    C1 3624   4.143   1.325  14.828 -0.7956 -0.7906  0.0187
  239MPD1    C2 3625   4.051   1.366  14.739 -0.0259 -0.1173 -1.1526
  239MPD1    C3 3626   4.080   1.383  14.604 -0.5669  0.4247  0.5215
  239MPD1    C4 3627   4.205   1.353  14.562  0.1023  0.0650 -0.7499
  239MPD1    C5 3628   4.303   1.310  14.651 -0.0944 -1.1840  0.0379
  239MPD1     H 3629   3.952   1.389  14.776  1.1862  1.8442  0.8638
  239MPD1    H1 3630   4.224   1.366  14.456 -0.3034  0.6609 -0.7496
  239MPD1    H2 3631   4.351   1.288  14.863  0.8601  0.3530 -0.4435
  239MPD1    H3 3632   4.405   1.293  14.618 -1.2333  0.1464 -4.1651
  239MPD1     N 3633   3.991   1.443  14.509 -0.2351  0.0656 -0.2037
  239MPD1    H5 3634   4.031   1.455  14.417  0.0361 -3.6644 -0.5887
  239MPD1    N1 3635   4.118   1.331  14.966  0.3321 -0.1104 -0.4703
  239MPD1    H6 3636   4.174   1.261  15.014 -1.3507 -1.5148 -0.5507
  239MPD1    H7 3637   4.024   1.303  14.993  0.3867  0.6745  0.5195
  240MPD1     C 3638   3.248   0.862  13.960  0.7359 -0.2990 -0.2324
  240MPD1    C1 3639   3.318   0.864  14.077 -0.0175 -0.1539  0.5269
  240MPD1    C2 3640   3.245   0.891  14.197  0.7011 -0.3847 -0.3020
  240MPD1    C3 3641   3.115   0.927  14.196  0.1318  0.1880  0.5142
  240MPD1    C4 3642   3.044   0.915  14.080 -0.0507 -0.2561  0.2507
  240MPD1    C5 3643   3.110   0.884  13.964 -0.4538  1.0587 -0.1342
  240MPD1     H 3644   3.292   0.874  14.294 -0.6718 -2.7044 -0.0224
  240MPD1    H1 3645   2.937   0.929  14.072 -0.1615 -2.2528 -1.8900
  240MPD1    H2 3646   3.285   0.831  13.863 -0.2060 -2.8783  0.2500
  240MPD1    H3 3647   3.061   0.884  13.868 -0.8503 -0.1351  0.0588
  240MPD1     N 3648   3.044   0.946  14.321 -0.2618 -0.5849 -0.3728
  240MPD1    H5 3649   3.101   0.933  14.404 -1.3630  0.5412  0.5508
  240MPD1    N1 3650   3.457   0.815  14.083 -0.0260 -0.7643 -0.4754
  240MPD1    H6 3651   3.522   0.872  14.135 -0.2731 -0.2437 -0.7292
  240MPD1    H7 3652   3.502   0.833  13.993 -1.9280  3.0595 -0.7102
  241MPD1     C 3653   3.150   1.140  15.298 -0.1986  0.6038  0.6750
  241MPD1    C1 3654   3.203   1.186  15.177 -0.3137  0.5152  0.0400
  241MPD1    C2 3655   3.157   1.134  15.058  0.3064 -0.5585 -0.8768
  241MPD1    C3 3656   3.061   1.036  15.052  0.4487 -1.5596 -0.0710
  241MPD1    C4 3657   3.012   0.986  15.165 -0.3312 -0.6708  0.3157
  241MPD1    C5 3658   3.061   1.034  15.284 -0.1703  0.2652  0.3492
  241MPD1     H 3659   3.202   1.177  14.969  1.0257  1.1292  0.3144
  241MPD1    H1 3660   2.938   0.907  15.157  0.3933 -1.2573 -0.6147
  241MPD1    H2 3661   3.184   1.185  15.390  2.1793 -1.5489  0.8643
  241MPD1    H3 3662   3.039   0.981  15.376 -0.7108  2.7765  1.6645
  241MPD1     N 3663   3.025   0.976  14.928  0.5184  0.3638  0.8533
  241MPD1    H5 3664   2.960   0.898  14.935  0.3039  0.5150  0.5196
  241MPD1    N1 3665   3.296   1.294  15.177  0.6167 -0.8550 -0.3616
  241MPD1    H6 3666   3.371   1.295  15.246  0.1258  1.0984  0.1410
  241MPD1    H7 3667   3.343   1.301  15.087  0.8559  0.8189 -0.1142
  242MPD1     C 3668   2.802   4.144  16.119 -0.3623  0.1143 -0.8065
  242MPD1    C1 3669   2.810   4.252  16.029 -0.2749 -0.1599 -1.0592
  242MPD1    C2 3670   2.867   4.236  15.906 -0.7909 -0.2605 -0.5442
  242MPD1    C3 3671   2.880   4.115  15.850 -0.1887  0.0150 -0.1951
  242MPD1    C4 3672   2.862   4.007  15.933 -0.5391  0.0196 -0.2114
  242MPD1    C5 3673   2.818   4.026  16.058 -0.2605  0.3838  0.5664
  242MPD1     H 3674   2.872   4.324  15.842  0.8259  0.4242  0.5295
  242MPD1    H1 3675   2.859   3.903  15.901 -1.6247  0.4042 -1.3357
  242MPD1    H2 3676   2.751   4.141  16.215 -2.2451 -0.1022 -1.8007
  242MPD1    H3 3677   2.790   3.938  16.115  0.2021  0.0825  0.3337
  242MPD1     N 3678   2.913   4.093  15.713 -0.5031  0.1193 -0.1091
  242MPD1    H5 3679   2.935   3.999  15.683  2.3088  0.1220  1.9662
  242MPD1    N1 3680   2.787   4.382  16.075 -0.1537 -0.4846 -0.8146
  242MPD1    H6 3681   2.708   4.396  16.138  2.4490  0.1838  2.2697
  242MPD1    H7 3682   2.777   4.449  15.999 -1.8020 -0.6823 -0.7736
  243MPD1     C 3683   0.531   2.959   0.255  0.5010 -0.4032  0.4309
  243MPD1    C1 3684   0.473   2.847   0.302  0.1399 -0.1085 -0.5514
  243MPD1    C2 3685   0.365   2.787   0.243  0.4906  0.3518 -0.0259
  243MPD1    C3 3686   0.320   2.845   0.128  0.1096  0.1656  0.1255
  243MPD1    C4 3687   0.378   2.962   0.077 -0.4257 -0.2228  0.3042
  243MPD1    C5 3688   0.482   3.018   0.143  0.1526 -0.3143  0.5768
  243MPD1     H 3689   0.323   2.696   0.284 -1.9927  2.3331  1.7760
  243MPD1    H1 3690   0.346   3.000  17.665 -0.1546 -0.9855 -0.0845
  243MPD1    H2 3691   0.620   3.002   0.299  1.7674 -0.3573 -2.1591
  243MPD1    H3 3692   0.538   3.102   0.104 -0.8819  0.9551  1.8528
  243MPD1     N 3693   0.220   2.786   0.053  0.0112 -0.8435  0.2938
  243MPD1    H5 3694   0.190   2.842  17.658 -0.3028 -3.1440 -1.2310
  243MPD1    N1 3695   0.540   2.796   0.415  0.2880 -0.4256  0.2060
  243MPD1    H6 3696   0.471   2.742   0.467  0.5895 -0.1565  0.8976
  243MPD1    H7 3697   0.579   2.867   0.478  2.2089 -0.5246 -0.8770
  244MPD1     C 3698   4.108   2.269   0.230  0.0605  0.1382 -0.0735
  244MPD1    C1 3699   4.218   2.298   0.307 -0.0734  0.3042 -0.9011
  244MPD1    C2 3700   4.334   2.353   0.250  0.4136 -0.0555 -0.0788
  244MPD1    C3 3701   4.344   2.361   0.115  0.2383  0.0923 -0.5507
  244MPD1    C4 3702   4.236   2.320   0.044  0.6976 -0.5713  0.0791
  244MPD1    C5 3703   4.118   2.283   0.097  0.5908 -0.1865  0.4339
  244MPD1     H 3704   4.422   2.370   0.312  1.0393  0.9163 -1.2357
  244MPD1    H1 3705   4.231   2.318  17.620  1.2948 -0.2935  0.0468
  244MPD1    H2 3706   4.021   2.231   0.282 -0.3643  0.2217 -0.7225
  244MPD1    H3 3707   4.032   2.258   0.035 -0.0234 -1.2146  1.7109
  244MPD1     N 3708   4.457   2.425   0.064 -0.3071  1.2725  0.0817
  244MPD1    H5 3709   4.522   2.466   0.130  0.6573 -2.3532  1.4192
  244MPD1    N1 3710   4.208   2.273   0.449  0.0815 -0.7004  0.5285
  244MPD1    H6 3711   4.251   2.347   0.503  0.3096 -0.8617  0.5661
  244MPD1    H7 3712   4.118   2.234   0.479 -0.1998  1.0117  1.9333
  245MPD1     C 3713   1.337   3.219  13.353 -0.2107 -0.1568 -0.5123
  245MPD1    C1 3714   1.258   3.297  13.439  0.1440 -0.3515 -0.1008
  245MPD1    C2 3715   1.322   3.386  13.518 -0.0523  1.0171  0.7302
  245MPD1    C3 3716   1.456   3.410  13.507 -0.6366 -0.0596  0.3225
  245MPD1    C4 3717   1.529   3.342  13.414 -0.3602  0.4609  0.1671
  245MPD1    C5 3718   1.469   3.252  13.337  0.5811 -0.3409 -0.4995
  245MPD1     H 3719   1.256   3.433  13.591 -0.2145  0.2127  1.0975
  245MPD1    H1 3720   1.633   3.362  13.391 -0.8266 -1.1691 -3.3880
  245MPD1    H2 3721   1.298   3.142  13.287 -1.5883 -0.9351  1.1914
  245MPD1    H3 3722   1.520   3.196  13.259  0.9245 -0.6386 -0.0594
  245MPD1     N 3723   1.508   3.501  13.598 -0.0420  0.0225  0.4537
  245MPD1    H5 3724   1.439   3.542  13.661  1.2406  2.0343  0.5305
  245MPD1    N1 3725   1.125   3.260  13.463 -0.1030  0.6095  0.0935
  245MPD1    H6 3726   1.055   3.329  13.488  0.0366  0.2167  1.5556
  245MPD1    H7 3727   1.085   3.216  13.381  0.5399 -0.5527  0.4074
  246MPD1     C 3728   3.428   4.175   9.399 -0.9582 -0.1954 -0.3955
  246MPD1    C1 3729   3.325   4.236   9.462 -0.4123 -0.2215  0.4352
  246MPD1    C2 3730   3.307   4.370   9.438 -0.1195  0.6319 -0.7482
  246MPD1    C3 3731   3.391   4.446   9.363 -0.2011  0.3602 -0.2500
  246MPD1    C4 3732   3.501   4.386   9.296 -0.0494  0.2435  0.1987
  246MPD1    C5 3733   3.507   4.249   9.311 -0.4382 -0.1458 -0.1146
  246MPD1     H 3734   3.226   4.414   9.497 -0.2987 -1.7713  0.8328
  246MPD1    H1 3735   3.588   4.434   9.251  0.1161  0.9279  1.2421
  246MPD1    H2 3736   3.445   4.070   9.420  4.6013  0.8132  0.0797
  246MPD1    H3 3737   3.598   4.196   9.286 -1.2456 -1.6826  0.1653
  246MPD1     N 3738   3.359   4.579   9.345  0.5988  0.7547 -0.0700
  246MPD1    H5 3739   3.287   4.623   9.401 -0.2545 -1.6101  0.7015
  246MPD1    N1 3740   3.258   4.172   9.568 -0.0751 -0.5669  0.0614
  246MPD1    H6 3741   3.257   4.071   9.561  0.5389 -0.5406 -0.3879
  246MPD1    H7 3742   3.163   4.205   9.584  0.6648  0.4490  2.3878
  247MPD1     C 3743   0.885   2.449  16.236 -0.6879  0.7870 -0.1206
  247MPD1    C1 3744   0.855   2.505  16.359 -0.5162 -0.0446 -0.4730
  247MPD1    C2 3745   0.941   2.593  16.428 -0.6988 -0.6266  0.1942
  247MPD1    C3 3746   1.047   2.658  16.358 -0.1232  0.4550 -0.5204
  247MPD1    C4 3747   1.074   2.608  16.234  0.3750 -0.3688 -0.0841
  247MPD1    C5 3748   0.999   2.506  16.179 -0.1018 -0.4804  0.4405
  247MPD1     H 3749   0.913   2.616  16.530  0.4371 -3.0501  1.0496
  247MPD1    H1 3750   1.150   2.660  16.178 -1.7017  2.1770 -0.5230
  247MPD1    H2 3751   0.835   2.364  16.190  0.2822  0.5621 -0.7581
  247MPD1    H3 3752   1.027   2.473  16.079 -2.3990  1.7550 -0.9436
  247MPD1     N 3753   1.110   2.781  16.404 -0.9904  0.1509  0.0776
  247MPD1    H5 3754   1.182   2.822  16.345 -0.6419 -2.1477 -1.0666
  247MPD1    N1 3755   0.744   2.448  16.428  0.3209 -0.4514  0.8720
  247MPD1    H6 3756   0.693   2.511  16.489  2.0562  0.5121  1.3274
  247MPD1    H7 3757   0.676   2.432  16.353  0.3627 -0.2273  0.7855
  248MPD1     C 3758   1.661   2.149   1.184 -0.8884  0.5793 -0.2807
  248MPD1    C1 3759   1.696   2.273   1.133  0.7020 -0.3378 -0.2968
  248MPD1    C2 3760   1.594   2.342   1.072  0.2489 -0.4071  0.0508
  248MPD1    C3 3761   1.465   2.293   1.068  0.8068  0.2451  0.1365
  248MPD1    C4 3762   1.434   2.175   1.130  0.2249  0.4418  0.0196
  248MPD1    C5 3763   1.530   2.103   1.188 -0.4276  0.4799  0.6914
  248MPD1     H 3764   1.604   2.436   1.019  1.6870 -0.7017 -0.1869
  248MPD1    H1 3765   1.334   2.133   1.133  0.6840 -0.5289  2.0073
  248MPD1    H2 3766   1.735   2.081   1.225 -0.0245  0.7350 -1.6135
  248MPD1    H3 3767   1.504   2.009   1.236 -0.6318  0.2449  0.1290
  248MPD1     N 3768   1.362   2.366   0.998 -0.1725  0.2809  0.2360
  248MPD1    H5 3769   1.385   2.453   0.951 -0.4834 -0.0103 -0.4599
  248MPD1    N1 3770   1.834   2.298   1.109  0.1110 -0.0289 -0.0228
  248MPD1    H6 3771   1.897   2.270   1.184  0.2584  0.9158  0.2048
  248MPD1    H7 3772   1.853   2.390   1.070  1.3575  0.8226  2.5551
  249MPD1     C 3773   3.384   0.954  10.795  0.5802  0.0594 -0.2481
  249MPD1    C1 3774   3.370   1.045  10.689  0.3025  0.3657 -0.5637
  249MPD1    C2 3775   3.253   1.063  10.628  0.8338 -0.1656  0.2693
  249MPD1    C3 3776   3.141   0.994  10.669 -0.1568 -0.4748 -0.4982
  249MPD1    C4 3777   3.148   0.913  10.776 -0.0058  0.2099  0.1074
  249MPD1    C5 3778   3.269   0.899  10.842  0.3899  0.0252 -0.0060
  249MPD1     H 3779   3.250   1.131  10.543  1.0294 -0.8583 -0.2940
  249MPD1    H1 3780   3.061   0.866  10.821 -1.2581 -0.0234 -2.5705
  249MPD1    H2 3781   3.474   0.935  10.852  0.5049 -0.9502 -0.4806
  249MPD1    H3 3782   3.274   0.834  10.928  2.8785 -1.2264 -1.0892
  249MPD1     N 3783   3.018   1.007  10.605 -0.5647 -0.2483 -0.1152
  249MPD1    H5 3784   3.019   1.073  10.527  1.2232 -0.9718 -0.7024
  249MPD1    N1 3785   3.487   1.104  10.644  0.3071 -0.0905  0.2795
  249MPD1    H6 3786   3.556   1.120  10.717 -2.2072 -0.7806  2.8006
  249MPD1    H7 3787   3.468   1.193  10.598 -1.7420 -0.7340 -0.1258
  250MPD2     C 3788   4.357   1.722  13.466 -0.3630 -0.4380 -0.5622
  250MPD2    C1 3789   4.354   1.783  13.340  0.0988 -0.0454  0.2518
  250MPD2    C2 3790   4.254   1.746  13.254  0.1560  0.1401 -0.3065
  250MPD2    C3 3791   4.170   1.640  13.288  0.0035 -0.0782  0.2104
  250MPD2    C4 3792   4.177   1.578  13.412 -0.5029  0.4520 -0.1437
  250MPD2    C5 3793   4.276   1.620  13.499  0.3354  0.1543  0.1058
  250MPD2     H 3794   4.259   1.776  13.150 -0.3659  1.2900 -0.0000
  250MPD2    H1 3795   4.123   1.488  13.438 -2.0316  1.0567 -1.2100
  250MPD2    H2 3796   4.433   1.759  13.535 -2.7188  1.7924  0.8391
  250MPD2    H3 3797   4.283   1.574  13.596  0.2448  0.1517  0.1113
  250MPD2     N 3798   4.078   1.575  13.209  0.3804 -0.0164  0.1821
  250MPD2    H5 3799   4.025   1.499  13.250  1.2466 -0.6552  0.1127
  250MPD2    N1 3800   4.446   1.885  13.312 -0.4943 -0.3267 -0.1101
  250MPD2    H7 3801   4.504   1.921  13.387  1.8741 -0.6550 -1.7769
  251TMC3    C1 3802   4.564   2.030  13.156  0.4497 -0.1204 -0.3219
  251TMC3    C2 3803   4.559   2.125  13.247  0.2908  1.0362  0.0854
  251TMC3    C3 3804   4.609   2.247  13.214  1.4474  0.0840 -0.1608
  251TMC3    C4 3805   4.630   2.040  13.037 -0.0830 -0.2998 -0.4352
  251TMC3    C5 3806   4.700   2.157  13.016 -0.6043 -0.4600  0.0476
  251TMC3    C6 3807   4.680   2.266  13.102 -0.1339  0.2908  0.0879
  251TMC3     C 3808   4.495   1.909  13.186  0.0593  0.3867 -0.3115
  251TMC3     O 3809   4.459   1.852  13.085 -0.4189  0.5560  0.4367
  251TMC3     H 3810   4.503   2.111  13.339 -0.5910 -0.9330 -0.7514
  251TMC3    H1 3811   4.657   1.947  12.989  1.2539  0.3261 -0.9185
  251TMC3    H2 3812   0.001   2.366  13.088  2.0148 -0.2303  2.8439
  251TMC3    C7 3813   0.077   2.168  12.917  0.5400 -0.5753  0.6164
  251TMC3    C8 3814   4.560   2.359  13.303  0.4450  0.3625 -0.1043
  251TMC3    O1 3815   0.149   2.267  12.925  0.9132 -0.5978 -0.7046
  251TMC3    O2 3816   4.544   2.328  13.418 -0.7150 -0.1750 -0.3385
  252TMC3    C1 3817   4.594   2.861   9.844  0.8382 -0.2890  0.1016
  252TMC3    C2 3818   4.645   2.988   9.830 -0.0937 -0.6512 -0.0932
  252TMC3    C3 3819   4.634   3.060   9.713 -0.4956  0.0041  0.0593
  252TMC3    C4 3820   4.510   2.812   9.751  0.4665  0.7380  0.4168
  252TMC3    C5 3821   4.482   2.895   9.639 -0.9018  0.4355  0.5068
  252TMC3    C6 3822   4.555   3.008   9.616 -0.5786  0.3658 -0.1828
  252TMC3     C 3823   4.621   2.792   9.979  0.0210 -0.0165  0.0362
  252TMC3     O 3824   4.696   2.852  10.056  0.0795  0.4161 -0.1498
  252TMC3     H 3825   4.717   3.012   9.907 -1.2785 -0.1690  0.8514
  252TMC3    H1 3826   4.469   2.716   9.779 -1.5155  1.6409  0.6229
  252TMC3    H2 3827   4.523   3.057   9.525  0.8271  0.2834 -0.7127
  252TMC3    C7 3828   4.383   2.847   9.541  0.4135  0.1452  0.1026
  252TMC3    C8 3829   4.679   3.199   9.701  0.3497  0.6558  0.4447
  252TMC3    O1 3830   4.340   2.930   9.459  0.1840 -0.5743  0.3220
  252TMC3    O2 3831   4.616   3.253   9.612 -0.3543 -0.0650 -0.0307
  253MPD2     C 3832   1.472   1.889  15.858  0.1925 -0.3503  0.8636
  253MPD2    C1 3833   1.336   1.869  15.886 -0.3558 -0.0952 -0.5392
  253MPD2    C2 3834   1.289   1.792  15.994  0.5132  0.5557  0.5619
  253MPD2    C3 3835   1.382   1.718  16.067 -0.8628  0.3740  0.3317
  253MPD2    C4 3836   1.513   1.730  16.038  0.2531  0.3313 -0.3285
  253MPD2    C5 3837   1.558   1.814  15.939  0.8898 -0.5758  0.1130
  253MPD2     H 3838   1.184   1.771  16.008  0.9084 -1.2478  0.9120
  253MPD2    H1 3839   1.584   1.667  16.090 -0.1569  2.4138  2.7744
  253MPD2    H2 3840   1.504   1.943  15.770  0.0537 -1.2531  0.2607
  253MPD2    H3 3841   1.664   1.817  15.922  0.8966  2.0111  0.6855
  253MPD2     N 3842   1.350   1.634  16.177  0.0411 -0.4328  0.0832
  253MPD2    H5 3843   1.420   1.586  16.233  1.8439 -1.4282 -3.0339
  253MPD2    N1 3844   1.227   1.929  15.810 -0.8286 -0.1872 -0.4577
  253MPD2    H7 3845   1.134   1.913  15.849 -1.9364 -2.3143 -4.0182
  254TMC3    C1 3846   1.228   1.514  16.327  0.1597 -0.4555 -0.7028
  254TMC3    C2 3847   1.101   1.466  16.338  0.3611  0.0868 -0.3709
  254TMC3    C3 3848   1.035   1.460  16.455  0.4577 -0.2158  0.3311
  254TMC3    C4 3849   1.306   1.542  16.437  0.5865 -0.1746  0.1002
  254TMC3    C5 3850   1.240   1.529  16.554  0.3552 -0.1319  0.8365
  254TMC3    C6 3851   1.112   1.485  16.567  0.4256 -0.1865 -0.4122
  254TMC3     C 3852   1.223   1.612  16.219  0.3025 -0.0400 -0.1105
  254TMC3     O 3853   1.110   1.634  16.167 -0.2633  0.4684 -0.2518
  254TMC3     H 3854   1.046   1.440  16.248  0.1530  0.7932 -0.4541
  254TMC3    H1 3855   1.405   1.584  16.423  0.2057  0.1792 -1.5207
  254TMC3    H2 3856   1.065   1.489  16.665  0.9543  0.1538 -0.1715
  254TMC3    C7 3857   1.291   1.594  16.676  0.1660 -0.0337  0.0890
  254TMC3    C8 3858   0.896   1.511  16.466  0.1970 -0.1926  0.6887
  254TMC3    O1 3859   1.215   1.626  16.764 -0.1058 -0.2012 -0.2794
  254TMC3    O2 3860   0.856   1.527  16.578 -0.1609 -0.2500  0.0346
  255MPD2     C 3861   3.525   4.681  10.204  0.1271  0.3087  0.3404
  255MPD2    C1 3862   3.542   0.092  10.246 -0.1517 -0.3475  0.5516
  255MPD2    C2 3863   3.667   0.137  10.297 -0.0046  0.0212 -0.0861
  255MPD2    C3 3864   3.772   0.050  10.306 -0.0698  0.3058  0.3608
  255MPD2    C4 3865   3.757   4.642  10.252  0.5346 -0.2236  0.0817
  255MPD2    C5 3866   3.635   4.598  10.198 -0.6761 -0.4273  0.1435
  255MPD2     H 3867   3.693   0.238  10.325  0.0769 -0.9741  3.4646
  255MPD2    H1 3868   3.831   4.563  10.241 -1.3384 -1.7753 -1.4259
  255MPD2    H2 3869   3.429   4.643  10.173  1.8484 -2.6757 -1.4058
  255MPD2    H3 3870   3.634   4.493  10.171 -2.8318 -0.4566  0.4025
  255MPD2     N 3871   3.895   0.089  10.367  0.2885 -0.3387  0.4153
  255MPD2    H5 3872   3.893   0.185  10.399  2.6531 -0.3093  0.4522
  255MPD2    N1 3873   3.428   0.178  10.244  0.0276 -0.7835  0.3597
  255MPD2    H7 3874   3.342   0.141  10.205 -1.6702  2.2894  1.2196
  256TMC3    C1 3875   3.315   0.374  10.241  0.1210  0.2285 -0.2590
  256TMC3    C2 3876   3.317   0.487  10.163  0.0098 -0.3096 -0.1314
  256TMC3    C3 3877   3.214   0.509  10.080  0.0084 -0.1546 -0.3860
  256TMC3    C4 3878   3.213   0.289  10.244  0.4568  0.1297 -0.3479
  256TMC3    C5 3879   3.125   0.294  10.136  0.1901 -0.3520  0.8077
  256TMC3    C6 3880   3.115   0.410  10.062  0.4900 -0.2737 -0.6579
  256TMC3     C 3881   3.437   0.315  10.275 -0.1758  0.5245 -0.1826
  256TMC3     O 3882   3.535   0.391  10.279 -0.1821 -0.6753  0.1905
  256TMC3     H 3883   3.409   0.544  10.161  0.7742 -1.5889 -1.1760
  256TMC3    H1 3884   3.205   0.210  10.319 -0.2615  1.2406  0.7504
  256TMC3    H2 3885   3.038   0.421   9.987 -0.8047  0.3714  0.7633
  256TMC3    C7 3886   3.116   0.162  10.069 -0.3393  0.2409 -0.0706
  256TMC3    C8 3887   3.193   0.632  10.004  1.1799 -0.4378  1.0575
  256TMC3    O1 3888   3.191   0.075  10.108 -0.2229 -0.6167 -0.8687
  256TMC3    O2 3889   3.103   0.630   9.924  0.8145 -0.3704 -0.3812
  257MPD2     C 3890   3.492   2.192  13.306  0.0332  0.0481 -0.1051
  257MPD2    C1 3891   3.445   2.100  13.218  0.2996  0.0052  0.4759
  257MPD2    C2 3892   3.393   1.977  13.260 -0.5314  0.2074  0.9546
  257MPD2    C3 3893   3.387   1.950  13.394  0.7570  1.0045  0.7735
  257MPD2    C4 3894   3.438   2.045  13.481 -0.3121  0.4714  0.2451
  257MPD2    C5 3895   3.493   2.165  13.437 -0.3449  0.6823 -0.5829
  257MPD2     H 3896   3.359   1.904  13.187 -1.1808 -0.0845  1.5517
  257MPD2    H1 3897   3.441   2.039  13.589  1.5054 -1.9456  0.0457
  257MPD2    H2 3898   3.540   2.284  13.275 -0.5154  1.0628  2.0723
  257MPD2    H3 3899   3.533   2.234  13.510 -1.4037  1.0061 -0.3150
  257MPD2     N 3900   3.372   1.816  13.432 -0.1530  0.4125  0.6505
  257MPD2    H5 3901   3.324   1.758  13.364 -0.9058  0.7616  0.8785
  257MPD2    N1 3902   3.438   2.139  13.083 -0.5915  0.6332  0.3113
  257MPD2    H7 3903   3.475   2.230  13.060 -0.3126  0.4419  0.0032
  258TMC3    C1 3904   3.373   1.634  13.579  0.6378 -0.6243 -0.1701
  258TMC3    C2 3905   3.438   1.545  13.491  0.5859 -0.5194 -0.3189
  258TMC3    C3 3906   3.456   1.421  13.532  0.1733  0.2446 -0.0569
  258TMC3    C4 3907   3.348   1.598  13.707 -0.1725 -0.7778  0.2742
  258TMC3    C5 3908   3.374   1.468  13.743 -0.2906  1.1055  0.3036
  258TMC3    C6 3909   3.427   1.385  13.661 -0.3448  0.2097  0.1766
  258TMC3     C 3910   3.410   1.769  13.555  0.0113 -0.1387  0.6948
  258TMC3     O 3911   3.455   1.818  13.656  0.0802  0.6121 -0.0462
  258TMC3     H 3912   3.466   1.581  13.393 -1.0629 -1.0660 -1.0073
  258TMC3    H1 3913   3.310   1.674  13.774 -0.5750  0.5417 -1.4586
  258TMC3    H2 3914   3.468   1.293  13.699 -1.7005 -0.6074 -0.3423
  258TMC3    C7 3915   3.357   1.437  13.887  0.3471  0.0106  0.0603
  258TMC3    C8 3916   3.545   1.337  13.458  0.0046 -0.5625  0.3821
  258TMC3    O1 3917   3.274   1.496  13.954  0.7445 -0.1087  0.0481
  258TMC3    O2 3918   3.614   1.253  13.520  0.2372  0.1363  0.2145
  259MPD2     C 3919   2.185   3.092   1.328 -1.2635 -0.0793  0.0349
  259MPD2    C1 3920   2.309   3.033   1.344 -0.2122  0.3726 -0.4949
  259MPD2    C2 3921   2.412   3.064   1.254  0.0564 -0.0721  0.1440
  259MPD2    C3 3922   2.399   3.150   1.147  0.0236 -0.6858 -0.3162
  259MPD2    C4 3923   2.272   3.202   1.131 -0.7676 -0.1755 -0.0650
  259MPD2    C5 3924   2.165   3.170   1.212  0.5963  0.3794  0.0920
  259MPD2     H 3925   2.513   3.025   1.266  0.2356  0.0240 -1.0800
  259MPD2    H1 3926   2.246   3.260   1.043  0.1705 -0.0081 -0.2313
  259MPD2    H2 3927   2.104   3.089   1.400 -1.5256 -1.7374 -0.3336
  259MPD2    H3 3928   2.069   3.218   1.199  0.4727  0.2353  0.4666
  259MPD2     N 3929   2.512   3.157   1.057  0.3554 -0.5116  0.1206
  259MPD2    H5 3930   2.595   3.124   1.105  0.3806  1.5104  1.4759
  259MPD2    N1 3931   2.330   2.945   1.457 -0.2958  0.1693  0.1495
  259MPD2    H7 3932   2.248   2.925   1.513 -0.4190 -1.8594 -0.7561
  260TMC3    C1 3933   2.664   3.225   0.890 -0.9768 -0.3295 -0.0245
  260TMC3    C2 3934   2.719   3.339   0.832  0.1217 -0.3445  0.2095
  260TMC3    C3 3935   2.853   3.345   0.816  0.1400 -0.0969  0.4581
  260TMC3    C4 3936   2.743   3.125   0.937  0.5128  0.6875 -0.5774
  260TMC3    C5 3937   2.882   3.137   0.918 -0.5953 -0.3299  0.7522
  260TMC3    C6 3938   2.937   3.250   0.869  0.0427 -0.7367  0.0752
  260TMC3     C 3939   2.532   3.241   0.957 -0.1895  0.2622  0.2135
  260TMC3     O 3940   2.454   3.332   0.921  0.4136  1.2146  0.5655
  260TMC3     H 3941   2.656   3.424   0.808 -0.5592 -0.1921  2.5447
  260TMC3    H1 3942   2.700   3.034   0.976  2.4167 -0.2950 -0.7404
  260TMC3    H2 3943   3.045   3.254   0.866 -0.1396  1.9679 -2.3289
  260TMC3    C7 3944   2.941   3.010   0.872 -0.3441  0.0474 -0.3140
  260TMC3    C8 3945   2.886   3.386   0.679  0.1657  0.9789  0.7560
  260TMC3    O1 3946   3.026   3.016   0.785  0.5395 -0.2447 -0.0795
  260TMC3    O2 3947   2.816   3.467   0.624 -0.6617 -0.6209  0.2716
  261MPD2     C 3948   3.822   1.682  12.383  0.3941  0.0180 -0.0715
  261MPD2    C1 3949   3.911   1.724  12.481 -0.0217  0.1646  0.1159
  261MPD2    C2 3950   4.005   1.820  12.445  0.6101 -0.1505  0.0650
  261MPD2    C3 3951   4.019   1.853  12.312 -0.5616  0.1190  0.0044
  261MPD2    C4 3952   3.927   1.818  12.218  0.1589  0.0406  0.3745
  261MPD2    C5 3953   3.825   1.738  12.257 -0.0971 -0.3432  0.3604
  261MPD2     H 3954   4.073   1.850  12.524  0.4896  0.3771 -0.0316
  261MPD2    H1 3955   3.940   1.843  12.114 -2.5180  0.2096  0.0933
  261MPD2    H2 3956   3.741   1.613  12.406  1.9037 -1.4798  0.6789
  261MPD2    H3 3957   3.757   1.700  12.182  0.6342 -1.1230  0.1018
  261MPD2     N 3958   4.126   1.928  12.261  0.2996  0.5498  0.1216
  261MPD2    H5 3959   4.139   1.938  12.161  0.0973  1.3113  0.1721
  261MPD2    N1 3960   3.912   1.673  12.615 -0.6963 -0.3534  0.5828
  261MPD2    H7 3961   3.967   1.712  12.691  0.2518  2.9502 -1.7730
  262TMC3    C1 3962   4.292   2.094  12.268  0.6161  0.5996  0.5316
  262TMC3    C2 3963   4.286   2.233  12.293 -0.0959  0.3047 -0.5893
  262TMC3    C3 3964   4.341   2.313  12.197  0.6470  0.0621  0.2116
  262TMC3    C4 3965   4.328   2.042  12.149  0.0010  0.1354  0.4485
  262TMC3    C5 3966   4.407   2.122  12.073 -0.6594 -0.0331 -0.9100
  262TMC3    C6 3967   4.415   2.257  12.094 -0.3978  0.4477 -0.3252
  262TMC3     C 3968   4.205   2.013  12.343  0.3568 -0.0194 -0.7802
  262TMC3     O 3969   4.180   2.054  12.457 -0.1618 -0.3576 -0.6218
  262TMC3     H 3970   4.232   2.265  12.381  2.4667 -0.6067  1.3045
  262TMC3    H1 3971   4.314   1.937  12.125  0.4878 -0.0063  0.7910
  262TMC3    H2 3972   4.457   2.329  12.025 -0.5379 -0.7348 -1.6432
  262TMC3    C7 3973   4.408   2.080  11.936 -0.0546  0.0304  0.0471
  262TMC3    C8 3974   4.267   2.431  12.169  0.1199 -1.1368 -0.3365
  262TMC3    O1 3975   4.319   2.005  11.898  0.2083  0.1539 -0.3812
  262TMC3    O2 3976   4.309   2.504  12.080 -0.1492  0.2870 -0.3128
  263MPD2     C 3977   0.362   1.520  12.079 -0.6184  0.3679 -0.5790
  263MPD2    C1 3978   0.459   1.536  11.986  0.5426 -0.2058 -0.0300
  263MPD2    C2 3979   0.425   1.584  11.861 -0.3925 -0.0667 -0.1912
  263MPD2    C3 3980   0.298   1.610  11.832  0.4364 -0.0005  0.1100
  263MPD2    C4 3981   0.202   1.588  11.925 -0.7659 -0.1200 -0.0523
  263MPD2    C5 3982   0.234   1.548  12.049 -0.1187  0.1131  0.4260
  263MPD2     H 3983   0.507   1.596  11.791  0.4919 -0.9004  0.7009
  263MPD2    H1 3984   0.095   1.598  11.908 -0.8511 -0.1513  0.4660
  263MPD2    H2 3985   0.380   1.485  12.181 -0.0119  0.3425 -0.6915
  263MPD2    H3 3986   0.158   1.546  12.127  1.7267 -0.8982  2.1882
  263MPD2     N 3987   0.279   1.651  11.700 -0.5634  0.4164 -0.0496
  263MPD2    H5 3988   0.362   1.672  11.647  1.6409 -1.3000  2.7320
  263MPD2    N1 3989   0.592   1.507  12.026 -0.2868  0.2771  0.0970
  263MPD2    H7 3990   0.604   1.492  12.125  0.9540  0.6647  0.0024
  264TMC3    C1 3991   0.183   1.777  11.535 -0.1276  0.6052  0.3624
  264TMC3    C2 3992   0.116   1.894  11.528 -0.3663  0.4656 -0.5457
  264TMC3    C3 3993   0.125   1.953  11.407 -0.1733 -0.2135 -0.4396
  264TMC3    C4 3994   0.244   1.715  11.424 -0.0578 -0.7682  0.0250
  264TMC3    C5 3995   0.238   1.776  11.300  0.4974  0.0219 -0.7452
  264TMC3    C6 3996   0.172   1.895  11.297  0.0499 -0.2332 -0.0123
  264TMC3     C 3997   0.160   1.705  11.657  0.0750 -0.1613  0.3247
  264TMC3     O 3998   0.054   1.729  11.719  0.4500 -0.1881  0.6370
  264TMC3     H 3999   0.063   1.935  11.613  0.3046  0.7341 -0.2572
  264TMC3    H1 4000   0.264   1.610  11.440  1.8405 -0.2032  1.3290
  264TMC3    H2 4001   0.165   1.947  11.202 -1.5053 -0.6970 -0.1388
  264TMC3    C7 4002   0.338   1.741  11.205 -0.5444  0.0200  0.1002
  264TMC3    C8 4003   0.181   2.080  11.420 -0.1193  0.4318  0.2657
  264TMC3    O1 4004   0.375   1.626  11.187  0.4954  0.6686 -0.4169
  264TMC3    O2 4005   0.228   2.125  11.319  0.0485  0.2733 -0.1759
  265MPD2     C 4006   2.184   1.784  15.288  0.0647 -0.6243 -0.0725
  265MPD2    C1 4007   2.308   1.834  15.315 -0.1338  0.5842 -0.4153
  265MPD2    C2 4008   2.423   1.781  15.256 -1.1064 -0.3758  0.1464
  265MPD2    C3 4009   2.410   1.683  15.162  0.3389  0.9162  0.4221
  265MPD2    C4 4010   2.284   1.637  15.122 -0.1232  0.3076  0.0079
  265MPD2    C5 4011   2.171   1.691  15.186  0.0633  0.7686  0.4225
  265MPD2     H 4012   2.521   1.817  15.286 -0.5050  0.8603 -3.2814
  265MPD2    H1 4013   2.270   1.561  15.046 -0.0869  1.3302 -1.0176
  265MPD2    H2 4014   2.090   1.815  15.333  1.3213  3.2512 -0.0942
  265MPD2    H3 4015   2.075   1.645  15.170  0.8225  0.1897 -2.3587
  265MPD2     N 4016   2.517   1.623  15.098  0.7132  0.2952  0.2199
  265MPD2    H5 4017   2.496   1.555  15.026  2.0326 -0.8879  0.9596
  265MPD2    N1 4018   2.323   1.938  15.413  0.1210 -0.3283 -0.1224
  265MPD2    H7 4019   2.414   1.947  15.456  0.7456  1.2259 -1.7218
  266TMC3    C1 4020   2.249   2.092  15.577 -0.0425 -0.0973 -0.2431
  266TMC3    C2 4021   2.288   2.020  15.686  0.4287  1.0382 -0.2245
  266TMC3    C3 4022   2.281   2.077  15.811  0.9545 -0.4911  0.5846
  266TMC3    C4 4023   2.188   2.212  15.590  0.3747 -0.3223 -0.8226
  266TMC3    C5 4024   2.167   2.265  15.720 -0.5755  0.4957  0.0104
  266TMC3    C6 4025   2.214   2.197  15.835 -0.2569 -0.2297 -0.0263
  266TMC3     C 4026   2.220   2.025  15.451 -0.4468 -0.1792  0.3745
  266TMC3     O 4027   2.118   2.058  15.387 -0.4034 -0.4805  0.2190
  266TMC3     H 4028   2.314   1.915  15.674 -1.0140  0.8390 -1.5377
  266TMC3    H1 4029   2.143   2.259  15.503  0.2738  1.4121  0.1754
  266TMC3    H2 4030   2.176   2.241  15.926  1.7059  1.3770  0.0200
  266TMC3    C7 4031   2.107   2.397  15.731 -1.0366 -0.7786 -0.1819
  266TMC3    C8 4032   2.331   1.992  15.919 -1.2065  0.4604  0.1339
  266TMC3    O1 4033   2.036   2.413  15.830  0.0800  0.5156 -0.2583
  266TMC3    O2 4034   2.391   1.892  15.887 -0.0984  0.0367  0.2869
  267MPD2     C 4035   0.057   2.971   1.045 -0.0848  0.0938  0.3824
  267MPD2    C1 4036   0.086   2.863   0.964  0.5335  0.1266  0.0683
  267MPD2    C2 4037   0.076   2.871   0.831  0.3106  0.1197  0.5841
  267MPD2    C3 4038   0.052   2.995   0.769 -0.0179  0.2107  0.1297
  267MPD2    C4 4039   0.018   3.100   0.839  0.0305 -0.6106  0.2631
  267MPD2    C5 4040   0.022   3.087   0.981  0.4634 -0.1870  0.0537
  267MPD2     H 4041   0.100   2.787   0.767 -0.7702 -0.9215  1.5600
  267MPD2    H1 4042   4.705   3.195   0.799 -1.0895 -1.1749 -0.1308
  267MPD2    H2 4043   0.080   2.972   1.151  2.5349  2.6302 -0.2222
  267MPD2    H3 4044   0.005   3.172   1.047 -1.7205 -0.7854  0.2519
  267MPD2     N 4045   0.066   3.011   0.631 -0.0618 -0.6753 -0.1548
  267MPD2    H5 4046   0.058   3.106   0.596 -0.7300 -0.4253  0.6912
  267MPD2    N1 4047   0.122   2.740   1.031 -0.2133 -0.2045 -0.0434
  267MPD2    H7 4048   0.149   2.754   1.128 -0.5815  0.7981 -0.0814
  268TMC3    C1 4049   0.266   2.551   1.031 -0.2837 -0.5115 -0.4277
  268TMC3    C2 4050   0.356   2.492   0.947  0.3790 -0.3264  0.3227
  268TMC3    C3 4051   0.479   2.455   1.006  0.1963 -0.5863  0.0458
  268TMC3    C4 4052   0.296   2.578   1.162 -0.3931  0.4350 -0.5521
  268TMC3    C5 4053   0.416   2.533   1.219  0.6861  0.3774  0.4193
  268TMC3    C6 4054   0.511   2.474   1.136  0.7156 -0.0569 -0.7867
  268TMC3     C 4055   0.157   2.624   0.967 -0.1254  0.7211 -0.0564
  268TMC3     O 4056   0.137   2.578   0.855 -0.1195 -0.4716  0.1937
  268TMC3     H 4057   0.334   2.480   0.842 -1.6368  1.1521  0.5645
  268TMC3    H1 4058   0.215   2.611   1.226 -2.6680 -2.6026 -1.9132
  268TMC3    H2 4059   0.605   2.453   1.184 -0.1772 -0.6091  0.7371
  268TMC3    C7 4060   0.457   2.563   1.360 -0.8368  0.1510 -0.2721
  268TMC3    C8 4061   0.583   2.395   0.924 -0.2725  0.0672  0.4647
  268TMC3    O1 4062   0.574   2.551   1.391 -0.2078  0.5099 -0.1112
  268TMC3    O2 4063   0.673   2.340   0.984  0.4026 -0.1390  0.0168
  269MPD2     C 4064   0.237   1.842  15.973  0.3923  1.2640  0.2713
  269MPD2    C1 4065   0.111   1.896  16.004  0.0004 -0.4351 -0.3518
  269MPD2    C2 4066   0.100   2.039  15.990 -0.0417 -0.1132 -0.3792
  269MPD2    C3 4067   0.203   2.116  15.939 -0.5168  0.0189 -0.0991
  269MPD2    C4 4068   0.323   2.053  15.905  0.8618  0.1160  0.0886
  269MPD2    C5 4069   0.334   1.918  15.931 -0.2035 -0.2318 -0.1920
  269MPD2     H 4070   0.005   2.087  16.012  0.1375 -0.5558  1.3668
  269MPD2    H1 4071   0.411   2.102  15.864 -0.1745  1.3914 -0.6177
  269MPD2    H2 4072   0.252   1.735  15.980  1.5946  1.4645  0.6851
  269MPD2    H3 4073   0.429   1.872  15.906 -0.1302  0.1763 -0.6717
  269MPD2     N 4074   0.183   2.248  15.916 -0.4409 -0.5572 -0.3341
  269MPD2    H5 4075   0.089   2.278  15.942 -1.0780 -1.6849 -1.3294
  269MPD2    N1 4076   0.008   1.806  16.053 -0.5737 -0.3675 -0.3498
  269MPD2    H7 4077   0.018   1.706  16.066 -2.3784 -0.5757 -0.5668
  270TMC3    C1 4078   4.519   1.753  16.160 -0.3056  0.2783  0.6818
  270TMC3    C2 4079   4.386   1.762  16.135  0.3769  0.2769  0.8088
  270TMC3    C3 4080   4.303   1.654  16.183  0.2246  1.0127  0.8272
  270TMC3    C4 4081   4.571   1.653  16.242 -0.1849 -0.3171  0.3668
  270TMC3    C5 4082   4.488   1.551  16.286  0.1280 -0.3122 -0.3535
  270TMC3    C6 4083   4.355   1.544  16.244 -0.3151 -0.5517 -0.3303
  270TMC3     C 4084   4.603   1.853  16.095  0.0093 -0.2549  0.3350
  270TMC3     O 4085   4.549   1.965  16.086  0.1788 -0.8839  0.1624
  270TMC3     H 4086   4.354   1.850  16.080  1.6332  0.5100  0.4469
  270TMC3    H1 4087   4.678   1.650  16.260  0.3178  0.4871 -2.4466
  270TMC3    H2 4088   4.290   1.462  16.275 -0.4769 -0.4004 -0.2711
  270TMC3    C7 4089   4.562   1.420  16.270 -0.3594  0.1792  0.2086
  270TMC3    C8 4090   4.200   1.620  16.081  0.1315  0.5632 -0.1394
  270TMC3    O1 4091   4.671   1.431  16.215 -0.3243  0.4668  0.0511
  270TMC3    O2 4092   4.084   1.636  16.112 -0.0806 -0.3391 -0.4508
  271MPD2     C 4093   4.014   1.885  14.177  0.2308  0.0318  0.1777
  271MPD2    C1 4094   3.942   1.883  14.301  0.0698  0.3228 -0.5489
  271MPD2    C2 4095   3.807   1.929  14.297  0.1373 -0.0082  0.0178
  271MPD2    C3 4096   3.757   1.961  14.176  0.2936 -0.0366 -0.4344
  271MPD2    C4 4097   3.824   1.956  14.063  0.2174  0.4056  0.3010
  271MPD2    C5 4098   3.949   1.914  14.062 -0.0671  0.3529  0.2408
  271MPD2     H 4099   3.754   1.939  14.391 -1.2379 -0.6147 -0.6988
  271MPD2    H1 4100   3.777   1.983  13.969 -0.6195 -2.2006 -0.0452
  271MPD2    H2 4101   4.114   1.846  14.157  1.1191  1.3336  2.0329
  271MPD2    H3 4102   4.004   1.914  13.968 -1.6867  0.3029 -0.7094
  271MPD2     N 4103   3.624   2.015  14.170  0.2373  0.6441  0.2850
  271MPD2    H5 4104   3.586   2.036  14.079  1.3238  1.5312  0.0287
  271MPD2    N1 4105   4.002   1.834  14.420  0.2009 -0.2575  0.3680
  271MPD2    H7 4106   3.946   1.845  14.504 -0.2127  0.4973 -0.0110
  272TMC3    C1 4107   4.179   1.786  14.571 -0.5285 -0.3613  0.4304
  272TMC3    C2 4108   4.311   1.746  14.576 -0.3121  0.6702 -0.2033
  272TMC3    C3 4109   4.352   1.669  14.688  1.2492  0.0622  0.0608
  272TMC3    C4 4110   4.090   1.759  14.675  0.0059  0.8866  0.1622
  272TMC3    C5 4111   4.136   1.687  14.779 -0.1502 -0.6268  0.1989
  272TMC3    C6 4112   4.263   1.631  14.787  0.1802  0.3746  0.0583
  272TMC3     C 4113   4.130   1.801  14.437  0.0434 -0.2191  0.1618
  272TMC3     O 4114   4.211   1.785  14.349  0.5299 -0.0339 -0.1354
  272TMC3     H 4115   4.388   1.765  14.502  0.9677  0.2796  1.0300
  272TMC3    H1 4116   3.992   1.804  14.676 -0.8983 -1.0638  0.5141
  272TMC3    H2 4117   4.285   1.563  14.868  0.8821 -0.5245 -0.8929
  272TMC3    C7 4118   4.055   1.705  14.898  0.3422  0.4212  0.7241
  272TMC3    C8 4119   4.485   1.614  14.681  0.6652 -0.5471  0.7007
  272TMC3    O1 4120   3.936   1.692  14.871  0.2434 -0.3994  0.2982
  272TMC3    O2 4121   4.562   1.656  14.593  0.1364  0.0771 -0.4067
  273MPD2     C 4122   0.595   4.714  12.177 -0.8277  0.0420 -0.2654
  273MPD2    C1 4123   0.708   0.071  12.160  0.1496  0.0176  0.8309
  273MPD2    C2 4124   0.730   0.115  12.028  0.4594  0.8793  0.3280
  273MPD2    C3 4125   0.643   0.087  11.928 -0.2110  0.3834  0.2778
  273MPD2    C4 4126   0.532   0.008  11.951  0.0148 -0.2175  0.7962
  273MPD2    C5 4127   0.510   4.680  12.073  0.7954 -0.6170 -0.3013
  273MPD2     H 4128   0.820   0.169  12.004  1.5733 -0.5267  1.3225
  273MPD2    H1 4129   0.466   4.712  11.867  0.1215 -0.5795  0.7818
  273MPD2    H2 4130   0.571   4.674  12.275 -1.5966  0.2750 -0.3557
  273MPD2    H3 4131   0.430   4.607  12.077  0.5748 -0.5036 -2.4652
  273MPD2     N 4132   0.670   0.153  11.803  0.0654 -0.5242  0.1530
  273MPD2    H5 4133   0.755   0.209  11.802 -0.1145 -0.3099 -2.7887
  273MPD2    N1 4134   0.787   0.113  12.273 -0.6980 -0.0596 -0.4166
  273MPD2    H7 4135   0.755   0.081  12.363  2.1557 -1.3483  0.1489
  274TMC3    C1 4136   0.636   0.285  11.618  0.7433  0.7240  0.8958
  274TMC3    C2 4137   0.598   0.302  11.488 -0.5927 -0.6943  0.3419
  274TMC3    C3 4138   0.652   0.410  11.415 -0.2785 -0.3871 -0.6551
  274TMC3    C4 4139   0.704   0.386  11.689  0.5154 -0.4498  0.2575
  274TMC3    C5 4140   0.749   0.495  11.628  0.4143  0.0306  0.3054
  274TMC3    C6 4141   0.731   0.506  11.490 -0.0456 -0.1484  0.4151
  274TMC3     C 4142   0.590   0.168  11.700 -0.0871  0.6397 -0.9054
  274TMC3     O 4143   0.488   0.100  11.671  0.1211 -0.4808 -0.6603
  274TMC3     H 4144   0.528   0.231  11.445 -1.0284  1.5841 -2.7196
  274TMC3    H1 4145   0.690   0.388  11.796  0.0831  3.0415  0.1457
  274TMC3    H2 4146   0.750   0.602  11.444  1.7152 -0.3149  0.7979
  274TMC3    C7 4147   0.795   0.604  11.718 -0.0110 -0.3584  0.3156
  274TMC3    C8 4148   0.584   0.456  11.295  0.4711 -0.6991  0.0091
  274TMC3    O1 4149   0.762   0.719  11.695  0.2721 -0.1286  0.5199
  274TMC3    O2 4150   0.467   0.429  11.290 -0.1365  0.0181 -0.0848
  275MPD2     C 4151   0.944   2.618  14.826  0.5136  0.4284  0.5183
  275MPD2    C1 4152   0.848   2.683  14.904  0.2231 -0.4225  0.4932
  275MPD2    C2 4153   0.718   2.642  14.902  0.1123  0.4582  0.0136
  275MPD2    C3 4154   0.676   2.535  14.832  0.1543 -0.8144  0.4684
  275MPD2    C4 4155   0.770   2.467  14.759  0.4577 -0.1094 -0.1347
  275MPD2    C5 4156   0.903   2.502  14.757 -0.1278  0.0768  0.2068
  275MPD2     H 4157   0.644   2.692  14.965  1.4518  1.9015  0.4467
  275MPD2    H1 4158   0.739   2.382  14.699 -1.7929 -0.6639  1.8213
  275MPD2    H2 4159   1.049   2.646  14.823  0.6070 -0.0825 -1.1728
  275MPD2    H3 4160   0.972   2.446  14.695  0.8716  1.1750  0.3320
  275MPD2     N 4161   0.544   2.482  14.837  0.4310 -0.1572  0.0648
  275MPD2    H5 4162   0.520   2.414  14.766 -0.0225  2.8029 -2.5801
  275MPD2    N1 4163   0.876   2.794  14.983  0.7799  0.1019 -0.2867
  275MPD2    H7 4164   0.796   2.841  15.023 -1.5346 -2.3500 -2.0946
  276TMC3    C1 4165   0.993   2.948  15.132  0.4937  0.2408 -0.3830
  276TMC3    C2 4166   0.890   2.930  15.221  0.0283  0.4193  0.1275
  276TMC3    C3 4167   0.902   2.988  15.339 -0.4731 -0.3099  0.6345
  276TMC3    C4 4168   1.110   3.006  15.169  0.4344 -0.6619 -0.0252
  276TMC3    C5 4169   1.120   3.068  15.287 -0.6314 -0.0879  0.3756
  276TMC3    C6 4170   1.016   3.055  15.372 -0.6063  0.1090 -1.2516
  276TMC3     C 4171   1.001   2.852  15.020 -0.6458  0.4592 -0.4668
  276TMC3     O 4172   1.109   2.829  14.964 -0.4979  0.4404  0.1272
  276TMC3     H 4173   0.801   2.877  15.190 -0.5140  1.5005 -0.1846
  276TMC3    H1 4174   1.198   2.988  15.108  0.3056  2.2277 -1.0669
  276TMC3    H2 4175   1.030   3.094  15.472 -0.2918  0.4029 -1.4140
  276TMC3    C7 4176   1.228   3.152  15.333 -0.1005 -0.4986  0.0096
  276TMC3    C8 4177   0.824   2.932  15.452  0.4002  0.0257 -0.4715
  276TMC3    O1 4178   1.234   3.186  15.449  0.3587 -0.0020 -0.2502
  276TMC3    O2 4179   0.802   3.004  15.548 -0.1750 -0.6172 -0.2388
  277MPD2     C 4180   2.506   1.797  13.416  0.5695 -0.3349  0.8413
  277MPD2    C1 4181   2.376   1.849  13.424 -0.6868 -0.2940  0.2052
  277MPD2    C2 4182   2.317   1.852  13.550  0.5734 -0.1299  0.4529
  277MPD2    C3 4183   2.383   1.825  13.665 -0.1274  0.1657  0.3269
  277MPD2    C4 4184   2.510   1.784  13.665  0.5074  0.5358  0.7317
  277MPD2    C5 4185   2.567   1.766  13.540 -0.1908  1.5189 -0.3047
  277MPD2     H 4186   2.215   1.884  13.565  1.2355  1.9589  0.5377
  277MPD2    H1 4187   2.571   1.760  13.751 -0.1294  0.3673  1.1424
  277MPD2    H2 4188   2.567   1.788  13.326  1.5450 -0.8237  1.5520
  277MPD2    H3 4189   2.664   1.721  13.526 -0.1431  1.1985  1.0576
  277MPD2     N 4190   2.306   1.836  13.779  0.2239 -0.6403  0.0441
  277MPD2    H5 4191   2.211   1.871  13.771  0.8516  0.9627 -0.2817
  277MPD2    N1 4192   2.326   1.924  13.307 -0.2348  0.1639 -0.1443
  277MPD2    H7 4193   2.397   1.945  13.238 -1.2014  0.7069 -0.9771
  278TMC3    C1 4194   2.246   1.810  14.006 -0.1457  0.3137 -0.0981
  278TMC3    C2 4195   2.214   1.700  14.080  0.2977 -0.0368 -0.5113
  278TMC3    C3 4196   2.093   1.699  14.150  0.2608  0.1203  1.3670
  278TMC3    C4 4197   2.158   1.916  14.003  0.2142 -0.1347 -0.1198
  278TMC3    C5 4198   2.040   1.904  14.071 -0.1587  0.3286 -0.5423
  278TMC3    C6 4199   2.003   1.796  14.153 -0.6991 -0.3807 -0.1565
  278TMC3     C 4200   2.337   1.785  13.903  0.2709 -0.0327  0.7861
  278TMC3     O 4201   2.435   1.713  13.927 -0.0212  0.5380  0.1986
  278TMC3     H 4202   2.272   1.609  14.082 -0.4037 -0.5223 -2.9315
  278TMC3    H1 4203   2.182   1.998  13.937 -1.4407  0.4847  0.0580
  278TMC3    H2 4204   1.909   1.786  14.206 -0.7081  0.1152 -0.0721
  278TMC3    C7 4205   1.935   2.002  14.043 -0.0324 -0.6084 -0.0538
  278TMC3    C8 4206   2.055   1.570  14.204 -0.1703 -0.0390 -0.1657
  278TMC3    O1 4207   1.967   2.117  14.017 -0.1737  0.2913  0.1219
  278TMC3    O2 4208   1.980   1.573  14.303 -0.4354  0.2524 -0.0765
  279MPD2     C 4209   1.621   1.280   0.801  0.4433 -0.9881 -0.4981
  279MPD2    C1 4210   1.627   1.406   0.857  0.0191 -0.5165 -0.0249
  279MPD2    C2 4211   1.727   1.493   0.815 -0.1497 -0.4113  0.3126
  279MPD2    C3 4212   1.830   1.462   0.728  0.1192 -0.4452 -0.3370
  279MPD2    C4 4213   1.816   1.338   0.674  0.3785 -0.4928 -0.6104
  279MPD2    C5 4214   1.723   1.248   0.706 -0.2750  0.4652 -0.0992
  279MPD2     H 4215   1.713   1.596   0.845 -2.7360 -0.6828  0.0521
  279MPD2    H1 4216   1.880   1.309   0.592  2.1531  1.2182  0.1850
  279MPD2    H2 4217   1.545   1.208   0.827  0.7261 -0.2748  2.3118
  279MPD2    H3 4218   1.718   1.153   0.655 -2.5025  0.1179  0.7604
  279MPD2     N 4219   1.914   1.565   0.675  0.5412  0.2779 -0.2758
  279MPD2    H5 4220   1.979   1.535   0.603  0.4939 -1.2358  0.3282
  279MPD2    N1 4221   1.513   1.443   0.941 -0.3129 -0.4738 -0.3756
  279MPD2    H7 4222   1.422   1.398   0.933 -0.6293  0.3087 -1.1035
  280TMC3    C1 4223   1.386   1.617   1.035 -0.3389  0.3971  0.7026
  280TMC3    C2 4224   1.278   1.550   1.003 -0.2721  0.5671 -0.2583
  280TMC3    C3 4225   1.173   1.620   0.946 -0.3970  0.1975  0.2516
  280TMC3    C4 4226   1.398   1.749   1.024  0.0576 -0.3522  0.2951
  280TMC3    C5 4227   1.293   1.818   0.967 -0.3327 -0.2239  0.4185
  280TMC3    C6 4228   1.173   1.756   0.926  0.4963  0.2255  0.3872
  280TMC3     C 4229   1.511   1.547   1.028 -0.1064  0.0566  0.5890
  280TMC3     O 4230   1.610   1.603   1.067  0.4963  0.3724 -0.0545
  280TMC3     H 4231   1.266   1.452   1.047 -2.0803 -0.3515 -2.8214
  280TMC3    H1 4232   1.484   1.804   1.060 -0.0366  0.5737 -0.9055
  280TMC3    H2 4233   1.085   1.809   0.890 -0.4497 -1.6287 -0.0072
  280TMC3    C7 4234   1.334   1.936   0.889  0.1840 -0.2179 -0.5248
  280TMC3    C8 4235   1.044   1.556   0.932  0.4370 -0.1117  0.3545
  280TMC3    O1 4236   1.449   1.963   0.909 -0.3028 -0.2474  0.0901
  280TMC3    O2 4237   0.971   1.612   0.850 -0.4516  0.2388 -0.0178
  281TMC3    C1 4238   0.800   2.196  13.044  0.4826 -0.6169  0.4173
  281TMC3    C2 4239   0.750   2.247  12.927 -0.2051  0.5187  0.4318
  281TMC3    C3 4240   0.726   2.164  12.821  0.2197 -0.7047  0.0445
  281TMC3    C4 4241   0.838   2.065  13.054  0.2073  0.5429  0.7887
  281TMC3    C5 4242   0.818   1.986  12.949 -0.0695 -0.2055  0.6733
  281TMC3    C6 4243   0.771   2.033  12.831  0.1883 -0.2112  0.0957
  281TMC3     C 4244   0.793   2.266  13.171 -0.6359 -0.3733  0.6851
  281TMC3     O 4245   0.848   2.223  13.268  0.0035  0.1747 -0.5529
  281TMC3     H 4246   0.732   2.353  12.912 -1.0096  0.3984  0.5529
  281TMC3    H1 4247   0.859   2.027  13.154 -0.4328  0.9461  1.0742
  281TMC3    H2 4248   0.738   1.956  12.763 -1.9460  1.8732 -1.2212
  281TMC3    C7 4249   0.793   1.848  12.982  0.1143  0.0723  0.4367
  281TMC3    C8 4250   0.588   2.179  12.775 -0.0308 -0.6184  0.6486
  281TMC3    O1 4251   0.813   1.762  12.895 -0.0591  0.1959  0.1164
  281TMC3    O2 4252   0.530   2.266  12.836  0.5586 -0.4985 -0.9292
  282MPD2     C 4253   2.626   3.510  15.421 -0.1663 -0.1958  0.0513
  282MPD2    C1 4254   2.508   3.580  15.440 -0.0297  0.7404 -0.0499
  282MPD2    C2 4255   2.427   3.612  15.333  0.2050 -0.8068 -0.2341
  282MPD2    C3 4256   2.446   3.575  15.203  0.4917 -0.3229 -0.2548
  282MPD2    C4 4257   2.556   3.489  15.189  1.1335 -0.6641  0.2563
  282MPD2    C5 4258   2.640   3.459  15.297 -0.4493  0.0523 -0.3436
  282MPD2     H 4259   2.336   3.668  15.351  0.1049 -0.8451 -0.6261
  282MPD2    H1 4260   2.585   3.449  15.093 -0.7764 -0.3155 -0.4716
  282MPD2    H2 4261   2.700   3.475  15.493  1.9496  1.7193 -1.1771
  282MPD2    H3 4262   2.713   3.382  15.276 -0.5955 -0.2839  0.3793
  282MPD2     N 4263   2.353   3.623  15.102  0.0575 -0.4407  0.0943
  282MPD2    H5 4264   2.288   3.695  15.131  1.5589  0.3487  1.4786
  282MPD2    N1 4265   2.469   3.612  15.574  0.8448 -0.3482 -0.0646
  282MPD2    H7 4266   2.384   3.668  15.579  0.4403 -0.9046 -0.5488
  283TMC3    C1 4267   2.460   3.626  15.793  0.4372 -0.0247 -0.5454
  283TMC3    C2 4268   2.492   3.754  15.846  0.2039  0.1860 -0.9352
  283TMC3    C3 4269   2.427   3.794  15.960 -0.4207 -0.2482  0.3230
  283TMC3    C4 4270   2.362   3.549  15.851  0.2257  0.1279 -0.0677
  283TMC3    C5 4271   2.302   3.599  15.968  0.5283  0.0218  0.1467
  283TMC3    C6 4272   2.328   3.723  16.019  0.2437  0.9002 -0.3752
  283TMC3     C 4273   2.532   3.577  15.687  0.0835 -0.1916  0.1749
  283TMC3     O 4274   2.638   3.523  15.705 -0.0651  0.4752  0.0141
  283TMC3     H 4275   2.555   3.824  15.793  3.3412 -1.7071  0.3029
  283TMC3    H1 4276   2.352   3.447  15.816  0.6004  0.0419  0.0741
  283TMC3    H2 4277   2.276   3.764  16.105  1.0534  0.1413  0.4741
  283TMC3    C7 4278   2.195   3.522  16.020 -0.8282 -0.1664  0.2085
  283TMC3    C8 4279   2.434   3.930  16.006  0.0668 -0.3248 -0.1009
  283TMC3    O1 4280   2.168   3.537  16.138  0.2751 -0.2288 -0.2326
  283TMC3    O2 4281   2.413   3.940  16.125  0.2876 -0.1157 -0.1949
  284MPD2     C 4282   0.333   3.063  12.002  0.2341 -0.2781  0.2422
  284MPD2    C1 4283   0.459   3.112  12.026 -0.4246  0.5302 -0.5272
  284MPD2    C2 4284   0.519   3.084  12.145 -0.1502  0.1747 -0.0530
  284MPD2    C3 4285   0.461   2.998  12.234 -0.1179 -0.5602 -0.2603
  284MPD2    C4 4286   0.346   2.931  12.199  0.0043  0.0104 -0.1235
  284MPD2    C5 4287   0.276   2.973  12.087 -0.9538  0.5087  0.2163
  284MPD2     H 4288   0.609   3.135  12.178 -1.2573  1.2146  1.3715
  284MPD2    H1 4289   0.295   2.862  12.265  0.1840  1.2333  1.3001
  284MPD2    H2 4290   0.272   3.094  11.918  0.4584 -1.3831 -0.3352
  284MPD2    H3 4291   0.173   2.946  12.068 -1.3998  1.4413  1.2492
  284MPD2     N 4292   0.535   2.978  12.352 -0.0320  0.2825  0.8441
  284MPD2    H5 4293   0.626   3.019  12.362  1.1682 -2.4536  1.2737
  284MPD2    N1 4294   0.541   3.187  11.933 -0.1988 -0.4185  0.1759
  284MPD2    H7 4295   0.632   3.216  11.965 -1.5252  1.9602  1.7699
  285TMC3    C1 4296   0.625   3.239  11.719  0.4686  0.5048 -0.3670
  285TMC3    C2 4297   0.649   3.165  11.609  0.1405 -0.9485  0.1885
  285TMC3    C3 4298   0.751   3.204  11.527  0.4041 -0.5933  0.3055
  285TMC3    C4 4299   0.703   3.343  11.750  0.1928 -0.0613 -0.1981
  285TMC3    C5 4300   0.806   3.376  11.663  0.2677  1.5749 -0.5858
  285TMC3    C6 4301   0.823   3.315  11.541  0.5153 -0.2444  0.7523
  285TMC3     C 4302   0.513   3.203  11.797  0.1653 -0.4666 -0.2625
  285TMC3     O 4303   0.411   3.161  11.734  0.5569 -1.0031 -0.0937
  285TMC3     H 4304   0.592   3.073  11.593  0.0576 -1.1792  1.7793
  285TMC3    H1 4305   0.685   3.406  11.836 -0.7424 -0.7132  0.0774
  285TMC3    H2 4306   0.889   3.356  11.465 -0.4078 -0.7978 -0.3361
  285TMC3    C7 4307   0.869   3.506  11.680  0.7110  0.7713 -0.1026
  285TMC3    C8 4308   0.806   3.094  11.454  0.2916 -0.5001  0.6066
  285TMC3    O1 4309   0.859   3.580  11.584  0.3171 -0.0249 -0.0994
  285TMC3    O2 4310   0.722   3.019  11.406  0.2663 -0.7160 -0.5339
  286MPD2     C 4311   0.054   0.914   1.675  0.4373  0.2341  0.0320
  286MPD2    C1 4312   0.131   0.980   1.583 -0.5943 -0.1131  1.0579
  286MPD2    C2 4313   0.265   0.995   1.600  0.4070  0.4843 -0.0700
  286MPD2    C3 4314   0.331   0.944   1.705  0.4439 -0.4667  0.2755
  286MPD2    C4 4315   0.258   0.876   1.802  0.6016 -0.2265 -0.1526
  286MPD2    C5 4316   0.122   0.859   1.789 -0.0991 -0.1557 -1.0026
  286MPD2     H 4317   0.320   1.059   1.531  0.8449 -0.8416 -0.9468
  286MPD2    H1 4318   0.307   0.826   1.885 -0.7010  0.2022  0.8793
  286MPD2    H2 4319   4.669   0.895   1.660  0.7325 -0.5038 -1.0551
  286MPD2    H3 4320   0.068   0.801   1.863  0.8323  0.0336 -0.1793
  286MPD2     N 4321   0.465   0.980   1.707 -0.4148 -0.1633  0.3548
  286MPD2    H5 4322   0.506   1.026   1.627 -1.4916  0.5463  0.1993
  286MPD2    N1 4323   0.073   1.041   1.473  0.6131 -0.7042 -0.0701
  286MPD2    H7 4324   0.134   1.099   1.415 -0.6995 -1.2334 -1.9917
  287TMC3    C1 4325   0.683   0.955   1.741  0.2447  0.1020 -0.0546
  287TMC3    C2 4326   0.692   0.917   1.611  0.2198  0.0696 -0.3026
  287TMC3    C3 4327   0.816   0.901   1.554 -0.5402 -0.0967 -0.3393
  287TMC3    C4 4328   0.791   0.982   1.820 -0.0579  0.1065 -0.0309
  287TMC3    C5 4329   0.914   0.980   1.755  0.6726  0.1263  0.4827
  287TMC3    C6 4330   0.928   0.937   1.622 -0.4381 -0.0534 -0.1738
  287TMC3     C 4331   0.550   0.933   1.802 -0.0931 -0.3549 -0.3239
  287TMC3     O 4332   0.532   0.914   1.918 -0.2166  0.4170 -0.6931
  287TMC3     H 4333   0.603   0.888   1.556  1.6971  0.7033 -3.0429
  287TMC3    H1 4334   0.791   1.006   1.926  0.7825 -0.9707  0.2100
  287TMC3    H2 4335   1.028   0.926   1.583 -0.8697 -2.2239 -0.6272
  287TMC3    C7 4336   1.037   0.989   1.841  0.5804 -0.4684  0.1760
  287TMC3    C8 4337   0.817   0.877   1.406 -0.5409 -0.2427  0.1693
  287TMC3    O1 4338   1.034   1.057   1.943  0.1181 -0.2748 -0.0979
  287TMC3    O2 4339   0.722   0.816   1.363 -0.2317 -0.3224 -0.7116
  288TMC3    C1 4340   2.509   1.176  14.607  0.3108 -0.0253  0.4895
  288TMC3    C2 4341   2.494   1.243  14.720  0.1310 -0.4209 -0.0637
  288TMC3    C3 4342   2.381   1.220  14.793  0.7184 -0.5259  0.3174
  288TMC3    C4 4343   2.430   1.069  14.569 -0.1838 -0.4299 -0.3773
  288TMC3    C5 4344   2.327   1.043  14.653  0.1246 -0.3139  0.0543
  288TMC3    C6 4345   2.291   1.121  14.760  0.3482  0.3117  0.7606
  288TMC3     C 4346   2.621   1.207  14.514  0.0021  0.3303 -0.0517
  288TMC3     O 4347   2.583   1.222  14.401  0.1617  1.0086 -0.0410
  288TMC3     H 4348   2.547   1.334  14.748  0.5678 -0.3236 -1.2315
  288TMC3    H1 4349   2.451   1.010  14.481  2.3493 -0.1850  0.0594
  288TMC3    H2 4350   2.192   1.133  14.801 -0.0758  2.8276 -0.9564
  288TMC3    C7 4351   2.225   0.945  14.606 -0.4255 -0.6695  0.0617
  288TMC3    C8 4352   2.387   1.273  14.927 -0.2674 -0.3713 -0.2295
  288TMC3    O1 4353   2.120   0.955  14.664  0.6233 -0.7116 -0.8140
  288TMC3    O2 4354   2.457   1.373  14.950 -0.3662 -0.6832 -0.1785
  289MPD2     C 4355   2.649   0.431  14.797 -0.5083 -0.3029 -0.0420
  289MPD2    C1 4356   2.600   0.551  14.750  0.3994  0.3331 -0.1459
  289MPD2    C2 4357   2.460   0.569  14.739  0.5618  0.1786 -0.4576
  289MPD2    C3 4358   2.375   0.458  14.771 -0.9155 -0.7083 -1.0640
  289MPD2    C4 4359   2.429   0.334  14.798  0.5118 -0.9644  0.3497
  289MPD2    C5 4360   2.563   0.322  14.820  0.6190  0.0500  0.1362
  289MPD2     H 4361   2.416   0.665  14.714 -0.8577 -0.5033 -0.5991
  289MPD2    H1 4362   2.366   0.247  14.813 -1.4867  0.6245  1.2407
  289MPD2    H2 4363   2.757   0.421  14.796 -0.5228 -0.2136 -2.5202
  289MPD2    H3 4364   2.602   0.226  14.852  1.7073  0.8632  1.2059
  289MPD2     N 4365   2.234   0.462  14.770  0.1876 -0.6415  0.0831
  289MPD2    H5 4366   2.185   0.379  14.739 -1.6176 -0.4948  2.5749
  289MPD2    N1 4367   2.695   0.649  14.715 -0.1308  0.1302 -0.4730
  289MPD2    H7 4368   2.789   0.635  14.750 -1.9531 -2.7045  3.2528
  290TMC3    C1 4369   2.019   0.565  14.787  1.0876 -0.1233 -0.5834
  290TMC3    C2 4370   1.950   0.677  14.757 -0.0312  0.1602  0.7256
  290TMC3    C3 4371   1.822   0.672  14.706 -0.0001  0.1725 -0.2546
  290TMC3    C4 4372   1.966   0.439  14.779 -0.7098 -0.6902 -0.7203
  290TMC3    C5 4373   1.838   0.437  14.719  0.0484 -0.0821  0.6067
  290TMC3    C6 4374   1.766   0.549  14.684 -0.6161 -0.2515  0.0909
  290TMC3     C 4375   2.161   0.581  14.792 -0.8217  0.1598  0.2160
  290TMC3     O 4376   2.206   0.687  14.839 -0.3209  0.1302  0.2290
  290TMC3     H 4377   2.010   0.767  14.747 -1.7233  1.2424  0.2145
  290TMC3    H1 4378   2.018   0.348  14.805  0.5756  0.4625  0.7695
  290TMC3    H2 4379   1.671   0.542  14.631 -1.5347  1.0254  1.5840
  290TMC3    C7 4380   1.759   0.311  14.717 -0.4223  0.4003  0.7072
  290TMC3    C8 4381   1.776   0.786  14.625 -0.3039  0.3572  0.5240
  290TMC3    O1 4382   1.645   0.320  14.763  0.2864 -0.0365 -0.4381
  290TMC3    O2 4383   1.675   0.761  14.558  0.5415  0.4721 -1.0987
  291MPD2     C 4384   1.366   0.435   0.785  0.6588 -0.0502 -0.2740
  291MPD2    C1 4385   1.474   0.349   0.764  0.3217  0.0574  0.2852
  291MPD2    C2 4386   1.590   0.396   0.710 -0.4532  0.0104 -0.1076
  291MPD2    C3 4387   1.606   0.532   0.678  0.0533 -0.2742 -0.6596
  291MPD2    C4 4388   1.506   0.621   0.712 -0.5166  0.3120 -0.9588
  291MPD2    C5 4389   1.387   0.568   0.763  0.0630  0.4152 -0.1615
  291MPD2     H 4390   1.668   0.330   0.674 -0.0672  0.3104  0.1897
  291MPD2    H1 4391   1.517   0.726   0.690 -2.8461  0.6516 -0.4366
  291MPD2    H2 4392   1.273   0.411   0.835  0.6635 -0.1936 -0.3367
  291MPD2    H3 4393   1.310   0.638   0.796 -1.1031 -1.2410  0.6107
  291MPD2     N 4394   1.715   0.576   0.603 -0.4391  0.1574  0.8137
  291MPD2    H5 4395   1.718   0.678   0.600  2.5103  0.1244  1.9464
  291MPD2    N1 4396   1.468   0.209   0.794 -0.5213  0.0057  0.1567
  291MPD2    H7 4397   1.555   0.158   0.785 -0.3161  0.5455 -0.9935
  292TMC3    C1 4398   1.373   4.711   0.798 -0.2259 -0.1285  0.4461
  292TMC3    C2 4399   1.475   4.665   0.874  0.5341  0.0455 -0.8807
  292TMC3    C3 4400   1.492   4.528   0.870 -0.0207 -0.3366 -0.4837
  292TMC3    C4 4401   1.282   4.635   0.736  0.3301  0.6355  0.1333
  292TMC3    C5 4402   1.304   4.496   0.741 -0.2043 -0.0214 -0.0997
  292TMC3    C6 4403   1.408   4.442   0.803  0.5166  0.9048 -0.4649
  292TMC3     C 4404   1.351   0.134   0.800 -0.1843 -0.1938 -0.1163
  292TMC3     O 4405   1.237   0.166   0.795 -0.6750 -0.2633 -0.2263
  292TMC3     H 4406   1.538   0.010   0.932  0.3057 -0.8506  0.3848
  292TMC3    H1 4407   1.206   4.681   0.674  0.2379 -1.1628 -1.0940
  292TMC3    H2 4408   1.428   4.336   0.790  0.9662  1.2464 -2.5402
  292TMC3    C7 4409   1.235   4.430   0.641 -0.8042 -0.3767 -0.3827
  292TMC3    C8 4410   1.571   4.477   0.982 -0.7067 -0.0730 -0.2546
  292TMC3    O1 4411   1.132   4.484   0.611 -0.5731 -0.5334  0.0062
  292TMC3    O2 4412   1.668   4.543   1.013  0.4825  0.2009  0.8103
  293MPD2     C 4413   3.530   1.890  12.476 -0.0208  0.5275 -0.0877
  293MPD2    C1 4414   3.441   1.842  12.569 -0.1126  0.8125  0.4155
  293MPD2    C2 4415   3.479   1.836  12.709  0.3517 -1.0999  0.2084
  293MPD2    C3 4416   3.592   1.904  12.751  0.8500 -0.0105  0.1138
  293MPD2    C4 4417   3.679   1.960  12.657 -0.2140 -0.0161  0.6156
  293MPD2    C5 4418   3.655   1.944  12.521 -0.0817  0.1352  0.0545
  293MPD2     H 4419   3.418   1.798  12.789 -0.3950 -0.4863 -0.0734
  293MPD2    H1 4420   3.770   2.009  12.689  0.0843  0.9530 -1.7522
  293MPD2    H2 4421   3.512   1.889  12.369 -1.5123  0.5514  0.1634
  293MPD2    H3 4422   3.732   1.982  12.454 -1.0176 -0.2199 -1.2347
  293MPD2     N 4423   3.631   1.907  12.893 -0.0877  0.4762  0.2274
  293MPD2    H5 4424   3.582   1.836  12.946  2.2581 -1.3341 -0.0382
  293MPD2    N1 4425   3.325   1.774  12.516  0.1462  0.5975  0.0754
  293MPD2    H7 4426   3.314   1.780  12.415  1.1626  2.4867  0.0745
  294TMC3    C1 4427   3.115   1.674  12.510 -0.1351 -0.3154 -0.0245
  294TMC3    C2 4428   3.008   1.617  12.577 -0.0814  0.3543  0.1538
  294TMC3    C3 4429   2.914   1.561  12.496 -0.4045 -0.2323  0.2182
  294TMC3    C4 4430   3.138   1.646  12.376 -0.3780  0.3749 -0.2588
  294TMC3    C5 4431   3.032   1.593  12.300 -0.3774  0.5309 -0.0309
  294TMC3    C6 4432   2.919   1.551  12.364 -0.7062  0.6404  0.3216
  294TMC3     C 4433   3.228   1.714  12.591  0.2585 -0.2698 -0.5359
  294TMC3     O 4434   3.220   1.710  12.714  0.2845 -0.2296 -0.0420
  294TMC3     H 4435   2.999   1.613  12.685 -1.8304 -1.2820 -0.0483
  294TMC3    H1 4436   3.231   1.669  12.325 -0.9522  0.6783 -1.1740
  294TMC3    H2 4437   2.831   1.521  12.309 -1.5399 -0.1948  2.1053
  294TMC3    C7 4438   3.055   1.511  12.191 -0.0125 -0.0336  0.1471
  294TMC3    C8 4439   2.846   1.447  12.556  0.4082 -0.1184  0.1491
  294TMC3    O1 4440   3.002   1.401  12.203 -0.3723 -0.2891  0.1860
  294TMC3    O2 4441   2.810   1.451  12.672  0.0581 -0.4551  0.1812
  295MPD2     C 4442   4.589   4.480   0.355 -0.1560 -1.0802  0.2318
  295MPD2    C1 4443   4.502   4.567   0.419  0.0131  0.1544  0.2149
  295MPD2    C2 4444   4.542   4.610   0.545 -0.3746  0.1606  0.0689
  295MPD2    C3 4445   4.655   4.563   0.608  0.3415 -0.1987  0.0053
  295MPD2    C4 4446   0.015   4.472   0.538 -0.5554  0.7388  0.1890
  295MPD2    C5 4447   4.695   4.424   0.420  0.3161  0.6448 -0.0419
  295MPD2     H 4448   4.489   4.690   0.595 -1.5622 -0.5634 -0.0406
  295MPD2    H1 4449   0.108   4.447   0.586 -0.8765 -1.8362 -0.5698
  295MPD2    H2 4450   4.560   4.431   0.262 -0.4520 -0.4358 -0.0111
  295MPD2    H3 4451   0.037   4.346   0.377  0.6702  0.6832  0.4043
  295MPD2     N 4452   4.693   4.606   0.738 -0.2644  0.1379 -0.1451
  295MPD2    H5 4453   0.014   4.536   0.798  0.0289 -0.6085 -1.2303
  295MPD2    N1 4454   4.375   4.608   0.366 -0.1126  0.0024  0.1829
  295MPD2    H7 4455   4.332   4.684   0.417  1.3132  0.6945  0.3531
  296TMC3    C1 4456   4.646   0.008   0.939 -0.4806  0.3632 -0.1269
  296TMC3    C2 4457   4.555   0.092   0.993 -0.6623 -0.2516  0.2838
  296TMC3    C3 4458   4.547   0.094   1.132 -0.6072 -0.0651 -0.5864
  296TMC3    C4 4459   4.714   4.629   1.012  0.3906 -0.6823 -0.0994
  296TMC3    C5 4460   4.685   4.629   1.150  0.2970 -0.5918  0.2135
  296TMC3    C6 4461   4.598   4.715   1.206  0.1481  0.5583 -0.0058
  296TMC3     C 4462   4.649   0.005   0.792 -0.5575  0.2036 -0.1731
  296TMC3     O 4463   4.621   0.106   0.724  0.3891  0.4140  0.0819
  296TMC3     H 4464   4.503   0.161   0.928  0.2534  0.4897  0.3246
  296TMC3    H1 4465   0.067   4.564   0.967  1.1777  1.3434 -1.7290
  296TMC3    H2 4466   4.603   0.006   1.314  0.1484  0.0927  0.0458
  296TMC3    C7 4467   0.022   4.519   1.220  0.1967  0.3769  0.1224
  296TMC3    C8 4468   4.417   0.147   1.176 -1.3402 -0.1418 -0.2625
  296TMC3    O1 4469   0.141   4.509   1.194 -0.3054 -0.6871  0.0672
  296TMC3    O2 4470   4.391   0.253   1.124 -0.2169  0.5048  0.2402
  297MPD2     C 4471   1.443   1.986  16.617  0.2107 -0.9300  0.0694
  297MPD2    C1 4472   1.410   2.060  16.509  0.1466 -0.6156  0.7036
  297MPD2    C2 4473   1.481   2.185  16.502  0.1736 -0.2391  0.6662
  297MPD2    C3 4474   1.571   2.225  16.594  0.0679  0.0671 -0.5835
  297MPD2    C4 4475   1.595   2.151  16.704 -0.1963 -0.2107  0.0205
  297MPD2    C5 4476   1.524   2.033  16.714 -0.6245  0.5923 -0.3727
  297MPD2     H 4477   1.476   2.246  16.412  0.9533 -0.1205  0.7057
  297MPD2    H1 4478   1.659   2.188  16.783 -0.0379  1.6566 -0.9898
  297MPD2    H2 4479   1.392   1.894  16.643  0.1659 -0.6067  1.1182
  297MPD2    H3 4480   1.529   1.979  16.807 -0.6954 -2.5055 -2.1708
  297MPD2     N 4481   1.644   2.344  16.578 -0.7185 -0.4081  0.4023
  297MPD2    H5 4482   1.621   2.387  16.489 -0.1296  1.1787  1.0133
  297MPD2    N1 4483   1.308   2.028  16.411 -0.3937 -0.2356  0.5571
  297MPD2    H7 4484   1.292   2.102  16.343  0.7834  1.4094  2.0374
  298TMC3    C1 4485   1.117   1.943  16.330  0.5973  0.0419  0.0628
  298TMC3    C2 4486   1.147   2.011  16.216  0.3813 -0.2520 -0.3681
  298TMC3    C3 4487   1.041   2.072  16.146 -0.6801 -0.0025 -0.2595
  298TMC3    C4 4488   0.993   1.921  16.380 -0.0899  0.0006 -0.1909
  298TMC3    C5 4489   0.895   1.987  16.308 -0.4085  0.0315  0.0132
  298TMC3    C6 4490   0.913   2.066  16.194 -0.5219 -0.1928 -0.8185
  298TMC3     C 4491   1.227   1.928  16.422 -0.1429 -0.8696  0.6897
  298TMC3     O 4492   1.219   1.843  16.504  0.1799  0.3437  0.0015
  298TMC3     H 4493   1.246   2.000  16.174  1.7301  1.3433  2.3822
  298TMC3    H1 4494   0.980   1.863  16.470 -0.1485 -1.5835 -1.2180
  298TMC3    H2 4495   0.838   2.119  16.137 -0.1878 -2.1646 -3.0814
  298TMC3    C7 4496   0.777   2.007  16.382 -0.3788  0.0647 -1.2078
  298TMC3    C8 4497   1.062   2.152  16.025 -0.9757  0.0519  0.7313
  298TMC3    O1 4498   0.777   1.994  16.508 -0.0717 -0.5431  0.0192
  298TMC3    O2 4499   0.968   2.190  15.957 -0.2240 -0.1131 -0.4074
  299MPD2     C 4500   2.170   1.523  11.116  0.2401  0.2034  0.2786
  299MPD2    C1 4501   2.169   1.626  11.025 -0.1262  0.3834  0.3446
  299MPD2    C2 4502   2.074   1.634  10.927 -0.1270  0.4666 -0.4846
  299MPD2    C3 4503   1.971   1.538  10.923  0.4265 -0.5466 -0.3751
  299MPD2    C4 4504   1.960   1.447  11.021 -0.1851 -0.2368  0.1351
  299MPD2    C5 4505   2.067   1.433  11.108  0.3951  0.3232 -0.0274
  299MPD2     H 4506   2.070   1.713  10.853 -0.2920  0.0476 -0.9216
  299MPD2    H1 4507   1.882   1.372  11.030 -0.7649  0.1803 -1.3252
  299MPD2    H2 4508   2.243   1.509  11.196 -0.2245 -2.0415  0.2915
  299MPD2    H3 4509   2.060   1.369  11.195  3.3473  0.2758  0.1701
  299MPD2     N 4510   1.868   1.533  10.828 -0.1174  0.0838 -0.2470
  299MPD2    H5 4511   1.790   1.476  10.857 -1.5236  1.1404 -1.9824
  299MPD2    N1 4512   2.267   1.728  11.050  0.6252 -0.1397 -0.1149
  299MPD2    H7 4513   2.335   1.714  11.123  0.7285 -0.4834 -0.2793
  300TMC3    C1 4514   1.739   1.650  10.666  0.2620 -0.0386 -0.2068
  300TMC3    C2 4515   1.728   1.772  10.604  0.3606 -0.2684  0.0502
  300TMC3    C3 4516   1.608   1.835  10.600  0.0187  0.9842  0.2465
  300TMC3    C4 4517   1.629   1.605  10.737 -1.0065  0.6781  0.2109
  300TMC3    C5 4518   1.507   1.667  10.729  0.2339 -0.1837 -0.4245
  300TMC3    C6 4519   1.493   1.779  10.656 -0.2283  0.7899  0.6240
  300TMC3     C 4520   1.865   1.602  10.708  0.7074 -0.3701 -0.0095
  300TMC3     O 4521   1.957   1.658  10.652 -0.3952 -0.6931 -0.1397
  300TMC3     H 4522   1.820   1.817  10.567  0.2680 -1.7125 -1.9651
  300TMC3    H1 4523   1.628   1.506  10.780  2.4385 -0.1844 -1.7888
  300TMC3    H2 4524   1.398   1.828  10.637 -0.3047 -0.7963 -3.1584
  300TMC3    C7 4525   1.393   1.622  10.808 -0.4968 -0.4739  0.6101
  300TMC3    C8 4526   1.619   1.980  10.591 -0.1734 -0.5812 -0.4982
  300TMC3    O1 4527   1.393   1.502  10.837 -0.6166  0.7111  0.1331
  300TMC3    O2 4528   1.730   2.032  10.602 -0.0572  0.3500  0.4852
  301MPD2     C 4529   4.307   2.969   1.183  0.4563 -0.2626 -0.2340
  301MPD2    C1 4530   4.181   2.945   1.130 -0.1221  0.1000  0.4979
  301MPD2    C2 4531   4.164   2.819   1.072  0.3843  0.7633  0.5939
  301MPD2    C3 4532   4.260   2.727   1.049  0.1062 -0.7013 -1.0133
  301MPD2    C4 4533   4.386   2.758   1.098  0.2317 -0.0167 -0.3679
  301MPD2    C5 4534   4.410   2.875   1.166  0.4975 -0.1306  0.2196
  301MPD2     H 4535   4.059   2.794   1.057  0.9680 -1.5016  0.2308
  301MPD2    H1 4536   4.465   2.685   1.086  0.6813  0.3639  0.3087
  301MPD2    H2 4537   4.319   3.063   1.235  0.7992 -1.7290  2.3264
  301MPD2    H3 4538   4.510   2.894   1.203  0.1175  0.5975  0.8818
  301MPD2     N 4539   4.235   2.601   1.000  0.3314 -0.2958  0.2944
  301MPD2    H5 4540   4.313   2.536   0.991  0.4442  0.0034 -0.9154
  301MPD2    N1 4541   4.072   3.040   1.122  0.0383 -0.2094 -0.5081
  301MPD2    H7 4542   3.984   3.014   1.079  0.2964 -0.1915 -1.0449
  302TMC3    C1 4543   4.124   2.409   0.919 -0.6227 -0.0230 -0.3803
  302TMC3    C2 4544   4.216   2.327   0.974 -0.1543  0.5562  0.0705
  302TMC3    C3 4545   4.211   2.194   0.933 -0.7099 -0.1363  0.4046
  302TMC3    C4 4546   4.039   2.373   0.814 -0.3588 -0.1077 -0.0660
  302TMC3    C5 4547   4.054   2.245   0.763 -0.1748 -0.4583  0.3992
  302TMC3    C6 4548   4.137   2.152   0.822 -0.2811 -0.0541  0.2992
  302TMC3     C 4549   4.112   2.555   0.958  0.6035 -0.5312  0.0793
  302TMC3     O 4550   4.008   2.612   0.926  0.2617 -0.0929  0.4073
  302TMC3     H 4551   4.271   2.361   1.062  1.5507 -0.8410 -0.4505
  302TMC3    H1 4552   3.968   2.443   0.772  0.1896 -0.4799 -1.6521
  302TMC3    H2 4553   4.128   2.057   0.772  0.0761 -0.0169  0.1638
  302TMC3    C7 4554   3.954   2.207   0.658 -0.0414 -0.1947 -1.3429
  302TMC3    C8 4555   4.234   2.109   1.042  0.1043  0.0898 -0.1904
  302TMC3    O1 4556   3.991   2.141   0.563 -0.1556 -0.4333 -0.4157
  302TMC3    O2 4557   4.289   2.159   1.138 -0.3463  0.5401  0.1225
  303MPD2     C 4558   3.637   1.765  10.690 -0.4925 -0.1910 -0.2352
  303MPD2    C1 4559   3.587   1.643  10.713  0.5025 -0.1965  0.0942
  303MPD2    C2 4560   3.492   1.589  10.623  0.4457  0.7799  0.5794
  303MPD2    C3 4561   3.469   1.657  10.503  0.1863  0.2363 -0.0013
  303MPD2    C4 4562   3.541   1.773  10.475 -0.2044 -0.0339 -0.0158
  303MPD2    C5 4563   3.615   1.828  10.574  0.5733  0.3011  0.3688
  303MPD2     H 4564   3.467   1.485  10.643  1.3390  0.2298 -1.0917
  303MPD2    H1 4565   3.546   1.823  10.379  0.3684  0.7481  0.4249
  303MPD2    H2 4566   3.703   1.802  10.767  0.9084 -1.5244 -0.7921
  303MPD2    H3 4567   3.675   1.917  10.559  1.1121 -0.2533 -0.7401
  303MPD2     N 4568   3.400   1.607  10.392 -0.3682 -0.2737 -0.2970
  303MPD2    H5 4569   3.414   1.655  10.304 -0.8248  3.6479  1.8003
  303MPD2    N1 4570   3.633   1.581  10.836  0.1098 -0.9716 -0.2694
  303MPD2    H7 4571   3.712   1.624  10.882 -1.2496 -0.0195  1.1590
  304TMC3    C1 4572   3.645   1.431  11.008 -0.5004 -1.1213  0.1993
  304TMC3    C2 4573   3.573   1.383  11.117 -0.2680  0.3807  0.1613
  304TMC3    C3 4574   3.625   1.270  11.182 -0.3267  0.1063 -0.4934
  304TMC3    C4 4575   3.767   1.371  10.968 -0.3678 -0.0773  0.2864
  304TMC3    C5 4576   3.807   1.253  11.030 -0.1425  0.2321  0.2524
  304TMC3    C6 4577   3.742   1.209  11.137 -0.0279 -0.2877  0.0633
  304TMC3     C 4578   3.574   1.467  10.890 -0.3214 -0.6551 -0.2329
  304TMC3     O 4579   3.488   1.393  10.848 -0.4108  1.0539 -0.9467
  304TMC3     H 4580   3.477   1.428  11.138 -0.7875 -1.0573  0.8743
  304TMC3    H1 4581   3.824   1.406  10.883 -0.7052 -1.0159 -0.3354
  304TMC3    H2 4582   3.768   1.118  11.190  0.4759 -0.0046  0.3139
  304TMC3    C7 4583   3.816   1.141  10.937 -0.0958 -0.1131  0.0422
  304TMC3    C8 4584   3.532   1.178  11.239 -0.0087 -0.0844 -0.2195
  304TMC3    O1 4585   3.737   1.053  10.964 -0.7556  0.2730  0.0092
  304TMC3    O2 4586   3.443   1.221  11.313 -0.1283 -0.2548 -0.0295
  305MPD2     C 4587   2.386   3.932  13.961  0.1221  0.1443  0.1394
  305MPD2    C1 4588   2.512   3.875  13.953 -0.3693 -0.3706  0.7625
  305MPD2    C2 4589   2.572   3.835  13.837  0.0965 -0.2655  0.3787
  305MPD2    C3 4590   2.502   3.851  13.723 -0.5621  0.2661 -1.0957
  305MPD2    C4 4591   2.377   3.901  13.724  0.3163  0.3070  0.0874
  305MPD2    C5 4592   2.320   3.954  13.838 -0.8608 -0.4307  0.3245
  305MPD2     H 4593   2.673   3.795  13.842  0.8012  1.7676  2.7905
  305MPD2    H1 4594   2.319   3.914  13.634  0.9906  3.1485  0.0643
  305MPD2    H2 4595   2.357   3.989  14.048  3.4345  0.0521  1.3040
  305MPD2    H3 4596   2.228   4.010  13.826  0.8766  2.3405  0.0843
  305MPD2     N 4597   2.553   3.813  13.596 -0.0803 -0.0074  0.3461
  305MPD2    H5 4598   2.484   3.813  13.521  0.5159 -1.5422 -0.2156
  305MPD2    N1 4599   2.571   3.862  14.081 -0.5267 -0.7732 -0.2187
  305MPD2    H7 4600   2.513   3.878  14.163 -1.5530 -2.3777 -0.6274
  306TMC3    C1 4601   2.740   3.815  14.245  0.2124 -0.1890  0.3289
  306TMC3    C2 4602   2.836   3.718  14.278  0.1405 -0.1827  0.9083
  306TMC3    C3 4603   2.864   3.698  14.412 -0.0860  0.0292  0.4528
  306TMC3    C4 4604   2.665   3.890  14.334  0.5881  0.2740 -0.2208
  306TMC3    C5 4605   2.685   3.849  14.466 -0.3697  0.4367  0.3938
  306TMC3    C6 4606   2.784   3.765  14.504 -0.1367  0.3579  0.1548
  306TMC3     C 4607   2.705   3.813  14.105 -0.3899  0.3723 -0.8208
  306TMC3     O 4608   2.801   3.790  14.035 -0.2070  0.1891  0.0185
  306TMC3     H 4609   2.879   3.660  14.197 -0.6722 -1.2840  1.2600
  306TMC3    H1 4610   2.586   3.962  14.320  0.8532  0.5488 -0.2941
  306TMC3    H2 4611   2.793   3.734  14.608  0.5720 -1.9716 -0.5883
  306TMC3    C7 4612   2.594   3.880  14.571  0.1346 -0.1887 -0.2356
  306TMC3    C8 4613   2.899   3.563  14.452  0.5924 -0.6614 -0.4339
  306TMC3    O1 4614   2.476   3.891  14.547 -0.2527  0.5712  0.1860
  306TMC3    O2 4615   3.003   3.511  14.423 -0.2949 -0.2622  0.0682
  307MPD2     C 4616   0.721   1.027   0.683 -0.1510 -0.3589 -0.6554
  307MPD2    C1 4617   0.644   1.078   0.589  0.3544 -0.7855  0.5027
  307MPD2    C2 4618   0.513   1.100   0.620 -0.7120  0.6117  0.1754
  307MPD2    C3 4619   0.466   1.068   0.752  0.3111  0.2572  0.7894
  307MPD2    C4 4620   0.545   1.000   0.843 -0.3904 -0.3858 -0.2409
  307MPD2    C5 4621   0.680   0.988   0.809 -0.1112  0.3606 -0.1103
  307MPD2     H 4622   0.447   1.154   0.554  1.1521  0.0290 -2.1421
  307MPD2    H1 4623   0.515   0.955   0.937 -0.2101 -1.9809 -0.9367
  307MPD2    H2 4624   0.823   0.995   0.667 -0.0105 -1.1276  1.8315
  307MPD2    H3 4625   0.758   0.947   0.871 -0.3798 -1.3334 -0.8873
  307MPD2     N 4626   0.333   1.084   0.796 -0.4304  0.1438  0.6167
  307MPD2    H5 4627   0.312   1.071   0.895  0.7637  2.1779  1.1536
  307MPD2    N1 4628   0.689   1.102   0.461 -0.3057  0.4038  0.1489
  307MPD2    H7 4629   0.622   1.140   0.394 -0.9756 -1.1549 -0.0841
  308TMC3    C1 4630   4.622   1.231   0.811  0.7670  0.4076  0.5331
  308TMC3    C2 4631   4.657   1.356   0.848 -0.3842  0.4010 -0.0839
  308TMC3    C3 4632   0.070   1.386   0.873  0.2033 -0.4121 -0.4343
  308TMC3    C4 4633   4.719   1.137   0.782  1.1840  0.2279 -0.2214
  308TMC3    C5 4634   0.125   1.173   0.803  0.0493  0.1158  0.1615
  308TMC3    C6 4635   0.167   1.294   0.850 -0.0207 -1.0207  0.3531
  308TMC3     C 4636   4.515   1.217   0.717 -0.8216 -0.2500 -0.0113
  308TMC3     O 4637   4.541   1.154   0.616 -0.5705  0.2668 -0.0123
  308TMC3     H 4638   4.581   1.433   0.851  0.5360  1.2156  2.4911
  308TMC3    H1 4639   4.693   1.044   0.731 -2.0395  2.4312 -2.5771
  308TMC3    H2 4640   0.272   1.319   0.842 -0.4398 -0.1495 -2.4462
  308TMC3    C7 4641   0.230   1.113   0.716  0.0786  0.8595  0.1572
  308TMC3    C8 4642   0.109   1.515   0.819 -0.4620 -0.1907  1.3228
  308TMC3    O1 4643   0.214   1.097   0.594  0.2191  0.0081 -0.4749
  308TMC3    O2 4644   0.212   1.567   0.860 -0.8492  0.0956  0.1885
  309MPD2     C 4645   3.889   1.697  17.182 -0.3965  0.6214 -0.2614
  309MPD2    C1 4646   3.903   1.823  17.129 -0.3201  0.8694 -0.1688
  309MPD2    C2 4647   3.807   1.913  17.161  0.2308 -0.1538 -0.0836
  309MPD2    C3 4648   3.700   1.873  17.239  0.1103 -0.1531 -0.1428
  309MPD2    C4 4649   3.678   1.745  17.284  0.2879 -0.0861 -0.4323
  309MPD2    C5 4650   3.781   1.658  17.258  1.0334  0.2911  0.3148
  309MPD2     H 4651   3.817   2.016  17.130 -1.6351  0.1991  0.5043
  309MPD2    H1 4652   3.594   1.720  17.348  0.4263  2.1689  0.6616
  309MPD2    H2 4653   3.960   1.617  17.167 -1.8724 -0.9400  1.0264
  309MPD2    H3 4654   3.786   1.560  17.304  0.1984 -0.5805 -1.4624
  309MPD2     N 4655   3.603   1.976  17.271  0.4147 -0.8180  0.2742
  309MPD2    H5 4656   3.540   1.961  17.348  1.0852 -0.7323  0.8427
  309MPD2    N1 4657   4.004   1.862  17.042 -0.4968 -0.4035 -0.0668
  309MPD2    H7 4658   3.996   1.953  16.999 -0.9784 -0.1229  0.6054
  310TMC3    C1 4659   4.196   1.873  16.909 -0.1313  0.4584  0.0454
  310TMC3    C2 4660   4.138   1.961  16.818  0.0411 -0.5769 -0.1104
  310TMC3    C3 4661   4.194   1.971  16.693  0.2052 -0.1313  0.1158
  310TMC3    C4 4662   4.313   1.817  16.880 -0.3124  0.1168 -0.6693
  310TMC3    C5 4663   4.360   1.819  16.754 -0.0442 -0.6338  0.6293
  310TMC3    C6 4664   4.300   1.895  16.660 -0.0938 -0.6737 -0.2716
  310TMC3     C 4665   4.117   1.794  17.004  0.2811 -0.1102  0.5214
  310TMC3     O 4666   4.160   1.687  17.047  0.0204 -0.3931  0.1622
  310TMC3     H 4667   4.046   2.011  16.849  0.3274  0.8801 -1.6115
  310TMC3    H1 4668   4.360   1.748  16.948  0.5001  2.5041  1.1795
  310TMC3    H2 4669   4.324   1.873  16.557  2.2012  0.2481  0.0623
  310TMC3    C7 4670   4.469   1.723  16.713 -0.0950  0.3740 -0.5857
  310TMC3    C8 4671   4.130   2.053  16.583 -0.0520 -0.1018 -0.1444
  310TMC3    O1 4672   4.501   1.631  16.786  0.8168 -0.5633 -0.6707
  310TMC3    O2 4673   4.010   2.070  16.602 -0.6002  0.1876  0.2928
  311MPD2     C 4674   1.658   3.306  12.941  0.2675 -0.1370 -0.1616
  311MPD2    C1 4675   1.654   3.422  13.013  0.4844 -0.1359  0.3038
  311MPD2    C2 4676   1.536   3.465  13.074 -0.7574  0.6379 -0.2619
  311MPD2    C3 4677   1.421   3.387  13.060 -0.2552 -0.0856  0.1325
  311MPD2    C4 4678   1.428   3.271  12.983 -0.1813 -0.4497  0.3865
  311MPD2    C5 4679   1.547   3.231  12.930 -0.0218 -0.3916 -0.2118
  311MPD2     H 4680   1.534   3.561  13.123 -0.3166  0.2119  0.6052
  311MPD2    H1 4681   1.337   3.213  12.974 -0.8912  0.9419 -1.4418
  311MPD2    H2 4682   1.750   3.279  12.890 -0.1214 -3.1881  0.7006
  311MPD2    H3 4683   1.551   3.139  12.874 -0.1876 -0.4503 -0.1244
  311MPD2     N 4684   1.297   3.425  13.115 -0.6326 -0.0944  0.3886
  311MPD2    H5 4685   1.284   3.509  13.170  0.6790  1.0874 -1.1271
  311MPD2    N1 4686   1.764   3.516  13.032  0.4688  0.4153  0.4352
  311MPD2    H7 4687   1.732   3.602  13.075 -0.2409  1.7524 -2.7755
  312TMC3    C1 4688   1.064   3.445  13.141 -0.1386  0.9327 -0.3473
  312TMC3    C2 4689   0.949   3.438  13.066 -0.9183  0.0566  0.3122
  312TMC3    C3 4690   0.856   3.540  13.079 -1.4273 -0.0907 -0.3466
  312TMC3    C4 4691   1.087   3.545  13.226 -1.2770  0.6178  0.2664
  312TMC3    C5 4692   0.986   3.631  13.247 -0.0082 -0.7330  0.4093
  312TMC3    C6 4693   0.881   3.641  13.165  0.3332  0.0058 -0.0772
  312TMC3     C 4694   1.173   3.362  13.092  0.0866  0.8396  0.5504
  312TMC3     O 4695   1.130   3.268  13.027 -0.7329 -0.3409  0.0131
  312TMC3     H 4696   0.916   3.354  13.005  2.8366  0.0706 -1.7125
  312TMC3    H1 4697   1.182   3.554  13.278 -1.5989 -0.0668  0.9787
  312TMC3    H2 4698   0.801   3.713  13.177  1.3306  0.9229  0.9995
  312TMC3    C7 4699   1.028   3.751  13.309  0.3347  0.1834  0.3330
  312TMC3    C8 4700   0.720   3.510  13.028  0.5050  0.3089  0.1869
  312TMC3    O1 4701   1.027   3.850  13.237 -0.5253  0.0974 -0.0767
  312TMC3    O2 4702   0.686   3.391  13.026 -0.1543 -0.6393 -0.1437
  313MPD2     C 4703   1.127   2.516  10.873 -0.5258  0.1850  0.5994
  313MPD2    C1 4704   1.017   2.596  10.892  0.0500  0.2067  0.5535
  313MPD2    C2 4705   0.892   2.556  10.861  0.9599 -0.2216  0.1758
  313MPD2    C3 4706   0.872   2.430  10.803  0.0500  0.1404 -0.1044
  313MPD2    C4 4707   0.979   2.344  10.799  0.1799 -0.0551  0.9994
  313MPD2    C5 4708   1.106   2.385  10.830  0.5435  0.0243  0.3518
  313MPD2     H 4709   0.806   2.622  10.859  1.3515  0.2796  0.0849
  313MPD2    H1 4710   0.978   2.249  10.747 -0.4409  2.1075 -2.9317
  313MPD2    H2 4711   1.223   2.551  10.907 -0.4974  1.0286 -0.3353
  313MPD2    H3 4712   1.187   2.314  10.826 -0.0741 -0.5764 -1.2326
  313MPD2     N 4713   0.745   2.397  10.750  0.5884 -0.9872 -0.5885
  313MPD2    H5 4714   0.669   2.461  10.767  0.6389 -0.7647 -1.1943
  313MPD2    N1 4715   1.027   2.723  10.949 -0.0008  0.0741  0.8870
  313MPD2    H7 4716   0.940   2.775  10.939  0.9581  2.1037  3.1495
  314TMC3    C1 4717   1.091   2.919  11.057  0.5661 -0.3318 -0.1649
  314TMC3    C2 4718   1.189   3.005  11.102 -0.1266 -0.0057  0.1077
  314TMC3    C3 4719   1.164   3.139  11.092 -0.7171 -0.3499  0.5204
  314TMC3    C4 4720   0.955   2.957  11.045 -0.3558  0.1438 -0.8169
  314TMC3    C5 4721   0.950   3.093  11.034  0.1860  0.0556  0.0419
  314TMC3    C6 4722   1.046   3.186  11.060 -0.1715 -0.1710 -0.1603
  314TMC3     C 4723   1.130   2.786  11.021 -0.2996  0.3590 -0.0033
  314TMC3     O 4724   1.240   2.741  11.043 -0.4519 -0.0267 -0.2078
  314TMC3     H 4725   1.291   2.969  11.109 -0.1268 -0.0545 -0.1456
  314TMC3    H1 4726   0.878   2.901  10.993  1.0581 -0.9554 -1.7383
  314TMC3    H2 4727   1.015   3.289  11.050 -0.0709 -0.3009 -1.7792
  314TMC3    C7 4728   0.818   3.150  11.019  0.5153 -0.0260  0.2370
  314TMC3    C8 4729   1.242   3.239  11.165  0.6525  0.2048 -0.3460
  314TMC3    O1 4730   0.725   3.082  11.064 -0.7136  0.0108  0.2638
  314TMC3    O2 4731   1.207   3.357  11.158 -0.2570 -0.0703 -0.4662
  315MPD2     C 4732   0.375   2.233   0.631  0.2040 -0.3290  0.1360
  315MPD2    C1 4733   0.490   2.154   0.652 -0.2254 -0.3519  0.4974
  315MPD2    C2 4734   0.585   2.163   0.558 -0.9399 -0.3677  1.0144
  315MPD2    C3 4735   0.568   2.236   0.447 -0.4548 -0.1457 -0.7790
  315MPD2    C4 4736   0.463   2.325   0.430 -0.2266  0.3292  0.9959
  315MPD2    C5 4737   0.357   2.316   0.520  1.1332  0.1213 -0.2004
  315MPD2     H 4738   0.676   2.105   0.563 -0.1875  0.6154 -1.3833
  315MPD2    H1 4739   0.451   2.392   0.346  2.0732 -0.9835 -0.3699
  315MPD2    H2 4740   0.292   2.224   0.700 -0.4252 -0.4551 -0.6356
  315MPD2    H3 4741   0.264   2.368   0.505  2.0555  1.0116 -2.8835
  315MPD2     N 4742   0.662   2.214   0.339  0.0608  0.2229  0.3414
  315MPD2    H5 4743   0.734   2.145   0.356  0.0418  0.7291  2.3999
  315MPD2    N1 4744   0.512   2.069   0.764  0.8168 -0.0236  0.6102
  315MPD2    H7 4745   0.605   2.028   0.766  0.1775 -1.4759  0.9737
  316TMC3    C1 4746   0.792   2.285   0.153 -0.5021 -0.2446  0.5397
  316TMC3    C2 4747   0.902   2.244   0.223  0.2356 -0.3713 -0.1578
  316TMC3    C3 4748   1.024   2.286   0.183  0.6849  0.4593 -0.0258
  316TMC3    C4 4749   0.795   2.363   0.039 -1.0614  0.2310 -0.4194
  316TMC3    C5 4750   0.917   2.413   0.012  0.0082  0.1290 -0.0027
  316TMC3    C6 4751   1.027   2.379   0.085  0.3401  0.3073  0.1108
  316TMC3     C 4752   0.668   2.288   0.225 -0.5827  0.5739  0.9520
  316TMC3     O 4753   0.584   2.364   0.185  0.2977  0.2308 -0.4059
  316TMC3     H 4754   0.901   2.172   0.304 -0.7601 -1.0703 -0.7937
  316TMC3    H1 4755   0.705   2.388  17.668 -0.0466  0.3995 -2.0223
  316TMC3    H2 4756   1.126   2.420   0.069  0.4731  0.0071  0.1547
  316TMC3    C7 4757   0.937   2.507  17.583  0.5797  0.3615 -1.0710
  316TMC3    C8 4758   1.131   2.303   0.272  0.5640  1.2986  0.0870
  316TMC3    O1 4759   1.039   2.572  17.597  0.0880  0.1471  0.0178
  316TMC3    O2 4760   1.186   2.415   0.277 -0.0976 -0.3376  0.3781
  317MPD2     C 4761   2.669   0.616  13.323  0.5205  0.1794 -0.0822
  317MPD2    C1 4762   2.697   0.517  13.233  0.3566 -0.0793 -0.3779
  317MPD2    C2 4763   2.820   0.462  13.242 -0.8574  0.4072  0.0056
  317MPD2    C3 4764   2.914   0.499  13.344  0.4138  0.2113  0.0945
  317MPD2    C4 4765   2.878   0.595  13.437 -0.1362 -0.1244  0.0563
  317MPD2    C5 4766   2.755   0.649  13.427 -0.1819  0.1439  0.5767
  317MPD2     H 4767   2.847   0.389  13.167 -2.1501 -0.2007  0.1308
  317MPD2    H1 4768   2.949   0.630  13.510  0.9774  3.1589 -2.5875
  317MPD2    H2 4769   2.567   0.650  13.338  0.3377 -0.0959 -0.7279
  317MPD2    H3 4770   2.722   0.719  13.503  0.9560  0.2493  0.9771
  317MPD2     N 4771   3.039   0.433  13.344  0.6229 -0.1540 -0.0683
  317MPD2    H5 4772   3.055   0.360  13.275  0.4215 -1.5386  1.3586
  317MPD2    N1 4773   2.611   0.482  13.126 -0.3234  0.8019  0.3193
  317MPD2    H7 4774   2.645   0.409  13.064 -2.5053 -1.1781  1.4150
  318TMC3    C1 4775   3.242   0.345  13.432  0.7388  0.3369  0.0069
  318TMC3    C2 4776   3.201   0.215  13.437  0.2695 -0.2565 -0.1012
  318TMC3    C3 4777   3.303   0.119  13.453  1.1491  0.8629 -0.2312
  318TMC3    C4 4778   3.373   0.378  13.443  0.5960  0.3667  0.3623
  318TMC3    C5 4779   3.474   0.277  13.451  0.4461 -0.2557  0.3517
  318TMC3    C6 4780   3.439   0.146  13.454  0.7507  0.4210 -0.4185
  318TMC3     C 4781   3.144   0.454  13.430 -0.2792  0.0715 -0.0035
  318TMC3     O 4782   3.160   0.535  13.522  0.3480 -0.3216  0.6544
  318TMC3     H 4783   3.094   0.198  13.437 -0.1338  2.4424  0.6844
  318TMC3    H1 4784   3.397   0.482  13.459  0.2478  0.6973 -1.2663
  318TMC3    H2 4785   3.504   0.061  13.474 -1.8716 -1.6598 -0.8150
  318TMC3    C7 4786   3.600   0.323  13.394 -0.5462  0.4164 -0.7957
  318TMC3    C8 4787   3.268   4.701  13.438 -0.5679  0.4765  0.6125
  318TMC3    O1 4788   3.595   0.443  13.366 -0.3585 -0.3389 -0.1333
  318TMC3    O2 4789   3.353   4.623  13.394  0.1823  0.0062 -0.2430
  319MPD2     C 4790   3.291   1.853  17.113 -0.0549 -0.4048 -0.2587
  319MPD2    C1 4791   3.183   1.792  17.171  0.5957 -0.3584  0.5375
  319MPD2    C2 4792   3.094   1.740  17.077 -0.7978 -0.2774  0.0578
  319MPD2    C3 4793   3.098   1.761  16.942  0.0669 -0.5198  0.4151
  319MPD2    C4 4794   3.188   1.848  16.898  0.1275 -0.0883 -0.2451
  319MPD2    C5 4795   3.285   1.896  16.982 -0.3685 -0.1777 -0.2662
  319MPD2     H 4796   3.011   1.680  17.114 -0.1765 -1.3103 -0.2074
  319MPD2    H1 4797   3.187   1.870  16.792  2.2387 -0.6595 -0.3739
  319MPD2    H2 4798   3.383   1.874  17.165 -0.0314 -0.4298 -0.2903
  319MPD2    H3 4799   3.367   1.959  16.948  0.6470 -1.7099 -0.6385
  319MPD2     N 4800   3.015   1.713  16.840  0.3098  0.3526 -0.2828
  319MPD2    H5 4801   3.042   1.755  16.752 -1.2259 -0.7320 -1.2625
  319MPD2    N1 4802   3.183   1.755  17.306 -0.4282  1.5033  0.3581
  319MPD2    H7 4803   3.101   1.704  17.338  0.3608 -1.6162 -2.6507
  320TMC3    C1 4804   2.863   1.559  16.735  0.1269  0.1982  0.4031
  320TMC3    C2 4805   2.821   1.643  16.633  0.0867  0.0797 -0.5701
  320TMC3    C3 4806   2.765   1.594  16.518 -0.4491  0.6156 -0.0329
  320TMC3    C4 4807   2.843   1.425  16.719  0.1616 -0.2334 -0.0589
  320TMC3    C5 4808   2.779   1.381  16.605 -0.2704  1.0693 -0.6663
  320TMC3    C6 4809   2.734   1.464  16.506 -0.2613  0.4412  0.4700
  320TMC3     C 4810   2.940   1.595  16.851  0.1176 -0.6755  0.4024
  320TMC3     O 4811   2.929   1.531  16.955  0.2022  0.5538  0.1492
  320TMC3     H 4812   2.828   1.750  16.647 -0.2226 -0.1067  0.9944
  320TMC3    H1 4813   2.887   1.356  16.790 -0.6932 -0.1590  0.5404
  320TMC3    H2 4814   2.705   1.417  16.413 -3.8389  0.7760  1.4014
  320TMC3    C7 4815   2.774   1.238  16.568  0.2600 -0.7616 -0.3697
  320TMC3    C8 4816   2.749   1.691  16.410  0.1214 -0.0776 -0.7669
  320TMC3    O1 4817   2.766   1.208  16.450 -0.6208  0.4093 -0.2436
  320TMC3    O2 4818   2.745   1.808  16.449 -0.1911 -0.0782  0.4072
  321TMC3    C1 4819   3.248   1.689  17.518  1.0054 -0.1987  0.6667
  321TMC3    C2 4820   3.170   1.580  17.502 -0.4104  0.5144 -0.2126
  321TMC3    C3 4821   3.139   1.503  17.616 -0.1899 -0.1151  0.4980
  321TMC3    C4 4822   3.293   1.723  17.642  0.2406  0.3590 -0.2561
  321TMC3    C5 4823   3.243   1.659   0.067  0.4672  0.1927 -0.4302
  321TMC3    C6 4824   3.157   1.551   0.059  0.7657 -0.5388 -0.0867
  321TMC3     C 4825   3.277   1.775  17.403 -0.6987 -0.0487  0.1391
  321TMC3     O 4826   3.369   1.856  17.426 -0.0272 -0.6263  0.0656
  321TMC3     H 4827   3.147   1.534  17.407  1.0126  0.8590 -0.7095
  321TMC3    H1 4828   3.366   1.804  17.643  0.6804 -0.0718  2.6731
  321TMC3    H2 4829   3.131   1.492   0.146  2.6187 -0.9721  0.1796
  321TMC3    C7 4830   3.346   1.641   0.165 -0.3953 -0.4170  0.1775
  321TMC3    C8 4831   3.203   1.378  17.621 -0.4341  0.3860 -0.3458
  321TMC3    O1 4832   3.453   1.638   0.118 -0.0188 -0.5462  0.2200
  321TMC3    O2 4833   3.177   1.309   0.032  0.4598 -0.2468  0.6035
  322MPD2     C 4834   2.326   2.955  13.578  0.5605  0.3094 -0.2086
  322MPD2    C1 4835   2.298   2.887  13.693 -0.3073 -0.2830 -0.1730
  322MPD2    C2 4836   2.298   2.753  13.689  0.2466  0.0964 -0.6260
  322MPD2    C3 4837   2.312   2.684  13.567 -0.7629 -0.0562 -0.1941
  322MPD2    C4 4838   2.327   2.755  13.447 -0.6841 -0.4539  1.0039
  322MPD2    C5 4839   2.342   2.886  13.459 -0.4361  0.1543  0.5263
  322MPD2     H 4840   2.289   2.694  13.780  0.0751 -1.2621 -1.5249
  322MPD2    H1 4841   2.334   2.709  13.349 -1.2156  1.3914  0.1139
  322MPD2    H2 4842   2.339   3.062  13.573  2.6025  0.0649  0.0128
  322MPD2    H3 4843   2.349   2.943  13.367 -0.9270 -1.8526 -0.7537
  322MPD2     N 4844   2.318   2.542  13.568  0.2502 -0.3899 -0.0664
  322MPD2    H5 4845   2.312   2.501  13.660  1.7805  1.0623  0.6855
  322MPD2    N1 4846   2.282   2.960  13.811 -0.0855  1.0546 -0.0470
  322MPD2    H7 4847   2.310   3.058  13.805  0.6947  0.6888 -2.5456
  323TMC3    C1 4848   2.244   3.011  14.049 -0.3023 -0.3688  0.6710
  323TMC3    C2 4849   2.304   3.132  14.032  0.2319  0.5077  0.0756
  323TMC3    C3 4850   2.342   3.198  14.150 -0.4701  0.4530 -0.5656
  323TMC3    C4 4851   2.244   2.948  14.171  1.0142 -0.0439  0.1619
  323TMC3    C5 4852   2.293   3.011  14.282  0.4384  0.2093  0.1375
  323TMC3    C6 4853   2.334   3.137  14.277 -0.7575  0.6175  0.0649
  323TMC3     C 4854   2.243   2.914  13.936  0.8732  0.0742 -1.2239
  323TMC3     O 4855   2.188   2.806  13.962  0.4529  0.1157 -0.3061
  323TMC3     H 4856   2.326   3.162  13.930  1.3353 -1.4881 -0.2795
  323TMC3    H1 4857   2.229   2.842  14.185  0.0901  0.1067  0.2882
  323TMC3    H2 4858   2.390   3.171  14.363 -0.3525 -0.9724  0.4330
  323TMC3    C7 4859   2.351   2.928  14.385  0.1481  0.1573 -0.0674
  323TMC3    C8 4860   2.451   3.290  14.135  0.4632  0.1973  0.4122
  323TMC3    O1 4861   2.400   2.820  14.349  0.3000 -0.1737  0.3268
  323TMC3    O2 4862   2.505   3.326  14.240  0.2275  0.0310 -0.3751
  324MPD2     C 4863   4.151   4.563  14.826  0.7839  0.6637 -0.1416
  324MPD2    C1 4864   4.152   4.495  14.707  0.1476 -0.3721 -0.1335
  324MPD2    C2 4865   4.070   4.528  14.597 -0.1796  0.0682 -0.2261
  324MPD2    C3 4866   3.981   4.632  14.610  0.4492 -0.0237 -0.0385
  324MPD2    C4 4867   3.988   4.710  14.721 -0.7577  0.0765  0.4607
  324MPD2    C5 4868   4.077   4.677  14.828  0.0813  0.4976  0.6583
  324MPD2     H 4869   4.083   4.473  14.505  0.5107 -1.0428  0.5317
  324MPD2    H1 4870   3.930   0.081  14.727 -0.0906  0.7426 -3.5500
  324MPD2    H2 4871   4.207   4.536  14.914 -0.1765  0.5589  0.4292
  324MPD2    H3 4872   4.066   0.012  14.921 -1.4687  0.1849  0.6615
  324MPD2     N 4873   3.891   4.668  14.508  0.0295  0.1067  0.1319
  324MPD2    H5 4874   3.837   0.032  14.523 -1.4603 -0.8667  0.2245
  324MPD2    N1 4875   4.248   4.395  14.675 -0.1973 -0.1296  0.7575
  324MPD2    H7 4876   4.233   4.354  14.583 -1.7362  0.3862  0.7757
  325TMC3    C1 4877   3.743   4.646  14.314 -0.8462 -0.3450  0.1807
  325TMC3    C2 4878   3.722   4.580  14.195 -0.0321  0.0660  0.1814
  325TMC3    C3 4879   3.601   4.580  14.135 -0.1971 -0.0313 -0.0614
  325TMC3    C4 4880   3.648   4.720  14.378 -0.7868 -0.7772  0.3387
  325TMC3    C5 4881   3.522   4.718  14.321  0.6439  0.2175 -0.2361
  325TMC3    C6 4882   3.501   4.652  14.206 -0.3468  0.1120  0.6788
  325TMC3     C 4883   3.866   4.599  14.391 -0.0004 -0.3330 -0.6163
  325TMC3     O 4884   3.915   4.499  14.346 -0.3056  0.0779 -0.6011
  325TMC3     H 4885   3.795   4.511  14.153 -1.2881 -0.4302 -1.1776
  325TMC3    H1 4886   3.657   0.050  14.474 -3.1317 -1.2856  0.8273
  325TMC3    H2 4887   3.405   4.663  14.157 -0.2296  1.0312  0.6496
  325TMC3    C7 4888   3.435   0.103  14.359 -0.0860  0.5350  0.7325
  325TMC3    C8 4889   3.566   4.468  14.047 -0.8307 -0.1985  0.4452
  325TMC3    O1 4890   3.491   0.210  14.386  0.4103  0.1995  0.3440
  325TMC3    O2 4891   3.645   4.428  13.964 -0.1884 -0.0252 -0.1966
  326MPD2     C 4892   0.091   1.266  11.334  0.3033  0.5652 -0.2269
  326MPD2    C1 4893   0.143   1.143  11.293 -0.3750  0.7430 -0.1488
  326MPD2    C2 4894   0.253   1.095  11.361  0.3559 -0.7640  0.7175
  326MPD2    C3 4895   0.312   1.171  11.464  0.4225  0.0519 -0.1332
  326MPD2    C4 4896   0.254   1.282  11.507 -0.3540 -0.5911 -0.0998
  326MPD2    C5 4897   0.137   1.326  11.457  0.4410 -0.6100  0.5380
  326MPD2     H 4898   0.306   1.010  11.319 -0.0192  0.0198 -1.3545
  326MPD2    H1 4899   0.292   1.343  11.588  2.1703  0.7411 -2.3063
  326MPD2    H2 4900   0.002   1.292  11.277 -0.4658 -2.1811 -0.2981
  326MPD2    H3 4901   0.090   1.414  11.498  0.0039 -1.2584  1.4418
  326MPD2     N 4902   0.435   1.127  11.522 -0.0532 -0.4059  0.4272
  326MPD2    H5 4903   0.466   1.183  11.601  1.0041 -1.5461  0.8354
  326MPD2    N1 4904   0.099   1.063  11.184  0.2258 -0.5552  0.1095
  326MPD2    H7 4905   0.146   0.979  11.154 -1.2593 -1.4409  0.2611
  327TMC3    C1 4906   0.018   1.010  10.975  0.8711 -0.3978  0.7248
  327TMC3    C2 4907   4.671   1.053  10.868  0.5128  0.1442  0.2436
  327TMC3    C3 4908   4.705   0.999  10.747  0.1500 -0.0711  0.0762
  327TMC3    C4 4909   0.119   0.911  10.970  0.3630 -0.7091  0.2649
  327TMC3    C5 4910   0.143   0.850  10.859  0.0949  0.2437 -0.7435
  327TMC3    C6 4911   0.072   0.894  10.741  0.7173 -0.6530 -0.3937
  327TMC3     C 4912   0.005   1.093  11.091 -0.0369  0.1599 -0.2893
  327TMC3     O 4913   4.645   1.181  11.094 -0.2172 -0.2375 -0.1388
  327TMC3     H 4914   4.600   1.133  10.876 -0.5319 -0.6258 -1.2649
  327TMC3    H1 4915   0.182   0.882  11.053  0.4776  1.2156  0.8401
  327TMC3    H2 4916   0.088   0.839  10.649  2.4985  0.0862 -0.5405
  327TMC3    C7 4917   0.270   0.791  10.835  0.2212 -0.2624 -0.6398
  327TMC3    C8 4918   4.694   1.082  10.626  0.0970 -0.1424  0.9867
  327TMC3    O1 4919   0.319   0.812  10.728  0.4540  0.1516 -0.7841
  327TMC3    O2 4920   0.049   1.057  10.533 -0.4245  0.3234  0.2491
  328MPD2     C 4921   2.846   0.833  17.296  0.2882  0.0730 -0.1456
  328MPD2    C1 4922   2.793   0.713  17.340 -0.8305  0.6462  0.1919
  328MPD2    C2 4923   2.676   0.666  17.283 -0.0135 -0.5241 -0.7448
  328MPD2    C3 4924   2.598   0.746  17.195 -0.0020 -0.8226  0.7363
  328MPD2    C4 4925   2.647   0.869  17.165 -0.2517 -0.0819  0.2895
  328MPD2    C5 4926   2.771   0.909  17.212  0.2473  0.0327 -0.3485
  328MPD2     H 4927   2.642   0.567  17.311 -0.2365 -0.3030 -0.2242
  328MPD2    H1 4928   2.590   0.922  17.089  2.8362  2.6318 -0.1554
  328MPD2    H2 4929   2.939   0.875  17.334  0.4518 -0.4128 -0.0050
  328MPD2    H3 4930   2.816   1.002  17.178  0.8028  1.0427  3.1876
  328MPD2     N 4931   2.481   0.706  17.130  0.7341  0.6193  0.4053
  328MPD2    H5 4932   2.433   0.783  17.084  0.7216  0.4986  0.2169
  328MPD2    N1 4933   2.861   0.638  17.444 -0.3546  0.7754  0.4218
  328MPD2    H7 4934   2.952   0.672  17.472 -0.2717  0.1490  0.9360
  329TMC3    C1 4935   2.906   0.480  17.621  0.0418 -0.4890 -0.5659
  329TMC3    C2 4936   2.846   0.407   0.037  0.1055 -0.1379  0.1446
  329TMC3    C3 4937   2.922   0.369   0.145 -0.0064 -0.0800 -0.0714
  329TMC3    C4 4938   3.033   0.514  17.629  0.6371 -0.8489 -0.4308
  329TMC3    C5 4939   3.110   0.454   0.042  0.3817 -0.0236  0.0886
  329TMC3    C6 4940   3.061   0.377   0.143 -0.2785  0.5329  0.1048
  329TMC3     C 4941   2.816   0.531  17.523  0.6725 -0.1878 -0.5047
  329TMC3     O 4942   2.706   0.475  17.518  0.0190  0.1208 -0.2796
  329TMC3     H 4943   2.738   0.417   0.038  0.0246 -1.2601  2.8531
  329TMC3    H1 4944   3.079   0.576  17.553  0.8437  1.0473  1.2254
  329TMC3    H2 4945   3.127   0.340   0.220  2.0168  2.2295 -1.0424
  329TMC3    C7 4946   3.239   0.427  17.677  0.1337  0.6374 -0.0847
  329TMC3    C8 4947   2.863   0.337   0.272  0.2973 -0.0870  0.0027
  329TMC3    O1 4948   3.328   0.461   0.068 -0.0885  0.3516  0.7700
  329TMC3    O2 4949   2.932   0.270   0.350 -0.4215 -0.4830  0.6403
  330TMC3    C1 4950   0.249   4.524  10.249 -0.4622 -0.0763  0.2783
  330TMC3    C2 4951   0.183   4.445  10.164  0.2266 -1.0010  0.3443
  330TMC3    C3 4952   0.226   4.311  10.155 -0.1508 -0.5156 -0.1209
  330TMC3    C4 4953   0.360   4.482  10.312 -0.4796 -0.3880  0.5117
  330TMC3    C5 4954   0.399   4.356  10.300  0.0354  0.6044 -0.2895
  330TMC3    C6 4955   0.336   4.264  10.218  1.0163  0.0938 -0.1924
  330TMC3     C 4956   0.200   4.658  10.262 -0.0949 -0.3494  0.4009
  330TMC3     O 4957   0.284   0.020  10.288 -0.1571 -0.3748  0.2365
  330TMC3     H 4958   0.097   4.475  10.105  0.5586  1.6599  1.2168
  330TMC3    H1 4959   0.410   4.550  10.381  1.6840 -1.1223 -0.3435
  330TMC3    H2 4960   0.370   4.165  10.190 -3.4426 -1.8202  1.1855
  330TMC3    C7 4961   0.519   4.316  10.368 -0.5266  0.3633 -0.5440
  330TMC3    C8 4962   0.169   4.235  10.042 -0.2208 -0.1259 -0.1255
  330TMC3    O1 4963   0.609   4.399  10.395  0.2721  0.2839 -0.1889
  330TMC3    O2 4964   0.099   4.294   9.962  0.0172 -0.0818  0.4565
  331MPD2     C 4965   3.510   3.905  12.742  0.4379  0.1015  0.0303
  331MPD2    C1 4966   3.584   3.893  12.630  0.0428  0.1977  0.2267
  331MPD2    C2 4967   3.629   3.767  12.593  0.2344  0.1159 -0.2679
  331MPD2    C3 4968   3.581   3.653  12.650 -0.5686  1.2465 -0.4305
  331MPD2    C4 4969   3.500   3.665  12.761  0.0413 -0.0415 -0.2028
  331MPD2    C5 4970   3.470   3.788  12.805 -0.0642 -0.0740 -0.8068
  331MPD2     H 4971   3.695   3.754  12.509  0.9271  0.8561  0.1547
  331MPD2    H1 4972   3.465   3.579  12.816 -1.2348  0.2041 -0.6411
  331MPD2    H2 4973   3.487   4.000  12.790 -1.3705 -1.1017  1.5753
  331MPD2    H3 4974   3.397   3.791  12.885 -0.0945 -1.3201 -0.7859
  331MPD2     N 4975   3.612   3.530  12.588 -0.1923  0.0203  0.1611
  331MPD2    H5 4976   3.673   3.538  12.507  0.3191  1.0194  0.6432
  331MPD2    N1 4977   3.637   4.007  12.559  0.3314  0.2568 -0.1417
  331MPD2    H7 4978   3.707   3.989  12.487 -0.8308 -0.9663 -0.9708
  332TMC3    C1 4979   3.630   3.308  12.550 -0.4366 -1.0390  1.1364
  332TMC3    C2 4980   3.666   3.335  12.419 -0.4978 -0.1722 -0.1161
  332TMC3    C3 4981   3.762   3.259  12.360 -0.9521 -0.5183  0.6028
  332TMC3    C4 4982   3.697   3.214  12.629  0.0805  0.8092  0.2711
  332TMC3    C5 4983   3.798   3.141  12.566  1.5490 -0.0758  0.6236
  332TMC3    C6 4984   3.836   3.166  12.431 -0.1541  0.2708  0.2997
  332TMC3     C 4985   3.562   3.407  12.628 -0.1769 -0.3338 -0.5582
  332TMC3     O 4986   3.490   3.378  12.723  0.4019  0.1843  0.0961
  332TMC3     H 4987   3.619   3.416  12.364 -0.3115 -0.5230 -0.8026
  332TMC3    H1 4988   3.665   3.185  12.728 -0.3532 -1.3937 -0.5142
  332TMC3    H2 4989   3.905   3.097  12.383  2.3328  3.2801 -0.4214
  332TMC3    C7 4990   3.883   3.067  12.651  0.1732  0.5728  0.2114
  332TMC3    C8 4991   3.826   3.299  12.234 -0.3871  0.4468 -0.1622
  332TMC3    O1 4992   3.837   3.031  12.755 -0.2607 -1.0960 -0.1840
  332TMC3    O2 4993   3.947   3.280  12.232 -0.1501 -0.5936 -0.2779
  333MPD2     C 4994   3.574   3.329  11.101  0.2982 -0.6423  0.3577
  333MPD2    C1 4995   3.687   3.252  11.126 -0.3574  0.4198  0.1853
  333MPD2    C2 4996   3.676   3.155  11.226  0.0348  0.0307  0.6067
  333MPD2    C3 4997   3.553   3.121  11.285 -0.3102 -0.2305 -0.5700
  333MPD2    C4 4998   3.435   3.188  11.240  0.3225  0.0561  0.0401
  333MPD2    C5 4999   3.448   3.297  11.151  0.3986 -0.2373  0.0980
  333MPD2     H 5000   3.759   3.099  11.268 -1.4660 -2.0793  0.7742
  333MPD2    H1 5001   3.338   3.168  11.284  0.8467  1.1595  1.7127
  333MPD2    H2 5002   3.577   3.403  11.022 -0.0676 -0.2547  0.7043
  333MPD2    H3 5003   3.367   3.364  11.123 -0.1731 -0.8448  0.2909
  333MPD2     N 5004   3.556   3.010  11.378 -0.3708 -0.1966  0.1157
  333MPD2    H5 5005   3.645   2.971  11.408  0.8969  0.7169 -2.4998
  333MPD2    N1 5006   3.803   3.290  11.054  0.0962 -0.2973 -0.5000
  333MPD2    H7 5007   3.805   3.369  10.990  0.3037 -0.7194 -1.0114
  334TMC3    C1 5008   4.035   3.273  11.004  0.5096 -0.1025  0.3529
  334TMC3    C2 5009   4.147   3.193  10.994 -0.1121  1.3507  0.4920
  334TMC3    C3 5010   4.264   3.253  10.951 -0.2238  0.2705 -0.5899
  334TMC3    C4 5011   4.036   3.405  10.971 -0.0732  0.3098 -0.5750
  334TMC3    C5 5012   4.153   3.464  10.932 -0.3423 -0.0768 -0.1839
  334TMC3    C6 5013   4.265   3.389  10.924  0.3867 -0.1288 -0.0201
  334TMC3     C 5014   3.915   3.215  11.060 -0.0986  0.1304 -0.0616
  334TMC3     O 5015   3.932   3.108  11.114  0.0661  0.0784 -0.2222
  334TMC3     H 5016   4.141   3.091  11.030 -0.8965  0.4272 -2.2793
  334TMC3    H1 5017   3.959   3.476  10.999  0.0319  1.0882 -2.2511
  334TMC3    H2 5018   4.357   3.433  10.887  1.2213 -1.8100  0.0482
  334TMC3    C7 5019   4.166   3.601  10.963  0.3300 -0.3763  0.3594
  334TMC3    C8 5020   4.391   3.173  10.969  0.1578  0.0265 -0.3439
  334TMC3    O1 5021   4.264   3.641  11.020 -0.1922 -0.0029 -0.3198
  334TMC3    O2 5022   4.391   3.054  10.990 -0.1528 -0.3635 -0.6188
  335TMC3    C1 5023   3.442   0.179   0.207 -0.4088 -0.1441  0.0197
  335TMC3    C2 5024   3.390   0.081   0.126  0.0445  0.5883  0.2572
  335TMC3    C3 5025   3.470   0.024   0.035 -0.3880  0.1300 -0.1092
  335TMC3    C4 5026   3.566   0.226   0.187  0.4720  0.3043  0.2109
  335TMC3    C5 5027   3.643   0.169   0.086 -0.1896  0.0157  0.1472
  335TMC3    C6 5028   3.595   0.060   0.006 -0.0889 -0.0752 -0.4500
  335TMC3     C 5029   3.386   0.202   0.333  0.0285 -0.3211  1.1290
  335TMC3     O 5030   3.331   0.111   0.397  0.0076 -0.6163  0.0224
  335TMC3     H 5031   3.288   0.045   0.139  0.2907  0.2499  1.2482
  335TMC3    H1 5032   3.603   0.299   0.258  0.5663  0.1504  0.3184
  335TMC3    H2 5033   3.670   0.010  17.629 -1.2792 -1.7286 -0.5596
  335TMC3    C7 5034   3.783   0.207   0.076 -0.6375  0.4400  0.4810
  335TMC3    C8 5035   3.400   4.665  17.627 -0.1660  0.1056  0.1016
  335TMC3    O1 5036   3.856   0.126   0.020 -0.1095  0.1844 -0.4728
  335TMC3    O2 5037   3.286   4.628  17.660  0.2896  0.0888  0.4524
  336MPD2     C 5038   3.423   2.747  16.162  0.3214 -0.2619  0.3526
  336MPD2    C1 5039   3.335   2.684  16.076  0.5920  0.5496  0.3972
  336MPD2    C2 5040   3.312   2.546  16.093  0.4158 -0.2124 -0.1040
  336MPD2    C3 5041   3.369   2.477  16.197 -0.5869 -0.4109 -0.3879
  336MPD2    C4 5042   3.464   2.543  16.274  0.1774  0.0884  0.0829
  336MPD2    C5 5043   3.483   2.676  16.262 -0.0105  0.2068 -0.5238
  336MPD2     H 5044   3.248   2.493  16.023 -1.5524  1.9186  0.0683
  336MPD2    H1 5045   3.512   2.491  16.355 -1.8577  0.2277  1.3747
  336MPD2    H2 5046   3.465   2.847  16.154 -0.8581  0.1265 -1.1998
  336MPD2    H3 5047   3.553   2.719  16.333 -0.6927 -1.6441  1.2810
  336MPD2     N 5048   3.343   2.341  16.237 -0.0111  0.3271  0.3037
  336MPD2    H5 5049   3.376   2.307  16.327 -0.9170  0.9994  0.8864
  336MPD2    N1 5050   3.254   2.746  15.985  0.5055 -0.2674 -0.2971
  336MPD2    H7 5051   3.195   2.686  15.927  0.1928  1.0010 -1.3034
  337TMC3    C1 5052   3.190   2.914  15.824  0.7432 -0.0052 -0.4095
  337TMC3    C2 5053   3.062   2.854  15.799 -0.8312 -0.2879 -0.1367
  337TMC3    C3 5054   2.986   2.915  15.703  0.0980 -0.2321  0.2651
  337TMC3    C4 5055   3.239   3.018  15.746  0.3004 -0.4853  0.0407
  337TMC3    C5 5056   3.162   3.076  15.647 -0.1899 -0.3072  0.2794
  337TMC3    C6 5057   3.032   3.024  15.626 -0.2824 -0.4403 -0.6549
  337TMC3     C 5058   3.276   2.877  15.939 -0.0631  0.8606 -0.0288
  337TMC3     O 5059   3.362   2.959  15.966 -0.3020 -0.9004 -0.0847
  337TMC3     H 5060   3.040   2.760  15.847 -0.9267 -0.0870  0.2134
  337TMC3    H1 5061   3.342   3.049  15.762 -0.4579  1.7455  0.4893
  337TMC3    H2 5062   2.960   3.082  15.569 -0.9025  1.4390  2.0316
  337TMC3    C7 5063   3.204   3.205  15.596  0.1420 -0.9089  0.4934
  337TMC3    C8 5064   2.843   2.906  15.743  0.0708  0.2815  0.4797
  337TMC3    O1 5065   3.315   3.243  15.633 -0.0853  0.0144 -0.5186
  337TMC3    O2 5066   2.813   2.834  15.837  0.2474  0.1497  0.1552
  338MPD2     C 5067   3.512   1.793   1.048 -1.2987 -0.3008  0.6089
  338MPD2    C1 5068   3.459   1.835   0.927 -1.2024 -0.6679 -0.5924
  338MPD2    C2 5069   3.323   1.874   0.933  0.1779 -0.0642 -0.3625
  338MPD2    C3 5070   3.247   1.884   1.046 -0.0449  0.0352  0.7633
  338MPD2    C4 5071   3.311   1.859   1.163 -0.0860 -0.7503  0.0166
  338MPD2    C5 5072   3.439   1.808   1.166 -0.1602 -0.4286  0.1506
  338MPD2     H 5073   3.276   1.903   0.840  0.0870  0.0746 -0.2737
  338MPD2    H1 5074   3.254   1.875   1.254  0.7180 -1.0679  0.5765
  338MPD2    H2 5075   3.615   1.758   1.052 -1.6017 -1.3652 -0.9054
  338MPD2    H3 5076   3.474   1.781   1.265  3.2788 -2.5789 -1.6252
  338MPD2     N 5077   3.118   1.934   1.030 -0.6334 -0.0577 -0.1575
  338MPD2    H5 5078   3.102   1.961   0.933  2.0641 -0.3990 -0.7090
  338MPD2    N1 5079   3.523   1.830   0.807 -0.5229 -0.3966  0.2368
  338MPD2    H7 5080   3.461   1.849   0.728 -1.2366  1.5721  1.2565
  339TMC3    C1 5081   2.895   1.943   1.028 -1.2261  0.4926 -0.5291
  339TMC3    C2 5082   2.809   1.835   1.004 -0.1834  1.0361  0.7835
  339TMC3    C3 5083   2.743   1.843   0.887 -0.3191  0.3160  0.1169
  339TMC3    C4 5084   2.920   2.034   0.928 -0.2846  0.5910  0.4932
  339TMC3    C5 5085   2.842   2.040   0.816 -0.3274  0.3552 -0.3763
  339TMC3    C6 5086   2.758   1.930   0.790  0.1463 -0.4769  0.2680
  339TMC3     C 5087   3.011   1.913   1.111  0.0123 -0.7530 -0.2799
  339TMC3     O 5088   3.012   1.836   1.206  0.0677  0.0145  0.2565
  339TMC3     H 5089   2.818   1.750   1.069  0.2255 -0.2303 -0.9338
  339TMC3    H1 5090   2.976   2.125   0.943 -0.8564  1.0291 -0.0184
  339TMC3    H2 5091   2.705   1.924   0.696 -2.3354  2.5800  1.4247
  339TMC3    C7 5092   2.874   2.140   0.716 -0.0608 -0.1523 -0.2131
  339TMC3    C8 5093   2.708   1.712   0.825  0.0715  0.3818 -0.0105
  339TMC3    O1 5094   2.977   2.206   0.726  0.2613  0.0786 -0.1612
  339TMC3    O2 5095   2.730   1.690   0.706  0.4135 -0.6023 -0.1072
  340MPD2     C 5096   2.902   4.539   9.751  0.0218 -0.0910  0.0227
  340MPD2    C1 5097   3.008   4.529   9.836 -0.3460  0.1019  0.4638
  340MPD2    C2 5098   3.040   4.636   9.919 -0.0523 -0.1793  0.0576
  340MPD2    C3 5099   2.966   0.033   9.922  0.1947  0.2264  0.1701
  340MPD2    C4 5100   2.855   0.039   9.837 -1.1391  0.3314 -0.0070
  340MPD2    C5 5101   2.830   4.653   9.754 -0.3429  1.6429  0.6432
  340MPD2     H 5102   3.125   4.622   9.985  1.1931 -0.7221 -1.6561
  340MPD2    H1 5103   2.807   0.136   9.829 -0.6994  0.4636 -1.0275
  340MPD2    H2 5104   2.870   4.451   9.696  1.4813  0.3373 -1.5342
  340MPD2    H3 5105   2.747   4.649   9.685  0.0620 -0.6688  0.2933
  340MPD2     N 5106   3.006   0.154   9.991  0.2501  0.0711 -0.1674
  340MPD2    H5 5107   2.938   0.229   9.982 -1.8605 -2.1215 -2.1943
  340MPD2    N1 5108   3.077   4.402   9.840 -0.0860  0.2893  0.3633
  340MPD2    H7 5109   3.038   4.323   9.789  0.2717 -0.6785  1.5838
  341TMC3    C1 5110   3.206   4.220   9.915  0.4269  0.0960  0.0324
  341TMC3    C2 5111   3.129   4.127   9.851  0.3130  0.6380  0.0804
  341TMC3    C3 5112   3.167   3.992   9.858 -0.0527  0.4463  0.3802
  341TMC3    C4 5113   3.323   4.178   9.975  0.5245 -0.6953  0.6182
  341TMC3    C5 5114   3.356   4.048   9.979 -0.4987  0.4370 -0.2306
  341TMC3    C6 5115   3.291   3.953   9.911 -0.5570  1.0053 -0.0495
  341TMC3     C 5116   3.172   4.357   9.930 -0.4438  0.4846  0.2544
  341TMC3     O 5117   3.230   4.422  10.017 -0.2633 -0.1236  0.4189
  341TMC3     H 5118   3.031   4.150   9.810  0.2940 -0.9588 -0.7836
  341TMC3    H1 5119   3.388   4.250  10.024  1.5660 -1.4937  0.4182
  341TMC3    H2 5120   3.337   3.856   9.897 -0.8702  0.6599  1.3411
  341TMC3    C7 5121   3.486   4.012  10.018 -0.6228  0.3610 -0.7384
  341TMC3    C8 5122   3.075   3.889   9.814 -0.1103 -0.3048 -0.1567
  341TMC3    O1 5123   3.495   3.909  10.079  0.0945 -0.5239 -0.2003
  341TMC3    O2 5124   2.987   3.937   9.742 -0.2136  0.0820  0.2553
  342MPD2     C 5125   1.461   2.944   0.415 -0.1293 -0.1935 -0.2542
  342MPD2    C1 5126   1.475   2.959   0.274 -0.9267  0.3794  0.3176
  342MPD2    C2 5127   1.480   3.094   0.226  0.6319  0.3206 -0.3217
  342MPD2    C3 5128   1.452   3.202   0.311  0.3969  0.2531 -0.4065
  342MPD2    C4 5129   1.421   3.180   0.446  0.1265 -0.0646  0.1442
  342MPD2    C5 5130   1.427   3.052   0.492 -0.0492 -0.2629 -0.2084
  342MPD2     H 5131   1.503   3.107   0.121 -0.5282  0.4558 -0.5611
  342MPD2    H1 5132   1.381   3.255   0.513 -0.8648 -1.0177  0.6193
  342MPD2    H2 5133   1.454   2.844   0.457  2.6440 -1.0274 -1.7804
  342MPD2    H3 5134   1.405   3.035   0.597 -0.2019 -2.4624 -0.5845
  342MPD2     N 5135   1.447   3.339   0.261 -0.4706 -0.1820 -0.4014
  342MPD2    H5 5136   1.423   3.413   0.325  0.2002 -1.2538  1.1043
  342MPD2    N1 5137   1.509   2.850   0.191  0.2446 -0.1568  0.3803
  342MPD2    H7 5138   1.565   2.868   0.108 -1.2075 -0.2947 -0.6380
  343TMC3    C1 5139   1.522   2.623   0.110 -0.0833 -0.9648 -0.7475
  343TMC3    C2 5140   1.607   2.663   0.013 -0.7185  0.2975  0.2554
  343TMC3    C3 5141   1.647   2.566  17.608  0.0898 -0.8760  0.1620
  343TMC3    C4 5142   1.464   2.499   0.119  0.0572  0.2764  0.7037
  343TMC3    C5 5143   1.506   2.409   0.022  0.3553  0.1294 -0.6116
  343TMC3    C6 5144   1.600   2.437  17.609  0.5775  0.4723  0.2217
  343TMC3     C 5145   1.480   2.715   0.218 -0.9170  0.0702 -0.1582
  343TMC3     O 5146   1.397   2.667   0.300  0.0245 -0.8545  0.0818
  343TMC3     H 5147   1.644   2.763  17.677 -0.4232  0.4165  1.3873
  343TMC3    H1 5148   1.405   2.469   0.204  0.5573 -1.5255  0.4068
  343TMC3    H2 5149   1.635   2.346  17.562  0.0987  0.8463 -0.8537
  343TMC3    C7 5150   1.455   2.277   0.039  0.3669 -1.0188  0.4580
  343TMC3    C8 5151   1.773   2.595  17.542  0.2514 -0.2200  0.4213
  343TMC3    O1 5152   1.394   2.224  17.627 -0.2569 -0.2692  0.3792
  343TMC3    O2 5153   1.829   2.691  17.589 -0.2328 -0.3901 -0.3771
  344MPD2     C 5154   2.713   2.373  10.718 -0.2663  0.3811 -0.2967
  344MPD2    C1 5155   2.605   2.289  10.684 -0.3105 -0.1246 -0.6308
  344MPD2    C2 5156   2.556   2.293  10.557 -0.3719 -0.9622 -0.7533
  344MPD2    C3 5157   2.610   2.385  10.467  0.0044 -0.6727  0.0703
  344MPD2    C4 5158   2.709   2.472  10.508  0.0797  0.1077  0.0624
  344MPD2    C5 5159   2.758   2.470  10.635 -0.3395 -0.3366  0.4243
  344MPD2     H 5160   2.464   2.240  10.537 -2.1758  2.4858 -1.6462
  344MPD2    H1 5161   2.756   2.544  10.442  0.6389 -0.0107  0.3270
  344MPD2    H2 5162   2.752   2.384  10.819 -0.9119 -2.1804  0.2442
  344MPD2    H3 5163   2.828   2.539  10.681 -0.7670  0.4890 -0.1537
  344MPD2     N 5164   2.572   2.398  10.337 -0.3643  0.3491  0.8352
  344MPD2    H5 5165   2.613   2.475  10.286  0.9897 -0.7890  0.1882
  344MPD2    N1 5166   2.534   2.221  10.780 -0.0553  0.1835  0.5249
  344MPD2    H7 5167   2.453   2.170  10.746 -1.0116  1.7847  0.3963
  345TMC3    C1 5168   2.466   2.376  10.134 -0.1836 -0.5147 -0.5486
  345TMC3    C2 5169   2.583   2.399  10.066  0.0948  0.1174 -0.3571
  345TMC3    C3 5170   2.585   2.439   9.931  0.8322 -0.4783  0.8032
  345TMC3    C4 5171   2.349   2.388  10.067  0.4336  0.1579 -0.5120
  345TMC3    C5 5172   2.362   2.429   9.934  0.0070 -0.4280  0.3810
  345TMC3    C6 5173   2.475   2.463   9.869  0.5337 -0.2649 -0.2095
  345TMC3     C 5174   2.470   2.336  10.274  0.0625  0.4062  0.5154
  345TMC3     O 5175   2.383   2.265  10.326 -1.0570 -0.1954 -0.1332
  345TMC3     H 5176   2.675   2.375  10.118  0.2866  0.2371 -0.6438
  345TMC3    H1 5177   2.260   2.371  10.126  0.1205  0.8833 -0.7713
  345TMC3    H2 5178   2.484   2.495   9.766 -0.5838 -1.3495 -0.6483
  345TMC3    C7 5179   2.253   2.512   9.876  0.1786 -0.0655  0.3784
  345TMC3    C8 5180   2.702   2.516   9.889  0.1705  0.4680  0.2861
  345TMC3    O1 5181   2.274   2.603   9.796  0.0673  0.2851  0.7484
  345TMC3    O2 5182   2.732   2.511   9.771 -0.6529 -0.4632  0.1013
  346MPD2     C 5183   2.729   4.203  13.749 -0.6710  0.0849  0.1829
  346MPD2    C1 5184   2.823   4.290  13.797  0.1287  0.2940 -0.3755
  346MPD2    C2 5185   2.773   4.380  13.888  0.0548  0.1889  0.3098
  346MPD2    C3 5186   2.643   4.384  13.936  0.4845 -0.3738  0.5401
  346MPD2    C4 5187   2.558   4.289  13.892  0.2753  0.6397 -0.9751
  346MPD2    C5 5188   2.602   4.196  13.802 -0.4181  0.3831 -0.1402
  346MPD2     H 5189   2.843   4.445  13.940 -0.8751  1.7618 -0.4027
  346MPD2    H1 5190   2.453   4.288  13.920  0.7306 -0.5052  0.6792
  346MPD2    H2 5191   2.750   4.124  13.678  1.2233 -0.0965  0.9464
  346MPD2    H3 5192   2.527   4.123  13.774  1.5196 -1.6994  0.1071
  346MPD2     N 5193   2.609   4.486  14.028 -0.0473  0.3752  0.2848
  346MPD2    H5 5194   2.691   4.539  14.057 -0.5263  3.2962 -3.7455
  346MPD2    N1 5195   2.959   4.295  13.761 -0.7497 -0.1092  0.3122
  346MPD2    H7 5196   3.004   4.365  13.820 -2.1444 -0.0204  1.2672
  347TMC3    C1 5197   2.525   4.575  14.224 -0.5492  0.4907  0.4153
  347TMC3    C2 5198   2.618   4.673  14.214  0.0190 -0.0596  0.2669
  347TMC3    C3 5199   2.650   0.030  14.320 -0.3871 -0.9293 -0.2403
  347TMC3    C4 5200   2.460   4.558  14.344  0.1261 -0.2371  0.3906
  347TMC3    C5 5201   2.487   4.643  14.445 -0.3146  0.0590  0.5291
  347TMC3    C6 5202   2.581   0.026  14.438 -0.1609  0.0971  0.1818
  347TMC3     C 5203   2.498   4.495  14.107  0.1879  0.5497 -0.5890
  347TMC3     O 5204   2.409   4.412  14.122 -0.2604  0.1652  0.4532
  347TMC3     H 5205   2.671   4.702  14.124 -1.3232  1.0525 -0.1634
  347TMC3    H1 5206   2.383   4.485  14.365  0.1533 -0.4866 -0.3796
  347TMC3    H2 5207   2.593   0.105  14.511 -3.9036  0.5520  0.3028
  347TMC3    C7 5208   2.404   4.639  14.560  0.4881  0.8177 -0.5754
  347TMC3    C8 5209   2.797   0.067  14.325  0.5058  0.2792  0.3218
  347TMC3    O1 5210   2.290   4.608  14.543  0.4840  0.0986 -0.0256
  347TMC3    O2 5211   2.869   0.025  14.235  0.1750 -0.0709 -0.1541
  348MPD2     C 5212   1.349   4.026  12.517  0.5347 -0.3789  0.0650
  348MPD2    C1 5213   1.334   4.161  12.552  0.2373  0.2872  0.0683
  348MPD2    C2 5214   1.258   4.242  12.472  0.3846  0.2749 -0.0384
  348MPD2    C3 5215   1.208   4.199  12.343 -0.2150 -0.2791 -0.6372
  348MPD2    C4 5216   1.238   4.069  12.316  0.1761  0.2681 -0.2891
  348MPD2    C5 5217   1.303   3.982  12.399 -0.0589 -0.0349  0.3413
  348MPD2     H 5218   1.236   4.342  12.508  0.7457  0.6743 -0.9352
  348MPD2    H1 5219   1.204   4.018  12.227  0.8116  0.9895 -0.9351
  348MPD2    H2 5220   1.407   3.963  12.583 -2.4270 -2.1172  0.9726
  348MPD2    H3 5221   1.324   3.880  12.369  1.1510 -0.1744  1.6750
  348MPD2     N 5222   1.127   4.288  12.276 -0.0879  0.1092  0.1182
  348MPD2    H5 5223   1.105   4.376  12.321  1.7694  0.2570  0.7348
  348MPD2    N1 5224   1.391   4.210  12.671 -0.5550  0.6030  0.2469
  348MPD2    H7 5225   1.338   4.288  12.708  0.5862  1.3643  0.2912
  349TMC3    C1 5226   1.603   4.102  12.654  0.6519 -0.7982  0.4512
  349TMC3    C2 5227   1.652   3.973  12.679 -0.0779 -0.7154  0.0649
  349TMC3    C3 5228   1.710   3.906  12.572  0.9158  0.1345  0.1577
  349TMC3    C4 5229   1.634   4.170  12.537 -0.0312  0.3239 -0.3103
  349TMC3    C5 5230   1.689   4.097  12.437 -0.5398 -0.9562 -0.4251
  349TMC3    C6 5231   1.723   3.966  12.443 -0.0246  0.3557  0.1616
  349TMC3     C 5232   1.495   4.144  12.735  0.7107 -0.3838 -0.0548
  349TMC3     O 5233   1.518   4.134  12.854  0.0004  0.3491  0.7393
  349TMC3     H 5234   1.623   3.914  12.765  1.8976 -3.0043 -0.8308
  349TMC3    H1 5235   1.608   4.275  12.538 -1.3860 -0.0153  1.1813
  349TMC3    H2 5236   1.732   3.918  12.346 -0.0926  0.2037  0.2309
  349TMC3    C7 5237   1.649   4.149  12.305 -0.4302 -0.6728  0.4747
  349TMC3    C8 5238   1.754   3.773  12.590 -0.2903 -0.4181 -0.1107
  349TMC3    O1 5239   1.617   4.072  12.212 -0.0495 -0.1851  0.0093
  349TMC3    O2 5240   1.714   3.716  12.693 -0.2271 -0.1088  0.1563
  350MPD2     C 5241   0.387   1.969   9.931  0.4038 -0.3524  0.0430
  350MPD2    C1 5242   0.497   1.922  10.003  0.1923  0.5389 -0.8202
  350MPD2    C2 5243   0.505   1.970  10.136 -0.0438 -0.2561 -0.0892
  350MPD2    C3 5244   0.417   2.063  10.192  0.0661 -0.7946  0.5622
  350MPD2    C4 5245   0.317   2.112  10.112  0.0022  0.6047  0.2748
  350MPD2    C5 5246   0.301   2.065   9.982 -0.1418  0.4302 -0.0935
  350MPD2     H 5247   0.585   1.936  10.200 -2.2342 -2.1298  1.6281
  350MPD2    H1 5248   0.246   2.184  10.150  1.0818  0.5535  2.3720
  350MPD2    H2 5249   0.378   1.944   9.826 -1.5239 -1.4269  0.4556
  350MPD2    H3 5250   0.218   2.098   9.921  0.6876  3.0743  0.2140
  350MPD2     N 5251   0.434   2.107  10.325 -0.0573 -0.6643  0.6367
  350MPD2    H5 5252   0.527   2.089  10.360  0.2136 -2.0249 -0.7645
  350MPD2    N1 5253   0.609   1.836   9.956  0.2210 -0.3266 -0.3932
  350MPD2    H7 5254   0.670   1.795  10.025  0.5853  2.4955  0.9657
  351TMC3    C1 5255   0.739   1.719   9.806  0.1208 -0.1376 -0.3128
  351TMC3    C2 5256   0.766   1.625   9.905  0.1490 -0.4775 -1.0862
  351TMC3    C3 5257   0.869   1.541   9.881  0.2219  0.0998  0.3969
  351TMC3    C4 5258   0.814   1.726   9.694  0.1809 -0.1801  0.4851
  351TMC3    C5 5259   0.918   1.637   9.675 -0.1042 -0.4644 -0.5196
  351TMC3    C6 5260   0.948   1.541   9.767  0.9283 -0.2847 -0.8553
  351TMC3     C 5261   0.634   1.815   9.819 -0.7390 -0.3652  0.6312
  351TMC3     O 5262   0.574   1.854   9.723  0.1659  0.2669  0.2167
  351TMC3     H 5263   0.704   1.602   9.991  1.4961 -1.5354 -0.3934
  351TMC3    H1 5264   0.796   1.809   9.627 -0.4699  0.0303  0.9211
  351TMC3    H2 5265   1.019   1.463   9.744  1.5117  0.1075 -0.3949
  351TMC3    C7 5266   0.961   1.608   9.542 -0.2912 -0.8855 -0.5591
  351TMC3    C8 5267   0.875   1.405   9.936 -0.2100  0.3270  0.0047
  351TMC3    O1 5268   1.020   1.503   9.527 -0.2377 -0.5419 -0.1098
  351TMC3    O2 5269   0.971   1.332   9.911  0.1010 -0.3940  0.0389
  352MPD2     C 5270   3.860   3.985   0.913  0.8882  0.4142  0.0403
  352MPD2    C1 5271   3.799   3.963   1.033  0.0359  0.5592 -0.4030
  352MPD2    C2 5272   3.785   3.834   1.078 -0.4563 -0.2607 -0.3268
  352MPD2    C3 5273   3.839   3.727   1.009 -0.6200 -0.1010 -0.1095
  352MPD2    C4 5274   3.913   3.751   0.895  0.2594  0.6834  0.2309
  352MPD2    C5 5275   3.911   3.881   0.842 -0.2547 -0.2078  0.2675
  352MPD2     H 5276   3.740   3.807   1.174  2.4488  0.8584  1.3491
  352MPD2    H1 5277   3.963   3.673   0.840  0.5289  0.6250  0.5594
  352MPD2    H2 5278   3.872   4.083   0.867 -1.8885  0.6991 -0.0608
  352MPD2    H3 5279   3.961   3.899   0.748  0.9033  2.6636  1.4371
  352MPD2     N 5280   3.822   3.588   1.041  0.8246 -0.1288  0.4262
  352MPD2    H5 5281   3.863   3.523   0.974 -0.2756 -1.8592  1.4212
  352MPD2    N1 5282   3.741   4.078   1.094  0.4086 -0.2960  0.1106
  352MPD2    H7 5283   3.754   4.166   1.045 -1.6764 -1.3877 -2.3673
  353TMC3    C1 5284   3.792   3.404   1.189 -0.8161 -0.1743  0.6360
  353TMC3    C2 5285   3.909   3.350   1.147 -0.7228 -0.4855  0.0329
  353TMC3    C3 5286   3.925   3.217   1.174 -0.0046  0.0519 -0.3660
  353TMC3    C4 5287   3.690   3.329   1.238  0.0187 -0.2901 -0.1824
  353TMC3    C5 5288   3.715   3.192   1.264  0.3738 -0.2651  0.0158
  353TMC3    C6 5289   3.830   3.128   1.228  0.1789 -0.2530 -0.1391
  353TMC3     C 5290   3.755   3.544   1.155 -0.6603 -0.8323  0.7152
  353TMC3     O 5291   3.679   3.605   1.229 -0.1218 -0.5395 -0.4397
  353TMC3     H 5292   3.987   3.406   1.096  0.0043 -0.9353  0.6465
  353TMC3    H1 5293   3.597   3.377   1.270  0.6790  0.1322  1.1014
  353TMC3    H2 5294   3.850   3.023   1.246 -0.0735  0.1299  2.3423
  353TMC3    C7 5295   3.596   3.099   1.260 -0.5404 -0.4412  0.5020
  353TMC3    C8 5296   4.068   3.169   1.168  0.2899  0.1050 -0.3132
  353TMC3    O1 5297   3.503   3.138   1.193  0.4588 -0.8628  0.5676
  353TMC3    O2 5298   4.157   3.226   1.224 -0.0878 -0.4633 -0.1433
  354TMC3    C1 5299   0.470   0.577  13.807  0.4697 -0.0609  0.5761
  354TMC3    C2 5300   0.397   0.656  13.721 -0.0118  0.2422  0.0689
  354TMC3    C3 5301   0.437   0.668  13.595 -0.2082  0.1741  0.2157
  354TMC3    C4 5302   0.591   0.521  13.773 -0.7205 -0.0875 -0.1163
  354TMC3    C5 5303   0.623   0.530  13.639 -0.0293  0.2841 -0.1298
  354TMC3    C6 5304   0.546   0.605  13.549  0.9015 -0.2027  0.2706
  354TMC3     C 5305   0.418   0.558  13.942  0.2077  0.0212  0.2445
  354TMC3     O 5306   0.296   0.568  13.964  0.4718  0.4105  0.3098
  354TMC3     H 5307   0.302   0.688  13.763 -1.1280 -1.2077 -1.3479
  354TMC3    H1 5308   0.653   0.465  13.842  0.4967  0.9644 -0.3376
  354TMC3    H2 5309   0.572   0.608  13.444  3.1526  0.8493  0.8585
  354TMC3    C7 5310   0.751   0.490  13.598  0.2543 -0.3926 -0.2205
  354TMC3    C8 5311   0.357   0.747  13.502 -0.1355 -0.5908 -0.5289
  354TMC3    O1 5312   0.795   0.382  13.641  0.0321 -0.2712  0.0943
  354TMC3    O2 5313   0.405   0.756  13.389  0.2289 -0.4254  0.3412
  355MPD2     C 5314   0.489   1.870  12.080 -0.3202 -0.2506  0.1308
  355MPD2    C1 5315   0.551   1.873  11.959 -0.2252 -0.6930  0.0734
  355MPD2    C2 5316   0.692   1.847  11.964  0.1445 -0.8101 -0.1191
  355MPD2    C3 5317   0.762   1.813  12.085  0.4088  0.0018  0.1430
  355MPD2    C4 5318   0.687   1.807  12.203 -0.3393  1.0323 -0.0666
  355MPD2    C5 5319   0.553   1.838  12.197 -0.9821 -0.1550 -0.2501
  355MPD2     H 5320   0.754   1.852  11.876  0.1918  1.6406  0.0503
  355MPD2    H1 5321   0.716   1.787  12.305  1.8672  0.9984 -0.6999
  355MPD2    H2 5322   0.382   1.887  12.084 -0.5252 -1.2480 -1.0472
  355MPD2    H3 5323   0.497   1.830  12.289 -1.6165 -1.1969 -0.7225
  355MPD2     N 5324   0.904   1.782  12.085 -0.7005 -0.3172  0.3229
  355MPD2    H5 5325   0.947   1.789  12.176  1.4028  0.2299 -0.6950
  355MPD2    N1 5326   0.479   1.910  11.842  0.0830 -0.3353  0.5851
  355MPD2    H7 5327   0.379   1.895  11.848 -0.0417  0.9412  1.6743
  356TMC3    C1 5328   1.123   1.826  11.991 -0.3201 -0.5127 -0.2048
  356TMC3    C2 5329   1.196   1.861  11.881  0.8785 -0.5637 -0.6778
  356TMC3    C3 5330   1.302   1.953  11.891 -0.0930 -0.7283  0.2255
  356TMC3    C4 5331   1.164   1.875  12.111 -0.2599 -0.3352 -0.1532
  356TMC3    C5 5332   1.270   1.961  12.113  0.1964  0.1671  0.5367
  356TMC3    C6 5333   1.348   2.002  12.010  0.2611  0.5940  0.2057
  356TMC3     C 5334   0.982   1.783  11.971  0.2633 -0.1279  0.4139
  356TMC3     O 5335   0.955   1.763  11.855  0.0649 -0.7228  0.2709
  356TMC3     H 5336   1.151   1.839  11.785  1.4494 -0.6930 -0.9143
  356TMC3    H1 5337   1.112   1.837  12.199  1.3110 -0.2167  0.8308
  356TMC3    H2 5338   1.447   2.043  12.023  0.4057  0.4310 -0.3850
  356TMC3    C7 5339   1.331   1.986  12.243 -0.2062 -0.6544  0.2523
  356TMC3    C8 5340   1.356   1.992  11.762 -0.1900  0.0182 -0.0141
  356TMC3    O1 5341   1.299   1.910  12.334  0.6577 -0.1912  0.6425
  356TMC3    O2 5342   1.335   1.921  11.670  0.6530 -0.1674 -0.3195
  357MPD2     C 5343   4.456   0.874   1.033 -0.3595  0.8220  0.0044
  357MPD2    C1 5344   4.510   0.822   1.152 -0.3689 -0.1786  0.8128
  357MPD2    C2 5345   4.426   0.803   1.267  0.8933  0.4458  0.1011
  357MPD2    C3 5346   4.292   0.845   1.260 -0.1638 -0.0501  0.0142
  357MPD2    C4 5347   4.249   0.915   1.148  0.0409 -0.2227 -0.1007
  357MPD2    C5 5348   4.328   0.924   1.036  0.8167  0.4080 -0.4495
  357MPD2     H 5349   4.462   0.742   1.349  1.4480  0.3773 -0.2001
  357MPD2    H1 5350   4.149   0.955   1.138  0.1492 -0.3332 -1.5683
  357MPD2    H2 5351   4.509   0.874   0.939  1.6772 -1.5973  1.1681
  357MPD2    H3 5352   4.285   0.972   0.949  2.3465 -1.5306 -2.2651
  357MPD2     N 5353   4.198   0.833   1.364  1.0225 -0.0821 -0.0231
  357MPD2    H5 5354   4.099   0.854   1.354  0.8214 -0.9919  0.0533
  357MPD2    N1 5355   4.635   0.756   1.152  0.0877  0.0537  0.0472
  357MPD2    H7 5356   4.695   0.757   1.071  2.0530 -0.5015  1.4903
  358TMC3    C1 5357   0.095   0.621   1.241  0.0281  1.2737  0.2986
  358TMC3    C2 5358   0.076   0.524   1.147 -0.1185 -0.0930 -0.4980
  358TMC3    C3 5359   0.156   0.419   1.145  0.5260 -0.0865  0.1580
  358TMC3    C4 5360   0.189   0.599   1.342  0.0184  0.1705  0.4618
  358TMC3    C5 5361   0.280   0.502   1.331 -0.0375  0.6804  0.4327
  358TMC3    C6 5362   0.264   0.399   1.228 -0.2134  0.9007 -0.2174
  358TMC3     C 5363   4.704   0.720   1.266 -0.2966  0.4738 -0.8604
  358TMC3     O 5364   4.682   0.734   1.388 -0.0056 -0.1614  0.2139
  358TMC3     H 5365   0.001   0.526   1.068  0.1650  2.1778 -0.7071
  358TMC3    H1 5366   0.209   0.678   1.413  0.7592 -2.0551  2.7083
  358TMC3    H2 5367   0.351   0.339   1.206 -1.6218 -0.6138 -1.6492
  358TMC3    C7 5368   0.394   0.492   1.422 -0.6046  0.2875  0.0897
  358TMC3    C8 5369   0.179   0.366   1.013  0.0285  0.3909  0.6977
  358TMC3    O1 5370   0.476   0.402   1.402  0.2563 -0.2669 -0.0414
  358TMC3    O2 5371   0.131   0.427   0.921 -0.2910 -0.1604 -0.5506
  359MPD2     C 5372   0.466   0.530  12.714 -0.4936 -0.4020 -0.0779
  359MPD2    C1 5373   0.520   0.396  12.711  0.3131  0.1525 -0.1913
  359MPD2    C2 5374   0.436   0.288  12.749 -0.1092  0.6313 -0.1312
  359MPD2    C3 5375   0.304   0.308  12.787  0.1524 -0.3695  0.5645
  359MPD2    C4 5376   0.255   0.436  12.782 -0.2867 -0.6129 -0.1686
  359MPD2    C5 5377   0.336   0.547  12.753  0.6417  0.0233 -0.1954
  359MPD2     H 5378   0.482   0.190  12.755 -3.3474 -0.8243  0.7287
  359MPD2    H1 5379   0.152   0.448  12.814 -0.4512  0.2283 -0.9920
  359MPD2    H2 5380   0.518   0.625  12.714 -0.2345 -0.5448 -0.0734
  359MPD2    H3 5381   0.304   0.648  12.774  3.7829  1.2146 -1.2005
  359MPD2     N 5382   0.211   0.202  12.811  0.0978  0.6313  0.1709
  359MPD2    H5 5383   0.113   0.224  12.826  0.0321 -0.9221  1.9191
  359MPD2    N1 5384   0.651   0.368  12.679  0.2010 -0.1184  0.2293
  359MPD2    H7 5385   0.681   0.272  12.693  0.4300  0.0449  0.8678
  360TMC3    C1 5386   0.860   0.384  12.583 -0.0104 -0.5542 -0.0929
  360TMC3    C2 5387   0.970   0.460  12.582 -0.2335  0.4362  0.6747
  360TMC3    C3 5388   1.066   0.428  12.494  0.6604  0.6620  0.1587
  360TMC3    C4 5389   0.841   0.280  12.495 -0.4622  0.8269 -0.5096
  360TMC3    C5 5390   0.933   0.257  12.399  0.5097 -0.2326 -0.8951
  360TMC3    C6 5391   1.044   0.335  12.388  0.2433 -0.0316  0.7672
  360TMC3     C 5392   0.749   0.458  12.643 -0.2668 -0.6796  0.5617
  360TMC3     O 5393   0.750   0.580  12.642  0.0331  0.4176 -0.1728
  360TMC3     H 5394   0.994   0.520  12.669 -0.5687  3.5748 -1.4126
  360TMC3    H1 5395   0.747   0.228  12.484  1.1302 -2.5759  1.8449
  360TMC3    H2 5396   1.120   0.305  12.316 -0.8082  0.7744 -0.6754
  360TMC3    C7 5397   0.897   0.200  12.271  0.5117 -0.1541  0.2814
  360TMC3    C8 5398   1.179   0.523  12.485  0.1341 -0.2039 -0.2069
  360TMC3    O1 5399   0.944   0.248  12.172 -0.2264  0.1894 -0.1409
  360TMC3    O2 5400   1.178   0.628  12.552  0.5970  1.1480  0.2407
  361MPD2     C 5401   2.245   3.270  17.100 -0.1003 -0.1511 -0.5566
  361MPD2    C1 5402   2.293   3.382  17.172  1.0819  0.2639  0.4213
  361MPD2    C2 5403   2.428   3.395  17.188  0.6867 -0.0820 -0.1497
  361MPD2    C3 5404   2.512   3.299  17.138  0.0439 -0.5231  0.0048
  361MPD2    C4 5405   2.462   3.189  17.073  0.5698 -0.0500  0.4246
  361MPD2    C5 5406   2.329   3.171  17.060  0.0863  0.1678  0.1580
  361MPD2     H 5407   2.468   3.483  17.236  1.2746 -0.9293  0.9271
  361MPD2    H1 5408   2.530   3.121  17.023  1.1207  0.5746  0.3314
  361MPD2    H2 5409   2.140   3.255  17.078 -0.4537  1.0020  0.3368
  361MPD2    H3 5410   2.289   3.095  16.995  1.8476  0.6528 -1.4992
  361MPD2     N 5411   2.652   3.306  17.145 -0.2327 -0.3496  0.0560
  361MPD2    H5 5412   2.693   3.217  17.119  1.6174  0.3652  0.5457
  361MPD2    N1 5413   2.208   3.490  17.208  0.1904 -0.0255 -0.4332
  361MPD2    H7 5414   2.253   3.579  17.227  1.7827 -1.4197  2.2924
  362TMC3    C1 5415   2.008   3.601  17.253  0.1975 -0.0177  0.2249
  362TMC3    C2 5416   1.899   3.603  17.326 -0.0114 -0.3305  0.2679
  362TMC3    C3 5417   1.832   3.719  17.328 -0.0849  0.5878  0.0650
  362TMC3    C4 5418   2.039   3.702  17.166  0.2202  0.3677 -0.4397
  362TMC3    C5 5419   1.972   3.819  17.169 -0.2707  0.0301  0.4724
  362TMC3    C6 5420   1.875   3.831  17.266  0.0375  0.2343  0.1080
  362TMC3     C 5421   2.071   3.476  17.218  0.2133  0.5801 -0.8069
  362TMC3     O 5422   1.998   3.378  17.227 -0.0363  0.0288 -0.0380
  362TMC3     H 5423   1.861   3.505  17.352  0.2759 -0.6896 -0.6704
  362TMC3    H1 5424   2.123   3.683  17.099  1.3017  1.3726  0.6313
  362TMC3    H2 5425   1.815   3.920  17.254 -2.1055 -1.4335 -1.5591
  362TMC3    C7 5426   1.944   3.874  17.043  0.8796 -0.2494 -0.1023
  362TMC3    C8 5427   1.708   3.709  17.398  0.1518  0.1186 -0.1942
  362TMC3    O1 5428   1.952   3.993  17.031 -0.2414  0.3217 -0.3034
  362TMC3    O2 5429   1.685   3.603  17.454 -0.3098  0.2989 -0.0974
  363TMC3    C1 5430   1.068   1.940   9.916 -0.5037  0.3661  0.3629
  363TMC3    C2 5431   1.075   1.853  10.028 -0.2683  0.1783  0.3976
  363TMC3    C3 5432   1.001   1.887  10.134 -0.7581 -0.4871  0.2260
  363TMC3    C4 5433   1.001   2.059   9.921 -0.0154  0.4515 -0.0679
  363TMC3    C5 5434   0.937   2.091  10.043  0.0697 -0.0497  0.0492
  363TMC3    C6 5435   0.933   2.006  10.151 -0.3660  0.1465 -0.2189
  363TMC3     C 5436   1.152   1.911   9.801  0.3157 -0.2972  0.3256
  363TMC3     O 5437   1.185   1.792   9.785  0.4687 -0.1457  0.3604
  363TMC3     H 5438   1.104   1.750  10.011 -0.3437 -0.0073  1.3859
  363TMC3    H1 5439   0.965   2.107   9.830 -1.2529  0.1353  0.2594
  363TMC3    H2 5440   0.879   2.026  10.243 -0.2021 -2.0513  0.3497
  363TMC3    C7 5441   0.832   2.187  10.032 -0.0602  0.2485  0.0530
  363TMC3    C8 5442   0.928   1.783  10.201 -0.4777 -0.1427  0.1475
  363TMC3    O1 5443   0.787   2.226   9.924  0.2174  0.0940 -0.4000
  363TMC3    O2 5444   0.812   1.814  10.230 -0.2242 -0.1446  0.1229
  364MPD2     C 5445   4.471   1.419  10.320 -0.0346  0.3923 -0.1116
  364MPD2    C1 5446   4.603   1.395  10.341  0.2079  0.9448  0.1758
  364MPD2    C2 5447   4.628   1.287  10.420 -0.3567 -0.4344 -0.4419
  364MPD2    C3 5448   4.534   1.233  10.508 -0.6619 -0.1287  0.1611
  364MPD2    C4 5449   4.403   1.269  10.497 -0.1497 -0.2375 -0.0030
  364MPD2    C5 5450   4.374   1.361  10.399  0.5166  0.1937  0.1559
  364MPD2     H 5451   0.011   1.259  10.440 -0.4343  0.8447  1.8448
  364MPD2    H1 5452   4.326   1.230  10.564  0.9751 -0.2820  1.2552
  364MPD2    H2 5453   4.453   1.495  10.244 -3.6171  0.1435  0.4879
  364MPD2    H3 5454   4.270   1.394  10.393  1.3104  2.3923 -1.5410
  364MPD2     N 5455   4.573   1.151  10.619 -0.2267 -0.4441  0.1472
  364MPD2    H5 5456   4.508   1.129  10.694 -2.1089  4.3584 -0.0489
  364MPD2    N1 5457   4.713   1.450  10.269  1.0712  0.3830 -0.1994
  364MPD2    H7 5458   0.077   1.394  10.258 -0.4018 -1.5484 -1.5098
  365TMC3    C1 5459   0.093   1.618  10.143 -0.2350  0.8181  0.0843
  365TMC3    C2 5460   0.166   1.510  10.094 -0.1781 -0.5569  0.3541
  365TMC3    C3 5461   0.305   1.536  10.096  0.4137 -0.0261 -0.2859
  365TMC3    C4 5462   0.152   1.724  10.206 -0.2405 -0.0141  0.2995
  365TMC3    C5 5463   0.282   1.731  10.219 -0.7536 -0.3434  0.3105
  365TMC3    C6 5464   0.362   1.642  10.153  0.7627 -0.6515 -0.5423
  365TMC3     C 5465   4.699   1.578  10.220 -0.7403  0.3288 -0.0591
  365TMC3     O 5466   4.614   1.659  10.248 -0.0622 -0.1614 -0.1137
  365TMC3     H 5467   0.123   1.431  10.034  2.1087 -0.9601 -0.7289
  365TMC3    H1 5468   0.083   1.790  10.258 -0.1772  0.2031  0.1042
  365TMC3    H2 5469   0.468   1.644  10.172  1.1687 -3.2172 -2.6308
  365TMC3    C7 5470   0.336   1.764  10.350 -0.0660 -0.6086 -0.5404
  365TMC3    C8 5471   0.389   1.456  10.010  0.1263 -0.0818 -0.5117
  365TMC3    O1 5472   0.455   1.790  10.362 -0.4287  0.4373 -0.5219
  365TMC3    O2 5473   0.505   1.491   9.982 -0.5797  0.0691 -0.2287
  366MPD2     C 5474   2.615   1.901  15.616 -0.5039  0.2144  0.2365
  366MPD2    C1 5475   2.713   1.936  15.523 -0.0771  0.5199 -0.5984
  366MPD2    C2 5476   2.789   1.835  15.469  0.2282 -0.5225  0.0923
  366MPD2    C3 5477   2.771   1.700  15.498 -0.3464  0.1864  0.4600
  366MPD2    C4 5478   2.663   1.662  15.581 -0.0845 -0.3617 -0.5908
  366MPD2    C5 5479   2.588   1.762  15.632 -0.1773 -0.3291 -0.6981
  366MPD2     H 5480   2.867   1.856  15.398 -0.7246  1.4558 -0.3603
  366MPD2    H1 5481   2.642   1.562  15.615  3.2036 -0.7630  0.2443
  366MPD2    H2 5482   2.555   1.974  15.668 -2.8783 -0.7622 -1.1222
  366MPD2    H3 5483   2.509   1.735  15.701 -1.0295  0.7967 -1.2325
  366MPD2     N 5484   2.861   1.612  15.435 -0.6082  0.4804 -0.1427
  366MPD2    H5 5485   2.913   1.656  15.360  0.4503 -1.3274 -0.4819
  366MPD2    N1 5486   2.751   2.072  15.510  0.7785 -1.0813 -0.4624
  366MPD2    H7 5487   2.833   2.080  15.449  2.2571 -1.8189  1.4428
  367TMC3    C1 5488   2.720   2.307  15.490  0.3469  0.2850 -0.0684
  367TMC3    C2 5489   2.851   2.321  15.508  0.5181  0.6127 -0.1440
  367TMC3    C3 5490   2.899   2.455  15.510 -0.4157  0.1354 -0.1722
  367TMC3    C4 5491   2.630   2.409  15.465 -0.1277  0.1753  0.5611
  367TMC3    C5 5492   2.680   2.537  15.478 -0.6108  0.0428 -0.2022
  367TMC3    C6 5493   2.813   2.560  15.495  0.2251 -0.4563  0.2297
  367TMC3     C 5494   2.666   2.178  15.525 -0.3933  0.6761  0.5716
  367TMC3     O 5495   2.551   2.183  15.570 -0.3169  0.2915 -0.0315
  367TMC3     H 5496   2.925   2.241  15.510 -0.1696 -0.0251 -0.1634
  367TMC3    H1 5497   2.527   2.388  15.439  0.5255 -0.4188 -1.5118
  367TMC3    H2 5498   2.851   2.662  15.489 -0.9766  0.1049  2.2221
  367TMC3    C7 5499   2.607   2.643  15.410  1.1349  0.3795  0.7739
  367TMC3    C8 5500   3.028   2.476  15.565 -0.0295 -0.6589  0.6749
  367TMC3    O1 5501   2.618   2.754  15.463  0.4133  0.6945  0.4287
  367TMC3    O2 5502   3.069   2.393  15.644  0.9883 -0.2721 -0.1165
  368MPD2     C 5503   4.698   3.602  13.537 -0.1245  0.1990  0.2103
  368MPD2    C1 5504   0.045   3.616  13.417 -0.1407  0.3091  0.2119
  368MPD2    C2 5505   0.178   3.655  13.414  0.1646 -0.2786  0.6660
  368MPD2    C3 5506   0.238   3.698  13.534  0.4517  0.2718  0.2949
  368MPD2    C4 5507   0.172   3.687  13.653  0.8827 -0.3313 -0.2561
  368MPD2    C5 5508   0.042   3.643  13.650 -0.0862  0.3589  0.3885
  368MPD2     H 5509   0.225   3.683  13.321 -1.9158 -0.3682 -0.4070
  368MPD2    H1 5510   0.215   3.706  13.750  0.8517  2.0888 -0.7208
  368MPD2    H2 5511   4.595   3.570  13.549  0.6289 -1.2585  2.6394
  368MPD2    H3 5512   4.713   3.630  13.746 -1.3372  0.8502 -0.1947
  368MPD2     N 5513   0.358   3.771  13.531 -0.0611 -0.6855  0.5122
  368MPD2    H5 5514   0.374   3.828  13.614  1.6391 -0.6211  0.1530
  368MPD2    N1 5515   4.685   3.601  13.301  0.1117 -0.3618  0.2605
  368MPD2    H7 5516   4.588   3.582  13.326  0.4157 -0.7508  1.1183
  369TMC3    C1 5517   4.627   3.615  13.068 -0.5485 -0.3409  0.4407
  369TMC3    C2 5518   4.661   3.698  12.960 -0.1884  0.2998 -0.1827
  369TMC3    C3 5519   4.561   3.780  12.904 -0.4062  0.2750  0.0609
  369TMC3    C4 5520   4.495   3.596  13.109  0.6699  0.5459  1.2206
  369TMC3    C5 5521   4.400   3.677  13.044 -0.2745  0.6083 -0.1457
  369TMC3    C6 5522   4.435   3.772  12.951  0.1242  0.5918 -0.1531
  369TMC3     C 5523   0.012   3.602  13.172 -0.3393  0.9983 -0.7200
  369TMC3     O 5524   0.121   3.614  13.122  0.2922  0.4903 -0.1960
  369TMC3     H 5525   0.041   3.725  12.931  0.4700 -1.6305  0.2988
  369TMC3    H1 5526   4.472   3.524  13.186 -4.2213  0.1857 -0.6280
  369TMC3    H2 5527   4.357   3.836  12.911  1.0808  2.1021  0.3970
  369TMC3    C7 5528   4.269   3.651  13.071 -0.5268  0.1204 -0.9460
  369TMC3    C8 5529   4.603   3.896  12.824 -0.2710  0.3432  0.3574
  369TMC3    O1 5530   4.239   3.589  13.169 -0.8432 -0.8795  0.0634
  369TMC3    O2 5531   4.687   3.886  12.737  0.1532 -0.0907 -0.4158
  370TMC3    C1 5532   3.695   4.355  16.549  0.5370 -0.1999 -0.4152
  370TMC3    C2 5533   3.656   4.252  16.636 -0.9046 -0.3172 -0.2866
  370TMC3    C3 5534   3.610   4.138  16.582 -0.3808  0.0016 -0.4497
  370TMC3    C4 5535   3.693   4.342  16.410  0.3418  0.8930  0.6568
  370TMC3    C5 5536   3.655   4.214  16.366 -0.1970 -0.1935  0.2854
  370TMC3    C6 5537   3.610   4.117  16.450  0.7626  0.8267  0.1358
  370TMC3     C 5538   3.738   4.486  16.609 -0.0886 -0.0234  0.0038
  370TMC3     O 5539   3.757   4.478  16.728  0.0319 -0.3392  0.2358
  370TMC3     H 5540   3.679   4.260  16.742 -0.6276  0.9580 -0.4529
  370TMC3    H1 5541   3.742   4.409  16.340  0.1449  0.9982  0.6199
  370TMC3    H2 5542   3.577   4.021  16.411  4.2575 -0.9919  1.6089
  370TMC3    C7 5543   3.700   4.181  16.233 -0.3913 -0.1264 -1.2911
  370TMC3    C8 5544   3.559   4.024  16.666  0.3832 -0.1719  0.1786
  370TMC3    O1 5545   3.711   4.268  16.146 -0.1248 -0.6222  0.4555
  370TMC3    O2 5546   3.579   3.913  16.629 -0.2575  0.2012  0.4174
  371TMC3    C1 5547   0.214   2.469  15.880 -0.2080 -0.4646  0.3028
  371TMC3    C2 5548   0.100   2.484  15.959  0.2875 -0.6608 -1.0328
  371TMC3    C3 5549   0.034   2.603  15.947  0.0560  0.1059 -1.2950
  371TMC3    C4 5550   0.268   2.562  15.793 -0.1651  0.0438  0.2129
  371TMC3    C5 5551   0.200   2.680  15.797 -0.1947  0.7446  0.1266
  371TMC3    C6 5552   0.081   2.702  15.861 -0.1737  0.5010 -0.0364
  371TMC3     C 5553   0.277   2.338  15.869  0.3980  0.2792 -0.2277
  371TMC3     O 5554   0.388   2.325  15.828 -0.2988  0.0281  0.1088
  371TMC3     H 5555   0.050   2.404  16.013  1.1739 -1.1017 -0.8506
  371TMC3    H1 5556   0.362   2.547  15.741  0.5538  2.8984  0.7151
  371TMC3    H2 5557   0.020   2.784  15.824 -1.7686 -0.4871  0.4111
  371TMC3    C7 5558   0.229   2.783  15.698  0.0604 -0.8440 -0.1807
  371TMC3    C8 5559   4.609   2.591  15.960  0.1662 -0.3506 -0.4230
  371TMC3    O1 5560   0.159   2.881  15.706 -0.0515  1.1265 -0.1136
  371TMC3    O2 5561   4.558   2.480  15.980  0.4122  0.4109  0.5802
  372MPD2     C 5562   4.415   3.937  13.443  0.1568 -0.1132  0.0629
  372MPD2    C1 5563   4.488   3.913  13.558 -0.7169 -0.4559 -0.8853
  372MPD2    C2 5564   4.442   3.810  13.641  0.0182  0.0903 -0.6709
  372MPD2    C3 5565   4.324   3.741  13.614  0.2738 -0.2739 -0.2494
  372MPD2    C4 5566   4.258   3.767  13.495  0.0819  0.2332  1.1199
  372MPD2    C5 5567   4.304   3.865  13.408 -0.3220 -0.2636 -0.1549
  372MPD2     H 5568   4.485   3.788  13.738  1.8477 -0.2438 -1.5637
  372MPD2    H1 5569   4.166   3.718  13.467  1.3709 -0.0670 -2.6109
  372MPD2    H2 5570   4.448   4.020  13.381  1.0474  1.2514  2.3374
  372MPD2    H3 5571   4.245   3.893  13.321 -0.2360 -1.0647 -0.4762
  372MPD2     N 5572   4.277   3.655  13.713  0.4526 -0.2824 -0.0162
  372MPD2    H5 5573   4.321   3.656  13.804  1.2243  3.9386 -0.4726
  372MPD2    N1 5574   4.601   3.982  13.602 -0.1721 -0.6459  0.0006
  372MPD2    H7 5575   4.646   3.959  13.690  2.2751 -0.4395 -1.1833
  373TMC3    C1 5576   4.190   3.458  13.807  0.2212 -0.8223  0.1338
  373TMC3    C2 5577   4.215   3.515  13.930 -0.6385  0.1284  0.3632
  373TMC3    C3 5578   4.279   3.427  14.019 -0.4493 -0.2143 -0.3646
  373TMC3    C4 5579   4.215   3.327  13.780  0.0562  0.9107 -0.4876
  373TMC3    C5 5580   4.275   3.252  13.876  0.8302  0.5263 -0.2070
  373TMC3    C6 5581   4.313   3.294  13.996 -0.3752 -0.0525  0.4455
  373TMC3     C 5582   4.181   3.555  13.695 -0.2943 -0.6495  0.4395
  373TMC3     O 5583   4.129   3.523  13.588  0.7658 -0.6427 -0.3927
  373TMC3     H 5584   4.199   3.622  13.939  2.1608  0.7543 -2.0857
  373TMC3    H1 5585   4.196   3.294  13.678  0.6371  1.1459 -0.6698
  373TMC3    H2 5586   4.359   3.232  14.072 -0.3976  0.8041  1.1530
  373TMC3    C7 5587   4.342   3.139  13.825  0.7908 -0.5052 -0.2784
  373TMC3    C8 5588   4.316   3.476  14.152  0.2201 -0.5980  0.3734
  373TMC3    O1 5589   4.325   3.119  13.707 -0.4201 -0.1377  0.3164
  373TMC3    O2 5590   4.407   3.416  14.204 -0.3116 -0.1322 -0.4186
  374TMC3    C1 5591   4.601   3.979  10.258 -1.0228  0.3027  0.0800
  374TMC3    C2 5592   4.637   4.085  10.333  0.0072  0.4169  0.4615
  374TMC3    C3 5593   4.624   4.209  10.281 -0.4653 -0.0488 -0.4286
  374TMC3    C4 5594   4.546   4.000  10.135  0.0965 -0.2676  0.3667
  374TMC3    C5 5595   4.532   4.130  10.084  0.2945  0.7370 -0.1421
  374TMC3    C6 5596   4.579   4.228  10.159 -0.5196 -0.7288 -0.1497
  374TMC3     C 5597   4.616   3.848  10.323  0.5304 -0.2240  0.2801
  374TMC3     O 5598   4.694   3.843  10.417 -0.5604 -0.5498 -0.1536
  374TMC3     H 5599   4.671   4.062  10.434  2.0829  0.3607 -0.2574
  374TMC3    H1 5600   4.534   3.922  10.061 -0.2716 -1.1494  1.3512
  374TMC3    H2 5601   4.569   4.333  10.132 -1.6166 -0.3357  1.7764
  374TMC3    C7 5602   4.463   4.146   9.955  0.1473 -0.1365 -0.4429
  374TMC3    C8 5603   4.649   4.326  10.361 -0.1821  0.1725 -0.2727
  374TMC3    O1 5604   4.511   4.237   9.890  0.3644  0.6609 -0.1900
  374TMC3    O2 5605   4.606   4.435  10.333 -0.5500  0.2551 -0.3588
  375MPD2     C 5606   0.339   0.341  17.352  0.8176 -0.4618 -0.7730
  375MPD2    C1 5607   0.247   0.250  17.299 -0.3191 -0.5944  0.6453
  375MPD2    C2 5608   0.286   0.159  17.211 -0.8680 -0.2390  0.7992
  375MPD2    C3 5609   0.413   0.152  17.160  0.4202  0.1688 -0.0269
  375MPD2    C4 5610   0.506   0.238  17.215 -0.3682  0.6236  0.4202
  375MPD2    C5 5611   0.470   0.327  17.311 -0.7829 -0.2913 -0.5249
  375MPD2     H 5612   0.207   0.093  17.178 -1.0809  0.5443 -0.2583
  375MPD2    H1 5613   0.612   0.229  17.194 -0.2782  0.9716  0.7062
  375MPD2    H2 5614   0.317   0.412  17.431 -0.8265  0.2836 -1.9079
  375MPD2    H3 5615   0.542   0.398  17.350  0.8134 -1.8478 -0.6901
  375MPD2     N 5616   0.457   0.063  17.064  0.2699 -0.2427  0.4276
  375MPD2    H5 5617   0.549   0.086  17.027  0.1032  0.7482  0.6205
  375MPD2    N1 5618   0.113   0.245  17.344 -0.0974  0.2061 -0.2699
  375MPD2    H7 5619   0.045   0.179  17.308 -0.8349 -0.0812  1.6366
  376TMC3    C1 5620   0.421   4.681  16.849  0.0467 -0.0455 -0.2035
  376TMC3    C2 5621   0.549   4.622  16.840 -0.1377 -0.1461 -0.5784
  376TMC3    C3 5622   0.576   4.578  16.712 -0.0717 -0.3182 -0.4243
  376TMC3    C4 5623   0.336   4.701  16.739  0.5030  0.0353  0.1557
  376TMC3    C5 5624   0.386   4.683  16.618  0.1064  0.7157 -0.3834
  376TMC3    C6 5625   0.502   4.608  16.603 -0.1728  0.3292 -0.1612
  376TMC3     C 5626   0.370   4.716  16.979 -0.2828 -0.5827 -1.0246
  376TMC3     O 5627   0.248   4.720  16.981  0.5153 -0.3404  0.6112
  376TMC3     H 5628   0.602   4.607  16.933 -2.5840  0.3482  0.8917
  376TMC3    H1 5629   0.242   0.033  16.744  0.7021  0.4216 -0.2207
  376TMC3    H2 5630   0.539   4.588  16.503  2.2793  2.5832  0.3065
  376TMC3    C7 5631   0.288   4.689  16.509 -0.6467 -0.8186 -0.2356
  376TMC3    C8 5632   0.706   4.537  16.686 -0.0009  0.0483  0.3753
  376TMC3    O1 5633   0.339   4.719  16.403 -0.1586  0.2206 -0.6304
  376TMC3    O2 5634   0.741   4.548  16.573  0.0072  0.3731 -0.7578
  377MPD2     C 5635   3.153   0.150  12.056  0.1620  0.1612 -0.3445
  377MPD2    C1 5636   3.244   0.083  12.130  0.4377  0.1022  0.8777
  377MPD2    C2 5637   3.203   4.699  12.208  0.3059 -0.5659 -0.2551
  377MPD2    C3 5638   3.080   4.648  12.199  0.2305 -0.5475  0.4812
  377MPD2    C4 5639   2.991   4.697  12.107 -0.7934 -0.0510 -0.2733
  377MPD2    C5 5640   3.025   0.094  12.048  0.6045 -0.2380  0.4598
  377MPD2     H 5641   3.272   4.646  12.272 -1.0034 -0.3685  1.3032
  377MPD2    H1 5642   2.890   4.658  12.096 -0.9934  0.8947 -1.8053
  377MPD2    H2 5643   3.171   0.242  12.001 -0.4747  0.6822  0.3160
  377MPD2    H3 5644   2.951   0.156  11.998 -1.2612 -2.1622  0.8868
  377MPD2     N 5645   3.038   4.530  12.262  0.1354  0.2361  0.3834
  377MPD2    H5 5646   2.952   4.488  12.229  0.5465 -1.3972  1.3976
  377MPD2    N1 5647   3.382   0.127  12.133  0.5039 -0.2010 -0.4315
  377MPD2    H7 5648   3.416   0.189  12.060 -0.3920 -1.5402 -1.9693
  378TMC3    C1 5649   3.766   0.122  12.006 -0.0337 -0.0905  0.2694
  378TMC3    C2 5650   3.636   0.135  12.050 -0.1639  0.2735  0.3683
  378TMC3    C3 5651   3.605   0.118  12.183 -0.0819  0.4937  0.6260
  378TMC3    C4 5652   3.862   0.067  12.094  0.3272  0.0148  0.6269
  378TMC3    C5 5653   3.826   0.048  12.226 -0.2299 -0.3289 -0.3884
  378TMC3    C6 5654   3.698   0.087  12.270  0.0051  0.0080 -0.1961
  378TMC3     C 5655   3.768   0.105  11.858 -0.2782 -0.9555  0.0380
  378TMC3     O 5656   3.678   0.161  11.798 -0.5041 -0.2490 -0.2149
  378TMC3     H 5657   3.557   0.149  11.977  0.3428  1.6523  0.0854
  378TMC3    H1 5658   3.967   0.071  12.067  0.3312  0.9630  0.7669
  378TMC3    H2 5659   3.670   0.066  12.372 -0.4940  1.0543 -0.1172
  378TMC3    C7 5660   3.899   4.689  12.322 -0.2365  0.1847 -0.0902
  378TMC3    C8 5661   3.472   0.087  12.223  0.0487  0.2400  0.3568
  378TMC3    O1 5662   3.853   4.683  12.434 -0.2372  0.1459  0.1663
  378TMC3    O2 5663   3.455   0.032  12.331  1.1258 -0.6687 -0.0070
  379MPD2     C 5664   4.153   2.413  16.223 -0.6482  0.8059  0.6373
  379MPD2    C1 5665   4.047   2.330  16.260 -0.8271  0.2094  0.2358
  379MPD2    C2 5666   4.070   2.227  16.354 -1.1398 -0.0534  0.0565
  379MPD2    C3 5667   4.199   2.208  16.403 -0.2788 -0.9770 -0.2147
  379MPD2    C4 5668   4.306   2.276  16.348 -0.2896  0.3131  0.1970
  379MPD2    C5 5669   4.278   2.377  16.256 -0.0284  0.3330 -1.0858
  379MPD2     H 5670   3.990   2.157  16.379  0.6565 -1.4388  1.9090
  379MPD2    H1 5671   4.410   2.247  16.358  0.9220  3.3084 -3.6009
  379MPD2    H2 5672   4.138   2.486  16.144 -1.6300 -0.1904 -0.0839
  379MPD2    H3 5673   4.365   2.413  16.201 -1.0546  2.3784 -1.3692
  379MPD2     N 5674   4.223   2.118  16.510  0.2622  0.8246 -0.1443
  379MPD2    H5 5675   4.317   2.098  16.540  0.8614  0.6268 -2.1652
  379MPD2    N1 5676   3.918   2.351  16.203 -0.1064  0.4126 -0.0096
  379MPD2    H7 5677   3.919   2.431  16.141  0.2785 -0.1306 -0.6988
  380TMC3    C1 5678   3.712   2.313  16.108 -0.0667  0.3658  0.7920
  380TMC3    C2 5679   3.702   2.198  16.033  0.0382  0.0356  0.0839
  380TMC3    C3 5680   3.700   2.209  15.896 -0.1445  0.4372  0.3915
  380TMC3    C4 5681   3.714   2.438  16.045  0.7347  0.2396  0.9595
  380TMC3    C5 5682   3.679   2.443  15.915  0.9391  0.8479 -0.3906
  380TMC3    C6 5683   3.674   2.329  15.838 -0.4191  0.5602  0.2442
  380TMC3     C 5684   3.800   2.283  16.221 -0.0978  0.4892  0.2612
  380TMC3     O 5685   3.763   2.202  16.306  0.3052  0.5062  0.3928
  380TMC3     H 5686   3.730   2.104  16.079  3.5578  0.4628 -1.1821
  380TMC3    H1 5687   3.723   2.531  16.099 -0.4779  1.1923 -0.4575
  380TMC3    H2 5688   3.641   2.325  15.734 -1.6607 -3.1777  0.7610
  380TMC3    C7 5689   3.620   2.568  15.855 -0.4244  0.7943 -0.8155
  380TMC3    C8 5690   3.827   2.175  15.836 -0.6868  0.2350 -0.8781
  380TMC3    O1 5691   3.673   2.671  15.870  0.8367  1.0501  0.1505
  380TMC3    O2 5692   3.847   2.203  15.718 -0.4050 -0.0474  0.9405
  381TMC3    C1 5693   3.472   3.647  16.354 -0.1622 -0.5330  0.6720
  381TMC3    C2 5694   3.604   3.627  16.317 -0.4533  0.7286  0.1118
  381TMC3    C3 5695   3.673   3.559  16.410  0.4927  0.1150 -0.3625
  381TMC3    C4 5696   3.423   3.593  16.470  0.8153  0.0673  0.3011
  381TMC3    C5 5697   3.502   3.517  16.549  0.0541  0.3040  0.2727
  381TMC3    C6 5698   3.631   3.495  16.519  0.2103  0.3767  0.3690
  381TMC3     C 5699   3.408   3.770  16.311  0.3198 -0.3125 -0.5656
  381TMC3     O 5700   3.318   3.809  16.385 -0.8214 -0.1076  0.0403
  381TMC3     H 5701   3.661   3.675  16.238  1.0551 -1.3303 -0.0623
  381TMC3    H1 5702   3.320   3.621  16.489  0.2600 -0.6673 -1.6307
  381TMC3    H2 5703   3.694   3.441  16.589  0.2368  1.1689  0.9661
  381TMC3    C7 5704   3.449   3.469  16.673 -0.3620 -0.1272  0.1511
  381TMC3    C8 5705   3.812   3.603  16.416  0.0039  0.3431  0.4620
  381TMC3    O1 5706   3.475   3.355  16.696  0.2978  0.9070  0.0008
  381TMC3    O2 5707   3.876   3.618  16.316 -0.7168  0.2542 -0.4697
  382MPD2     C 5708   2.114   1.466  17.372 -0.0679  0.5024 -0.2845
  382MPD2    C1 5709   2.216   1.460  17.464  0.1689  1.0400 -0.4159
  382MPD2    C2 5710   2.276   1.341  17.494 -0.0847  0.0510  0.2335
  382MPD2    C3 5711   2.242   1.226  17.420  0.9424  0.6731 -0.1331
  382MPD2    C4 5712   2.151   1.239  17.319 -0.0540  0.3848  0.3323
  382MPD2    C5 5713   2.094   1.356  17.291  0.2469 -0.5067  0.4469
  382MPD2     H 5714   2.349   1.338  17.574 -0.8762  0.0692  0.9436
  382MPD2    H1 5715   2.122   1.154  17.259  0.0483 -0.6729  1.7759
  382MPD2    H2 5716   2.053   1.552  17.349 -0.8825 -0.2780 -1.0831
  382MPD2    H3 5717   2.017   1.365  17.215  0.2514  0.6990  0.5921
  382MPD2     N 5718   2.283   1.093  17.445  0.3680 -0.3777 -0.4810
  382MPD2    H5 5719   2.260   1.016  17.383 -2.6939 -0.4820  0.8025
  382MPD2    N1 5720   2.263   1.579  17.520 -0.1505  0.1905  0.0932
  382MPD2    H7 5721   2.324   1.569  17.600 -1.3201 -0.3016  0.9257
  383TMC3    C1 5722   2.422   0.927  17.532  0.0403  0.5230  0.0496
  383TMC3    C2 5723   2.347   0.846  17.452 -0.0863  0.7092  0.3721
  383TMC3    C3 5724   2.357   0.713  17.472 -0.2985 -0.2295 -0.3664
  383TMC3    C4 5725   2.510   0.879  17.628  0.5557 -1.1530  0.0908
  383TMC3    C5 5726   2.505   0.743  17.646 -0.3240  0.1596 -0.1640
  383TMC3    C6 5727   2.427   0.660  17.571  0.1398 -0.0264 -0.4166
  383TMC3     C 5728   2.372   1.067  17.543 -0.5833 -0.3417 -0.6728
  383TMC3     O 5729   2.430   1.144  17.624  0.6704  0.2502  0.2621
  383TMC3     H 5730   2.289   0.877  17.366 -2.2012 -2.0157  0.7947
  383TMC3    H1 5731   2.557   0.953   0.008  1.1459  0.0138 -1.6850
  383TMC3    H2 5732   2.442   0.555  17.592  0.9318 -0.0180 -0.9217
  383TMC3    C7 5733   2.598   0.691   0.059 -0.6657  0.0068 -0.3075
  383TMC3    C8 5734   2.254   0.633  17.407  0.8312  0.0294 -0.5828
  383TMC3    O1 5735   2.587   0.583   0.121  0.0220  0.0096  0.1777
  383TMC3    O2 5736   2.194   0.679  17.309  0.1669 -0.0514 -0.2820
  384MPD2     C 5737   4.646   2.567  12.114 -0.0508 -0.1254 -0.3736
  384MPD2    C1 5738   4.662   2.487  12.233  0.3630 -0.4983  0.5098
  384MPD2    C2 5739   4.715   2.361  12.225  0.4552  0.1238  0.2216
  384MPD2    C3 5740   0.027   2.299  12.111 -0.0969  0.0774  0.5381
  384MPD2    C4 5741   0.010   2.377  11.991  0.5413 -0.0560  0.8682
  384MPD2    C5 5742   4.694   2.512  11.997 -0.3947 -0.4817  0.5732
  384MPD2     H 5743   0.018   2.318  12.321  0.2808 -0.8619 -0.1808
  384MPD2    H1 5744   0.034   2.324  11.900  1.6533  1.7870  0.0676
  384MPD2    H2 5745   4.611   2.669  12.118  1.0202  0.2343 -0.2282
  384MPD2    H3 5746   4.681   2.565  11.904  0.9710  0.4666  0.9323
  384MPD2     N 5747   0.063   2.164  12.121 -0.1590  0.2382 -0.0867
  384MPD2    H5 5748   0.063   2.126  12.215  0.8245 -2.8217 -1.3024
  384MPD2    N1 5749   4.616   2.524  12.358  0.1620 -0.2997 -0.1494
  384MPD2    H7 5750   4.641   2.459  12.432  0.8647 -0.7574 -0.7931
  385TMC3    C1 5751   0.079   1.933  12.074 -0.9216 -0.0756 -0.5758
  385TMC3    C2 5752   4.717   1.856  11.996 -0.0186  0.2544 -0.2092
  385TMC3    C3 5753   4.604   1.805  12.046 -0.8405 -0.2302 -0.0679
  385TMC3    C4 5754   0.069   1.932  12.213 -0.0192  0.5950  0.1108
  385TMC3    C5 5755   4.673   1.868  12.257 -0.2526 -0.2514  0.0057
  385TMC3    C6 5756   4.580   1.815  12.179 -0.2676 -0.6442 -0.0290
  385TMC3     C 5757   0.081   2.077  12.020  0.3983 -0.1111  0.4456
  385TMC3     O 5758   0.078   2.088  11.900  0.0838 -0.0490  0.2217
  385TMC3     H 5759   0.011   1.856  11.889 -0.2192  1.1039 -0.2369
  385TMC3    H1 5760   0.140   1.977  12.282  0.7715  0.3665 -0.5644
  385TMC3    H2 5761   4.488   1.787  12.230 -0.8746 -1.8131 -1.7446
  385TMC3    C7 5762   4.634   1.934  12.376  0.0767 -0.3760 -0.4059
  385TMC3    C8 5763   4.497   1.754  11.965  0.3151 -0.2287 -0.2401
  385TMC3    O1 5764   4.649   2.053  12.357 -0.2302  0.5868 -0.0268
  385TMC3    O2 5765   4.397   1.726  12.031 -0.2477  0.0919  0.2582
  386TMC3    C1 5766   0.191   4.476  12.267 -0.3071  0.1897 -0.4033
  386TMC3    C2 5767   0.178   4.447  12.136 -1.1539 -0.0029 -0.0400
  386TMC3    C3 5768   0.064   4.480  12.068  0.6561  0.8134 -0.4038
  386TMC3    C4 5769   0.099   4.550  12.338 -0.1620  0.6164  0.3408
  386TMC3    C5 5770   4.711   4.599  12.266 -0.2736  0.4663  0.1637
  386TMC3    C6 5771   4.690   4.559  12.140  0.3379  0.2045 -0.0599
  386TMC3     C 5772   0.321   4.472  12.323 -0.6012 -0.6832  0.1940
  386TMC3     O 5773   0.346   4.559  12.409  0.4197 -0.0581 -0.3865
  386TMC3     H 5774   0.263   4.403  12.085 -0.0056  2.0635  0.0851
  386TMC3    H1 5775   0.125   4.582  12.438  2.1289 -0.9747  0.2530
  386TMC3    H2 5776   4.602   4.589  12.085 -0.8751 -0.7776  1.3259
  386TMC3    C7 5777   4.605   4.648  12.347 -0.0541 -0.0443  0.0942
  386TMC3    C8 5778   0.034   4.450  11.930 -0.1179 -0.5562  0.8626
  386TMC3    O1 5779   4.621   4.641  12.466 -0.6250 -0.3457 -0.5693
  386TMC3    O2 5780   4.645   4.487  11.893 -0.4745  0.0151  0.0598
  387MPD2     C 5781   2.406   3.707   9.955 -0.0014 -0.5263 -0.5193
  387MPD2    C1 5782   2.301   3.748   9.873 -0.0856  0.3937  0.1181
  387MPD2    C2 5783   2.224   3.651   9.806  0.1426 -0.8894  0.0664
  387MPD2    C3 5784   2.252   3.517   9.835 -0.0402 -0.4488 -0.1119
  387MPD2    C4 5785   2.355   3.479   9.909  0.3317 -0.0185 -0.0996
  387MPD2    C5 5786   2.437   3.577   9.967  0.7057 -0.1048  0.1214
  387MPD2     H 5787   2.139   3.682   9.747 -0.8621 -1.3888  1.2489
  387MPD2    H1 5788   2.374   3.374   9.930  0.8544  0.0010 -0.4812
  387MPD2    H2 5789   2.458   3.782  10.014 -0.1357 -1.7062  1.0956
  387MPD2    H3 5790   2.512   3.538  10.034 -0.0886 -0.8611  0.5628
  387MPD2     N 5791   2.160   3.428   9.773 -0.0912  0.5110 -0.2381
  387MPD2    H5 5792   2.080   3.466   9.723 -1.7284 -1.8495  0.5416
  387MPD2    N1 5793   2.258   3.881   9.856 -0.4605  0.1852  0.1298
  387MPD2    H7 5794   2.174   3.903   9.803 -0.0954  1.7727  0.2002
  388TMC3    C1 5795   2.221   4.104   9.921  0.5429 -0.2735 -0.2015
  388TMC3    C2 5796   2.261   4.227   9.962  0.4541  0.1895 -0.7465
  388TMC3    C3 5797   2.165   4.326   9.986 -0.5973 -0.4583  0.5856
  388TMC3    C4 5798   2.091   4.074   9.909  0.7443  0.1720  0.4499
  388TMC3    C5 5799   2.001   4.164   9.953 -0.6066  0.0659  0.0463
  388TMC3    C6 5800   2.032   4.296   9.984  1.3061 -0.0695  0.0146
  388TMC3     C 5801   2.301   3.983   9.936  0.0408  0.1606 -0.7081
  388TMC3     O 5802   2.404   3.992  10.005 -0.0561  0.2841 -0.0928
  388TMC3     H 5803   2.368   4.241   9.970  0.4433 -0.4192  0.4411
  388TMC3    H1 5804   2.053   3.975   9.889 -1.8664  1.0727  1.0030
  388TMC3    H2 5805   1.957   4.370  10.009  0.2322 -1.6828  1.6264
  388TMC3    C7 5806   1.864   4.122   9.967  0.2426 -0.7693  0.1919
  388TMC3    C8 5807   2.208   4.463  10.009 -0.5185  0.1249 -0.1685
  388TMC3    O1 5808   1.778   4.201   9.935  0.1647  0.1329  0.4233
  388TMC3    O2 5809   2.324   4.503   9.986  0.6180  0.1865 -0.0927
  389MPD2     C 5810   2.009   3.070  11.307 -0.3354  0.2312  0.5473
  389MPD2    C1 5811   1.917   2.977  11.275 -1.1320  0.0582 -0.0909
  389MPD2    C2 5812   1.835   2.934  11.378 -0.0672 -0.3827  0.0397
  389MPD2    C3 5813   1.845   2.989  11.508  0.0348  0.3736 -0.5169
  389MPD2    C4 5814   1.934   3.089  11.542  0.5613  0.2837 -0.4677
  389MPD2    C5 5815   2.013   3.123  11.435  0.3249  0.3145  0.1519
  389MPD2     H 5816   1.756   2.864  11.357 -0.6190  0.2293  0.0713
  389MPD2    H1 5817   1.947   3.128  11.642 -1.4880  0.0910 -0.1443
  389MPD2    H2 5818   2.086   3.090  11.234 -0.8047  0.8079  0.2155
  389MPD2    H3 5819   2.104   3.172  11.467 -0.4725 -0.1704  3.1587
  389MPD2     N 5820   1.754   2.950  11.611  0.1431  0.1801  0.6174
  389MPD2    H5 5821   1.756   3.000  11.699  0.7766 -0.5763  1.0329
  389MPD2    N1 5822   1.909   2.922  11.145 -0.3785  0.0021  0.3670
  389MPD2    H7 5823   1.980   2.955  11.081  0.6139  0.7121  1.8335
  390TMC3    C1 5824   1.575   2.839  11.717 -0.3247 -0.5811  0.0966
  390TMC3    C2 5825   1.538   2.711  11.752  0.2454 -0.2899 -0.1862
  390TMC3    C3 5826   1.489   2.687  11.877  1.0554 -0.0059  0.4496
  390TMC3    C4 5827   1.571   2.944  11.805  0.7049 -0.0334  0.5010
  390TMC3    C5 5828   1.509   2.914  11.918  0.1643  0.0278 -0.0339
  390TMC3    C6 5829   1.465   2.791  11.956 -0.3029  0.1121 -0.9546
  390TMC3     C 5830   1.673   2.838  11.605  0.6576  0.4879 -0.6586
  390TMC3     O 5831   1.653   2.757  11.513 -0.6686  0.0935  0.4778
  390TMC3     H 5832   1.532   2.632  11.678 -1.7392  0.6232 -0.9754
  390TMC3    H1 5833   1.588   3.049  11.781  0.5935  0.1016  1.0149
  390TMC3    H2 5834   1.412   2.771  12.049  0.5963 -2.0089 -0.8902
  390TMC3    C7 5835   1.455   3.027  11.992 -0.6042 -0.0475 -0.8396
  390TMC3    C8 5836   1.396   2.576  11.886  0.7862  0.7200  0.1074
  390TMC3    O1 5837   1.426   3.122  11.919 -0.4999  0.7227  0.3818
  390TMC3    O2 5838   1.369   2.512  11.787  0.6847  0.1392 -0.9409
  391MPD2     C 5839   0.694   3.989  11.711  0.6763 -0.5077  0.1050
  391MPD2    C1 5840   0.707   4.127  11.712  0.4304 -0.5721 -0.0717
  391MPD2    C2 5841   0.691   4.197  11.590  0.2972  0.4613  0.1659
  391MPD2    C3 5842   0.669   4.127  11.474 -0.4465 -0.1449 -0.4216
  391MPD2    C4 5843   0.669   3.986  11.472  0.1508 -0.5340  0.2793
  391MPD2    C5 5844   0.675   3.927  11.590  0.0431 -0.0416  0.3632
  391MPD2     H 5845   0.716   4.302  11.589 -1.0785  0.7629 -1.4879
  391MPD2    H1 5846   0.674   3.937  11.375 -1.6061  0.1343 -0.1386
  391MPD2    H2 5847   0.700   3.933  11.804 -2.7537 -1.0378 -0.0070
  391MPD2    H3 5848   0.670   3.819  11.583 -3.4279  0.2337 -1.1914
  391MPD2     N 5849   0.674   4.203  11.353  0.0694  0.7581 -0.2139
  391MPD2    H5 5850   0.723   4.292  11.355  0.6562  0.4149  0.6324
  391MPD2    N1 5851   0.749   4.192  11.828 -0.2708 -0.1118  0.0293
  391MPD2    H7 5852   0.777   4.132  11.905  1.8196 -0.2066 -0.7936
  392TMC3    C1 5853   0.637   4.243  11.110 -0.1772  0.2247 -0.6035
  392TMC3    C2 5854   0.541   4.228  11.016  0.5703 -0.7477  0.0527
  392TMC3    C3 5855   0.545   4.313  10.903 -0.1722  0.2050 -0.8583
  392TMC3    C4 5856   0.731   4.338  11.095  0.0467  0.0762  0.4087
  392TMC3    C5 5857   0.726   4.425  10.991 -0.5991  0.5191  0.2162
  392TMC3    C6 5858   0.629   4.416  10.896 -0.6272 -0.2223 -0.3195
  392TMC3     C 5859   0.634   4.150  11.230 -0.3546 -0.2098  0.0569
  392TMC3     O 5860   0.540   4.070  11.220 -0.2569 -0.0861  0.1082
  392TMC3     H 5861   0.471   4.145  11.015 -0.6241  0.2501  1.2279
  392TMC3    H1 5862   0.815   4.334  11.164  0.2608  1.7580  0.2348
  392TMC3    H2 5863   0.619   4.483  10.811  1.7606 -0.9263 -1.1370
  392TMC3    C7 5864   0.837   4.526  10.985 -0.4983 -0.5749 -0.1959
  392TMC3    C8 5865   0.423   4.309  10.820 -0.4357 -0.0589  0.1296
  392TMC3    O1 5866   0.921   4.524  11.077  0.4437  0.7433 -1.0808
  392TMC3    O2 5867   0.374   4.197  10.812 -0.1694 -0.1033  0.4519
  393TMC3    C1 5868   4.281   2.452  11.082  0.0530  0.6304 -0.4243
  393TMC3    C2 5869   4.199   2.435  11.191  0.3103  0.1930  0.2836
  393TMC3    C3 5870   4.240   2.520  11.294  0.9082 -0.2359 -0.7149
  393TMC3    C4 5871   4.396   2.523  11.078  0.2787  0.3638  0.2004
  393TMC3    C5 5872   4.431   2.599  11.190 -0.0629 -0.6850  0.0460
  393TMC3    C6 5873   4.356   2.588  11.304  0.2726  0.0011  0.0903
  393TMC3     C 5874   4.245   2.384  10.954  0.3437  0.3186  0.1844
  393TMC3     O 5875   4.305   2.430  10.858  0.1788 -0.3188 -0.3856
  393TMC3     H 5876   4.103   2.386  11.185 -0.5311  1.7870  0.6814
  393TMC3    H1 5877   4.443   2.546  10.983  1.4144 -2.7527  0.0057
  393TMC3    H2 5878   4.394   2.641  11.391 -0.8212 -2.4479  2.0693
  393TMC3    C7 5879   4.567   2.644  11.215  0.1224 -0.3190  0.0007
  393TMC3    C8 5880   4.144   2.539  11.396 -0.4211  0.1716 -0.6572
  393TMC3    O1 5881   4.612   2.675  11.325  0.1958 -0.5315 -0.5126
  393TMC3    O2 5882   4.061   2.451  11.402 -0.1732 -0.2073  0.2331
  394TMC3    C1 5883   1.839   2.797  10.954  0.2270  0.1615 -0.4313
  394TMC3    C2 5884   1.783   2.679  10.901 -0.6223  0.1406  0.9485
  394TMC3    C3 5885   1.753   2.681  10.771 -0.6849 -0.0210  1.2220
  394TMC3    C4 5886   1.859   2.906  10.879 -0.3289  0.3177  0.8279
  394TMC3    C5 5887   1.823   2.904  10.751  0.2665  0.8084 -0.0161
  394TMC3    C6 5888   1.761   2.796  10.696  0.3094 -0.1784  0.4420
  394TMC3     C 5889   1.822   2.823  11.097  0.0648  0.0517 -0.2075
  394TMC3     O 5890   1.734   2.756  11.150  0.1313 -0.1370 -0.3975
  394TMC3     H 5891   1.766   2.593  10.965  0.4384 -1.3574 -0.7861
  394TMC3    H1 5892   1.890   3.005  10.910 -0.3698  0.1733  1.3392
  394TMC3    H2 5893   1.720   2.797  10.595  0.9967  1.8738  0.1691
  394TMC3    C7 5894   1.820   3.029  10.676 -0.6144 -0.1207 -0.0719
  394TMC3    C8 5895   1.631   2.618  10.736  0.4958 -0.1009  0.3340
  394TMC3    O1 5896   1.870   3.129  10.728 -0.0059  0.2593  0.0362
  394TMC3    O2 5897   1.542   2.694  10.707  0.1527  0.1056 -0.5614
  395TMC3    C1 5898   1.249   4.705  14.855  0.4846 -0.9734 -0.1484
  395TMC3    C2 5899   1.154   0.062  14.805 -0.7627 -1.1818 -0.0959
  395TMC3    C3 5900   1.126   0.174  14.878  0.8072  0.2196  0.3095
  395TMC3    C4 5901   1.345   0.025  14.941  0.3274 -0.0047 -0.0265
  395TMC3    C5 5902   1.326   0.145  15.002 -0.3463  0.4793 -0.6012
  395TMC3    C6 5903   1.210   0.216  14.982 -0.7816 -0.8786 -0.7062
  395TMC3     C 5904   1.196   4.578  14.897  0.0664  0.2497  0.1925
  395TMC3     O 5905   1.215   4.545  15.015 -0.1500 -0.4518 -0.2436
  395TMC3     H 5906   1.094   0.015  14.729  0.4906 -0.9338 -1.2378
  395TMC3    H1 5907   1.408   4.670  14.986  0.7057  1.1764  1.3985
  395TMC3    H2 5908   1.191   0.314  15.025  0.7019 -1.1532  0.5683
  395TMC3    C7 5909   1.440   0.213  15.066 -0.0166 -0.5125  0.3631
  395TMC3    C8 5910   0.991   0.158  14.921 -0.4010  0.0781  0.3005
  395TMC3    O1 5911   1.414   0.315  15.122  0.5190  0.3440 -0.3382
  395TMC3    O2 5912   0.903   0.146  14.836  0.3835 -0.4709 -0.5680
  396MPD2     C 5913   1.183   0.986   0.132  0.4624 -0.4013 -0.1778
  396MPD2    C1 5914   1.275   0.966   0.038  0.5092 -0.1076  0.1603
  396MPD2    C2 5915   1.319   1.074  17.650  0.5503 -0.5132  0.8310
  396MPD2    C3 5916   1.258   1.200  17.659 -0.3734 -0.7292  0.5249
  396MPD2    C4 5917   1.152   1.209   0.065 -0.1563 -0.4207 -0.2766
  396MPD2    C5 5918   1.127   1.108   0.146 -0.0124 -0.6480  0.5827
  396MPD2     H 5919   1.383   1.063  17.564 -0.4969  0.8473 -0.1152
  396MPD2    H1 5920   1.089   1.297   0.071 -0.6847 -0.9745  2.5104
  396MPD2    H2 5921   1.146   0.910   0.200 -0.2593  1.9461  2.0542
  396MPD2    H3 5922   1.043   1.120   0.213 -0.7071 -0.2753 -0.3493
  396MPD2     N 5923   1.307   1.308  17.582  0.1942 -0.6716 -0.3637
  396MPD2    H5 5924   1.390   1.299  17.525  0.1026 -1.4901 -0.3768
  396MPD2    N1 5925   1.303   0.830   0.006 -0.0168 -0.0633  0.2561
  396MPD2    H7 5926   1.243   0.755   0.037  0.8524 -0.7085  0.3811
  397TMC3    C1 5927   1.428   0.670  17.570 -0.5059  0.0181  0.4083
  397TMC3    C2 5928   1.441   0.663  17.430 -0.0675  0.3401 -0.2257
  397TMC3    C3 5929   1.398   0.559  17.355 -0.2083  0.5185  0.4737
  397TMC3    C4 5930   1.346   0.569  17.626 -0.5666 -0.4508  0.1212
  397TMC3    C5 5931   1.306   0.464  17.547  0.1500  0.3164 -0.0975
  397TMC3    C6 5932   1.327   0.455  17.411 -0.6498 -0.0211 -0.6556
  397TMC3     C 5933   1.412   0.801  17.615 -0.1341 -0.3593 -0.4967
  397TMC3     O 5934   1.504   0.872  17.572  0.2628 -0.3270 -0.6189
  397TMC3     H 5935   1.533   0.712  17.402  0.7911 -0.5070  1.1596
  397TMC3    H1 5936   1.312   0.583   0.044  0.5498  0.6340  0.3514
  397TMC3    H2 5937   1.292   0.368  17.355 -0.0518  0.3640 -1.6303
  397TMC3    C7 5938   1.215   0.359  17.594  0.0991  0.0683 -0.1427
  397TMC3    C8 5939   1.384   0.567  17.212  0.4752 -0.6481  1.1197
  397TMC3    O1 5940   1.209   0.257  17.526  0.2621 -0.2616  0.5753
  397TMC3    O2 5941   1.345   0.473  17.144  0.0472 -0.5415 -0.5092
  398MPD2     C 5942   4.131   1.047   0.185 -0.1919 -0.1974 -1.2113
  398MPD2    C1 5943   4.262   1.029   0.206 -0.4016  0.3378  0.0335
  398MPD2    C2 5944   4.347   1.122   0.147  0.3436  0.0080 -0.4617
  398MPD2    C3 5945   4.305   1.242   0.094  0.0768  0.1774 -0.2370
  398MPD2    C4 5946   4.171   1.272   0.098  0.0604  0.1801  0.1537
  398MPD2    C5 5947   4.087   1.169   0.134 -0.1504 -0.3245 -0.0831
  398MPD2     H 5948   4.453   1.102   0.145 -0.5061 -4.3930 -2.5424
  398MPD2    H1 5949   4.135   1.363   0.052  0.9506  0.0404 -0.8271
  398MPD2    H2 5950   4.050   0.977   0.201 -1.9556  2.2862  0.6804
  398MPD2    H3 5951   3.979   1.174   0.126 -0.3751 -0.3155  2.8503
  398MPD2     N 5952   4.397   1.343   0.053  0.2373 -0.6713  0.0054
  398MPD2    H5 5953   4.492   1.317   0.029  0.6252 -1.2460  2.2011
  398MPD2    N1 5954   4.311   0.905   0.258  0.8276 -0.1593 -0.5751
  398MPD2    H7 5955   4.412   0.905   0.272  0.9129 -1.7292 -1.2098
  399TMC3    C1 5956   4.290   0.687   0.360  0.6290  0.1011  0.2228
  399TMC3    C2 5957   4.414   0.650   0.303 -1.0375  0.1656  0.4388
  399TMC3    C3 5958   4.465   0.530   0.339 -0.6623 -0.1369  0.4545
  399TMC3    C4 5959   4.226   0.621   0.463  0.4834 -0.4236 -0.3589
  399TMC3    C5 5960   4.285   0.501   0.498 -0.3030  0.0479  0.0166
  399TMC3    C6 5961   4.403   0.459   0.436  0.4753 -0.1733 -0.7303
  399TMC3     C 5962   4.228   0.810   0.321  0.7687 -0.2930 -0.0838
  399TMC3     O 5963   4.107   0.799   0.322 -0.2261 -0.8433 -0.3661
  399TMC3     H 5964   4.459   0.707   0.223 -1.4751  0.7949  0.6288
  399TMC3    H1 5965   4.131   0.650   0.505 -0.0679 -1.7070 -0.7500
  399TMC3    H2 5966   4.443   0.359   0.449  0.4041 -0.3284 -1.6825
  399TMC3    C7 5967   4.227   0.408   0.589 -0.2046 -0.0065  0.2453
  399TMC3    C8 5968   4.588   0.486   0.277  0.0037 -0.0366 -0.2090
  399TMC3    O1 5969   4.283   0.299   0.597  0.3735  0.6775  0.2879
  399TMC3    O2 5970   4.661   0.566   0.223 -0.0742 -0.4588  0.0442
  400TMC3    C1 5971   2.318   0.570  17.040  0.9207 -0.5166  0.3826
  400TMC3    C2 5972   2.269   0.449  17.011  0.4605  0.6120 -0.0029
  400TMC3    C3 5973   2.151   0.443  16.934 -0.4679  0.1652  0.0705
  400TMC3    C4 5974   2.249   0.685  17.006  0.4032 -0.2230  0.6859
  400TMC3    C5 5975   2.131   0.674  16.937  0.2073 -0.2449  0.4110
  400TMC3    C6 5976   2.088   0.555  16.898 -0.7967 -0.1545 -0.0106
  400TMC3     C 5977   2.436   0.581  17.127  0.0834  0.1259  0.6439
  400TMC3     O 5978   2.493   0.476  17.162 -0.1209  0.3601 -0.3613
  400TMC3     H 5979   2.327   0.369  17.053 -0.8214  0.2920  1.1574
  400TMC3    H1 5980   2.276   0.782  17.046  0.2297  0.2654 -0.3763
  400TMC3    H2 5981   1.992   0.551  16.848 -0.2570  0.6742 -1.1190
  400TMC3    C7 5982   2.021   0.769  16.974 -0.1012 -0.0330 -0.4074
  400TMC3    C8 5983   2.102   0.311  16.900 -0.4036  0.1153  0.5823
  400TMC3    O1 5984   1.938   0.791  16.892  0.0825  0.5656  0.4780
  400TMC3    O2 5985   2.025   0.316  16.806 -0.3697 -0.3762  0.3281
  401MPD2     C 5986   0.545   3.748   1.467 -0.0357 -0.6623  0.2236
  401MPD2    C1 5987   0.659   3.668   1.489 -0.5031 -0.6392 -0.2495
  401MPD2    C2 5988   0.643   3.542   1.549 -0.2519  0.5076  0.4444
  401MPD2    C3 5989   0.517   3.500   1.591 -0.7152  0.4387  0.1059
  401MPD2    C4 5990   0.406   3.585   1.573  0.2189  0.8821  0.1043
  401MPD2    C5 5991   0.418   3.704   1.506 -0.4176  0.4927  0.3385
  401MPD2     H 5992   0.729   3.487   1.583 -0.5365 -0.6378 -0.6838
  401MPD2    H1 5993   0.308   3.569   1.616  1.2496 -2.1698  1.2886
  401MPD2    H2 5994   0.554   3.842   1.415 -0.3313  0.7323  2.6941
  401MPD2    H3 5995   0.331   3.761   1.476  0.2214  0.3377 -1.7943
  401MPD2     N 5996   0.500   3.372   1.648  0.6390 -0.2082  0.7835
  401MPD2    H5 5997   0.578   3.308   1.645  0.8160 -0.1026  3.0264
  401MPD2    N1 5998   0.783   3.702   1.452  0.4516  0.4668 -0.3376
  401MPD2    H7 5999   0.855   3.631   1.462 -1.3672 -1.6228 -2.0808
  402TMC3    C1 6000   0.404   3.169   1.692 -0.1349  0.0846  0.1242
  402TMC3    C2 6001   0.510   3.131   1.765 -0.5321  0.0789 -0.4016
  402TMC3    C3 6002   0.576   3.019   1.726  0.0780 -0.1679 -0.2262
  402TMC3    C4 6003   0.375   3.109   1.575  0.0948  0.6608  0.6635
  402TMC3    C5 6004   0.446   3.004   1.531  0.4776 -0.6901 -0.1358
  402TMC3    C6 6005   0.538   2.944   1.614  0.3688 -0.0278  0.4135
  402TMC3     C 6006   0.379   3.313   1.692  0.1411  0.3273  0.1209
  402TMC3     O 6007   0.265   3.352   1.696 -0.4642 -0.4899  0.2078
  402TMC3     H 6008   0.538   3.194   1.849  2.4382 -1.8241  0.0262
  402TMC3    H1 6009   0.297   3.156   1.515 -1.2268 -1.5016  0.6772
  402TMC3    H2 6010   0.592   2.853   1.591  0.2721 -0.1860  0.8130
  402TMC3    C7 6011   0.417   2.959   1.393 -0.0554  0.4669 -0.2332
  402TMC3    C8 6012   0.670   2.949   1.811  0.0651 -0.2060 -0.4470
  402TMC3    O1 6013   0.304   2.980   1.350  0.1527  0.1820 -0.0399
  402TMC3    O2 6014   0.757   2.886   1.752 -0.4904 -0.2746 -1.0248
  403MPD2     C 6015   3.908   2.399  13.572  0.0592  0.0411 -0.4383
  403MPD2    C1 6016   3.939   2.268  13.581  0.3898 -0.2356  0.7342
  403MPD2    C2 6017   4.013   2.223  13.689  0.5214 -0.4243  0.1199
  403MPD2    C3 6018   4.037   2.303  13.799  0.3019 -0.0333 -0.5313
  403MPD2    C4 6019   4.006   2.441  13.788 -0.1644 -0.1027 -0.6632
  403MPD2    C5 6020   3.950   2.482  13.675 -0.0889 -0.0513  0.2859
  403MPD2     H 6021   4.027   2.115  13.685 -1.0402 -0.6120 -0.1138
  403MPD2    H1 6022   4.028   2.512  13.867 -0.2435 -0.5525 -0.2302
  403MPD2    H2 6023   3.846   2.440  13.493  1.2933  0.6946 -1.0610
  403MPD2    H3 6024   3.916   2.585  13.666  2.0952  0.7763  1.6144
  403MPD2     N 6025   4.117   2.248  13.904  0.9855  0.0277 -0.4151
  403MPD2    H5 6026   4.149   2.153  13.890 -2.4523 -1.1620 -0.3550
  403MPD2    N1 6027   3.917   2.169  13.478 -0.5524 -0.1566 -0.4490
  403MPD2    H7 6028   3.935   2.073  13.507 -1.1452 -0.1102  0.0648
  404TMC3    C1 6029   3.826   2.078  13.288 -0.5918  0.2623  0.2444
  404TMC3    C2 6030   3.808   1.963  13.359  0.5666  0.1735 -0.0614
  404TMC3    C3 6031   3.759   1.852  13.290 -0.1667  0.3316 -0.1919
  404TMC3    C4 6032   3.798   2.091  13.154  0.3269  0.1762 -0.2925
  404TMC3    C5 6033   3.751   1.977  13.092  0.4420  0.2485 -0.2933
  404TMC3    C6 6034   3.727   1.858  13.155 -0.5884 -0.0737  0.4332
  404TMC3     C 6035   3.852   2.193  13.365  0.4362  0.1916 -0.4269
  404TMC3     O 6036   3.832   2.300  13.312 -0.3349 -0.1090 -0.9232
  404TMC3     H 6037   3.846   1.950  13.460 -1.4504 -2.0252  0.4176
  404TMC3    H1 6038   3.816   2.187  13.108 -0.0862  0.2683 -0.2539
  404TMC3    H2 6039   3.690   1.769  13.104  2.3833 -0.9605 -0.1965
  404TMC3    C7 6040   3.721   1.996  12.947  0.2905 -0.2626 -0.1505
  404TMC3    C8 6041   3.759   1.721  13.356  0.5241  0.0113 -0.6600
  404TMC3    O1 6042   3.785   2.084  12.894  0.1356  0.0521 -0.1375
  404TMC3    O2 6043   3.760   1.630  13.283 -0.4052 -0.2211 -0.2067
  405MPD2     C 6044   4.429   2.578  15.204  0.4459 -0.1350  0.4257
  405MPD2    C1 6045   4.302   2.538  15.151  0.8069 -0.0498 -0.5488
  405MPD2    C2 6046   4.238   2.620  15.060 -0.2769 -0.1357 -0.5344
  405MPD2    C3 6047   4.297   2.745  15.028  0.0641  0.5951  0.3773
  405MPD2    C4 6048   4.411   2.788  15.090  0.6831 -0.1486 -0.4323
  405MPD2    C5 6049   4.475   2.702  15.179  0.4873  0.0626 -0.0213
  405MPD2     H 6050   4.156   2.585  14.999  0.5880 -1.5690 -0.8788
  405MPD2    H1 6051   4.458   2.885  15.079 -2.1583  1.4659  1.7488
  405MPD2    H2 6052   4.492   2.510  15.259  2.7383  1.2755 -0.4772
  405MPD2    H3 6053   4.562   2.737  15.233 -1.4228  1.8455  1.9327
  405MPD2     N 6054   4.242   2.812  14.913 -0.6442 -0.4259  0.1702
  405MPD2    H5 6055   4.170   2.760  14.865 -3.3897  1.8934  1.7956
  405MPD2    N1 6056   4.267   2.405  15.164  0.2230 -0.1548  0.1322
  405MPD2    H7 6057   4.339   2.345  15.203 -0.9119 -1.5204  0.0852
  406TMC3    C1 6058   4.151   3.078  14.541 -0.4966  0.2511  0.1268
  406TMC3    C2 6059   4.142   2.968  14.462 -0.0527 -0.8565 -0.1528
  406TMC3    C3 6060   4.176   2.847  14.515 -1.5999 -0.6235 -0.1247
  406TMC3    C4 6061   4.187   3.067  14.672  0.2166 -0.0868  0.4119
  406TMC3    C5 6062   4.224   2.947  14.722  0.1380 -0.1627  0.9242
  406TMC3    C6 6063   4.225   2.836  14.649  0.2915  0.0083 -0.6267
  406TMC3     C 6064   4.039   3.168  14.504  0.4585 -0.1861  0.1465
  406TMC3     O 6065   4.037   3.203  14.385 -0.3764  0.7303  0.3050
  406TMC3     H 6066   4.106   2.976  14.360  1.0794  0.5556 -0.4408
  406TMC3    H1 6067   4.200   3.158  14.729  0.3095  1.0753 -1.4802
  406TMC3    H2 6068   4.273   2.746  14.686 -0.4701  0.5441  1.6893
  406TMC3    C7 6069   4.281   2.932  14.856 -0.3631  0.0243  0.4272
  406TMC3    C8 6070   4.115   2.725  14.469  0.3923  0.3713 -0.8560
  406TMC3    O1 6071   4.348   3.027  14.892 -0.0357 -0.2615  0.4446
  406TMC3    O2 6072   4.063   2.721  14.359  0.3150 -0.7614  0.2255
  407MPD2     C 6073   1.855   0.306   9.799  1.0159 -0.1357 -0.0042
  407MPD2    C1 6074   1.920   0.196   9.846  0.0233  0.3488  0.5926
  407MPD2    C2 6075   1.870   0.125   9.950  0.2533  0.1873  0.9098
  407MPD2    C3 6076   1.759   0.174  10.020  0.1719  1.0384 -0.0754
  407MPD2    C4 6077   1.707   0.298   9.985  0.7071  0.9708 -0.0777
  407MPD2    C5 6078   1.749   0.358   9.865  0.0683  0.1348  0.3919
  407MPD2     H 6079   1.917   0.034   9.984  2.5847  0.3732 -1.8187
  407MPD2    H1 6080   1.629   0.352  10.038 -0.0608  0.9886 -1.1978
  407MPD2    H2 6081   1.889   0.357   9.709  0.1260 -0.9078 -0.7830
  407MPD2    H3 6082   1.708   0.456   9.843  1.3669  0.5343 -0.2914
  407MPD2     N 6083   1.698   0.123  10.137 -0.2384  0.7632 -0.4558
  407MPD2    H5 6084   1.619   0.173  10.176 -0.5339 -0.6953  0.8454
  407MPD2    N1 6085   2.030   0.147   9.775 -0.2099 -0.3700 -1.0025
  407MPD2    H7 6086   2.055   0.052   9.801  0.1609  0.2309  0.8052
  408TMC3    C1 6087   2.215   0.138   9.644  0.4689 -0.3602 -0.4450
  408TMC3    C2 6088   2.196   0.006   9.631 -0.0994 -0.6788 -0.1802
  408TMC3    C3 6089   2.300   4.649   9.600 -0.1765  0.9040 -0.7182
  408TMC3    C4 6090   2.336   0.202   9.613  0.1372  0.6029  1.0146
  408TMC3    C5 6091   2.441   0.115   9.585 -0.5821  0.0430 -0.5835
  408TMC3    C6 6092   2.422   4.701   9.568  0.4257  0.1901 -0.4501
  408TMC3     C 6093   2.112   0.218   9.700  0.5468 -0.9020  0.2503
  408TMC3     O 6094   2.115   0.341   9.693  0.0457  0.4433 -0.2458
  408TMC3     H 6095   2.094   4.691   9.628 -0.5982  0.9146 -2.1166
  408TMC3    H1 6096   2.345   0.309   9.622  0.9704  0.7937 -2.0485
  408TMC3    H2 6097   2.516   4.647   9.564 -0.9939 -2.3935  1.5645
  408TMC3    C7 6098   2.576   0.182   9.560  0.1597 -0.0915  0.3116
  408TMC3    C8 6099   2.283   4.509   9.573  0.2686 -0.2245  0.0670
  408TMC3    O1 6100   2.644   0.122   9.476  0.3633 -0.1653  0.1994
  408TMC3    O2 6101   2.193   4.465   9.503  0.6848  0.0433 -0.3959
  409MPD2     C 6102   0.995   0.002  16.887  0.0765 -0.4908  0.3786
  409MPD2    C1 6103   1.098   4.694  16.975 -0.1531  0.6829 -0.3704
  409MPD2    C2 6104   1.217   0.049  16.977  0.2949  0.1378 -0.0203
  409MPD2    C3 6105   1.237   0.150  16.877  0.3077  0.3895 -0.5199
  409MPD2    C4 6106   1.136   0.168  16.784 -0.5359  0.6559  0.2859
  409MPD2    C5 6107   1.020   0.096  16.791 -0.0864  0.1745 -0.3328
  409MPD2     H 6108   1.282   0.035  17.062  0.8330 -1.6373 -0.7042
  409MPD2    H1 6109   1.136   0.245  16.708 -0.6358  1.8412  1.4910
  409MPD2    H2 6110   0.898   4.676  16.903 -0.4156 -0.0914 -1.4717
  409MPD2    H3 6111   0.942   0.115  16.718 -0.8738  2.3273  1.0854
  409MPD2     N 6112   1.344   0.242  16.884 -0.6869 -0.9214 -0.4454
  409MPD2    H5 6113   1.336   0.331  16.837  0.7359 -0.3921  0.3309
  409MPD2    N1 6114   1.092   4.588  17.076  0.1055 -0.1919  0.4980
  409MPD2    H7 6115   1.175   4.566  17.130  1.2941  1.5237 -0.6406
  410TMC3    C1 6116   1.543   0.332  16.939 -0.5408 -0.1308  0.4842
  410TMC3    C2 6117   1.641   0.335  17.033 -0.1882  0.9145  0.6072
  410TMC3    C3 6118   1.735   0.430  17.019  1.1294 -0.2736 -0.6880
  410TMC3    C4 6119   1.535   0.412  16.833 -0.1582 -0.5280  0.3088
  410TMC3    C5 6120   1.628   0.514  16.828  0.3106 -0.0536  0.1831
  410TMC3    C6 6121   1.721   0.527  16.922  0.4958 -0.3693 -0.2092
  410TMC3     C 6122   1.461   0.216  16.945 -0.1525  0.3527  0.8538
  410TMC3     O 6123   1.494   0.114  17.003  0.6041  0.2983 -0.4605
  410TMC3     H 6124   1.640   0.262  17.113 -1.2296  1.0479  0.7155
  410TMC3    H1 6125   1.463   0.397  16.754 -0.0452  0.5980 -0.0020
  410TMC3    H2 6126   1.790   0.611  16.921 -0.4337  0.4071  2.3789
  410TMC3    C7 6127   1.639   0.585  16.704 -0.0007  0.6023 -0.8719
  410TMC3    C8 6128   1.831   0.444  17.121  0.4626  0.0913  0.1181
  410TMC3    O1 6129   1.595   0.525  16.607 -0.4885 -0.5063  0.1985
  410TMC3    O2 6130   1.881   0.554  17.133  0.3281 -0.0912 -0.1483
  411MPD2     C 6131   1.754   0.825  15.071 -0.5818  0.3559 -0.0592
  411MPD2    C1 6132   1.644   0.888  15.013  0.1521 -0.4521 -0.6334
  411MPD2    C2 6133   1.567   0.805  14.934  0.0392 -0.0399 -0.2975
  411MPD2    C3 6134   1.580   0.672  14.922 -0.2853 -0.3276  0.3306
  411MPD2    C4 6135   1.685   0.607  14.983  1.0321 -0.0776 -0.3486
  411MPD2    C5 6136   1.769   0.689  15.056  0.9019 -0.8272 -0.1945
  411MPD2     H 6137   1.478   0.843  14.885  0.6231  0.4495 -0.9848
  411MPD2    H1 6138   1.697   0.499  14.978  1.5595  0.0068 -0.8744
  411MPD2    H2 6139   1.825   0.887  15.123 -0.2025 -1.4725  1.6191
  411MPD2    H3 6140   1.860   0.649  15.099 -0.1046 -0.4121  2.2680
  411MPD2     N 6141   1.485   0.584  14.854 -0.1001  0.0289 -0.7092
  411MPD2    H5 6142   1.527   0.496  14.827 -0.1228 -0.5520  1.1320
  411MPD2    N1 6143   1.637   1.032  15.030 -0.3803  0.3675 -0.5193
  411MPD2    H7 6144   1.710   1.068  15.090 -1.8513  0.2841  1.3249
  412TMC3    C1 6145   1.295   0.544  14.729 -0.2224  0.2804  0.1314
  412TMC3    C2 6146   1.246   0.625  14.633 -0.0505  0.7434  0.2609
  412TMC3    C3 6147   1.227   0.576  14.509  0.1524  0.1262 -0.1161
  412TMC3    C4 6148   1.332   0.412  14.713  0.2537 -0.1529  1.0229
  412TMC3    C5 6149   1.308   0.353  14.590  0.6608  0.4258 -0.0596
  412TMC3    C6 6150   1.251   0.439  14.496 -0.0354  0.0092  0.6698
  412TMC3     C 6151   1.357   0.621  14.830 -0.1680 -0.1410  0.0962
  412TMC3     O 6152   1.290   0.715  14.879  0.0773  0.4504  0.1984
  412TMC3     H 6153   1.236   0.730  14.660  0.5406  1.2158 -1.3873
  412TMC3    H1 6154   1.386   0.362  14.793 -5.1824 -1.3594  3.9632
  412TMC3    H2 6155   1.230   0.405  14.395  0.4061  1.6306  0.0381
  412TMC3    C7 6156   1.416   0.280  14.540  0.3228  0.3129  0.0684
  412TMC3    C8 6157   1.292   0.652  14.402  0.3677  0.4113  0.7467
  412TMC3    O1 6158   1.411   0.160  14.563  0.9719  0.0736 -0.0672
  412TMC3    O2 6159   1.364   0.592  14.325 -0.0019  0.1501 -0.2950
  413MPD2     C 6160   3.542   4.157  15.576 -0.8542  0.3732  0.7070
  413MPD2    C1 6161   3.481   4.058  15.496  0.9061 -0.5646  0.6630
  413MPD2    C2 6162   3.553   3.945  15.446 -0.0387 -0.2665 -0.4202
  413MPD2    C3 6163   3.686   3.938  15.472  0.1349  0.6670  0.5333
  413MPD2    C4 6164   3.747   4.043  15.536  0.6359  0.2207 -0.1127
  413MPD2    C5 6165   3.680   4.144  15.590  0.6912 -0.2191  0.2274
  413MPD2     H 6166   3.515   3.861  15.390  1.1637 -0.4590 -0.9599
  413MPD2    H1 6167   3.853   4.039  15.556  0.5872  0.5061  0.2011
  413MPD2    H2 6168   3.488   4.233  15.632 -0.5873 -0.0200  1.4898
  413MPD2    H3 6169   3.729   4.226  15.641 -0.8880  0.8139  0.0747
  413MPD2     N 6170   3.739   3.819  15.429 -0.1514  0.0601 -0.1771
  413MPD2    H5 6171   3.694   3.758  15.361 -0.7824 -0.7000  0.9233
  413MPD2    N1 6172   3.341   4.082  15.471 -0.2181  0.4986 -0.2608
  413MPD2    H7 6173   3.299   4.159  15.523  1.6782 -0.1992  2.2749
  414TMC3    C1 6174   3.889   3.627  15.431 -0.0143 -0.3509 -1.0734
  414TMC3    C2 6175   3.908   3.533  15.530  0.1374  0.1598 -0.0623
  414TMC3    C3 6176   3.886   3.405  15.506 -0.2833  0.0186 -0.2040
  414TMC3    C4 6177   3.846   3.587  15.306  0.7399  0.1717  0.3082
  414TMC3    C5 6178   3.822   3.447  15.279 -0.6900 -0.5924  0.5630
  414TMC3    C6 6179   3.831   3.361  15.389  0.4353  0.2576  0.0807
  414TMC3     C 6180   3.857   3.762  15.482 -0.2794 -0.8187  0.3405
  414TMC3     O 6181   3.930   3.797  15.571  0.4647 -0.4208 -0.4541
  414TMC3     H 6182   3.927   3.570  15.630 -0.8759 -1.4359  0.7228
  414TMC3    H1 6183   3.825   3.660  15.228 -1.0750 -1.3974 -0.7099
  414TMC3    H2 6184   3.805   3.258  15.369  0.0967  0.0828  1.4240
  414TMC3    C7 6185   3.726   3.425  15.168 -0.6607  0.8071  0.3148
  414TMC3    C8 6186   3.945   3.299  15.588  0.6884  0.2060  0.1459
  414TMC3    O1 6187   3.644   3.512  15.160  0.2630  0.0760  0.1882
  414TMC3    O2 6188   3.918   3.182  15.579  0.2268  0.2474  0.4385
  415TMC3    C1 6189   3.269   1.444  10.265  0.6466  0.6045 -0.0930
  415TMC3    C2 6190   3.277   1.518  10.155 -0.2364  0.2984 -1.2182
  415TMC3    C3 6191   3.241   1.456  10.038 -0.0930 -0.5502  0.3790
  415TMC3    C4 6192   3.234   1.313  10.268 -0.1265  0.8482  0.3866
  415TMC3    C5 6193   3.199   1.244  10.152 -0.5789 -0.1504 -0.2249
  415TMC3    C6 6194   3.206   1.324  10.039 -0.0565 -0.6818  0.4851
  415TMC3     C 6195   3.319   1.495  10.390 -0.4183  0.4207  0.2554
  415TMC3     O 6196   3.278   1.438  10.493  0.7888  0.9514  0.0619
  415TMC3     H 6197   3.280   1.626  10.166  0.7912  0.3064 -1.5618
  415TMC3    H1 6198   3.232   1.261  10.363 -2.4964 -1.8743 -1.1475
  415TMC3    H2 6199   3.159   1.284   9.949  0.6220  2.4484 -1.2335
  415TMC3    C7 6200   3.134   1.115  10.154  0.7435 -0.0835 -0.1309
  415TMC3    C8 6201   3.280   1.516   9.907 -0.5388 -0.2371 -1.0375
  415TMC3    O1 6202   3.037   1.105  10.075  0.0237  0.0163  0.0879
  415TMC3    O2 6203   3.215   1.478   9.808  0.4253 -0.1378 -0.1104
  416MPD2     C 6204   0.969   0.766  12.181  0.5010  0.0079  0.1570
  416MPD2    C1 6205   0.939   0.838  12.065  0.4346 -0.0330 -0.3050
  416MPD2    C2 6206   0.898   0.769  11.953 -0.1446 -0.2389  0.4197
  416MPD2    C3 6207   0.904   0.633  11.948 -0.1913 -0.2702  0.2232
  416MPD2    C4 6208   0.954   0.567  12.052  0.0276  0.1807  0.2712
  416MPD2    C5 6209   0.990   0.630  12.174 -0.1986  0.3778 -0.4225
  416MPD2     H 6210   0.850   0.816  11.868  0.4619  0.6040  0.5447
  416MPD2    H1 6211   0.957   0.459  12.042 -1.6738 -0.0345  1.9517
  416MPD2    H2 6212   0.979   0.820  12.274  1.2127 -1.3502  0.8641
  416MPD2    H3 6213   1.029   0.562  12.249  1.4094  2.9752  1.0717
  416MPD2     N 6214   0.851   0.561  11.836  0.2404 -0.1121 -0.1897
  416MPD2    H5 6215   0.842   0.460  11.838  2.4575 -0.2887  0.4807
  416MPD2    N1 6216   0.925   0.976  12.081  0.5491 -0.2243 -0.2805
  416MPD2    H7 6217   0.927   1.008  12.178 -0.4813  0.2540 -0.4137
  417TMC3    C1 6218   0.892   1.205  12.039  0.0021 -0.6540  0.3302
  417TMC3    C2 6219   0.909   1.227  12.173 -0.8112  0.3405 -0.6423
  417TMC3    C3 6220   0.874   1.353  12.218 -0.4058 -0.9244 -0.4012
  417TMC3    C4 6221   0.848   1.302  11.952  0.0038 -0.7733  0.5387
  417TMC3    C5 6222   0.801   1.418  12.007 -0.3532  0.3200 -0.7504
  417TMC3    C6 6223   0.813   1.444  12.141  0.2093  0.2615  0.1358
  417TMC3     C 6224   0.926   1.074  11.983 -0.0649 -0.0965  0.1163
  417TMC3     O 6225   0.940   1.055  11.866  0.2983  0.1386 -0.3714
  417TMC3     H 6226   0.933   1.152  12.247  0.3149  0.1964 -1.1510
  417TMC3    H1 6227   0.825   1.261  11.854  0.9161  0.4448 -0.1812
  417TMC3    H2 6228   0.768   1.533  12.182  1.5533  2.0018 -2.1619
  417TMC3    C7 6229   0.692   1.474  11.937 -0.8631  0.1277  0.6102
  417TMC3    C8 6230   0.845   1.374  12.362  0.3271  0.1217 -0.1817
  417TMC3    O1 6231   0.674   1.448  11.818 -0.1832  0.6335 -0.0804
  417TMC3    O2 6232   0.734   1.426  12.384 -0.1705  0.6525 -0.3351
  418TMC3    C1 6233   4.677   1.556  17.556 -0.0619  0.0087 -0.1664
  418TMC3    C2 6234   4.560   1.496  17.580 -0.5828  0.0240  0.1631
  418TMC3    C3 6235   4.485   1.549  17.681 -0.1905  0.6879 -0.3449
  418TMC3    C4 6236   0.003   1.661  17.631 -0.7931 -0.1758 -0.5906
  418TMC3    C5 6237   4.645   1.712   0.043 -0.5612 -0.8136 -0.1484
  418TMC3    C6 6238   4.525   1.655   0.067  0.5220  0.1582 -0.2048
  418TMC3     C 6239   0.052   1.491  17.466  0.2879  0.3877 -0.1184
  418TMC3     O 6240   4.719   1.443  17.365 -0.1199  0.6178 -0.1399
  418TMC3     H 6241   4.541   1.404  17.525  1.0254  0.1042 -0.5181
  418TMC3    H1 6242   0.105   1.697  17.624 -1.3364  1.5669  0.4265
  418TMC3    H2 6243   4.461   1.692   0.146  0.0529  0.0461 -0.5274
  418TMC3    C7 6244   0.003   1.773   0.149  0.1614 -1.4693  0.2272
  418TMC3    C8 6245   4.371   1.476   0.043 -1.1120  0.5456 -0.4514
  418TMC3    O1 6246   0.102   1.839   0.121 -0.0180  0.4066 -0.2354
  418TMC3    O2 6247   4.279   1.547   0.083  0.1357  0.2267  0.1098
  419MPD2     C 6248   3.313   0.417  12.773  0.4495 -0.1349  0.6874
  419MPD2    C1 6249   3.190   0.475  12.743  0.3007  0.3986  0.2909
  419MPD2    C2 6250   3.119   0.539  12.843  0.0403 -0.3694 -0.3163
  419MPD2    C3 6251   3.169   0.557  12.972 -0.4598  0.6519 -0.3336
  419MPD2    C4 6252   3.293   0.499  13.000 -0.5695  0.5630 -0.3039
  419MPD2    C5 6253   3.363   0.436  12.902  0.2314  0.2700 -0.3199
  419MPD2     H 6254   3.033   0.601  12.820  1.5817  1.2194 -1.7993
  419MPD2    H1 6255   3.338   0.512  13.098 -1.3294 -0.6401  0.1945
  419MPD2    H2 6256   3.383   0.374  12.702 -2.2948 -1.8509 -0.9799
  419MPD2    H3 6257   3.459   0.389  12.924  0.5170  1.1004  0.2127
  419MPD2     N 6258   3.104   0.644  13.060 -0.5841 -0.0586  0.0746
  419MPD2    H5 6259   3.008   0.659  13.031 -0.7224 -0.4396  0.3309
  419MPD2    N1 6260   3.139   0.488  12.612  0.4553 -0.4445 -0.2863
  419MPD2    H7 6261   3.050   0.534  12.594 -0.0695 -0.8284  1.2694
  420TMC3    C1 6262   3.067   0.797  13.230  0.0616 -0.0484  0.5338
  420TMC3    C2 6263   2.961   0.832  13.149  0.3022  0.0149 -0.2628
  420TMC3    C3 6264   2.877   0.921  13.205 -0.3510 -0.9820  0.4680
  420TMC3    C4 6265   3.077   0.847  13.354  0.1395  0.4906  0.4391
  420TMC3    C5 6266   2.992   0.938  13.410 -0.2171 -0.4301  0.1034
  420TMC3    C6 6267   2.882   0.967  13.332  0.8530  0.4216 -0.4542
  420TMC3     C 6268   3.154   0.701  13.174 -0.1111  0.0818 -1.1660
  420TMC3     O 6269   3.255   0.690  13.237 -0.1435  0.8231  0.0903
  420TMC3     H 6270   2.933   0.806  13.047  1.2675  1.6111 -0.9347
  420TMC3    H1 6271   3.167   0.820  13.407 -0.7932 -1.9753  0.7433
  420TMC3    H2 6272   2.804   1.019  13.385  1.0169  0.3263 -0.1143
  420TMC3    C7 6273   2.991   0.929  13.550  0.5671  0.1086 -0.0213
  420TMC3    C8 6274   2.764   0.946  13.116  0.4815  0.1359 -0.5585
  420TMC3    O1 6275   3.076   0.878  13.615 -0.1027 -0.3815  0.5580
  420TMC3    O2 6276   2.793   0.985  13.000 -0.1267 -0.2733  0.1779
  421TMC3    C1 6277   4.238   2.231  14.112 -0.2869 -0.6639  0.3373
  421TMC3    C2 6278   4.238   2.278  14.241  0.1006  0.3181  0.1868
  421TMC3    C3 6279   4.270   2.186  14.337  0.8942  0.4555  0.1831
  421TMC3    C4 6280   4.294   2.106  14.078  0.0111  0.1797  0.1011
  421TMC3    C5 6281   4.342   2.032  14.180  1.1019  0.8428 -0.0400
  421TMC3    C6 6282   4.323   2.064  14.310 -0.7850  0.3966 -0.4136
  421TMC3     C 6283   4.156   2.309  14.020  0.3444 -0.5867  0.7486
  421TMC3     O 6284   4.119   2.422  14.055 -0.2359 -0.3051 -0.2018
  421TMC3     H 6285   4.200   2.376  14.266 -1.5652 -0.6966  1.6771
  421TMC3    H1 6286   4.320   2.078  13.976 -1.3003 -2.4050  0.4748
  421TMC3    H2 6287   4.380   2.018  14.390  0.2050  0.9911 -0.7817
  421TMC3    C7 6288   4.447   1.951  14.145 -0.0728  0.1295  0.3293
  421TMC3    C8 6289   4.286   2.238  14.473  0.1007 -0.1517  0.4957
  421TMC3    O1 6290   4.528   1.988  14.060 -0.1785  0.7255  0.1569
  421TMC3    O2 6291   4.263   2.155  14.559 -0.4183 -0.1064  0.3026
  422TMC3    C1 6292   2.040   3.803  12.838 -0.6670  0.4610  0.1049
  422TMC3    C2 6293   2.015   3.890  12.936  0.4209 -0.0072 -0.0180
  422TMC3    C3 6294   1.978   3.840  13.060 -0.3022 -0.6634  0.0452
  422TMC3    C4 6295   2.015   3.669  12.853 -0.4932 -0.8022  0.3406
  422TMC3    C5 6296   1.950   3.630  12.971 -0.3977 -0.2206  0.7836
  422TMC3    C6 6297   1.923   3.713  13.071 -0.6004  0.4765  0.5953
  422TMC3     C 6298   2.117   3.859  12.730 -0.1966  0.2892 -0.7722
  422TMC3     O 6299   2.123   3.982  12.715  0.2276 -0.0681 -0.2260
  422TMC3     H 6300   2.070   3.983  12.937 -2.3845  1.6561  0.3815
  422TMC3    H1 6301   2.010   3.609  12.762 -0.0916  0.1431 -0.3059
  422TMC3    H2 6302   1.888   3.671  13.165  1.8815  0.0438  1.3305
  422TMC3    C7 6303   1.879   3.512  12.963 -0.0119  0.1653 -0.3372
  422TMC3    C8 6304   1.989   3.925  13.174 -0.2214  0.3212 -0.0209
  422TMC3    O1 6305   1.914   3.438  12.872 -0.0616  0.4268 -0.1249
  422TMC3    O2 6306   2.047   4.031  13.157 -0.3658 -0.8303 -0.3957
  423MPD2     C 6307   3.344   4.584   0.799  0.0280  0.3172  0.8162
  423MPD2    C1 6308   3.383   4.452   0.822 -0.0164  0.1214 -0.2320
  423MPD2    C2 6309   3.394   4.366   0.713 -1.2965  0.1054 -0.1405
  423MPD2    C3 6310   3.353   4.410   0.584 -0.3639 -0.2584 -0.0274
  423MPD2    C4 6311   3.313   4.545   0.566  0.0359  0.3472  0.0023
  423MPD2    C5 6312   3.308   4.630   0.673 -0.2564 -0.5004  0.3461
  423MPD2     H 6313   3.433   4.266   0.729 -1.4893  0.0068 -0.2945
  423MPD2    H1 6314   3.297   4.582   0.465  1.5675 -0.9553 -0.7172
  423MPD2    H2 6315   3.345   4.658   0.878  1.2728  1.2880 -0.1182
  423MPD2    H3 6316   3.268   0.009   0.659 -0.1079 -0.8110 -2.3198
  423MPD2     N 6317   3.354   4.319   0.475 -0.0041  0.4164  0.0234
  423MPD2    H5 6318   3.334   4.356   0.383 -1.3767  0.0475  0.1812
  423MPD2    N1 6319   3.423   4.394   0.950 -0.6044 -0.4530  0.3071
  423MPD2    H7 6320   3.437   4.294   0.959 -1.4437 -0.5672  0.3445
  424TMC3    C1 6321   3.483   4.387   1.164 -0.1404 -0.5273  0.1391
  424TMC3    C2 6322   3.564   4.273   1.139 -0.4330 -0.8656 -0.2340
  424TMC3    C3 6323   3.612   4.204   1.240  0.3884  0.0661  0.0989
  424TMC3    C4 6324   3.462   4.430   1.292  0.8551 -0.2293 -0.0098
  424TMC3    C5 6325   3.509   4.348   1.394 -0.8645 -0.3230 -0.2493
  424TMC3    C6 6326   3.594   4.242   1.369  0.7860 -0.0845 -0.2942
  424TMC3     C 6327   3.424   4.465   1.061  0.3862 -0.7899  0.1700
  424TMC3     O 6328   3.405   4.583   1.082  0.2644  0.5090  0.3969
  424TMC3     H 6329   3.579   4.228   1.042 -1.5468 -0.0293 -0.7915
  424TMC3    H1 6330   3.398   4.515   1.314  0.4036 -0.1206 -1.7568
  424TMC3    H2 6331   3.659   4.201   1.446  0.4368 -0.1714 -0.0440
  424TMC3    C7 6332   3.462   4.384   1.530 -0.3385  0.5416  0.3451
  424TMC3    C8 6333   3.685   4.075   1.215 -0.1756 -0.4276 -0.2495
  424TMC3    O1 6334   3.409   4.492   1.544 -0.5035 -0.0531  0.6652
  424TMC3    O2 6335   3.691   3.997   1.309 -0.0508 -0.8233  0.2521
  425MPD2     C 6336   2.256   3.668  17.583  0.2276  0.4899 -0.9001
  425MPD2    C1 6337   2.187   3.553  17.591  0.8525  0.2282  0.5180
  425MPD2    C2 6338   2.052   3.556  17.630 -0.2395 -0.1794  1.2610
  425MPD2    C3 6339   1.995   3.671  17.666 -0.4146 -0.8237  0.1649
  425MPD2    C4 6340   2.066   3.792  17.668 -0.0503 -0.1566  0.2018
  425MPD2    C5 6341   2.198   3.787  17.625 -0.9671  0.0734 -0.4569
  425MPD2     H 6342   1.988   3.469  17.631 -0.7723  0.2246  4.3311
  425MPD2    H1 6343   2.029   3.880   0.034 -0.9415 -0.6072  0.3378
  425MPD2    H2 6344   2.358   3.661  17.548  0.8478 -0.3051  1.0859
  425MPD2    H3 6345   2.251   3.882  17.626  1.1500 -1.0859 -1.6841
  425MPD2     N 6346   1.857   3.666   0.022  0.0248  0.0591 -0.0717
  425MPD2    H5 6347   1.808   3.583  17.674 -0.3327  0.7510 -1.2993
  425MPD2    N1 6348   2.248   3.430  17.546 -0.3857  0.5596 -0.1653
  425MPD2    H7 6349   2.346   3.432  17.518 -0.1446  0.3616  0.6794
  426TMC3    C1 6350   2.276   3.200  17.530 -0.0875 -0.1731  0.3342
  426TMC3    C2 6351   2.249   3.098  17.445  0.2593  0.4500  0.1658
  426TMC3    C3 6352   2.342   2.991  17.431  0.6234  0.2670 -0.7689
  426TMC3    C4 6353   2.378   3.191  17.622 -0.7120 -0.9713 -0.4350
  426TMC3    C5 6354   2.458   3.085  17.608  0.5971 -0.3515  0.2726
  426TMC3    C6 6355   2.451   2.988  17.512 -0.7903 -1.2737 -0.8596
  426TMC3     C 6356   2.181   3.310  17.536  0.2959  0.0879  0.0154
  426TMC3     O 6357   2.061   3.284  17.539 -0.2234  0.3913  0.5436
  426TMC3     H 6358   2.156   3.113  17.391  0.2170 -0.9374 -0.1524
  426TMC3    H1 6359   2.412   3.275  17.680 -1.2806 -0.9809 -0.0938
  426TMC3    H2 6360   2.525   2.909  17.518  1.2712  0.6216 -1.2916
  426TMC3    C7 6361   2.542   3.045   0.031 -0.6968  0.5737 -0.0213
  426TMC3    C8 6362   2.338   2.902  17.319  0.0039 -0.0495  0.1734
  426TMC3    O1 6363   2.648   2.990   0.014 -0.4430 -0.1380  0.4866
  426TMC3    O2 6364   2.446   2.883  17.253 -0.1665  0.0467 -0.1281
  427MPD2     C 6365   0.862   0.943  15.074  0.1606 -0.1597 -0.3743
  427MPD2    C1 6366   0.830   0.914  15.204  0.1499 -0.5329  0.4523
  427MPD2    C2 6367   0.696   0.941  15.243  0.5576 -0.1035 -0.3652
  427MPD2    C3 6368   0.603   0.995  15.154  0.1531  0.0475  0.9027
  427MPD2    C4 6369   0.645   1.026  15.022 -0.2694 -0.2070 -0.3903
  427MPD2    C5 6370   0.774   0.997  14.987 -0.6662  0.0558  0.3078
  427MPD2     H 6371   0.667   0.925  15.347  0.1426  0.5921 -0.3748
  427MPD2    H1 6372   0.573   1.064  14.950  0.3295 -0.5287 -1.1586
  427MPD2    H2 6373   0.965   0.926  15.045  0.6174  2.7724 -0.3728
  427MPD2    H3 6374   0.810   1.024  14.889  2.4918 -0.2585  1.3829
  427MPD2     N 6375   0.472   1.011  15.189  0.3331 -0.8808 -0.3168
  427MPD2    H5 6376   0.400   1.008  15.117  0.9722 -2.0642 -0.8940
  427MPD2    N1 6377   0.928   0.855  15.288  0.9877 -0.2280  0.7614
  427MPD2    H7 6378   1.023   0.845  15.256 -0.0031 -1.3457 -1.7906
  428TMC3    C1 6379   1.011   0.765  15.491  0.3427 -0.1254 -0.5812
  428TMC3    C2 6380   0.979   0.669  15.584  0.6293  0.8990 -0.3487
  428TMC3    C3 6381   1.074   0.580  15.614 -0.0463  0.5904 -0.5240
  428TMC3    C4 6382   1.141   0.796  15.461 -0.7972  0.0415 -0.3704
  428TMC3    C5 6383   1.234   0.702  15.489 -0.7549 -0.0206  0.6678
  428TMC3    C6 6384   1.201   0.587  15.558  0.2415 -0.3797  0.5103
  428TMC3     C 6385   0.897   0.819  15.417  0.4005 -0.5605 -0.4213
  428TMC3     O 6386   0.785   0.780  15.455 -0.7009  0.3333  0.1343
  428TMC3     H 6387   0.876   0.653  15.611  1.0222 -0.3454  0.4345
  428TMC3    H1 6388   1.165   0.898  15.432  0.0376  0.4987  1.9154
  428TMC3    H2 6389   1.272   0.507  15.576  2.0455  0.2432 -3.9169
  428TMC3    C7 6390   1.358   0.761  15.536 -0.0421  0.0712 -0.5511
  428TMC3    C8 6391   1.043   0.454  15.680 -0.0342 -0.1163  0.6891
  428TMC3    O1 6392   1.408   0.706  15.633 -0.1572 -0.1165  0.7213
  428TMC3    O2 6393   1.128   0.363  15.680  0.1774 -0.2020 -0.4166
  429MPD2     C 6394   1.217   0.615   0.485  0.0869  0.1553  0.0298
  429MPD2    C1 6395   1.308   0.544   0.399 -0.0185 -0.4970 -0.4891
  429MPD2    C2 6396   1.409   0.620   0.339  0.6187  0.2922  0.0331
  429MPD2    C3 6397   1.415   0.759   0.368 -0.1292 -0.0091  0.7499
  429MPD2    C4 6398   1.322   0.828   0.440 -0.4418 -0.4410  0.0293
  429MPD2    C5 6399   1.223   0.753   0.500  0.6498  0.3582 -0.2974
  429MPD2     H 6400   1.485   0.574   0.276  2.0761  1.7381  0.7417
  429MPD2    H1 6401   1.316   0.935   0.458  0.4493 -0.0940 -1.6893
  429MPD2    H2 6402   1.138   0.568   0.541  1.2156  1.4650  2.7023
  429MPD2    H3 6403   1.151   0.806   0.560  0.3786 -0.5962  0.2021
  429MPD2     N 6404   1.522   0.842   0.318 -0.4898  0.2278  0.4932
  429MPD2    H5 6405   1.523   0.940   0.344  1.0864  0.3998 -0.2017
  429MPD2    N1 6406   1.330   0.405   0.408 -0.0934  0.1756  0.0459
  429MPD2    H7 6407   1.408   0.365   0.357 -2.2743 -2.7390 -0.9838
  430TMC3    C1 6408   1.698   0.909   0.168 -0.6399  0.3807  0.8766
  430TMC3    C2 6409   1.658   1.039   0.181 -0.4750  0.4987  0.3722
  430TMC3    C3 6410   1.742   1.134   0.117 -0.2271  0.3582  0.5836
  430TMC3    C4 6411   1.813   0.871   0.101  0.0931 -0.0615  0.0153
  430TMC3    C5 6412   1.895   0.968   0.046  0.1127  0.4592  0.6769
  430TMC3    C6 6413   1.864   1.100   0.060  0.0894 -1.0195 -0.0080
  430TMC3     C 6414   1.620   0.801   0.224  0.3890 -0.2990  0.0780
  430TMC3     O 6415   1.659   0.690   0.191  0.2352 -0.1432 -0.2002
  430TMC3     H 6416   1.563   1.067   0.224 -0.1805  1.3587  0.4541
  430TMC3    H1 6417   1.839   0.769   0.076 -0.1221  0.0721 -0.7649
  430TMC3    H2 6418   1.914   1.178   0.003 -0.6398  0.4267  1.3439
  430TMC3    C7 6419   1.947   0.944  17.607  0.1383  0.4275 -0.7861
  430TMC3    C8 6420   1.683   1.222   0.023 -0.4549  0.3868  0.0215
  430TMC3    O1 6421   2.036   0.861  17.589 -0.1926 -0.8268 -0.3488
  430TMC3    O2 6422   1.642   1.165  17.607  0.2889  0.0708 -0.6785
  431MPD2     C 6423   2.763   1.170  12.606 -0.5385 -0.0260 -0.0082
  431MPD2    C1 6424   2.848   1.208  12.510  0.4933  0.2029 -0.3469
  431MPD2    C2 6425   2.904   1.105  12.435  0.1513 -0.4111  0.4945
  431MPD2    C3 6426   2.883   0.969  12.469 -0.1576 -0.0518  0.3158
  431MPD2    C4 6427   2.790   0.944  12.566  0.3741  0.0945 -0.8676
  431MPD2    C5 6428   2.729   1.041  12.636 -0.2139  0.1340  0.6952
  431MPD2     H 6429   2.968   1.128  12.351  1.1357  0.8629  1.5899
  431MPD2    H1 6430   2.766   0.842  12.594  0.6295 -0.3498 -2.2731
  431MPD2    H2 6431   2.699   1.235  12.665  3.5822  3.1540  0.9387
  431MPD2    H3 6432   2.658   1.017  12.715 -0.5579 -1.5581 -0.1413
  431MPD2     N 6433   2.945   0.856  12.415  0.0447 -0.4656  0.0561
  431MPD2    H5 6434   2.919   0.762  12.443 -0.6567  0.1416  1.4378
  431MPD2    N1 6435   2.861   1.344  12.472  0.1377  0.5373  0.4941
  431MPD2    H7 6436   2.917   1.367  12.390 -2.5934  0.7703 -1.2833
  432TMC3    C1 6437   3.098   0.728  12.290  0.3772  0.1658 -0.4713
  432TMC3    C2 6438   3.158   0.696  12.167  0.3573  0.2845 -1.4707
  432TMC3    C3 6439   3.200   0.563  12.161 -0.0823  0.1695  0.2567
  432TMC3    C4 6440   3.108   0.648  12.400 -0.0300 -0.1470 -0.0747
  432TMC3    C5 6441   3.134   0.515  12.384 -0.2151  0.6076 -0.3309
  432TMC3    C6 6442   3.188   0.475  12.263 -0.1104  0.3799  1.1799
  432TMC3     C 6443   3.053   0.859  12.324  0.1828  0.4737 -0.2426
  432TMC3     O 6444   3.109   0.952  12.268  0.5278 -0.0848  0.1294
  432TMC3     H 6445   3.166   0.761  12.081 -0.6462  1.6005 -0.5785
  432TMC3    H1 6446   3.084   0.694  12.495  0.7230 -0.2915  0.1850
  432TMC3    H2 6447   3.212   0.370  12.253 -1.3216  0.3715 -1.8601
  432TMC3    C7 6448   3.202   0.456  12.492  0.4666  0.8220 -0.5681
  432TMC3    C8 6449   3.315   0.527  12.086  0.5420 -0.1401  0.4304
  432TMC3    O1 6450   3.298   0.382  12.477  0.5022  0.7262 -0.1825
  432TMC3    O2 6451   3.351   0.410  12.081 -0.1142 -0.1870  0.4909
  433MPD2     C 6452   1.948   0.257  11.369 -0.4138  0.0504 -0.2615
  433MPD2    C1 6453   1.840   0.209  11.435 -0.5985  0.3848  0.2787
  433MPD2    C2 6454   1.843   0.208  11.574  0.1842 -0.1132 -0.4753
  433MPD2    C3 6455   1.955   0.250  11.651 -0.0741 -0.4261  0.2668
  433MPD2    C4 6456   2.058   0.301  11.585 -0.1066 -0.6088 -0.1964
  433MPD2    C5 6457   2.055   0.304  11.443 -0.3066  0.3183 -0.3318
  433MPD2     H 6458   1.762   0.165  11.632 -0.0697 -0.0827 -0.8061
  433MPD2    H1 6459   2.142   0.343  11.640 -0.2958 -2.4672  1.5033
  433MPD2    H2 6460   1.954   0.247  11.261  2.2513 -0.9670 -0.0060
  433MPD2    H3 6461   2.143   0.338  11.390 -0.3571 -0.0235 -0.6392
  433MPD2     N 6462   1.945   0.229  11.791  0.5032 -0.5368  0.2068
  433MPD2    H5 6463   1.862   0.189  11.833 -1.1381  1.0955 -1.4989
  433MPD2    N1 6464   1.745   0.132  11.358 -0.2293 -0.6243 -0.6646
  433MPD2    H7 6465   1.750   0.130  11.257 -0.9637  0.9720 -0.7279
  434TMC3    C1 6466   1.593   4.663  11.312 -0.7695 -0.2905  0.4381
  434TMC3    C2 6467   1.566   4.541  11.364  0.3988  1.0829 -0.9664
  434TMC3    C3 6468   1.535   4.444  11.276  0.4209 -0.4550  0.3881
  434TMC3    C4 6469   1.585   4.693  11.178  0.0850  0.4405  0.2433
  434TMC3    C5 6470   1.549   4.595  11.091 -0.6949  0.4397  0.2587
  434TMC3    C6 6471   1.532   4.465  11.142  0.5784  0.3207 -0.0695
  434TMC3     C 6472   1.662   0.037  11.408 -0.6898  0.2592  0.2568
  434TMC3     O 6473   1.656   0.009  11.525  0.2685 -0.2196 -0.1964
  434TMC3     H 6474   1.570   4.516  11.469  0.5539 -1.5995 -1.6055
  434TMC3    H1 6475   1.612   0.066  11.130 -0.4195  0.9546  0.9584
  434TMC3    H2 6476   1.492   4.386  11.079  1.4802 -1.0004  1.0180
  434TMC3    C7 6477   1.509   4.633  10.961  0.6103 -0.7452 -0.4620
  434TMC3    C8 6478   1.604   4.328  11.328  0.3215 -0.2363 -0.1298
  434TMC3    O1 6479   1.482   0.028  10.930  0.1227 -0.0834  0.3158
  434TMC3    O2 6480   1.559   4.263  11.420  0.6087  0.3667  0.1360
  435MPD2     C 6481   3.921   4.396  15.710  0.3727 -0.1976  0.4446
  435MPD2    C1 6482   3.891   4.367  15.843 -0.3463  0.3669 -0.1008
  435MPD2    C2 6483   3.980   4.284  15.907  0.7001 -0.5051  0.5265
  435MPD2    C3 6484   4.098   4.236  15.858 -0.3687  0.2431 -0.2197
  435MPD2    C4 6485   4.136   4.265  15.725 -0.2576  0.6300  0.1318
  435MPD2    C5 6486   4.046   4.351  15.660  0.6401 -0.0929  0.4400
  435MPD2     H 6487   3.958   4.269  16.012 -0.6948  1.3130  0.5028
  435MPD2    H1 6488   4.229   4.228  15.685 -0.9178 -1.4688  0.5175
  435MPD2    H2 6489   3.858   4.445  15.637  1.6343  0.6565 -0.0669
  435MPD2    H3 6490   4.057   4.378  15.556 -0.2979  0.3099  0.4440
  435MPD2     N 6491   4.176   4.155  15.942  0.3496  0.1209 -0.4342
  435MPD2    H5 6492   4.152   4.156  16.040 -2.9156  1.2734 -1.2594
  435MPD2    N1 6493   3.766   4.400  15.899 -0.2964 -0.4632 -0.4540
  435MPD2    H7 6494   3.763   4.366  15.994 -2.8299  0.5413 -0.1769
  436TMC3    C1 6495   3.320   4.479  15.975  0.1289 -0.1102  0.1310
  436TMC3    C2 6496   3.420   4.472  15.887 -0.0462  0.4119  0.2035
  436TMC3    C3 6497   3.554   4.475  15.928 -0.5897  0.4123 -0.2044
  436TMC3    C4 6498   3.346   4.492  16.108  0.3770  0.0704  0.1854
  436TMC3    C5 6499   3.475   4.504  16.149  0.0093  0.3174 -0.1996
  436TMC3    C6 6500   3.578   4.505  16.062 -0.3187  0.5027  0.5476
  436TMC3     C 6501   3.191   4.523  15.932 -0.2837  0.1220 -0.6619
  436TMC3     O 6502   3.145   4.497  15.821 -0.5150 -0.1380  0.1579
  436TMC3     H 6503   3.398   4.453  15.782  1.2815  1.0894 -0.2102
  436TMC3    H1 6504   3.268   4.494  16.183 -0.2983 -0.8921 -0.4828
  436TMC3    H2 6505   3.674   4.507  16.112  0.5147 -2.1573 -0.9457
  436TMC3    C7 6506   3.498   4.584  16.271  0.7095 -0.6558  0.0788
  436TMC3    C8 6507   3.657   4.438  15.831 -0.5108  0.2755 -0.8857
  436TMC3    O1 6508   3.583   4.670  16.257  0.5770 -0.4761  0.0661
  436TMC3    O2 6509   3.649   4.466  15.714 -0.7078  0.1453  0.5804
  437TMC3    C1 6510   2.539   2.169  11.965  0.3203 -0.0009 -0.3876
  437TMC3    C2 6511   2.505   2.290  12.006 -0.4319  0.2153 -0.8841
  437TMC3    C3 6512   2.609   2.387  12.008 -0.2787  0.6037  0.5608
  437TMC3    C4 6513   2.668   2.139  11.936  0.8819 -0.2594  0.8721
  437TMC3    C5 6514   2.772   2.229  11.941  0.2195  0.1373  0.2783
  437TMC3    C6 6515   2.741   2.356  11.980 -0.7163  0.4831  0.1035
  437TMC3     C 6516   2.445   2.064  11.945 -0.3662  0.0703  0.0782
  437TMC3     O 6517   2.462   1.989  11.851 -0.3844  0.0036  0.1983
  437TMC3     H 6518   2.403   2.326  12.016 -0.6216 -1.0462  1.4934
  437TMC3    H1 6519   2.693   2.040  11.899 -0.8844  0.3808 -2.0188
  437TMC3    H2 6520   2.819   2.429  12.001 -0.5378 -0.3739  2.2995
  437TMC3    C7 6521   2.903   2.173  11.956 -0.9339  0.4175  0.2101
  437TMC3    C8 6522   2.569   2.522  11.995 -0.0881 -0.1950 -0.1555
  437TMC3    O1 6523   2.935   2.075  11.889 -0.1770 -0.1308 -0.5397
  437TMC3    O2 6524   2.461   2.550  12.051 -0.2892 -0.2536  0.6267
  438MPD2     C 6525   4.561   2.177  16.814  0.5026  0.2866 -0.1325
  438MPD2    C1 6526   4.608   2.094  16.909  0.4346 -0.4159  0.5205
  438MPD2    C2 6527   4.544   2.072  17.025  0.6410 -0.1990 -0.5419
  438MPD2    C3 6528   4.421   2.125  17.042 -0.0055  0.0317 -0.5024
  438MPD2    C4 6529   4.374   2.198  16.945  0.1726  0.1782  0.4989
  438MPD2    C5 6530   4.440   2.228  16.829  1.0364  0.6625  0.8477
  438MPD2     H 6531   4.587   2.002  17.096 -0.1080 -0.9931 -0.8765
  438MPD2    H1 6532   4.273   2.235  16.957  0.7709  3.0545 -3.3104
  438MPD2    H2 6533   4.619   2.204  16.727  0.1259 -2.5147 -1.2477
  438MPD2    H3 6534   4.402   2.301  16.759  0.8242 -1.5324 -1.3150
  438MPD2     N 6535   4.349   2.103  17.161  0.4506  1.0640 -0.4479
  438MPD2    H5 6536   4.248   2.114  17.165  0.1670 -1.6258  0.0441
  438MPD2    N1 6537   0.001   2.017  16.884 -0.1318 -0.3974  0.1020
  438MPD2    H7 6538   0.042   1.966  16.962  1.5875  1.3714  0.3555
  439TMC3    C1 6539   0.215   1.964  16.799  0.1088  0.0662 -0.0152
  439TMC3    C2 6540   0.285   1.915  16.697 -0.1569  0.0502 -0.0270
  439TMC3    C3 6541   0.417   1.884  16.719  0.5540  0.0716  0.0056
  439TMC3    C4 6542   0.260   1.981  16.928  0.1046 -0.9426 -0.6821
  439TMC3    C5 6543   0.387   1.942  16.947 -0.0197  0.8074 -0.1095
  439TMC3    C6 6544   0.464   1.896  16.842  0.1950  0.3376 -0.1590
  439TMC3     C 6545   0.077   2.011  16.773 -0.7402  0.1026 -0.5065
  439TMC3     O 6546   0.043   2.031  16.656 -0.3118 -0.4459 -0.2077
  439TMC3     H 6547   0.239   1.897  16.601  1.7318  1.3858 -1.1845
  439TMC3    H1 6548   0.195   2.032  16.999  0.6062 -1.3111  0.0425
  439TMC3    H2 6549   0.566   1.869  16.866 -0.2031  0.0861  1.2771
  439TMC3    C7 6550   0.420   1.893  17.080  0.1153  0.7908  0.7548
  439TMC3    C8 6551   0.484   1.791  16.626 -0.4312 -0.0403 -0.3616
  439TMC3    O1 6552   0.528   1.841  17.096 -0.5400  0.0386  0.1467
  439TMC3    O2 6553   0.562   1.711  16.680 -0.2930  0.0893  0.4955
  440MPD2     C 6554   3.571   2.762  15.185  0.0023  0.2262  0.6205
  440MPD2    C1 6555   3.639   2.854  15.266  0.5114 -1.2051  0.1100
  440MPD2    C2 6556   3.775   2.833  15.298  0.1753  0.5369 -0.1565
  440MPD2    C3 6557   3.830   2.710  15.260 -0.7514 -0.3854  0.1369
  440MPD2    C4 6558   3.757   2.616  15.190  0.0139 -0.7025  0.2087
  440MPD2    C5 6559   3.628   2.644  15.153 -0.0799 -0.6738 -0.5644
  440MPD2     H 6560   3.840   2.909  15.338  1.0329 -0.2415 -0.0684
  440MPD2    H1 6561   3.804   2.526  15.152 -1.8720 -0.9921 -1.4113
  440MPD2    H2 6562   3.472   2.774  15.143  1.3370  1.0964 -2.3464
  440MPD2    H3 6563   3.574   2.579  15.084  0.9487 -0.7341 -1.3100
  440MPD2     N 6564   3.961   2.679  15.294 -0.1123  0.5610 -0.2755
  440MPD2    H5 6565   3.994   2.592  15.254 -0.4818 -0.1422  0.9787
  440MPD2    N1 6566   3.576   2.976  15.301  0.5341  0.0137 -0.0499
  440MPD2    H7 6567   3.631   3.041  15.356  0.1688 -2.1099  2.8470
  441TMC3    C1 6568   4.178   2.693  15.387 -0.1035  0.1040 -0.6424
  441TMC3    C2 6569   4.275   2.782  15.435  0.3563 -0.2008 -0.0934
  441TMC3    C3 6570   4.351   2.745  15.542 -0.8393 -0.1130 -0.3998
  441TMC3    C4 6571   4.184   2.569  15.438 -0.3410 -0.0719 -0.0980
  441TMC3    C5 6572   4.262   2.535  15.546  0.1515 -0.1094 -0.0541
  441TMC3    C6 6573   4.352   2.624  15.601 -0.2992  0.1725  0.4162
  441TMC3     C 6574   4.050   2.757  15.358 -0.0351  0.5850 -0.4351
  441TMC3     O 6575   4.043   2.876  15.392 -0.9159  0.3365  0.4553
  441TMC3     H 6576   4.280   2.882  15.392  1.2547 -0.2948 -0.2013
  441TMC3    H1 6577   4.116   2.499  15.391 -1.1622 -0.0992  1.1190
  441TMC3    H2 6578   4.411   2.609  15.690 -0.9104  0.3625  0.8561
  441TMC3    C7 6579   4.247   2.397  15.592 -0.3415 -0.5316  0.2059
  441TMC3    C8 6580   4.397   2.847  15.628  0.3910  0.2335  0.0255
  441TMC3    O1 6581   4.176   2.319  15.528  0.0377 -0.1136 -0.2526
  441TMC3    O2 6582   4.515   2.854  15.661  0.9275 -0.1887  0.4520
  442MPD2     C 6583   2.006   3.333  16.853  0.1118 -0.5692  0.2723
  442MPD2    C1 6584   1.905   3.249  16.883 -0.3629  0.0096 -0.5038
  442MPD2    C2 6585   1.889   3.125  16.826 -0.3807  0.0718 -0.5218
  442MPD2    C3 6586   1.982   3.086  16.730  0.2701  0.6367 -1.1864
  442MPD2    C4 6587   2.090   3.166  16.699 -0.1482 -0.1794 -0.3842
  442MPD2    C5 6588   2.101   3.286  16.767 -0.3913 -0.3514 -0.5593
  442MPD2     H 6589   1.804   3.062  16.849  0.5240 -1.2835 -0.8474
  442MPD2    H1 6590   2.172   3.127  16.640 -0.0585  0.0089 -0.3828
  442MPD2    H2 6591   2.022   3.427  16.905  0.1055 -1.1738  1.3861
  442MPD2    H3 6592   2.190   3.346  16.750  1.4079 -2.0635  2.9054
  442MPD2     N 6593   1.958   2.968  16.652 -0.1034 -0.6274 -0.3825
  442MPD2    H5 6594   2.008   2.970  16.563  1.9691  1.5897  0.8359
  442MPD2    N1 6595   1.806   3.274  16.978  0.0648  0.8746 -0.6037
  442MPD2    H7 6596   1.760   3.196  17.024  1.0649  0.1588 -0.8263
  443TMC3    C1 6597   1.676   3.387  17.127 -0.4842  0.3630  0.2534
  443TMC3    C2 6598   1.598   3.501  17.136 -0.9564 -0.0474  0.8166
  443TMC3    C3 6599   1.469   3.495  17.192 -0.2754  0.4419 -0.5124
  443TMC3    C4 6600   1.627   3.266  17.164 -0.7665  0.2427 -0.4692
  443TMC3    C5 6601   1.499   3.261  17.207 -1.0701 -0.1377 -0.6304
  443TMC3    C6 6602   1.419   3.370  17.229 -0.6985  0.3522 -0.4488
  443TMC3     C 6603   1.779   3.398  17.030  0.3787  0.8911  0.0950
  443TMC3     O 6604   1.829   3.511  17.007  0.6073 -0.4282  0.1029
  443TMC3     H 6605   1.625   3.596  17.091 -3.5190  1.4600  2.4868
  443TMC3    H1 6606   1.695   3.182  17.170 -1.8051 -0.4500  1.9573
  443TMC3    H2 6607   1.318   3.361  17.267 -0.1129 -0.2580  0.9639
  443TMC3    C7 6608   1.469   3.132  17.268  0.1496 -0.2537  1.1017
  443TMC3    C8 6609   1.375   3.601  17.204  0.0924 -0.3088  0.4047
  443TMC3    O1 6610   1.530   3.035  17.225  0.3418  0.1267 -0.0398
  443TMC3    O2 6611   1.282   3.578  17.282 -0.6976  0.0718  0.5221
  444MPD2     C 6612   2.054   2.565  17.431  0.3031  0.0507 -0.1007
  444MPD2    C1 6613   1.950   2.483  17.399  0.8456  0.9079 -0.3442
  444MPD2    C2 6614   1.980   2.371  17.321  0.1887  0.4292  0.4020
  444MPD2    C3 6615   2.110   2.347  17.267  0.4248 -0.5902 -0.1011
  444MPD2    C4 6616   2.217   2.423  17.315  0.6873  0.0150 -0.3104
  444MPD2    C5 6617   2.185   2.528  17.396 -0.7076  0.2832  0.0922
  444MPD2     H 6618   1.900   2.302  17.296  0.1331  0.0758  1.5417
  444MPD2    H1 6619   2.316   2.416  17.271  0.7541  0.8290 -0.2891
  444MPD2    H2 6620   2.048   2.651  17.498 -0.5203  1.2319 -1.7020
  444MPD2    H3 6621   2.269   2.590  17.424  1.1296 -2.3434  0.3205
  444MPD2     N 6622   2.128   2.229  17.189  0.7118  0.5238  0.1734
  444MPD2    H5 6623   2.044   2.174  17.182  0.7203  0.3350  1.7066
  444MPD2    N1 6624   1.816   2.493  17.454 -0.0110  0.0635 -0.2293
  444MPD2    H7 6625   1.754   2.422  17.417  0.3340 -0.1406 -0.4136
  445TMC3    C1 6626   2.245   2.074  17.059 -0.5867  0.2253  0.1945
  445TMC3    C2 6627   2.141   2.055  16.973  0.2274  0.7524  0.7542
  445TMC3    C3 6628   2.155   1.960  16.871  0.3300  0.7474 -0.0861
  445TMC3    C4 6629   2.357   2.005  17.049  0.5247 -0.1234 -0.0186
  445TMC3    C5 6630   2.375   1.916  16.949 -0.3356  0.4099 -0.0486
  445TMC3    C6 6631   2.275   1.894  16.860  1.1458  0.0486  0.5790
  445TMC3     C 6632   2.246   2.200  17.121  0.8243  0.2606  0.3454
  445TMC3     O 6633   2.356   2.259  17.118 -0.1007 -0.2859 -0.2052
  445TMC3     H 6634   2.055   2.120  16.966 -0.8034 -0.5587  1.2240
  445TMC3    H1 6635   2.435   2.030  17.120 -0.0995  0.6287  0.3990
  445TMC3    H2 6636   2.277   1.817  16.784 -0.1212  0.0754  0.5219
  445TMC3    C7 6637   2.503   1.917  16.878  0.0996 -0.0504 -0.5369
  445TMC3    C8 6638   2.060   1.966  16.758  0.7875  0.0423  0.3566
  445TMC3    O1 6639   2.487   1.918  16.760  0.2308  0.6034  0.1892
  445TMC3    O2 6640   1.969   2.046  16.766 -0.8234 -0.3298 -0.0194
  446MPD2     C 6641   1.676   4.182  11.870 -1.0638 -0.1387  0.0100
  446MPD2    C1 6642   1.643   4.216  11.735 -0.3155  0.5780 -0.1742
  446MPD2    C2 6643   1.709   4.329  11.681  0.4390 -0.3072 -0.4809
  446MPD2    C3 6644   1.805   4.401  11.752  0.3878 -0.2175  0.1309
  446MPD2    C4 6645   1.834   4.367  11.884 -0.8498 -0.4898  0.9248
  446MPD2    C5 6646   1.764   4.258  11.938  0.4761  0.1571  0.1367
  446MPD2     H 6647   1.693   4.350  11.576 -0.4895 -0.2600 -0.3287
  446MPD2    H1 6648   1.888   4.431  11.952  0.8501 -0.2448 -0.6556
  446MPD2    H2 6649   1.617   4.115  11.930  1.3071 -1.1221  1.2598
  446MPD2    H3 6650   1.769   4.234  12.043  1.6897 -0.5203 -0.0740
  446MPD2     N 6651   1.882   4.500  11.681  0.3939  0.3814  0.0660
  446MPD2    H5 6652   1.855   4.523  11.586  0.5745  1.8883  0.3939
  446MPD2    N1 6653   1.553   4.140  11.659  0.0850  0.1105 -0.3101
  446MPD2    H7 6654   1.529   4.180  11.569 -1.6278  2.0380  1.0134
  447TMC3    C1 6655   2.075   4.620  11.609 -0.7703 -0.2410  0.1076
  447TMC3    C2 6656   2.017   4.646  11.485 -0.1593  0.2711  0.4016
  447TMC3    C3 6657   2.092   4.692  11.378 -0.4001 -0.1698  0.5741
  447TMC3    C4 6658   2.207   4.649  11.621  0.2398  0.0867  0.3729
  447TMC3    C5 6659   2.281   4.692  11.521 -0.3869  0.3798 -0.5371
  447TMC3    C6 6660   2.230   4.708  11.393 -0.3114  0.1880  0.2992
  447TMC3     C 6661   2.004   4.547  11.720  0.0383  0.5388  0.2981
  447TMC3     O 6662   2.072   4.513  11.814 -0.1724 -0.5328 -0.4589
  447TMC3     H 6663   1.910   4.637  11.469 -0.1842 -0.4469  0.9649
  447TMC3    H1 6664   2.256   4.635  11.717 -0.8955  0.4857  1.0102
  447TMC3    H2 6665   2.291   0.033  11.316 -0.3133 -0.7833 -0.2698
  447TMC3    C7 6666   2.408   4.629  11.503  0.0958 -0.1565  1.5502
  447TMC3    C8 6667   2.045   4.665  11.244  0.8011 -0.0517  0.1136
  447TMC3    O1 6668   2.443   4.584  11.393  0.7946 -0.9149  0.3005
  447TMC3    O2 6669   1.927   4.648  11.218 -0.3074  0.4970 -0.2848
  448TMC3    C1 6670   0.814   2.891   0.043 -0.6724  0.1337  0.2450
  448TMC3    C2 6671   0.705   2.852  17.659 -0.1471  0.0920  0.1119
  448TMC3    C3 6672   0.639   2.744   0.022 -1.0490 -0.1930 -0.0838
  448TMC3    C4 6673   0.860   2.822   0.149  0.4301  0.0742 -0.2419
  448TMC3    C5 6674   0.789   2.719   0.194 -0.4725 -0.1467 -0.4430
  448TMC3    C6 6675   0.677   2.672   0.135  0.0971 -1.0596 -0.1107
  448TMC3     C 6676   0.870   3.021   0.012  0.7090 -0.5912  0.7816
  448TMC3     O 6677   0.861   3.056  17.579  0.6433  0.0289  0.2247
  448TMC3     H 6678   0.686   2.901  17.564 -1.0745  1.7438  1.1478
  448TMC3    H1 6679   0.950   2.853   0.199 -0.5326  0.5698  1.1847
  448TMC3    H2 6680   0.615   2.595   0.180  1.0516 -2.5068 -1.2749
  448TMC3    C7 6681   0.848   2.640   0.299  0.2637 -0.0885  0.4589
  448TMC3    C8 6682   0.536   2.693  17.619  0.1537  0.6969  0.2303
  448TMC3    O1 6683   0.965   2.623   0.297 -0.1796 -0.1389 -0.1678
  448TMC3    O2 6684   0.503   2.763  17.524  0.7473  0.1965  0.1994
  449MPD2     C 6685   1.823   2.161  14.357 -0.5514  0.4609  0.0296
  449MPD2    C1 6686   1.703   2.220  14.317  0.3998  0.5112 -0.2136
  449MPD2    C2 6687   1.586   2.147  14.342  0.6569 -0.2244 -0.2169
  449MPD2    C3 6688   1.582   2.019  14.394 -0.2042 -0.0975  0.7301
  449MPD2    C4 6689   1.700   1.961  14.443  0.1056 -0.7277 -0.3126
  449MPD2    C5 6690   1.819   2.037  14.423  0.1178  0.4542  0.2879
  449MPD2     H 6691   1.494   2.195  14.310  1.7090  0.9045 -1.5499
  449MPD2    H1 6692   1.706   1.859  14.480 -3.4013 -0.2899  1.4174
  449MPD2    H2 6693   1.920   2.209  14.357 -0.9378  1.2322  4.3108
  449MPD2    H3 6694   1.901   1.993  14.478  0.0835  1.3086  1.0254
  449MPD2     N 6695   1.461   1.960  14.409 -0.0482  0.8969  0.3702
  449MPD2    H5 6696   1.385   2.008  14.363 -2.0001  0.3299  2.9807
  449MPD2    N1 6697   1.692   2.349  14.254  0.0896 -0.3390  0.6584
  449MPD2    H7 6698   1.595   2.373  14.241  0.3065 -0.1394 -0.5474
  450TMC3    C1 6699   1.743   2.538  14.131  0.0853  0.3991 -0.8699
  450TMC3    C2 6700   1.779   2.536  13.999  0.2062  0.6211 -0.9427
  450TMC3    C3 6701   1.681   2.567  13.913 -0.8212  0.6205  0.3675
  450TMC3    C4 6702   1.617   2.576  14.176 -0.2974 -0.3746  0.5994
  450TMC3    C5 6703   1.516   2.585  14.084 -0.5182  0.2613  0.3705
  450TMC3    C6 6704   1.554   2.598  13.955  0.6392 -0.2352  0.1793
  450TMC3     C 6705   1.796   2.425  14.202  0.3948  0.0645 -0.7772
  450TMC3     O 6706   1.915   2.399  14.187 -0.0303 -0.4104 -0.4245
  450TMC3     H 6707   1.884   2.518  13.977  0.6538 -1.0856  2.6655
  450TMC3    H1 6708   1.596   2.586  14.282  2.0547  1.6600  0.8795
  450TMC3    H2 6709   1.484   2.611  13.873 -1.2002  1.3329  1.9865
  450TMC3    C7 6710   1.406   2.499  14.122  0.4628 -0.2287 -0.2487
  450TMC3    C8 6711   1.729   2.644  13.794 -0.7853  0.8785 -0.1140
  450TMC3    O1 6712   1.421   2.437  14.227  0.7632 -0.0730 -0.5650
  450TMC3    O2 6713   1.667   2.747  13.782 -0.0321  0.4215 -0.0773
  451MPD2     C 6714   3.203   0.557   1.372  0.4002 -0.2953  0.5546
  451MPD2    C1 6715   3.111   0.511   1.462 -0.5736  0.0701 -0.7415
  451MPD2    C2 6716   3.165   0.416   1.554  0.1150 -0.3650 -0.0743
  451MPD2    C3 6717   3.296   0.380   1.561  0.2244 -0.1596 -0.0069
  451MPD2    C4 6718   3.385   0.434   1.467 -0.6108  0.5387  0.0176
  451MPD2    C5 6719   3.336   0.528   1.379 -0.5074 -0.2072 -0.1987
  451MPD2     H 6720   3.092   0.363   1.615  0.1952 -0.3328  0.0500
  451MPD2    H1 6721   3.491   0.413   1.476  0.0283  2.8983 -1.8142
  451MPD2    H2 6722   3.171   0.644   1.315  0.1181  0.0701  1.2673
  451MPD2    H3 6723   3.396   0.589   1.313 -2.6022  1.4838 -0.5161
  451MPD2     N 6724   3.343   0.287   1.657  0.5393  0.6425  0.5004
  451MPD2    H5 6725   3.442   0.267   1.663  0.2888 -0.2354  1.8066
  451MPD2    N1 6726   2.978   0.549   1.450 -0.0806  0.2556  0.4814
  451MPD2    H7 6727   2.948   0.618   1.382 -1.0330  0.7363  1.3871
  452TMC3    C1 6728   3.347   0.129   1.832  0.6302 -0.6081  0.2868
  452TMC3    C2 6729   3.326   0.122   1.964  0.7199 -0.5094 -1.0000
  452TMC3    C3 6730   3.414   0.036   2.025  0.0389 -0.3069 -0.3979
  452TMC3    C4 6731   3.443   0.063   1.763  0.1065 -0.5425 -0.9360
  452TMC3    C5 6732   3.525   4.696   1.831  1.0547  0.3717 -0.1385
  452TMC3    C6 6733   3.514   4.682   1.968 -0.1397  0.0751 -0.3238
  452TMC3     C 6734   3.273   0.230   1.755  0.3852 -0.0122  0.0224
  452TMC3     O 6735   3.164   0.255   1.804 -0.1226  0.6904  0.3054
  452TMC3     H 6736   3.257   0.188   2.015 -1.1296 -3.1766 -0.0582
  452TMC3    H1 6737   3.452   0.074   1.656 -0.4207  0.3396 -0.8833
  452TMC3    H2 6738   3.577   4.618   2.029  1.0333  0.2391 -1.3486
  452TMC3    C7 6739   3.628   4.632   1.740 -0.0256  0.9744 -0.1982
  452TMC3    C8 6740   3.392   0.004   2.169 -0.2404  0.1182 -0.2908
  452TMC3    O1 6741   3.649   4.690   1.632  0.1922  0.1833 -0.0628
  452TMC3    O2 6742   3.479   4.683   2.240  0.0727  0.3573  0.7039
  453TMC3    C1 6743   4.261   3.175  11.955 -0.4028 -0.4220 -0.1276
  453TMC3    C2 6744   4.178   3.126  12.052  0.7411 -0.7533  0.0624
  453TMC3    C3 6745   4.047   3.115  12.016 -0.0209  0.7799  0.0273
  453TMC3    C4 6746   4.221   3.228  11.838 -0.3852  0.3613 -0.1853
  453TMC3    C5 6747   4.088   3.203  11.804  0.3660  0.3063 -0.0522
  453TMC3    C6 6748   4.001   3.140  11.891  0.4454  0.2903 -0.3022
  453TMC3     C 6749   4.394   3.212  12.011 -0.4395 -0.1158  0.1629
  453TMC3     O 6750   4.439   3.318  11.969 -0.1208 -0.2914 -0.2593
  453TMC3     H 6751   4.200   3.120  12.158  0.9545  0.6877  0.0988
  453TMC3    H1 6752   4.289   3.278  11.769  1.5849  1.5412  2.6133
  453TMC3    H2 6753   3.906   3.098  11.861  1.1757 -1.8722  0.4231
  453TMC3    C7 6754   4.070   3.165  11.665  0.4973  0.1103 -0.3502
  453TMC3    C8 6755   3.973   3.008  12.080 -0.1972 -0.1292  0.2620
  453TMC3    O1 6756   3.961   3.138  11.618 -0.9503 -0.0815  0.7946
  453TMC3    O2 6757   3.853   3.007  12.063  0.4593 -0.0009  0.3808
  454MPD2     C 6758   3.035   2.528  16.268 -0.0779  0.5130  0.3855
  454MPD2    C1 6759   2.935   2.443  16.238  0.0956  0.2960  0.2230
  454MPD2    C2 6760   2.865   2.388  16.342  0.2139  0.1351  0.2289
  454MPD2    C3 6761   2.895   2.400  16.475  1.0048  0.4232  0.7802
  454MPD2    C4 6762   2.997   2.488  16.506 -0.2266  0.8255 -0.4464
  454MPD2    C5 6763   3.063   2.545  16.401 -0.1663 -0.6540  0.4875
  454MPD2     H 6764   2.777   2.327  16.328  0.0367 -0.1022  2.3622
  454MPD2    H1 6765   3.039   2.511  16.603 -1.2217  1.5593 -0.1856
  454MPD2    H2 6766   3.104   2.577  16.201 -0.4033  0.5898  0.1078
  454MPD2    H3 6767   3.141   2.616  16.427 -0.1686 -0.2337 -0.6436
  454MPD2     N 6768   2.812   2.324  16.566 -0.1813 -0.7067 -0.5418
  454MPD2    H5 6769   2.761   2.247  16.524  0.7340 -1.3140 -0.5407
  454MPD2    N1 6770   2.888   2.408  16.108  0.3563  0.3927  0.8269
  454MPD2    H7 6771   2.818   2.336  16.090  0.8073  0.5753 -1.6643
  455TMC3    C1 6772   2.651   2.317  16.742 -0.5155  0.9248 -0.8582
  455TMC3    C2 6773   2.590   2.395  16.833 -0.1415  1.0824 -0.1679
  455TMC3    C3 6774   2.457   2.408  16.842  0.0485 -0.6655 -0.0374
  455TMC3    C4 6775   2.573   2.244  16.660  0.2601 -0.2153 -0.4677
  455TMC3    C5 6776   2.435   2.260  16.661 -0.4854 -0.6588 -0.1838
  455TMC3    C6 6777   2.373   2.346  16.746  0.5767 -0.8317 -0.8330
  455TMC3     C 6778   2.787   2.357  16.700 -0.2608  0.1913 -0.0400
  455TMC3     O 6779   2.839   2.455  16.754 -0.4807  0.6106  0.1448
  455TMC3     H 6780   2.663   2.451  16.890  0.8437  0.2170 -0.5811
  455TMC3    H1 6781   2.624   2.169  16.601  1.4194  0.2686 -0.0746
  455TMC3    H2 6782   2.279   2.389  16.712  0.1695 -1.4606 -0.4916
  455TMC3    C7 6783   2.363   2.192  16.552 -0.0299  0.6705 -0.6472
  455TMC3    C8 6784   2.409   2.517  16.933 -0.1750 -0.3178  0.7195
  455TMC3    O1 6785   2.278   2.248  16.488 -0.3638  1.3071  0.2424
  455TMC3    O2 6786   2.490   2.574  17.003  0.4957 -0.2575  0.0166
  456MPD2     C 6787   0.441   2.108  16.256  0.1860  0.5131 -1.0686
  456MPD2    C1 6788   0.555   2.100  16.347 -0.1917  0.9559 -0.1984
  456MPD2    C2 6789   0.536   2.146  16.477  0.5051  0.3581 -0.1430
  456MPD2    C3 6790   0.417   2.200  16.519  0.3918  0.1101  0.1261
  456MPD2    C4 6791   0.309   2.211  16.432 -0.1513  0.4041  0.2256
  456MPD2    C5 6792   0.323   2.173  16.298 -0.0527 -0.3290 -0.8769
  456MPD2     H 6793   0.612   2.148  16.554  0.4062  0.6534 -0.0500
  456MPD2    H1 6794   0.217   2.255  16.470 -0.3910  0.8152 -0.8141
  456MPD2    H2 6795   0.436   2.077  16.153  0.0415 -1.1019 -0.5755
  456MPD2    H3 6796   0.242   2.184  16.226  0.3979  1.5009 -1.1106
  456MPD2     N 6797   0.407   2.238  16.657 -0.2140  0.1450  0.3048
  456MPD2    H5 6798   0.490   2.227  16.714  0.5280  0.8766 -0.6409
  456MPD2    N1 6799   0.677   2.049  16.297  0.2803 -0.4435  0.8245
  456MPD2    H7 6800   0.690   2.030  16.198 -1.0710  1.0976  0.3512
  457TMC3    C1 6801   0.321   2.319  16.859  0.4543  0.3145  0.2029
  457TMC3    C2 6802   0.213   2.340  16.934 -0.1714  0.4980 -0.1362
  457TMC3    C3 6803   0.216   2.437  17.027  0.1595 -0.0591  0.6634
  457TMC3    C4 6804   0.432   2.398  16.871  1.0847  0.0619 -0.3191
  457TMC3    C5 6805   0.427   2.506  16.957  0.2311  0.0218 -0.2091
  457TMC3    C6 6806   0.312   2.537  17.024 -0.2766 -0.1202  0.2183
  457TMC3     C 6807   0.291   2.287  16.720 -0.2178  0.3727 -0.1059
  457TMC3     O 6808   0.181   2.315  16.677 -0.1512 -0.2104  0.2825
  457TMC3     H 6809   0.141   2.259  16.945  0.8832 -0.5321 -0.7842
  457TMC3    H1 6810   0.526   2.363  16.829  1.6713 -1.1406  1.9829
  457TMC3    H2 6811   0.308   2.618  17.095 -2.7875  0.9805 -1.1730
  457TMC3    C7 6812   0.544   2.512  17.051  0.7647  0.6448 -0.3682
  457TMC3    C8 6813   0.177   2.390  17.155  0.1517  0.3429  0.0575
  457TMC3    O1 6814   0.614   2.414  17.064 -0.3213  0.1929 -0.4453
  457TMC3    O2 6815   0.115   2.285  17.169  0.5590  0.5531 -0.0661
  458MPD2     C 6816   3.342   2.106  12.211 -0.1670  0.5124 -0.5988
  458MPD2    C1 6817   3.250   2.152  12.296  0.4046  0.2774  0.0799
  458MPD2    C2 6818   3.122   2.203  12.248  0.2408  0.7059  0.0232
  458MPD2    C3 6819   3.093   2.189  12.118 -0.4563 -0.5753 -1.0497
  458MPD2    C4 6820   3.189   2.132  12.032  0.3850 -0.0023 -0.1426
  458MPD2    C5 6821   3.311   2.102  12.081 -0.3337 -0.6002  0.6167
  458MPD2     H 6822   3.048   2.244  12.316  0.7025  0.4802  0.6684
  458MPD2    H1 6823   3.172   2.118  11.926  0.8289  1.6489 -0.4287
  458MPD2    H2 6824   3.441   2.079  12.246 -1.2491  0.7760  2.6729
  458MPD2    H3 6825   3.389   2.065  12.016 -0.0414 -0.7127  1.0298
  458MPD2     N 6826   2.960   2.218  12.075 -0.1012  0.4230  0.8332
  458MPD2    H5 6827   2.905   2.275  12.137 -3.0726 -1.2635 -0.2424
  458MPD2    N1 6828   3.292   2.154  12.427  0.1416  0.4063  0.3097
  458MPD2    H7 6829   3.387   2.119  12.439 -0.0682 -0.8971 -1.8118
  459TMC3    C1 6830   3.304   2.199  12.654 -0.3762 -0.5240 -0.0194
  459TMC3    C2 6831   3.404   2.284  12.629 -0.2707 -0.1899 -0.4331
  459TMC3    C3 6832   3.484   2.314  12.734  0.3082 -0.1211 -0.0795
  459TMC3    C4 6833   3.276   2.139  12.774 -0.1961  0.2418 -0.1541
  459TMC3    C5 6834   3.375   2.161  12.866 -0.4540 -0.3271 -0.0267
  459TMC3    C6 6835   3.481   2.247  12.850 -0.5885 -0.1576  0.4931
  459TMC3     C 6836   3.219   2.187  12.539  0.0878  0.3379  0.6408
  459TMC3     O 6837   3.098   2.209  12.550  0.7451  0.0310  0.1311
  459TMC3     H 6838   3.432   2.323  12.532 -2.5142  0.7570 -0.7001
  459TMC3    H1 6839   3.190   2.077  12.798  1.1161 -0.8265  1.8799
  459TMC3    H2 6840   3.561   2.270  12.919  0.8968 -0.9254 -0.9938
  459TMC3    C7 6841   3.377   2.076  12.983 -0.2696  0.6427 -1.0793
  459TMC3    C8 6842   3.604   2.393  12.720 -0.4890  0.1636 -0.1932
  459TMC3    O1 6843   3.319   1.966  12.979 -0.2453 -0.1985  0.2583
  459TMC3    O2 6844   3.702   2.361  12.784 -0.5945 -0.0880  0.3048
  460MPD2     C 6845   2.259   4.589  10.949  0.3545  0.1035 -0.1507
  460MPD2    C1 6846   2.143   4.621  11.015 -0.0580  0.1242  0.2294
  460MPD2    C2 6847   2.023   4.627  10.939 -0.0640 -0.9806 -0.2960
  460MPD2    C3 6848   2.021   4.620  10.800 -0.5289  0.0378 -0.4017
  460MPD2    C4 6849   2.140   4.586  10.735  0.7147  0.1123 -0.0274
  460MPD2    C5 6850   2.254   4.561  10.813 -0.2844  0.5266  0.0305
  460MPD2     H 6851   1.936   4.653  10.997  0.2708 -0.4108 -0.0517
  460MPD2    H1 6852   2.136   4.577  10.627  1.1656  0.7042 -0.0926
  460MPD2    H2 6853   2.354   4.582  11.001  0.3466  1.8328  0.0910
  460MPD2    H3 6854   2.347   4.532  10.766  0.0121  2.9015 -0.8227
  460MPD2     N 6855   1.904   4.629  10.737  0.5076  0.1806 -0.6194
  460MPD2    H5 6856   1.825   4.662  10.792  1.8117  0.1519  1.2641
  460MPD2    N1 6857   2.151   4.643  11.158  0.3741  0.2212  0.3289
  460MPD2    H7 6858   2.240   4.630  11.205 -1.2127 -0.9793  2.9929
  461TMC3    C1 6859   1.764   4.656  10.548 -0.4517  0.3867 -0.4584
  461TMC3    C2 6860   1.736   4.630  10.418 -0.6864  0.4030 -0.0032
  461TMC3    C3 6861   1.666   4.711  10.334  0.4512  0.3291  0.1329
  461TMC3    C4 6862   1.702   0.039  10.609  0.1940 -0.2148 -0.8175
  461TMC3    C5 6863   1.619   0.111  10.525 -0.6811  0.6997  0.4617
  461TMC3    C6 6864   1.611   0.100  10.389  0.7164 -0.2173  0.4687
  461TMC3     C 6865   1.886   4.599  10.603 -0.6477 -0.2799 -0.0139
  461TMC3     O 6866   1.946   4.517  10.537  0.1875  0.7467 -0.0986
  461TMC3     H 6867   1.788   4.545  10.376  2.0131  1.9432  0.1971
  461TMC3    H1 6868   1.706   0.041  10.717 -2.4314 -1.4456 -0.7163
  461TMC3    H2 6869   1.557   0.179  10.339  1.5941 -0.6358 -1.1887
  461TMC3    C7 6870   1.539   0.221  10.580  0.5895 -0.3245  0.5557
  461TMC3    C8 6871   1.723   4.717  10.194  1.0221 -0.0327 -0.8451
  461TMC3    O1 6872   1.435   0.251  10.517  0.3985 -0.3131 -0.0740
  461TMC3    O2 6873   1.782   4.623  10.149 -0.5990  0.2048  0.0318
  462TMC3    C1 6874   2.007   0.801   0.421 -0.3114  0.1376  0.1524
  462TMC3    C2 6875   2.138   0.762   0.429 -0.1825 -0.1879  0.1402
  462TMC3    C3 6876   2.154   0.633   0.457  0.2811  0.2775 -0.1296
  462TMC3    C4 6877   1.898   0.716   0.433  0.1249 -0.2684  0.6773
  462TMC3    C5 6878   1.920   0.585   0.475 -0.4674 -0.8095  0.2006
  462TMC3    C6 6879   2.053   0.544   0.474 -0.3572 -0.1399  0.6558
  462TMC3     C 6880   1.984   0.939   0.395  0.4558 -1.0276 -1.0378
  462TMC3     O 6881   1.885   0.987   0.451 -0.2759 -0.0292  0.1477
  462TMC3     H 6882   2.221   0.832   0.427  0.9335 -1.6022 -1.8692
  462TMC3    H1 6883   1.800   0.763   0.434 -1.1359 -2.8931  0.2123
  462TMC3    H2 6884   2.075   0.449   0.521  1.3822 -1.0929 -2.1173
  462TMC3    C7 6885   1.827   0.505   0.553  0.4321 -0.1559 -0.0155
  462TMC3    C8 6886   2.285   0.585   0.440 -0.0695 -0.4898 -0.4357
  462TMC3    O1 6887   1.858   0.391   0.578  0.4440  0.9705  0.4346
  462TMC3    O2 6888   2.351   0.645   0.358 -0.6593  0.4626 -0.0200
  463MPD2     C 6889   4.007   3.199   1.535  0.1626  0.7995  0.1197
  463MPD2    C1 6890   3.920   3.293   1.593  0.0565 -0.6186  0.0200
  463MPD2    C2 6891   3.960   3.423   1.617  0.2700 -0.0053 -0.4222
  463MPD2    C3 6892   4.096   3.448   1.594 -0.0426  0.0119 -0.2021
  463MPD2    C4 6893   4.186   3.349   1.546 -0.4891 -0.6047 -0.0817
  463MPD2    C5 6894   4.136   3.229   1.526 -0.1490 -0.7902 -0.0628
  463MPD2     H 6895   3.890   3.498   1.652  0.1161 -1.0008  1.3961
  463MPD2    H1 6896   4.288   3.375   1.521 -0.8892 -0.1008 -1.1967
  463MPD2    H2 6897   3.969   3.103   1.503  0.6395  0.1662  1.4326
  463MPD2    H3 6898   4.201   3.153   1.484  0.5164  0.9144 -2.1445
  463MPD2     N 6899   4.157   3.568   1.633 -0.0182 -0.1850 -0.0269
  463MPD2    H5 6900   4.250   3.573   1.591  0.0600 -0.7559  0.0744
  463MPD2    N1 6901   3.789   3.257   1.633 -0.0114 -0.2962  0.1336
  463MPD2    H7 6902   3.732   3.333   1.670  0.6481  1.1103 -1.6970
  464TMC3    C1 6903   3.588   3.130   1.661  0.4761 -0.0423 -0.3875
  464TMC3    C2 6904   3.540   3.236   1.739 -0.3513  0.2903 -0.1239
  464TMC3    C3 6905   3.415   3.220   1.790 -0.4852  0.5399 -0.6428
  464TMC3    C4 6906   3.523   3.012   1.661 -0.1816 -0.0358 -0.1945
  464TMC3    C5 6907   3.399   2.996   1.719 -0.0696  0.6580  0.7340
  464TMC3    C6 6908   3.346   3.102   1.782  0.6001  0.0952  0.4289
  464TMC3     C 6909   3.725   3.136   1.622 -0.0363 -0.3642 -0.5343
  464TMC3     O 6910   3.767   3.032   1.567 -0.6535  0.2045  0.1104
  464TMC3     H 6911   3.576   3.338   1.726 -0.0874  0.0148 -1.5069
  464TMC3    H1 6912   3.562   2.916   1.627  1.3727 -0.6556  3.3000
  464TMC3    H2 6913   3.251   3.103   1.833  0.7739 -2.0423  0.7686
  464TMC3    C7 6914   3.357   2.863   1.760  0.2111  0.0736  0.0650
  464TMC3    C8 6915   3.324   3.330   1.806 -0.1063  0.2883  0.2549
  464TMC3    O1 6916   3.439   2.778   1.776  0.4851 -0.4479  0.7484
  464TMC3    O2 6917   3.330   3.422   1.725 -0.0566 -0.8296  0.0939
  465MPD2     C 6918   0.020   2.732  16.989 -0.1516 -0.1144 -0.4115
  465MPD2    C1 6919   4.653   2.654  17.055  0.3825  0.2969  0.5636
  465MPD2    C2 6920   4.539   2.597  16.997  0.2518 -0.1469  0.8609
  465MPD2    C3 6921   4.506   2.629  16.867  0.2086 -0.6127 -0.2631
  465MPD2    C4 6922   4.597   2.710  16.797 -0.4910  1.1192  0.1767
  465MPD2    C5 6923   4.714   2.750  16.857  0.4186  0.7520 -0.4103
  465MPD2     H 6924   4.475   2.532  17.056  0.7702 -0.3812  1.1696
  465MPD2    H1 6925   4.580   2.741  16.694  1.6565  0.1095 -0.4730
  465MPD2    H2 6926   0.112   2.771  17.032 -1.8048  0.8906  2.2499
  465MPD2    H3 6927   0.054   2.813  16.792  0.8306 -0.0133 -0.7628
  465MPD2     N 6928   4.387   2.576  16.810  0.3905  0.1344 -0.3739
  465MPD2    H5 6929   4.333   2.514  16.870  0.8293 -1.0964 -1.2472
  465MPD2    N1 6930   4.659   2.630  17.198 -0.3485 -0.7077 -0.0345
  465MPD2    H7 6931   4.595   2.560  17.236 -1.4757 -0.8242 -2.1546
  466TMC3    C1 6932   4.032   2.383  16.711 -0.5376 -1.1777  0.4171
  466TMC3    C2 6933   3.954   2.436  16.607 -0.1413 -0.1050 -0.0115
  466TMC3    C3 6934   4.003   2.540  16.535  0.0121 -0.3407 -0.2438
  466TMC3    C4 6935   4.162   2.429  16.724 -0.5421 -0.5621  0.4311
  466TMC3    C5 6936   4.206   2.540  16.654  1.0593  0.2842  0.1945
  466TMC3    C6 6937   4.121   2.598  16.567 -0.2298  0.7627 -0.2576
  466TMC3     C 6938   3.957   2.357  16.834 -0.3178  0.0165 -0.1063
  466TMC3     O 6939   4.013   2.315  16.934 -0.4704  0.2399  0.4688
  466TMC3     H 6940   3.860   2.396  16.570 -0.3682 -0.9636  1.5037
  466TMC3    H1 6941   4.218   2.377  16.800  1.5433  0.6876 -0.2509
  466TMC3    H2 6942   4.151   2.687  16.513  0.2726 -0.1448 -1.4665
  466TMC3    C7 6943   4.331   2.610  16.691 -0.0459  0.1986  0.5041
  466TMC3    C8 6944   3.901   2.631  16.491 -0.0150  0.4820  0.0578
  466TMC3    O1 6945   4.372   2.684  16.598  0.2294 -0.2111 -0.0705
  466TMC3    O2 6946   3.824   2.599  16.403 -0.2708 -0.1586  0.4744
  467TMC3    C1 6947   0.124   1.673  13.690 -0.4353  0.8490 -0.7073
  467TMC3    C2 6948   0.205   1.676  13.576  1.2730 -0.0204  0.1804
  467TMC3    C3 6949   0.181   1.590  13.475 -0.0022  0.3507  0.6824
  467TMC3    C4 6950   0.002   1.606  13.684 -0.1591  0.7844 -0.5036
  467TMC3    C5 6951   4.699   1.532  13.571  0.0082  0.3371 -0.1317
  467TMC3    C6 6952   0.062   1.529  13.465 -0.8910 -1.1836 -0.1743
  467TMC3     C 6953   0.164   1.744  13.803  0.2949 -0.2619 -0.3807
  467TMC3     O 6954   0.079   1.780  13.880 -0.4991  0.5106 -0.7898
  467TMC3     H 6955   0.300   1.729  13.584  0.8401  0.5614  1.5858
  467TMC3    H1 6956   4.651   1.612  13.765 -1.5378 -0.7126 -1.6179
  467TMC3    H2 6957   0.046   1.476  13.372 -0.5581  1.2442 -1.6189
  467TMC3    C7 6958   4.577   1.465  13.556  0.0809 -0.8523  0.0479
  467TMC3    C8 6959   0.284   1.539  13.388  0.4032  0.7258  0.1312
  467TMC3    O1 6960   4.544   1.457  13.440  0.8042  0.0497 -0.3888
  467TMC3    O2 6961   0.270   1.427  13.348  0.1855 -0.1532 -0.2783
  468MPD2     C 6962   4.027   4.085  10.879 -0.3712 -0.7303 -0.6451
  468MPD2    C1 6963   4.138   4.039  10.941 -0.0123 -0.0559 -0.3487
  468MPD2    C2 6964   4.155   3.900  10.941  0.1692 -0.2346  0.3805
  468MPD2    C3 6965   4.066   3.816  10.873  0.0678  0.0745 -0.1095
  468MPD2    C4 6966   3.948   3.866  10.821 -0.4294 -0.2981  0.2051
  468MPD2    C5 6967   3.934   4.004  10.818 -0.2135  0.0025  0.2967
  468MPD2     H 6968   4.245   3.864  10.990  0.0500 -0.8638  0.1255
  468MPD2    H1 6969   3.871   3.804  10.777 -1.2499  1.5642 -0.9769
  468MPD2    H2 6970   4.007   4.191  10.876 -0.0626 -0.6236  0.9053
  468MPD2    H3 6971   3.846   4.044  10.768  0.9800  0.3193 -1.5697
  468MPD2     N 6972   4.081   3.675  10.882 -0.2376  0.1251  0.6920
  468MPD2    H5 6973   4.026   3.621  10.817 -0.7358  0.7663  0.5837
  468MPD2    N1 6974   4.237   4.125  11.004 -0.3346 -0.5934  0.7233
  468MPD2    H7 6975   4.326   4.090  11.037 -0.3040  0.9075  2.2239
  469TMC3    C1 6976   4.355   4.319  11.064  0.9411  0.0036  0.1084
  469TMC3    C2 6977   4.425   4.257  11.164 -0.0495  0.6533 -0.8976
  469TMC3    C3 6978   4.489   4.336  11.253 -0.3344 -0.0552 -0.6086
  469TMC3    C4 6979   4.366   4.456  11.045  0.2728 -0.5086 -0.5698
  469TMC3    C5 6980   4.431   4.529  11.139  0.0533 -0.7076 -0.0156
  469TMC3    C6 6981   4.490   4.472  11.250  0.3035 -0.3777  0.0946
  469TMC3     C 6982   4.233   4.261  11.011  0.5554  0.0136 -0.0143
  469TMC3     O 6983   4.144   4.341  10.990 -0.3627  0.3948  0.1994
  469TMC3     H 6984   4.421   4.151  11.185  0.1285  0.8434  0.0844
  469TMC3    H1 6985   4.308   4.508  10.970 -1.1736 -0.0875  0.8420
  469TMC3    H2 6986   4.547   4.537  11.315 -1.9321  1.3950  0.2901
  469TMC3    C7 6987   4.379   4.661  11.153 -0.5847 -0.1229 -0.0185
  469TMC3    C8 6988   4.590   4.266  11.335 -0.7298 -0.2501  0.7794
  469TMC3    O1 6989   4.326   4.713  11.057 -0.1017 -0.2904  0.1053
  469TMC3    O2 6990   4.607   4.147  11.315  0.5679 -0.2205 -0.1439
  470TMC3    C1 6991   1.194   4.590   1.212 -0.4401  0.1736 -0.3754
  470TMC3    C2 6992   1.212   0.000   1.218  0.0372  0.0616  0.4138
  470TMC3    C3 6993   1.225   0.047   1.341 -0.0149  0.1796  0.6338
  470TMC3    C4 6994   1.203   4.508   1.321 -0.5306  0.1771  0.1870
  470TMC3    C5 6995   1.225   4.563   1.441  0.1888 -0.2120  0.2565
  470TMC3    C6 6996   1.240   4.692   1.454  0.1489 -0.6193 -0.4476
  470TMC3     C 6997   1.129   4.536   1.095 -1.0656 -0.5109 -0.1120
  470TMC3     O 6998   1.124   4.605   0.995  0.1909  0.2513 -0.1426
  470TMC3     H 6999   1.206   0.054   1.125  2.1059  1.3093  1.0041
  470TMC3    H1 7000   1.194   4.400   1.314 -2.5570  0.2038  2.3612
  470TMC3    H2 7001   1.263   0.008   1.553  2.0146 -2.5036 -0.1628
  470TMC3    C7 7002   1.253   4.483   1.561  0.2331 -0.0938 -0.1769
  470TMC3    C8 7003   1.247   0.189   1.363 -0.5835 -0.5667  0.2012
  470TMC3    O1 7004   1.330   4.529   1.644 -0.2900  1.0929 -0.1759
  470TMC3    O2 7005   1.283   0.223   1.470 -0.3241 -0.0769  0.1335
  471MPD2     C 7006   1.792   1.591  17.369  0.2778  0.3581 -0.8638
  471MPD2    C1 7007   1.720   1.474  17.360 -0.1247 -0.5880 -0.1019
  471MPD2    C2 7008   1.690   1.403  17.475 -0.5831 -0.5036  0.3421
  471MPD2    C3 7009   1.747   1.437  17.595 -0.0094  0.6689  0.0645
  471MPD2    C4 7010   1.824   1.549  17.603 -0.5040  0.3749  0.2171
  471MPD2    C5 7011   1.836   1.625  17.490  0.1699  0.2816 -0.0461
  471MPD2     H 7012   1.638   1.312  17.446 -0.4594 -0.1042 -1.1420
  471MPD2    H1 7013   1.875   1.580   0.009  2.1864 -1.1646 -0.7842
  471MPD2    H2 7014   1.810   1.644  17.276  2.3045  1.0274 -0.1106
  471MPD2    H3 7015   1.897   1.714  17.500 -1.2128  1.3522 -1.2027
  471MPD2     N 7016   1.742   1.347   0.020  0.2943  0.1210  0.1788
  471MPD2    H5 7017   1.790   1.387   0.100 -0.7341  0.8278  0.4531
  471MPD2    N1 7018   1.681   1.428  17.233  0.5610  0.3084  0.0326
  471MPD2    H7 7019   1.608   1.358  17.233 -1.3764  2.3522  2.2837
  472TMC3    C1 7020   1.685   1.369  17.005  0.2714  0.4959  0.0845
  472TMC3    C2 7021   1.545   1.359  16.995  0.2622 -0.5308  0.3581
  472TMC3    C3 7022   1.500   1.336  16.867 -0.0353  0.1379 -0.2799
  472TMC3    C4 7023   1.773   1.346  16.905 -0.4391  0.1795 -1.0414
  472TMC3    C5 7024   1.715   1.304  16.789 -0.6326 -0.4531  0.2778
  472TMC3    C6 7025   1.581   1.302  16.767 -0.1453 -0.4186  0.0158
  472TMC3     C 7026   1.743   1.450  17.109 -0.5638  0.1230  0.4829
  472TMC3     O 7027   1.847   1.514  17.082  0.6398  0.4776  0.0154
  472TMC3     H 7028   1.484   1.414  17.065 -1.0312  0.2216 -1.3436
  472TMC3    H1 7029   1.879   1.365  16.920 -0.7608 -0.9235  2.6969
  472TMC3    H2 7030   1.541   1.288  16.667  1.3849  1.0563 -0.8038
  472TMC3    C7 7031   1.794   1.206  16.710 -0.3431 -0.1351 -0.1622
  472TMC3    C8 7032   1.362   1.303  16.861 -0.3746  0.1291  0.0031
  472TMC3    O1 7033   1.896   1.162  16.758  0.3276  0.1737  0.0924
  472TMC3    O2 7034   1.295   1.358  16.948  0.0855  0.0392 -0.3634
  473MPD2     C 7035   2.214   3.658  14.084  0.2675 -0.6713 -0.3540
  473MPD2    C1 7036   2.123   3.761  14.102  0.2178  0.0678 -0.6834
  473MPD2    C2 7037   2.128   3.854  14.203  0.9322  0.3338  0.1633
  473MPD2    C3 7038   2.235   3.856  14.286 -0.2732 -0.7459  0.4371
  473MPD2    C4 7039   2.334   3.763  14.264  0.3017  0.3297 -0.6868
  473MPD2    C5 7040   2.318   3.664  14.171 -0.2669 -0.0621 -0.3723
  473MPD2     H 7041   2.039   3.913  14.218  1.2219  0.6325  0.7219
  473MPD2    H1 7042   2.430   3.767  14.315  0.4579  0.3522 -0.9809
  473MPD2    H2 7043   2.216   3.568  14.024  0.2080 -0.3270 -0.8646
  473MPD2    H3 7044   2.398   3.592  14.166 -0.1679  0.0502 -0.4071
  473MPD2     N 7045   2.263   3.950  14.393  0.6069  0.4104 -0.2718
  473MPD2    H5 7046   2.353   3.941  14.437  1.9936  1.8648 -2.7768
  473MPD2    N1 7047   2.001   3.756  14.036  0.0546  0.5816  0.2197
  473MPD2    H7 7048   1.936   3.831  14.053  0.8318  0.8631  1.9750
  474TMC3    C1 7049   2.215   4.124  14.552  0.1101 -0.6104 -0.2082
  474TMC3    C2 7050   2.107   4.172  14.619  0.3383  0.4653 -0.2789
  474TMC3    C3 7051   2.130   4.274  14.708  0.8315  0.1753 -0.9935
  474TMC3    C4 7052   2.345   4.172  14.570 -0.3727 -0.3548  0.1234
  474TMC3    C5 7053   2.361   4.270  14.667  0.2915  0.1637 -0.8508
  474TMC3    C6 7054   2.257   4.324  14.734  0.2575  0.2270 -0.3574
  474TMC3     C 7055   2.177   4.045  14.430 -0.3173 -0.4639 -0.7674
  474TMC3     O 7056   2.063   4.059  14.385  0.2785  0.5801  0.4439
  474TMC3     H 7057   2.005   4.144  14.596  0.4027 -0.7185  0.8923
  474TMC3    H1 7058   2.432   4.134  14.519 -0.6153 -1.3597  0.4658
  474TMC3    H2 7059   2.264   4.384  14.824 -1.7323  1.8223 -1.2705
  474TMC3    C7 7060   2.503   4.292  14.703  0.1028 -0.1019 -0.0613
  474TMC3    C8 7061   2.010   4.350  14.743 -0.3050 -0.8515 -0.5504
  474TMC3    O1 7062   2.590   4.234  14.636  0.2856  0.1363 -0.3761
  474TMC3    O2 7063   1.914   4.279  14.773  0.8623  0.1585  0.4005
  475MPD2     C 7064   0.307   2.719  11.014  1.1594  0.0056  1.0086
  475MPD2    C1 7065   0.239   2.622  10.949 -0.6529  0.1653 -0.2667
  475MPD2    C2 7066   0.105   2.607  10.973 -0.0457 -0.0477  0.2201
  475MPD2    C3 7067   0.045   2.659  11.078  0.1529 -0.4466  0.3843
  475MPD2    C4 7068   0.107   2.761  11.149  0.0251  0.4576  0.5803
  475MPD2    C5 7069   0.234   2.795  11.107 -0.5889 -0.0642  0.2848
  475MPD2     H 7070   0.050   2.526  10.927 -0.5821  0.7979 -0.6256
  475MPD2    H1 7071   0.055   2.814  11.228 -0.5323 -1.2462  1.3434
  475MPD2    H2 7072   0.411   2.742  10.996  0.6447 -0.7489 -3.0058
  475MPD2    H3 7073   0.272   2.888  11.149 -2.9184  0.5565  1.0414
  475MPD2     N 7074   4.633   2.625  11.096 -0.0297 -0.1923  0.4518
  475MPD2    H5 7075   4.587   2.557  11.037 -2.0321  2.4933 -1.0903
  475MPD2    N1 7076   0.313   2.537  10.866  0.0997  0.2302 -0.2461
  475MPD2    H7 7077   0.410   2.562  10.846 -0.3159  1.7784 -0.3092
  476TMC3    C1 7078   0.345   2.356  10.709 -0.1924  0.5666  0.3966
  476TMC3    C2 7079   0.296   2.287  10.600  0.1491  0.5240 -0.3206
  476TMC3    C3 7080   0.381   2.212  10.526 -0.3406  0.2053 -0.6595
  476TMC3    C4 7081   0.474   2.349  10.749 -0.2795 -0.0782 -0.3009
  476TMC3    C5 7082   0.559   2.274  10.676  0.6806 -0.9593 -0.1516
  476TMC3    C6 7083   0.515   2.204  10.568  0.0250 -0.3302  0.0795
  476TMC3     C 7084   0.258   2.441  10.789  0.6190  0.0429 -0.4747
  476TMC3     O 7085   0.145   2.397  10.777 -0.4162  0.3711  0.6108
  476TMC3     H 7086   0.195   2.302  10.561 -0.3800  0.0870  0.8706
  476TMC3    H1 7087   0.515   2.404  10.833 -0.3576 -1.9715  0.9809
  476TMC3    H2 7088   0.594   2.149  10.518  1.1881  1.8999 -0.5777
  476TMC3    C7 7089   0.705   2.278  10.694  0.1783 -0.0181  0.4042
  476TMC3    C8 7090   0.333   2.150  10.408 -0.6831  0.1899 -0.7073
  476TMC3    O1 7091   0.774   2.204  10.627 -0.4875  0.0749  0.6295
  476TMC3    O2 7092   0.213   2.143  10.393 -0.0264  0.1958  0.1553
  477MPD2     C 7093   2.554   3.777  11.765  0.7630 -0.7369  0.3557
  477MPD2    C1 7094   2.472   3.726  11.862 -0.7199 -0.8824  0.3254
  477MPD2    C2 7095   2.525   3.669  11.972 -0.4188  0.2650  0.0780
  477MPD2    C3 7096   2.660   3.653  11.988 -0.1620 -0.0971 -0.1893
  477MPD2    C4 7097   2.746   3.708  11.891  0.8235  0.0183 -0.0402
  477MPD2    C5 7098   2.690   3.768  11.785 -0.1094  0.5721  0.4947
  477MPD2     H 7099   2.460   3.628  12.049  0.8350 -1.7178  0.0640
  477MPD2    H1 7100   2.852   3.687  11.896  0.7086 -0.6682 -0.4190
  477MPD2    H2 7101   2.523   3.798  11.663 -2.5559 -0.0944  1.5066
  477MPD2    H3 7102   2.765   3.793  11.712  1.1303 -2.9026  0.5691
  477MPD2     N 7103   2.700   3.574  12.105 -0.1606  0.0729 -0.5614
  477MPD2    H5 7104   2.623   3.531  12.155  1.1453 -1.2632  0.3077
  477MPD2    N1 7105   2.334   3.729  11.839 -0.7166  0.6725 -0.2025
  477MPD2    H7 7106   2.314   3.794  11.765  1.7798  2.1688  0.4555
  478TMC3    C1 7107   2.103   3.717  11.903  0.5437  0.2425  0.1702
  478TMC3    C2 7108   2.052   3.776  12.014  0.0896 -0.2489  0.2011
  478TMC3    C3 7109   1.993   3.900  11.998 -0.0998 -0.1816  0.4579
  478TMC3    C4 7110   2.090   3.788  11.787  0.2057  0.3684  1.2335
  478TMC3    C5 7111   2.018   3.903  11.770 -0.1626 -0.8276 -0.8431
  478TMC3    C6 7112   1.977   3.969  11.879 -0.0175  0.0291  0.1077
  478TMC3     C 7113   2.237   3.672  11.932  0.1355  0.4501 -1.1821
  478TMC3     O 7114   2.249   3.595  12.021 -0.0522 -0.5306 -0.0858
  478TMC3     H 7115   2.078   3.742  12.114 -3.3942 -0.8839  0.8854
  478TMC3    H1 7116   2.121   3.731  11.700  3.6532  1.0909  2.0252
  478TMC3    H2 7117   1.943   4.072  11.877 -0.8327 -0.2712 -1.7974
  478TMC3    C7 7118   2.060   3.975  11.650  0.0304  0.3050 -0.6648
  478TMC3    C8 7119   1.978   3.974  12.123  0.2494  0.0544 -0.3998
  478TMC3    O1 7120   2.164   3.945  11.594  0.2103  0.1111 -0.0021
  478TMC3    O2 7121   1.933   3.910  12.214  0.6292  0.0621 -0.3368
  479MPD2     C 7122   1.563   1.034  15.405  0.2636 -0.1386 -0.2850
  479MPD2    C1 7123   1.511   0.947  15.494  0.3254  0.2549  0.0600
  479MPD2    C2 7124   1.547   0.970  15.629  0.9962 -0.2342 -0.4114
  479MPD2    C3 7125   1.632   1.074  15.672  0.2817  0.4717  0.6486
  479MPD2    C4 7126   1.692   1.152  15.573  0.5671  0.4313  0.7980
  479MPD2    C5 7127   1.659   1.130  15.440 -0.2043  0.1578  0.0626
  479MPD2     H 7128   1.511   0.892  15.697  1.5069 -0.0063  0.1217
  479MPD2    H1 7129   1.751   1.238  15.602 -0.3588  1.4332 -0.3348
  479MPD2    H2 7130   1.525   1.036  15.303  2.5117 -0.5551 -1.1388
  479MPD2    H3 7131   1.697   1.201  15.368 -0.4001 -1.1302 -1.2951
  479MPD2     N 7132   1.673   1.090  15.800 -0.5257  0.2437  0.0347
  479MPD2    H5 7133   1.751   1.154  15.812 -0.5965  0.1779  0.8366
  479MPD2    N1 7134   1.412   0.857  15.454  0.3522  0.1719  0.0689
  479MPD2    H7 7135   1.386   0.863  15.356 -2.1327 -0.7507  0.6703
  480TMC3    C1 7136   1.321   0.819  15.988 -0.0944 -0.3124  0.0736
  480TMC3    C2 7137   1.228   0.878  15.912  0.3687 -0.9840 -0.7529
  480TMC3    C3 7138   1.258   0.993  15.843  0.3670 -0.0454 -0.1445
  480TMC3    C4 7139   1.451   0.875  15.994 -0.2743  0.0171 -0.2354
  480TMC3    C5 7140   1.481   0.983  15.916 -0.1535  0.2497  0.3420
  480TMC3    C6 7141   1.384   1.048  15.847 -0.0621  0.5494 -0.0343
  480TMC3     C 7142   1.291   0.715  16.083 -0.1771  0.8570 -0.1064
  480TMC3     O 7143   1.377   0.694  16.171  0.4048 -0.1279 -0.4546
  480TMC3     H 7144   1.125   0.843  15.916 -0.0028  0.1029 -0.7263
  480TMC3    H1 7145   1.532   0.832  16.052  0.3053  0.8803 -0.4084
  480TMC3    H2 7146   1.407   1.143  15.800  3.7366  0.4312  1.5665
  480TMC3    C7 7147   1.621   1.031  15.915  0.5042 -0.4999 -0.1010
  480TMC3    C8 7148   1.163   1.047  15.746 -0.5210  0.3591 -0.4644
  480TMC3    O1 7149   1.676   1.026  16.027  0.1266  0.0307  0.4020
  480TMC3    O2 7150   1.044   1.011  15.759 -0.5498  0.5132  0.2248
  481MPD2     C 7151   3.520   0.698  14.390  0.1010  0.2680  0.1381
  481MPD2    C1 7152   3.390   0.659  14.431  0.1243  0.2718 -0.0925
  481MPD2    C2 7153   3.353   0.694  14.556 -0.5285  0.2050  0.6346
  481MPD2    C3 7154   3.428   0.777  14.638  0.1228  0.3768 -0.1355
  481MPD2    C4 7155   3.545   0.830  14.583  0.3051  0.7202 -0.6575
  481MPD2    C5 7156   3.586   0.793  14.459  0.6639 -0.5698  0.1971
  481MPD2     H 7157   3.261   0.647  14.591 -0.2841 -2.0690 -1.7968
  481MPD2    H1 7158   3.606   0.897  14.642  0.3046 -0.3136  0.5035
  481MPD2    H2 7159   3.566   0.656  14.301  0.4079  0.5690  0.1586
  481MPD2    H3 7160   3.687   0.821  14.433  0.1499  0.6169 -0.5110
  481MPD2     N 7161   3.397   0.813  14.772 -0.3887 -0.6968  0.3482
  481MPD2    H5 7162   3.460   0.880  14.815 -0.1526  0.2583 -1.5047
  481MPD2    N1 7163   3.308   0.588  14.346 -0.4904 -0.6783 -0.0303
  481MPD2    H7 7164   3.344   0.563  14.255  1.6535  2.2720  0.0097
  482TMC3    C1 7165   3.094   0.520  14.256 -0.2063 -0.7184 -0.9217
  482TMC3    C2 7166   3.156   0.437  14.169  0.0446 -0.4791  0.1061
  482TMC3    C3 7167   3.085   0.388  14.063  0.5944 -0.0071  0.1583
  482TMC3    C4 7168   2.963   0.557  14.241 -0.1441 -0.0187  0.5387
  482TMC3    C5 7169   2.895   0.508  14.134  0.4555 -0.5408 -0.5428
  482TMC3    C6 7170   2.953   0.425  14.038 -0.3715 -0.5621 -0.1141
  482TMC3     C 7171   3.171   0.594  14.357  0.1893 -1.2252  0.0936
  482TMC3     O 7172   3.097   0.662  14.427 -0.1213  0.1366 -0.0383
  482TMC3     H 7173   3.241   0.384  14.212 -0.5944 -1.8833 -0.3490
  482TMC3    H1 7174   2.919   0.634  14.304 -1.0602  2.4532 -3.1087
  482TMC3    H2 7175   2.895   0.376  13.960  1.8586 -0.9932 -1.4895
  482TMC3    C7 7176   2.814   0.616  14.082  0.0781  0.6565 -0.0568
  482TMC3    C8 7177   3.137   0.274  13.994 -0.1327  0.0831 -0.0924
  482TMC3    O1 7178   2.747   0.673  14.167  0.3905 -0.2727 -0.1862
  482TMC3    O2 7179   3.055   0.197  13.949 -0.4752 -0.5369 -0.2378
  483TMC3    C1 7180   0.974   3.824   1.420  1.3692  0.4046  0.1074
  483TMC3    C2 7181   1.039   3.932   1.373 -0.1475 -0.9434 -0.3300
  483TMC3    C3 7182   1.161   3.958   1.426  0.6582 -0.1040 -0.6177
  483TMC3    C4 7183   1.028   3.737   1.515 -0.1014  0.0047  0.1772
  483TMC3    C5 7184   1.158   3.763   1.551  0.1740  0.0664 -0.2345
  483TMC3    C6 7185   1.226   3.877   1.511  0.4021  0.1361  0.0335
  483TMC3     C 7186   0.830   3.818   1.403  0.2957  0.7045  0.9695
  483TMC3     O 7187   0.779   3.909   1.341 -0.1133  0.3059  0.3475
  483TMC3     H 7188   0.997   3.986   1.289 -1.3140 -0.7192  0.3970
  483TMC3    H1 7189   0.977   3.654   1.562 -0.5452  0.2507  0.1282
  483TMC3    H2 7190   1.334   3.889   1.510  0.1312  2.4491 -0.8378
  483TMC3    C7 7191   1.228   3.671   1.634 -0.2044 -0.2871 -0.4255
  483TMC3    C8 7192   1.229   4.073   1.367  0.5888  0.0760  0.1068
  483TMC3    O1 7193   1.171   3.564   1.646 -0.0852  0.5239 -0.3846
  483TMC3    O2 7194   1.163   4.141   1.288  0.1228  0.4208  0.1377
  484MPD2     C 7195   3.642   2.714  12.527 -0.5164  1.7939  0.0242
  484MPD2    C1 7196   3.682   2.601  12.595  0.1852 -0.6642  0.4919
  484MPD2    C2 7197   3.822   2.582  12.612  0.1653 -0.2134  0.5372
  484MPD2    C3 7198   3.914   2.672  12.560  0.1827 -0.2441 -0.2228
  484MPD2    C4 7199   3.864   2.788  12.508  0.0513 -0.0277  0.0910
  484MPD2    C5 7200   3.731   2.807  12.489 -0.1784 -0.4082  0.3557
  484MPD2     H 7201   3.856   2.484  12.645  2.0903  0.6829  1.2602
  484MPD2    H1 7202   3.930   2.862  12.463  1.2047 -0.1794  1.5407
  484MPD2    H2 7203   3.537   2.725  12.504 -0.8559 -0.7708  0.3632
  484MPD2    H3 7204   3.693   2.896  12.439  1.3858 -0.3856 -0.7844
  484MPD2     N 7205   4.051   2.651  12.552  0.4943 -0.2191  0.0314
  484MPD2    H5 7206   4.107   2.714  12.496  0.8979 -0.4146  0.2130
  484MPD2    N1 7207   3.585   2.501  12.633 -0.2081 -0.2789 -0.4250
  484MPD2    H7 7208   3.489   2.514  12.602 -0.8856 -1.9252  1.0202
  485TMC3    C1 7209   4.257   2.543  12.616  0.3617  0.7252 -0.1378
  485TMC3    C2 7210   4.329   2.477  12.711  0.0861  0.9283  0.4897
  485TMC3    C3 7211   4.464   2.479  12.707  0.0041 -0.0028 -0.2991
  485TMC3    C4 7212   4.322   2.623  12.520  0.0503  0.1387 -0.1556
  485TMC3    C5 7213   4.461   2.623  12.515  0.7141 -0.4141 -0.1745
  485TMC3    C6 7214   4.531   2.554  12.609 -0.0594  0.2748  0.1563
  485TMC3     C 7215   4.115   2.544  12.618  0.3106 -0.8379 -0.5309
  485TMC3     O 7216   4.063   2.450  12.675 -0.3482 -0.0140 -0.4080
  485TMC3     H 7217   4.274   2.417  12.782 -0.6189  1.9307  0.7836
  485TMC3    H1 7218   4.271   2.675  12.439 -0.7457 -0.6807 -0.1702
  485TMC3    H2 7219   4.639   2.565  12.601  0.0294  0.1483  1.2656
  485TMC3    C7 7220   4.520   2.619  12.380 -0.2519  0.0824  0.4745
  485TMC3    C8 7221   4.528   2.347  12.707  0.7196  0.1791  1.1520
  485TMC3    O1 7222   4.480   2.707  12.303 -0.0262  0.2533  0.2212
  485TMC3    O2 7223   4.613   2.326  12.619 -0.1303 -0.3853 -0.3944
  486MPD2     C 7224   1.059   1.369  13.238 -0.8658  0.5479  0.0297
  486MPD2    C1 7225   1.153   1.357  13.143  0.1010  0.1934 -0.2825
  486MPD2    C2 7226   1.171   1.449  13.044  0.4474  0.5399  0.3089
  486MPD2    C3 7227   1.107   1.571  13.050  0.5386  0.3430 -0.1492
  486MPD2    C4 7228   1.009   1.592  13.144  0.9681  1.1826 -0.5312
  486MPD2    C5 7229   0.986   1.485  13.235  0.1513 -0.0810 -0.1319
  486MPD2     H 7230   1.240   1.438  12.960 -0.7174 -4.1562 -0.0230
  486MPD2    H1 7231   0.957   1.686  13.159 -0.6254  0.3220 -0.7791
  486MPD2    H2 7232   1.038   1.297  13.316 -0.4125 -0.4897 -0.8116
  486MPD2    H3 7233   0.913   1.504  13.313 -2.1547 -2.6267 -1.6855
  486MPD2     N 7234   1.148   1.674  12.962  0.7155  0.2003 -0.0693
  486MPD2    H5 7235   1.211   1.651  12.886  0.2267 -1.1131 -0.0789
  486MPD2    N1 7236   1.237   1.244  13.152 -0.0545 -0.0714  0.0362
  486MPD2    H7 7237   1.221   1.179  13.227 -0.0237 -1.5525 -1.2417
  487TMC3    C1 7238   1.403   1.073  13.111  0.0673  0.5318 -0.2736
  487TMC3    C2 7239   1.315   0.972  13.141 -0.4255 -0.8453  0.1946
  487TMC3    C3 7240   1.376   0.852  13.146 -0.7099 -0.3590  0.2410
  487TMC3    C4 7241   1.536   1.065  13.122  0.3823 -0.5989  1.2453
  487TMC3    C5 7242   1.594   0.942  13.138 -0.0264 -0.0415 -0.3794
  487TMC3    C6 7243   1.514   0.835  13.148 -0.2419 -0.1903  0.4409
  487TMC3     C 7244   1.350   1.209  13.079  0.1055 -0.5455 -0.4414
  487TMC3     O 7245   1.405   1.279  12.992 -0.5893  0.2080 -0.0483
  487TMC3     H 7246   1.207   0.974  13.134 -0.3595  0.3148 -0.5224
  487TMC3    H1 7247   1.593   1.158  13.119  1.5795 -1.3963 -1.0712
  487TMC3    H2 7248   1.558   0.742  13.185 -0.4474 -0.2248  0.5980
  487TMC3    C7 7249   1.704   0.935  13.228 -0.3905  0.9192  0.1392
  487TMC3    C8 7250   1.297   0.727  13.160  0.0606  0.0182  0.5247
  487TMC3    O1 7251   1.715   1.022  13.317  0.1369  0.1702  0.3769
  487TMC3    O2 7252   1.349   0.624  13.111 -0.2182 -0.2370  0.0004
  488MPD2     C 7253   1.430   2.662  16.546  0.9412  0.5983 -0.1233
  488MPD2    C1 7254   1.462   2.740  16.656  0.5107 -0.0925 -0.2856
  488MPD2    C2 7255   1.428   2.695  16.783 -0.2971  0.1018 -0.8764
  488MPD2    C3 7256   1.367   2.568  16.802  0.4473  0.1508 -0.2867
  488MPD2    C4 7257   1.339   2.494  16.692 -0.0127 -0.5789 -0.5492
  488MPD2    C5 7258   1.368   2.537  16.559  0.0210  0.4753 -0.3993
  488MPD2     H 7259   1.451   2.758  16.868  0.2428 -0.6090 -0.5020
  488MPD2    H1 7260   1.315   2.388  16.694  0.1700 -0.5981  0.8462
  488MPD2    H2 7261   1.466   2.694  16.448  2.8650 -0.1751  0.3424
  488MPD2    H3 7262   1.347   2.474  16.474  0.0378 -0.3065  0.1818
  488MPD2     N 7263   1.361   2.519  16.933 -0.1390 -0.0282  0.6011
  488MPD2    H5 7264   1.410   2.578  17.000  1.3469 -1.9687  1.2230
  488MPD2    N1 7265   1.535   2.861  16.652 -0.0572 -0.3359 -0.1935
  488MPD2    H7 7266   1.550   2.913  16.738 -0.8611 -1.7616  0.8116
  489TMC3    C1 7267   1.297   2.389  17.117 -0.9102 -0.6083 -0.1938
  489TMC3    C2 7268   1.345   2.489  17.194  1.0089  0.2763  0.4740
  489TMC3    C3 7269   1.309   2.502  17.323 -0.6275  0.1856  0.1401
  489TMC3    C4 7270   1.212   2.291  17.168  0.0271  1.0355 -0.1043
  489TMC3    C5 7271   1.180   2.310  17.297 -0.4492  0.5438  0.0518
  489TMC3    C6 7272   1.231   2.407  17.374  0.1674 -0.7639  0.5833
  489TMC3     C 7273   1.304   2.400  16.973 -0.3328  0.0407 -0.3362
  489TMC3     O 7274   1.226   2.330  16.909  0.0479 -0.0189 -0.6270
  489TMC3     H 7275   1.416   2.561  17.155  1.2696  0.0912  0.6119
  489TMC3    H1 7276   1.151   2.233  17.099 -0.5821  1.1269  0.3620
  489TMC3    H2 7277   1.187   2.410  17.473 -2.3794  2.8939 -0.6993
  489TMC3    C7 7278   1.076   2.238  17.368  0.2666  0.3916 -0.1030
  489TMC3    C8 7279   1.356   2.620  17.390 -0.0331 -0.4804  0.4192
  489TMC3    O1 7280   1.119   2.192  17.472 -0.5257 -0.5954  0.1470
  489TMC3    O2 7281   1.464   2.665  17.347 -0.8630  0.0280 -0.0957
  490MPD2     C 7282   2.139   2.379   0.840 -0.9366 -1.0138 -0.2008
  490MPD2    C1 7283   2.156   2.335   0.709 -0.0985  1.0501 -0.2153
  490MPD2    C2 7284   2.237   2.412   0.626  0.2762 -0.2523 -0.8677
  490MPD2    C3 7285   2.296   2.528   0.675  0.6726  0.1952 -0.1598
  490MPD2    C4 7286   2.281   2.568   0.804  0.9995  0.2030  0.4760
  490MPD2    C5 7287   2.201   2.490   0.887 -0.2783  0.1118 -0.2821
  490MPD2     H 7288   2.259   2.385   0.523 -2.7505  0.6849 -1.7632
  490MPD2    H1 7289   2.322   2.660   0.843 -1.7207  1.5534  0.1863
  490MPD2    H2 7290   2.079   2.324   0.911 -0.9490  0.9323  1.3074
  490MPD2    H3 7291   2.162   2.518   0.985 -0.8486 -0.3783 -0.3687
  490MPD2     N 7292   2.386   2.610   0.603 -0.5116  0.5747  0.2583
  490MPD2    H5 7293   2.467   2.640   0.655  0.6022 -1.0232 -0.5623
  490MPD2    N1 7294   2.094   2.218   0.653  0.0468 -0.1198  0.1783
  490MPD2    H7 7295   2.125   2.191   0.560  0.0786 -0.2726  0.2331
  491TMC3    C1 7296   2.003   2.015   0.652 -1.0217  0.2272  0.4333
  491TMC3    C2 7297   2.014   1.904   0.726  0.1562 -0.9030  0.1908
  491TMC3    C3 7298   2.005   1.780   0.666  0.4228  0.3043 -0.0271
  491TMC3    C4 7299   1.978   2.015   0.521 -0.3201 -0.3804 -0.7356
  491TMC3    C5 7300   1.984   1.893   0.454 -0.2848 -0.5068  0.1001
  491TMC3    C6 7301   1.994   1.771   0.527  0.0083 -0.7033  0.1863
  491TMC3     C 7302   2.015   2.135   0.724  0.3202  0.2343 -0.5014
  491TMC3     O 7303   1.953   2.156   0.826 -0.0093 -0.2087 -0.0929
  491TMC3     H 7304   2.018   1.906   0.834 -0.0961 -2.4864  0.2324
  491TMC3    H1 7305   1.959   2.110   0.471  0.2396 -0.0947 -0.4070
  491TMC3    H2 7306   1.994   1.678   0.472  1.2326 -1.0603  0.7973
  491TMC3    C7 7307   1.941   1.888   0.317 -0.1028  0.0216 -0.0536
  491TMC3    C8 7308   1.948   1.674   0.748 -0.2464 -0.3167  0.6735
  491TMC3    O1 7309   1.873   1.787   0.300 -0.1837  0.2818  0.3434
  491TMC3    O2 7310   1.935   1.691   0.866  0.0249  0.0354  0.2802
  492MPD2     C 7311   2.466   2.438  11.515 -0.6764 -0.1136 -0.1522
  492MPD2    C1 7312   2.409   2.314  11.511  0.0465  0.0033  0.4794
  492MPD2    C2 7313   2.315   2.267  11.602  0.0488 -0.2419  0.4399
  492MPD2    C3 7314   2.276   2.351  11.709 -0.9568 -0.8398 -0.1027
  492MPD2    C4 7315   2.338   2.474  11.725  0.3782 -0.3379 -0.0870
  492MPD2    C5 7316   2.422   2.511  11.621 -0.1443 -0.3080 -0.0442
  492MPD2     H 7317   2.273   2.167  11.607 -1.0182  0.2889  2.1803
  492MPD2    H1 7318   2.302   2.541  11.802 -4.5763 -2.5768 -0.4446
  492MPD2    H2 7319   2.534   2.467  11.435  0.7627 -2.2720  0.3107
  492MPD2    H3 7320   2.464   2.611  11.619  0.3281 -0.5018  0.1974
  492MPD2     N 7321   2.180   2.313  11.810  0.3743  0.7643 -0.5135
  492MPD2    H5 7322   2.175   2.376  11.890 -0.9933 -0.9511  0.7476
  492MPD2    N1 7323   2.434   2.240  11.389 -0.2687 -0.1607 -0.2813
  492MPD2    H7 7324   2.517   2.263  11.335  0.0047  0.0714  0.2389
  493TMC3    C1 7325   2.394   2.093  11.210  0.8628 -0.8820  0.0496
  493TMC3    C2 7326   2.452   2.186  11.125 -0.6477  0.4663  0.6620
  493TMC3    C3 7327   2.462   2.147  10.995  0.1368 -0.8317 -0.5274
  493TMC3    C4 7328   2.349   1.973  11.167  0.5566 -0.1694  0.7129
  493TMC3    C5 7329   2.362   1.940  11.036  0.3894  0.1409  0.4390
  493TMC3    C6 7330   2.424   2.021  10.950 -1.1511  0.5980  0.1501
  493TMC3     C 7331   2.371   2.123  11.351  0.0852 -0.1112 -0.0437
  493TMC3     O 7332   2.304   2.049  11.415  0.0260  0.5695 -0.5888
  493TMC3     H 7333   2.480   2.286  11.153  0.4420  0.0695  1.0038
  493TMC3    H1 7334   2.316   1.896  11.235  1.4084 -2.7648 -1.7899
  493TMC3    H2 7335   2.443   1.995  10.846 -0.3805  0.6025  0.2867
  493TMC3    C7 7336   2.268   1.846  10.983  0.3669 -0.5299 -0.4721
  493TMC3    C8 7337   2.550   2.231  10.916  0.4577 -0.4827 -0.6357
  493TMC3    O1 7338   2.201   1.885  10.890  0.6996 -0.0111  0.2214
  493TMC3    O2 7339   2.614   2.310  10.983  0.3253  0.7548 -0.1493
  494TMC3    C1 7340   3.066   3.807   0.835  0.0969  1.2136  0.4174
  494TMC3    C2 7341   3.141   3.695   0.827 -0.5015  0.3590  0.3784
  494TMC3    C3 7342   3.161   3.639   0.706 -0.2277  0.6417  0.4892
  494TMC3    C4 7343   3.024   3.866   0.716 -0.0171  0.0095 -0.3820
  494TMC3    C5 7344   3.054   3.802   0.599  0.5283  1.2397  0.7101
  494TMC3    C6 7345   3.111   3.682   0.588 -0.6251  0.3866  0.1044
  494TMC3     C 7346   3.052   3.865   0.973 -0.2197  0.1582 -0.7670
  494TMC3     O 7347   3.064   3.798   1.074  0.3117  1.2956  0.2359
  494TMC3     H 7348   3.167   3.646   0.920  1.3944 -0.8939 -0.8079
  494TMC3    H1 7349   2.956   3.951   0.714 -1.1382 -0.8942 -0.3196
  494TMC3    H2 7350   3.128   3.628   0.495 -2.2841  1.8797 -1.0773
  494TMC3    C7 7351   3.022   3.868   0.475  0.1724  0.1888  0.2655
  494TMC3    C8 7352   3.203   3.498   0.715 -0.2398  0.1922  0.5422
  494TMC3    O1 7353   3.014   3.795   0.376  0.3311  0.2032 -0.1107
  494TMC3    O2 7354   3.182   3.438   0.822  0.2057  0.5272 -0.6436
  495TMC3    C1 7355   1.585   1.247  14.969 -1.0548  0.2953 -0.2937
  495TMC3    C2 7356   1.540   1.323  14.861 -0.1574  0.4887 -0.0480
  495TMC3    C3 7357   1.459   1.422  14.890  0.1524 -0.3113  0.2237
  495TMC3    C4 7358   1.579   1.299  15.095  0.8568  0.2555  0.2022
  495TMC3    C5 7359   1.492   1.402  15.120 -0.0612  0.6296 -0.3681
  495TMC3    C6 7360   1.429   1.459  15.017 -0.1715 -0.4311 -0.4854
  495TMC3     C 7361   1.561   1.109  14.950 -0.2858 -0.1770 -0.0748
  495TMC3     O 7362   1.467   1.081  14.873  0.0473 -0.3427 -0.5615
  495TMC3     H 7363   1.555   1.276  14.765  2.0767  0.0226  0.5166
  495TMC3    H1 7364   1.607   1.243  15.184 -2.2375 -1.7431 -0.0828
  495TMC3    H2 7365   1.350   1.527  15.047  1.9269  1.4529  0.8009
  495TMC3    C7 7366   1.418   1.379  15.248 -0.2715  0.9744 -0.4296
  495TMC3    C8 7367   1.374   1.461  14.784  0.6686  0.6457 -0.3064
  495TMC3    O1 7368   1.480   1.386  15.355  0.8493  0.5165  0.7040
  495TMC3    O2 7369   1.273   1.510  14.835  0.0352  0.0750  0.1807
  496MPD2     C 7370   3.885   1.214  15.733  0.2897 -0.1868  0.7157
  496MPD2    C1 7371   3.814   1.100  15.716  0.3100  0.4579  0.0581
  496MPD2    C2 7372   3.693   1.079  15.781  0.4337 -0.2327  0.0918
  496MPD2    C3 7373   3.644   1.174  15.870  0.2504  0.0656  0.3919
  496MPD2    C4 7374   3.720   1.289  15.893 -0.2476 -0.1988  1.0029
  496MPD2    C5 7375   3.833   1.309  15.817  0.0967 -0.2487 -0.2738
  496MPD2     H 7376   3.639   0.986  15.769 -2.3869  1.0286  3.0602
  496MPD2    H1 7377   3.691   1.371  15.958  0.4154  0.2372  0.7449
  496MPD2    H2 7378   3.987   1.237  15.702  1.0488 -0.0756  3.3522
  496MPD2    H3 7379   3.895   1.398  15.828  0.0881 -0.1038 -1.3392
  496MPD2     N 7380   3.532   1.156  15.948 -0.1757 -0.5855 -0.4928
  496MPD2    H5 7381   3.534   1.219  16.028 -1.0387 -0.0211 -0.9151
  496MPD2    N1 7382   3.847   1.011  15.620  0.0075 -0.1292 -0.3323
  496MPD2    H7 7383   3.783   0.933  15.614 -1.6700  1.0873  1.4612
  497TMC3    C1 7384   3.340   1.046  16.045 -1.1184  0.2221  0.0795
  497TMC3    C2 7385   3.212   1.012  16.028  0.4197 -0.2797  0.3226
  497TMC3    C3 7386   3.133   1.005  16.137  0.4068  0.1845 -0.0928
  497TMC3    C4 7387   3.397   1.067  16.169  0.0322  0.2363 -0.3787
  497TMC3    C5 7388   3.325   1.038  16.277  0.5858  0.2318 -0.4062
  497TMC3    C6 7389   3.190   1.011  16.262 -0.8729 -0.6143  0.9240
  497TMC3     C 7390   3.430   1.065  15.931 -0.9228  1.2303  0.1867
  497TMC3     O 7391   3.405   1.009  15.824  0.0447 -0.6894 -0.3926
  497TMC3     H 7392   3.170   1.009  15.928 -1.5884  1.8090  1.0885
  497TMC3    H1 7393   3.501   1.096  16.183  0.0656  0.4544 -1.0563
  497TMC3    H2 7394   3.126   1.009  16.350 -0.9886 -0.4295  0.8440
  497TMC3    C7 7395   3.378   1.069  16.411 -0.2484  0.8154  0.5207
  497TMC3    C8 7396   2.993   1.016  16.120 -0.3614  0.5127  0.1684
  497TMC3    O1 7397   3.489   1.119  16.413 -0.2361 -0.3774 -0.0217
  497TMC3    O2 7398   2.933   0.959  16.210  0.3628 -0.0341  0.0367
  498MPD2     C 7399   3.491   1.876   9.596  0.6266  0.0867 -0.0230
  498MPD2    C1 7400   3.582   1.832   9.691  0.5783 -0.9463 -1.1421
  498MPD2    C2 7401   3.541   1.749   9.795  0.4345 -0.3877 -0.3826
  498MPD2    C3 7402   3.411   1.698   9.804  0.1352 -0.0716  0.2529
  498MPD2    C4 7403   3.329   1.729   9.693 -0.0086 -0.0017  0.0123
  498MPD2    C5 7404   3.364   1.819   9.599  0.1124  0.0628  0.4707
  498MPD2     H 7405   3.616   1.714   9.865 -0.2398 -0.6919  0.1843
  498MPD2    H1 7406   3.235   1.678   9.675  0.9077 -2.2935  1.6202
  498MPD2    H2 7407   3.518   1.936   9.510  0.8653 -0.9248 -0.6565
  498MPD2    H3 7408   3.300   1.843   9.515 -0.0993  1.9202  1.1713
  498MPD2     N 7409   3.377   1.612   9.912 -0.2334  0.9397  0.1507
  498MPD2    H5 7410   3.435   1.630   9.993 -1.1089  1.3575  0.6981
  498MPD2    N1 7411   3.721   1.866   9.679  0.1040  0.3303 -0.4476
  498MPD2    H7 7412   3.785   1.830   9.749 -1.7362 -0.3781  0.8768
  499TMC3    C1 7413   3.918   1.964   9.592  0.0812 -0.6451  0.1327
  499TMC3    C2 7414   3.990   1.866   9.658  0.2104  0.1412  1.0876
  499TMC3    C3 7415   4.110   1.895   9.716  0.3177 -0.1357 -0.0411
  499TMC3    C4 7416   3.969   2.089   9.569 -0.3118  0.0200  0.4384
  499TMC3    C5 7417   4.099   2.107   9.606  0.3328  0.0235  0.2570
  499TMC3    C6 7418   4.174   2.018   9.681  1.1502 -0.1205  0.6708
  499TMC3     C 7419   3.774   1.959   9.592  0.1361  0.3545 -0.4863
  499TMC3     O 7420   3.723   2.039   9.514 -0.0902  0.0886 -0.1229
  499TMC3     H 7421   3.948   1.768   9.677 -1.9991  0.8613 -0.0310
  499TMC3    H1 7422   3.901   2.168   9.541  0.8894  0.5561 -0.9402
  499TMC3    H2 7423   4.272   2.042   9.719 -0.0872  0.1483  3.6543
  499TMC3    C7 7424   4.142   2.239   9.602  0.8013  0.5844 -0.1829
  499TMC3    C8 7425   4.195   1.787   9.766 -0.6459 -1.1089 -0.0377
  499TMC3    O1 7426   4.243   2.260   9.664  0.1182 -0.5590  0.2852
  499TMC3    O2 7427   4.315   1.809   9.748  0.1730 -0.2528 -0.2433
  500MPD2     C 7428   1.378   3.509  10.126  0.0989  0.1383  0.3588
  500MPD2    C1 7429   1.338   3.627  10.194  0.0127 -0.0464 -0.0801
  500MPD2    C2 7430   1.205   3.673  10.185  0.2194  0.4695 -0.0019
  500MPD2    C3 7431   1.112   3.595  10.116 -0.3876  0.0383  0.0631
  500MPD2    C4 7432   1.152   3.479  10.047  0.0178  0.0205  0.2994
  500MPD2    C5 7433   1.284   3.445  10.047 -0.1299  0.4983  0.1147
  500MPD2     H 7434   1.176   3.761  10.243  2.4463  1.6975 -0.7356
  500MPD2    H1 7435   1.077   3.419   9.996 -0.0854 -0.7490  1.3496
  500MPD2    H2 7436   1.476   3.462  10.132  0.2075  0.0725 -1.7862
  500MPD2    H3 7437   1.312   3.353   9.998  1.8864  1.2021 -0.0450
  500MPD2     N 7438   0.975   3.616  10.122  0.1598  0.3489 -0.3398
  500MPD2    H5 7439   0.920   3.546  10.074 -0.5069 -0.3754  1.4830
  500MPD2    N1 7440   1.434   3.707  10.264 -0.2029  0.1861  0.3596
  500MPD2    H7 7441   1.529   3.674  10.258  0.3849  2.3904 -2.3106
  501TMC3    C1 7442   1.553   3.882  10.360  0.9825  0.4695 -0.0389
  501TMC3    C2 7443   1.560   4.013  10.365 -0.2421  0.0936  0.0343
  501TMC3    C3 7444   1.677   4.071  10.414  0.4588  0.0144  0.2613
  501TMC3    C4 7445   1.656   3.797  10.398 -0.3125 -0.3393 -0.4207
  501TMC3    C5 7446   1.766   3.855  10.450 -0.7491 -0.3457  0.2598
  501TMC3    C6 7447   1.779   3.992  10.457  0.8194 -0.2259  0.0634
  501TMC3     C 7448   1.420   3.832  10.316 -0.6981 -0.3197  0.0432
  501TMC3     O 7449   1.328   3.906  10.334 -0.4841 -0.0636  0.9936
  501TMC3     H 7450   1.471   4.073  10.353 -1.3597 -1.7059 -0.5856
  501TMC3    H1 7451   1.643   3.692  10.424  0.9119 -0.3953 -0.0053
  501TMC3    H2 7452   1.870   4.038  10.493  0.6761 -0.1913  0.3808
  501TMC3    C7 7453   1.877   3.766  10.491 -0.1844 -0.6480  0.4443
  501TMC3    C8 7454   1.657   4.191  10.505 -0.1287 -0.5307  0.1526
  501TMC3    O1 7455   1.883   3.660  10.428  0.0650  0.0370  0.4479
  501TMC3    O2 7456   1.750   4.215  10.586  0.5851  0.0718  0.4401
  502TMC3    C1 7457   1.114   2.039  15.637  0.7717 -1.3499  0.7966
  502TMC3    C2 7458   1.089   2.165  15.578  0.1818  0.3327  0.8838
  502TMC3    C3 7459   0.962   2.181  15.533 -0.4951  0.3525  0.0760
  502TMC3    C4 7460   1.012   1.946  15.661  0.5846 -0.7256  0.5177
  502TMC3    C5 7461   0.890   1.978  15.628 -0.5687 -0.1989 -1.3141
  502TMC3    C6 7462   0.859   2.098  15.563 -0.4472  0.2197  0.3859
  502TMC3     C 7463   1.242   2.006  15.695  0.7144 -0.2107  0.4766
  502TMC3     O 7464   1.346   2.038  15.641  0.1892  0.4748 -0.1583
  502TMC3     H 7465   1.169   2.235  15.555 -0.2683 -0.2522 -2.4636
  502TMC3    H1 7466   1.031   1.861  15.725 -2.2499 -1.1227  0.8219
  502TMC3    H2 7467   0.758   2.113  15.526 -0.2912 -1.6658 -0.8575
  502TMC3    C7 7468   0.795   1.871  15.662  0.3664  0.7987  0.1983
  502TMC3    C8 7469   0.925   2.317  15.511  0.5408  0.8809 -0.1363
  502TMC3    O1 7470   0.835   1.777  15.733  0.4800 -0.3950 -0.1466
  502TMC3    O2 7471   1.011   2.397  15.473 -0.2708  0.3844 -0.6511
  503MPD2     C 7472   3.063   2.819  16.862  0.4503  0.1813 -0.5656
  503MPD2    C1 7473   3.072   2.838  16.999  0.4099  0.4349 -0.0846
  503MPD2    C2 7474   3.109   2.733  17.076 -0.0620 -0.0961  0.3856
  503MPD2    C3 7475   3.146   2.611  17.016  0.0567  0.0435  1.1048
  503MPD2    C4 7476   3.139   2.592  16.877  0.6492 -0.0390 -0.3762
  503MPD2    C5 7477   3.102   2.700  16.803  0.4749  0.3542  0.6893
  503MPD2     H 7478   3.095   2.741  17.183  2.3214  0.4648  0.6494
  503MPD2    H1 7479   3.158   2.501  16.822 -0.7383 -0.1754 -0.6297
  503MPD2    H2 7480   3.037   2.903  16.799 -0.0803  1.5156  1.4369
  503MPD2    H3 7481   3.103   2.683  16.696 -1.0988  2.4658  0.3281
  503MPD2     N 7482   3.188   2.499  17.099  0.0757  0.7017 -0.0042
  503MPD2    H5 7483   3.172   2.516  17.198 -2.1067  0.0019 -0.2219
  503MPD2    N1 7484   3.046   2.961  17.063  0.1128  0.2243 -0.0500
  503MPD2    H7 7485   3.040   2.955  17.165 -1.7924 -0.4307 -0.1981
  504TMC3    C1 7486   3.296   2.300  17.160  0.4153 -0.7731 -0.2908
  504TMC3    C2 7487   3.234   2.288  17.285  0.0689 -0.5047 -0.8133
  504TMC3    C3 7488   3.307   2.224  17.382 -0.3844 -0.1930 -0.3040
  504TMC3    C4 7489   3.399   2.226  17.122  0.2730 -0.0771 -0.1507
  504TMC3    C5 7490   3.459   2.154  17.220  0.0104  0.7020  0.0671
  504TMC3    C6 7491   3.420   2.164  17.354 -0.6396 -0.1012 -0.0958
  504TMC3     C 7492   3.234   2.382  17.053 -0.3761 -0.0122 -0.5447
  504TMC3     O 7493   3.276   2.346  16.939  0.1204 -0.4988 -0.7081
  504TMC3     H 7494   3.141   2.337  17.311 -0.4369 -1.2166 -1.2702
  504TMC3    H1 7495   3.441   2.222  17.023  2.5067  0.8518  0.7495
  504TMC3    H2 7496   3.492   2.125  17.424  0.1616  1.9988  0.2596
  504TMC3    C7 7497   3.579   2.082  17.187  0.5378 -0.4746 -0.3457
  504TMC3    C8 7498   3.238   2.206  17.509 -0.9672  0.3469 -0.5232
  504TMC3    O1 7499   3.610   2.077  17.069  0.8294 -0.0931 -0.8672
  504TMC3    O2 7500   3.128   2.257  17.522 -0.0540  0.0548  0.0465
  505MPD2     C 7501   3.312   0.708  11.192  0.4190  0.1856 -0.5743
  505MPD2    C1 7502   3.428   0.719  11.110  0.8266 -0.0487  0.2889
  505MPD2    C2 7503   3.510   0.829  11.124 -0.3068  0.2326 -0.4985
  505MPD2    C3 7504   3.469   0.937  11.197  0.2239 -0.6752 -0.6480
  505MPD2    C4 7505   3.345   0.933  11.263 -0.5053 -0.0396  0.5911
  505MPD2    C5 7506   3.272   0.817  11.266 -0.2813  0.2595  0.9702
  505MPD2     H 7507   3.607   0.835  11.075  0.0702 -0.9146  0.0932
  505MPD2    H1 7508   3.307   1.022  11.312 -1.4853  0.0471 -0.3340
  505MPD2    H2 7509   3.245   0.623  11.188  2.6290 -1.5585 -0.8276
  505MPD2    H3 7510   3.189   0.811  11.335 -1.5390  4.5010 -0.1756
  505MPD2     N 7511   3.544   1.055  11.176 -0.2259 -0.4982 -0.1626
  505MPD2    H5 7512   3.617   1.045  11.106  0.2149 -1.4215  0.4357
  505MPD2    N1 7513   3.462   0.599  11.033  0.6204  0.3500  0.2848
  505MPD2    H7 7514   3.394   0.523  11.040 -1.6229  2.2156 -1.3413
  506TMC3    C1 7515   3.547   0.500  10.835  0.2015 -0.1598  0.5207
  506TMC3    C2 7516   3.423   0.508  10.780 -0.0955 -0.4968  0.4160
  506TMC3    C3 7517   3.419   0.521  10.644 -0.2332  0.1351 -0.0257
  506TMC3    C4 7518   3.664   0.492  10.767  0.2013 -0.0781 -0.2154
  506TMC3    C5 7519   3.657   0.505  10.633 -0.9339  1.2354  0.0591
  506TMC3    C6 7520   3.534   0.528  10.570 -0.7666  0.4828 -0.3629
  506TMC3     C 7521   3.571   0.585  10.951 -0.2744 -0.4355 -0.5341
  506TMC3     O 7522   3.678   0.649  10.948  0.2016 -0.9292 -0.2267
  506TMC3     H 7523   3.334   0.508  10.843 -0.5861 -2.1100 -0.2637
  506TMC3    H1 7524   3.760   0.467  10.809  1.1553  2.2882 -1.0404
  506TMC3    H2 7525   3.532   0.548  10.464 -1.6319 -0.1201 -0.4577
  506TMC3    C7 7526   3.748   0.602  10.584  0.4866 -0.2664 -0.1456
  506TMC3    C8 7527   3.292   0.563  10.584 -0.1006  1.0002 -0.1200
  506TMC3    O1 7528   3.749   0.621  10.462  0.2849  0.5079 -0.4563
  506TMC3    O2 7529   3.184   0.536  10.636  0.3375 -0.1471 -0.0366
  507TMC3    C1 7530   3.914   2.114  15.160  0.5523 -0.8170  0.1722
  507TMC3    C2 7531   3.926   2.056  15.039  0.9262  0.3203  0.0479
  507TMC3    C3 7532   4.043   2.084  14.971 -0.1613  0.2208 -0.0682
  507TMC3    C4 7533   4.010   2.182  15.221  0.2665  0.3480 -0.3047
  507TMC3    C5 7534   4.122   2.219  15.147  0.1811  1.0060  0.4454
  507TMC3    C6 7535   4.149   2.165  15.022 -0.1082 -0.0468  0.9079
  507TMC3     C 7536   3.783   2.095  15.218 -0.2638 -0.1626  0.2860
  507TMC3     O 7537   3.684   2.087  15.142  0.3351  0.1525  0.2301
  507TMC3     H 7538   3.842   2.011  14.988  0.6192 -0.0417  0.8750
  507TMC3    H1 7539   3.990   2.237  15.312  1.9830  0.6118 -0.0748
  507TMC3    H2 7540   4.239   2.170  14.963  0.0862 -0.8326  1.1376
  507TMC3    C7 7541   4.135   2.362  15.154 -1.4169 -0.2259  0.6842
  507TMC3    C8 7542   4.004   2.111  14.838  0.0171  0.5098 -0.2342
  507TMC3    O1 7543   4.035   2.427  15.141  0.1296 -0.3040 -0.2036
  507TMC3    O2 7544   3.920   2.041  14.785 -0.3475 -0.3084  0.0512
  508MPD2     C 7545   4.677   4.518  16.502 -0.0458 -0.3414  0.1979
  508MPD2    C1 7546   0.065   4.591  16.447  0.9634  0.5915  0.2121
  508MPD2    C2 7547   0.051   4.646  16.318 -0.3513 -0.2624  0.2507
  508MPD2    C3 7548   4.653   4.639  16.253 -0.3158 -0.9095  0.1658
  508MPD2    C4 7549   4.544   4.570  16.310  0.2054  0.8717 -0.3398
  508MPD2    C5 7550   4.564   4.508  16.432  0.0650 -0.3010 -0.3378
  508MPD2     H 7551   0.127   4.713  16.279 -0.2751 -0.4597  0.0626
  508MPD2    H1 7552   4.455   4.544  16.254 -0.3124 -3.3556  2.3874
  508MPD2    H2 7553   4.686   4.463  16.594 -0.4679  0.2273  0.5808
  508MPD2    H3 7554   4.482   4.445  16.466  0.2955 -0.4405 -0.0429
  508MPD2     N 7555   4.650   4.708  16.131  0.2391 -0.3182  0.2791
  508MPD2    H5 7556   0.016   0.023  16.091  1.5360 -1.2831  2.2278
  508MPD2    N1 7557   0.175   4.622  16.542  0.1770  0.1297 -0.0865
  508MPD2    H7 7558   0.156   4.587  16.635  0.2073  1.9896  0.6098
  509TMC3    C1 7559   4.498   0.313  15.836 -0.1069  0.0316  0.1701
  509TMC3    C2 7560   4.599   0.282  15.751  0.0502 -0.2507 -0.1286
  509TMC3    C3 7561   4.677   0.173  15.768 -0.2660  0.2992  0.1820
  509TMC3    C4 7562   4.474   0.230  15.942  0.0727 -0.8524 -0.7879
  509TMC3    C5 7563   4.556   0.122  15.961 -0.0852  0.9007 -0.6137
  509TMC3    C6 7564   4.668   0.095  15.876  1.0090  0.4831  0.6449
  509TMC3     C 7565   4.483   0.453  15.879  0.2413 -0.2870  0.1918
  509TMC3     O 7566   4.429   0.475  15.989 -0.7386  0.0328  0.4574
  509TMC3     H 7567   4.621   0.344  15.665  0.2065 -0.4622 -0.2426
  509TMC3    H1 7568   4.388   0.251  16.004 -0.6863 -1.0993 -1.7578
  509TMC3    H2 7569   4.718   0.000  15.891  0.1394 -0.1127 -0.2029
  509TMC3    C7 7570   4.535   0.029  16.072  0.8109  0.1596 -0.3570
  509TMC3    C8 7571   0.096   0.198  15.743 -0.0361 -0.1134  0.3329
  509TMC3    O1 7572   4.422   0.030  16.115  0.1308 -0.1862  0.5825
  509TMC3    O2 7573   0.149   0.141  15.649 -0.1986 -0.4727  0.2028
  510MPD2     C 7574   3.120   1.888  14.699 -0.2199 -0.3285 -0.6338
  510MPD2    C1 7575   3.148   1.760  14.741  0.0408  0.1884  0.0789
  510MPD2    C2 7576   3.258   1.701  14.681 -0.3970 -0.1549  0.3373
  510MPD2    C3 7577   3.328   1.763  14.577 -1.3532  0.6244  0.3250
  510MPD2    C4 7578   3.289   1.892  14.534 -0.0931 -0.5890 -0.3478
  510MPD2    C5 7579   3.192   1.947  14.602 -0.3375  0.0324  0.6864
  510MPD2     H 7580   3.283   1.596  14.695  1.6104  0.5024  1.5855
  510MPD2    H1 7581   3.316   1.947  14.445  1.2440  1.0615  1.0540
  510MPD2    H2 7582   3.031   1.941  14.730  0.2951 -0.4747  1.1028
  510MPD2    H3 7583   3.144   2.032  14.556  0.0767 -1.0958 -1.8519
  510MPD2     N 7584   3.427   1.690  14.509  0.3152  0.4275  0.8093
  510MPD2    H5 7585   3.458   1.604  14.553 -1.6917 -0.7348 -0.0568
  510MPD2    N1 7586   3.052   1.699  14.822 -0.2825  0.3760  0.1982
  510MPD2    H7 7587   2.969   1.753  14.843 -0.2705  0.0038  1.2396
  511TMC3    C1 7588   2.937   1.525  14.933  0.7419 -0.4683  0.3312
  511TMC3    C2 7589   2.847   1.612  14.986 -0.0553  0.1538 -0.2624
  511TMC3    C3 7590   2.734   1.566  15.050 -0.6135  0.2583 -0.1398
  511TMC3    C4 7591   2.911   1.391  14.937  0.0789  0.5064  0.6303
  511TMC3    C5 7592   2.800   1.345  15.005  0.1693  0.0058 -0.0026
  511TMC3    C6 7593   2.713   1.430  15.072  0.5668 -0.2318 -0.1178
  511TMC3     C 7594   3.064   1.568  14.874  0.1543  0.8327 -0.0534
  511TMC3     O 7595   3.151   1.483  14.851  0.9506  0.5181  0.1394
  511TMC3     H 7596   2.871   1.717  14.993  0.0856  0.1126 -0.1134
  511TMC3    H1 7597   2.970   1.311  14.894 -0.1837 -0.5916  2.3306
  511TMC3    H2 7598   2.623   1.401  15.125 -0.8740  2.1172 -1.2779
  511TMC3    C7 7599   2.756   1.214  14.969 -0.0536  0.0610  0.1656
  511TMC3    C8 7600   2.644   1.655  15.125  0.0992  0.2860 -0.6547
  511TMC3    O1 7601   2.757   1.192  14.848  0.3816 -0.6401  1.0400
  511TMC3    O2 7602   2.699   1.757  15.172 -0.7933 -0.2880  0.3231
  512TMC3    C1 7603   2.373   0.902  13.617  0.5091 -0.6120  0.1458
  512TMC3    C2 7604   2.300   0.948  13.726  0.6268 -0.1287 -0.8629
  512TMC3    C3 7605   2.297   0.861  13.836  0.1268  0.0019 -0.4947
  512TMC3    C4 7606   2.420   0.774  13.608  0.4309  0.4980 -0.2175
  512TMC3    C5 7607   2.417   0.700  13.722  0.2014  0.6437  0.3990
  512TMC3    C6 7608   2.357   0.740  13.839 -0.2828  0.5435 -0.2076
  512TMC3     C 7609   2.427   0.989  13.515  0.1157 -0.1440 -0.1469
  512TMC3     O 7610   2.519   0.943  13.445  0.6457 -0.1603  0.0651
  512TMC3     H 7611   2.272   1.053  13.731 -2.2412 -1.0691  2.6720
  512TMC3    H1 7612   2.468   0.731  13.520 -0.2976 -1.2760  0.2432
  512TMC3    H2 7613   2.347   0.682  13.930  1.4434  0.1544 -0.2630
  512TMC3    C7 7614   2.498   0.577  13.723 -1.1050 -0.3227  0.1684
  512TMC3    C8 7615   2.235   0.908  13.962 -0.4758 -0.5828  0.2015
  512TMC3    O1 7616   2.537   0.529  13.619  0.5396  0.2708  0.1603
  512TMC3    O2 7617   2.227   0.828  14.053  0.8048  0.0186 -0.0855
  513MPD2     C 7618   3.056   1.273  13.185 -0.9330 -0.9966 -0.9793
  513MPD2    C1 7619   3.143   1.185  13.120 -0.1975  0.0360 -0.1669
  513MPD2    C2 7620   3.244   1.130  13.203 -0.2824 -0.1451  0.5386
  513MPD2    C3 7621   3.249   1.151  13.338  0.6705 -0.9467 -0.2606
  513MPD2    C4 7622   3.164   1.244  13.397  0.5804  0.3154 -0.4304
  513MPD2    C5 7623   3.065   1.309  13.322 -0.5620 -0.3712  0.0369
  513MPD2     H 7624   3.307   1.054  13.158  0.3538  0.2700  0.7349
  513MPD2    H1 7625   3.168   1.253  13.505  0.2905 -2.2835 -0.2044
  513MPD2    H2 7626   2.970   1.305  13.128 -1.6298  1.9514  1.7100
  513MPD2    H3 7627   2.995   1.378  13.368 -0.1167  0.7633 -0.9632
  513MPD2     N 7628   3.340   1.073  13.405  0.4361 -0.0790  0.2959
  513MPD2    H5 7629   3.390   1.017  13.336 -0.0918  0.4658 -0.5376
  513MPD2    N1 7630   3.127   1.165  12.979  0.0859  0.2919 -0.5092
  513MPD2    H7 7631   3.087   1.236  12.920  1.0312  0.3919 -1.0361
  514TMC3    C1 7632   3.174   1.052  12.773 -0.0759  0.2245  0.6647
  514TMC3    C2 7633   3.220   1.158  12.704  0.7779  0.4448 -0.8316
  514TMC3    C3 7634   3.269   1.141  12.582 -0.0952  0.9690  0.0335
  514TMC3    C4 7635   3.195   0.928  12.728  0.8063  0.0020 -0.3313
  514TMC3    C5 7636   3.276   0.909  12.619 -0.1162  0.0294  0.4651
  514TMC3    C6 7637   3.302   1.013  12.541  0.2416 -0.7353  0.8589
  514TMC3     C 7638   3.185   1.053  12.916  0.3274  0.4434  0.1089
  514TMC3     O 7639   3.233   0.952  12.967  0.2808  0.3525  0.3858
  514TMC3     H 7640   3.212   1.252  12.757 -0.9568  0.9041 -1.8818
  514TMC3    H1 7641   3.160   0.845  12.788  0.2435 -1.3306 -2.5570
  514TMC3    H2 7642   3.335   0.984  12.443  2.5399  0.2507  1.3403
  514TMC3    C7 7643   3.403   0.836  12.651  0.3699 -0.1847  0.1217
  514TMC3    C8 7644   3.330   1.261  12.525 -0.0676  0.1424  0.9080
  514TMC3    O1 7645   3.480   0.846  12.558 -0.8198  0.5458  0.3779
  514TMC3    O2 7646   3.300   1.365  12.578  0.0452 -0.1111  0.4820
  515MPD2     C 7647   1.466   2.937  15.514  0.5528  0.3289 -0.1622
  515MPD2    C1 7648   1.511   2.902  15.392  0.1063 -0.5898  0.5342
  515MPD2    C2 7649   1.619   2.968  15.338  0.1790  0.1077 -0.1397
  515MPD2    C3 7650   1.689   3.065  15.406  0.2958  0.5720  0.4329
  515MPD2    C4 7651   1.642   3.090  15.538 -0.3835  0.2156 -0.0202
  515MPD2    C5 7652   1.535   3.028  15.589 -0.4935  0.2384 -0.2021
  515MPD2     H 7653   1.647   2.937  15.238 -0.3782  2.3638 -1.0061
  515MPD2    H1 7654   1.694   3.166  15.595  0.3291  0.1516 -0.5933
  515MPD2    H2 7655   1.379   2.886  15.555  1.9870 -1.6711  0.4163
  515MPD2    H3 7656   1.507   3.043  15.693  1.1608  2.0791 -0.0262
  515MPD2     N 7657   1.800   3.129  15.349  0.2137  0.0536 -0.4839
  515MPD2    H5 7658   1.808   3.131  15.248 -0.5648  0.3571 -0.5365
  515MPD2    N1 7659   1.462   2.789  15.311  0.0384 -0.4770 -0.1961
  515MPD2    H7 7660   1.506   2.779  15.220  1.3440 -0.2715  0.4020
  516TMC3    C1 7661   1.367   2.582  15.253 -0.0587  0.0007 -0.6408
  516TMC3    C2 7662   1.364   2.617  15.119  0.4815 -0.6886 -0.2913
  516TMC3    C3 7663   1.342   2.512  15.041 -0.3008  0.0740  0.4926
  516TMC3    C4 7664   1.346   2.452  15.299  0.1468  0.1782 -0.1714
  516TMC3    C5 7665   1.291   2.356  15.214 -0.7724 -0.3602  0.3658
  516TMC3    C6 7666   1.302   2.380  15.078  0.1874  0.3110 -0.4933
  516TMC3     C 7667   1.387   2.684  15.359  0.7909 -0.6994  0.7341
  516TMC3     O 7668   1.369   2.649  15.474 -0.0506 -0.4403 -0.0414
  516TMC3     H 7669   1.362   2.722  15.092  2.5827 -0.6578 -0.2914
  516TMC3    H1 7670   1.343   2.435  15.406 -0.9678 -0.7498 -0.3521
  516TMC3    H2 7671   1.278   2.301  15.008 -2.2223  0.8028 -0.2200
  516TMC3    C7 7672   1.279   2.220  15.262  0.0948 -0.3322  0.2194
  516TMC3    C8 7673   1.330   2.536  14.902 -0.3439  0.4393 -0.7659
  516TMC3    O1 7674   1.360   2.183  15.344  0.3462  0.2409  0.0378
  516TMC3    O2 7675   1.271   2.446  14.838 -0.1222 -0.1959  0.1849
  517MPD2     C 7676   1.171   4.094   0.259 -0.0270  0.2610  0.0631
  517MPD2    C1 7677   1.293   4.068   0.324 -0.3492 -0.3909  0.2493
  517MPD2    C2 7678   1.337   4.147   0.428  1.2077  0.8054 -0.5295
  517MPD2    C3 7679   1.254   4.246   0.476 -0.0085 -0.8891  0.4616
  517MPD2    C4 7680   1.126   4.252   0.421 -0.4663  0.0882 -0.2002
  517MPD2    C5 7681   1.076   4.172   0.318  0.1372  0.3295 -0.6628
  517MPD2     H 7682   1.424   4.113   0.483 -0.7865 -1.6368  1.1133
  517MPD2    H1 7683   1.050   4.313   0.468  0.0470 -1.5440  2.7133
  517MPD2    H2 7684   1.140   4.035   0.173  1.3650 -0.7484  0.2398
  517MPD2    H3 7685   0.981   4.187   0.267 -0.5664  0.8467  0.7861
  517MPD2     N 7686   1.302   4.324   0.584 -0.3084 -0.0344 -0.4049
  517MPD2    H5 7687   1.399   4.310   0.611 -0.7949 -0.2276  1.2541
  517MPD2    N1 7688   1.369   3.956   0.287 -0.0931 -0.2138 -0.6346
  517MPD2    H7 7689   1.466   3.952   0.316  0.3084  0.1608 -1.9539
  518TMC3    C1 7690   1.441   3.749   0.205  0.4220  1.9690  0.3814
  518TMC3    C2 7691   1.420   3.615   0.199  0.2224 -0.1871 -0.3303
  518TMC3    C3 7692   1.504   3.526   0.146 -0.0110 -0.3171  0.2234
  518TMC3    C4 7693   1.566   3.795   0.179 -0.4658 -0.4770  0.3992
  518TMC3    C5 7694   1.655   3.703   0.130 -0.3528  0.5231  0.9490
  518TMC3    C6 7695   1.627   3.571   0.116 -0.0680  0.5497  0.5481
  518TMC3     C 7696   1.332   3.843   0.220  0.3704 -0.8271  0.7913
  518TMC3     O 7697   1.217   3.798   0.206  0.3928 -0.9749 -0.0079
  518TMC3     H 7698   1.319   3.580   0.216  0.1368 -0.4287 -1.3583
  518TMC3    H1 7699   1.600   3.891   0.216 -2.0319 -0.9172  2.9624
  518TMC3    H2 7700   1.703   3.499   0.087 -0.9730  0.3944 -1.4237
  518TMC3    C7 7701   1.787   3.757   0.097 -0.1232  0.1162  0.3417
  518TMC3    C8 7702   1.485   3.384   0.138  0.4039  0.0907 -0.6619
  518TMC3    O1 7703   1.801   3.877   0.120  0.0923 -0.2884 -0.0005
  518TMC3    O2 7704   1.545   3.331   0.047 -0.5860  0.5821 -0.5229
  519MPD2     C 7705   3.144   2.882  14.469 -0.4593 -0.4011  0.3505
  519MPD2    C1 7706   3.119   2.852  14.336  0.1340 -0.0058 -0.3301
  519MPD2    C2 7707   3.181   2.740  14.280 -1.0250 -0.2286  0.3331
  519MPD2    C3 7708   3.266   2.656  14.354 -0.1110  0.4310 -0.1230
  519MPD2    C4 7709   3.289   2.690  14.485 -0.0354  0.4182  0.0736
  519MPD2    C5 7710   3.230   2.803  14.539 -0.0666  0.0578 -0.4460
  519MPD2     H 7711   3.149   2.726  14.177  0.5178  0.7425 -0.2976
  519MPD2    H1 7712   3.358   2.639  14.551 -1.0065 -1.9719 -0.7674
  519MPD2    H2 7713   3.107   2.969  14.522 -1.2701  0.0437 -0.9511
  519MPD2    H3 7714   3.243   2.820  14.645 -1.8919  1.2816 -0.4272
  519MPD2     N 7715   3.329   2.536  14.311 -0.8642  0.8660  0.2887
  519MPD2    H5 7716   3.376   2.480  14.382 -1.7178  0.1140  0.2519
  519MPD2    N1 7717   3.020   2.924  14.266  0.3811 -0.2981  0.2749
  519MPD2    H7 7718   2.974   2.998  14.318 -0.1862 -1.9127  2.0519
  520TMC3    C1 7719   3.342   2.344  14.161  0.0229  0.0867 -0.4626
  520TMC3    C2 7720   3.299   2.290  14.043  0.8678  0.9779  0.1143
  520TMC3    C3 7721   3.315   2.157  14.016  0.4606 -0.1658 -0.2520
  520TMC3    C4 7722   3.412   2.265  14.255  0.4272  0.7749 -0.4224
  520TMC3    C5 7723   3.436   2.133  14.217  0.1798  0.9609 -0.4377
  520TMC3    C6 7724   3.389   2.078  14.100  0.1219  0.0492 -0.8257
  520TMC3     C 7725   3.309   2.484  14.184  0.6958  0.7135  0.0201
  520TMC3     O 7726   3.274   2.549  14.083  0.0238 -0.4587 -0.0615
  520TMC3     H 7727   3.244   2.361  13.982  0.4988  0.8308  0.2767
  520TMC3    H1 7728   3.461   2.305  14.343 -1.2990 -1.6060  1.6262
  520TMC3    H2 7729   3.380   1.971  14.090 -0.5113  0.0762 -0.5427
  520TMC3    C7 7730   3.553   2.076  14.274 -0.6992  0.0781  0.6553
  520TMC3    C8 7731   3.257   2.104  13.895  0.0248  0.2653  0.2594
  520TMC3    O1 7732   3.585   2.100  14.390 -0.6162 -0.2581 -0.7038
  520TMC3    O2 7733   3.305   1.995  13.866 -0.0483 -0.0283 -0.5515
  521MPD2     C 7734   3.890   0.566   0.109  0.6909  0.0912  0.1575
  521MPD2    C1 7735   3.902   0.431   0.076 -0.2009 -0.6546  0.3248
  521MPD2    C2 7736   4.022   0.384   0.015 -0.3674 -0.2507  0.2522
  521MPD2    C3 7737   4.126   0.473  17.682 -0.3973  0.3286  0.1899
  521MPD2    C4 7738   4.115   0.606   0.030 -0.4882 -0.3231  0.9158
  521MPD2    C5 7739   3.995   0.646   0.083 -0.0521 -0.3076 -0.3779
  521MPD2     H 7740   4.034   0.281  17.668  0.2584  0.4796 -1.9004
  521MPD2    H1 7741   4.194   0.679   0.021 -1.5009  0.9254  2.3273
  521MPD2    H2 7742   3.798   0.604   0.151  1.4386  0.2926  1.6213
  521MPD2    H3 7743   3.976   0.751   0.102 -0.6997 -0.5086  0.0905
  521MPD2     N 7744   4.244   0.421  17.611 -0.3075 -0.0557 -0.2063
  521MPD2    H5 7745   4.230   0.333  17.562 -1.0493 -0.1516  0.1680
  521MPD2    N1 7746   3.790   0.344   0.104 -0.2445  0.5693 -0.0726
  521MPD2    H7 7747   3.707   0.388   0.142 -0.3311 -0.3916  0.8742
  522TMC3    C1 7748   4.445   0.433  17.493  0.6435  0.1483  0.0502
  522TMC3    C2 7749   4.569   0.392  17.524 -0.0367  0.0208 -0.0879
  522TMC3    C3 7750   4.628   0.318  17.432 -0.5162 -0.0203  0.0489
  522TMC3    C4 7751   4.376   0.411  17.383  0.0811 -0.4125  0.2004
  522TMC3    C5 7752   4.437   0.329  17.290 -0.2272 -0.2321  0.1875
  522TMC3    C6 7753   4.564   0.280  17.317  0.0960 -0.8010  0.2404
  522TMC3     C 7754   4.367   0.483  17.603  0.0912 -0.5040 -0.1784
  522TMC3     O 7755   4.423   0.561  17.680 -0.4009  0.8408 -0.4031
  522TMC3     H 7756   4.619   0.426  17.614 -3.2365  0.4165  1.5437
  522TMC3    H1 7757   4.283   0.461  17.357  0.0579 -0.9888 -0.8129
  522TMC3    H2 7758   4.609   0.200  17.259  1.6772  0.5917 -0.4462
  522TMC3    C7 7759   4.397   0.314  17.157  0.5024  0.2402  1.0768
  522TMC3    C8 7760   0.054   0.331  17.438 -0.3364  0.1407 -0.0575
  522TMC3    O1 7761   4.458   0.233  17.086  0.0580  0.1274  0.0012
  522TMC3    O2 7762   0.108   0.414  17.511 -0.3064  0.4814 -0.1267
  523MPD2     C 7763   1.657   0.465  10.807 -0.1104  0.6180 -0.5471
  523MPD2    C1 7764   1.567   0.417  10.722 -0.0514 -0.5797 -0.4353
  523MPD2    C2 7765   1.482   0.499  10.660  0.8097  0.8482  0.0878
  523MPD2    C3 7766   1.485   0.634  10.691  0.5761  0.6239  0.3200
  523MPD2    C4 7767   1.572   0.679  10.786  0.6985 -0.1342 -0.3585
  523MPD2    C5 7768   1.665   0.596  10.838  0.5815  0.1009 -0.3704
  523MPD2     H 7769   1.407   0.465  10.589 -0.1933  1.0240  1.0614
  523MPD2    H1 7770   1.565   0.785  10.809  0.3833 -0.3939  0.7750
  523MPD2    H2 7771   1.746   0.420  10.847  0.3719  0.6417 -1.6086
  523MPD2    H3 7772   1.736   0.636  10.910  1.6584 -0.9052 -0.8896
  523MPD2     N 7773   1.406   0.731  10.624 -0.6113 -0.6302  0.2220
  523MPD2    H5 7774   1.417   0.828  10.650  0.0347 -0.7408  0.3661
  523MPD2    N1 7775   1.595   0.281  10.685  0.0173  0.4249  0.8021
  523MPD2    H7 7776   1.687   0.250  10.717  0.0427 -0.6735 -0.3577
  524TMC3    C1 7777   1.291   0.808  10.454  0.1389 -0.0877 -0.2045
  524TMC3    C2 7778   1.408   0.837  10.406  0.0840 -0.0673 -0.4028
  524TMC3    C3 7779   1.427   0.955  10.342  0.1917 -0.2749  0.1020
  524TMC3    C4 7780   1.208   0.911  10.497 -0.0703 -0.5206  0.4064
  524TMC3    C5 7781   1.232   1.032  10.442 -0.6418  0.4541  0.0548
  524TMC3    C6 7782   1.344   1.064  10.364  0.0694  0.5918  0.3997
  524TMC3     C 7783   1.302   0.703  10.543  0.5782  0.4016  0.8222
  524TMC3     O 7784   1.250   0.595  10.515  0.0349 -0.4415 -0.2387
  524TMC3     H 7785   1.465   0.753  10.369 -1.3825 -0.5304 -1.6100
  524TMC3    H1 7786   1.110   0.898  10.542 -0.0623  2.9791  1.4506
  524TMC3    H2 7787   1.362   1.160  10.319  0.2714 -1.7866 -4.5267
  524TMC3    C7 7788   1.122   1.129  10.449 -0.0364  0.8230 -0.1636
  524TMC3    C8 7789   1.563   0.978  10.288 -0.4419 -0.1050  0.1175
  524TMC3    O1 7790   1.054   1.123  10.548  0.1552 -0.3365  0.1649
  524TMC3    O2 7791   1.656   0.911  10.326 -0.2910  0.8502  0.4929
  525MPD2     C 7792   4.443   1.905  14.919 -0.3380 -0.2970  0.3520
  525MPD2    C1 7793   4.572   1.871  14.953 -0.3615 -0.0443 -0.8592
  525MPD2    C2 7794   4.684   1.938  14.905 -0.0587  0.2952 -0.4383
  525MPD2    C3 7795   4.660   2.039  14.809 -0.8379  0.1288 -0.4188
  525MPD2    C4 7796   4.533   2.058  14.764  0.0374 -0.5263  0.3607
  525MPD2    C5 7797   4.427   1.989  14.813 -0.1587 -0.4127 -0.0585
  525MPD2     H 7798   0.061   1.906  14.939 -0.1362  1.2565  0.6861
  525MPD2    H1 7799   4.508   2.137  14.693  0.0226 -0.7943  0.0667
  525MPD2    H2 7800   4.354   1.854  14.953  0.1194 -0.6193  1.0600
  525MPD2    H3 7801   4.329   2.009  14.771 -0.9468 -2.5855  0.7131
  525MPD2     N 7802   0.034   2.133  14.748  0.3300  0.7532  0.1063
  525MPD2    H5 7803   0.001   2.205  14.684 -0.8469  1.1797  1.1803
  525MPD2    N1 7804   4.597   1.776  15.048  0.4919  0.4065  0.0553
  525MPD2    H7 7805   4.694   1.765  15.076  1.1295  1.5195 -1.6772
  526TMC3    C1 7806   4.558   1.601  15.206  0.2682  0.6078 -0.0114
  526TMC3    C2 7807   4.467   1.539  15.282 -0.0344  0.0204 -0.0954
  526TMC3    C3 7808   4.496   1.448  15.375 -0.3636  0.4655  0.9929
  526TMC3    C4 7809   4.694   1.574  15.218 -0.4424  0.1314  0.9133
  526TMC3    C5 7810   0.005   1.477  15.307 -0.0752  0.2047 -0.3135
  526TMC3    C6 7811   4.627   1.408  15.381  0.1636 -0.3451  0.6930
  526TMC3     C 7812   4.514   1.677  15.090 -0.0301 -1.1808  0.4029
  526TMC3     O 7813   4.400   1.653  15.058 -0.0537 -0.4148 -1.0486
  526TMC3     H 7814   4.366   1.578  15.276  0.3054  0.7750 -0.8344
  526TMC3    H1 7815   0.045   1.643  15.177 -0.6590  1.3852  2.6580
  526TMC3    H2 7816   4.656   1.333  15.453  0.0024 -0.2561  0.8512
  526TMC3    C7 7817   0.143   1.441  15.308  0.8889  0.2107 -0.0981
  526TMC3    C8 7818   4.426   1.440  15.500  0.0520  0.5575  1.0228
  526TMC3    O1 7819   0.186   1.384  15.406  0.7928  0.0339 -0.5761
  526TMC3    O2 7820   4.495   1.416  15.596  0.2264  0.1644  0.7722
  527MPD2     C 7821   3.299   4.278   2.009  0.4019 -0.1114  0.0096
  527MPD2    C1 7822   3.357   4.159   1.958  0.4443  0.9031  0.2436
  527MPD2    C2 7823   3.415   4.166   1.831  0.2318  0.4824  0.4381
  527MPD2    C3 7824   3.411   4.283   1.753  0.5215  0.1921 -0.2593
  527MPD2    C4 7825   3.356   4.399   1.806 -0.2426  0.3388  0.5450
  527MPD2    C5 7826   3.301   4.396   1.935  0.2162 -0.1737 -0.1108
  527MPD2     H 7827   3.456   4.078   1.784  0.0882  1.1009 -0.8454
  527MPD2    H1 7828   3.331   4.490   1.753 -1.4581 -1.2893 -1.6704
  527MPD2    H2 7829   3.253   4.282   2.107 -1.6537  0.4557 -0.9741
  527MPD2    H3 7830   3.255   4.482   1.982 -0.4364  0.0151 -1.0863
  527MPD2     N 7831   3.461   4.279   1.622 -0.1772  0.6199  0.3287
  527MPD2    H5 7832   3.506   4.195   1.586  0.6169  0.9854  0.4625
  527MPD2    N1 7833   3.353   4.043   2.031  0.5602  0.6466  0.3003
  527MPD2    H7 7834   3.305   4.044   2.120  0.1278  1.0714  0.0589
  528TMC3    C1 7835   3.368   3.807   2.079 -0.0404  0.7563  0.0567
  528TMC3    C2 7836   3.309   3.837   2.198  0.3515 -0.4183 -0.3157
  528TMC3    C3 7837   3.326   3.746   2.297 -0.5805  0.4371 -1.1718
  528TMC3    C4 7838   3.438   3.696   2.046  0.3371  0.3483  0.4894
  528TMC3    C5 7839   3.475   3.625   2.156 -0.0363  0.0781 -0.1902
  528TMC3    C6 7840   3.413   3.641   2.272  0.0536  0.1667  0.0297
  528TMC3     C 7841   3.381   3.916   1.986 -0.1314  0.4886  0.3267
  528TMC3     O 7842   3.458   3.891   1.892  0.1551  0.1475 -0.0689
  528TMC3     H 7843   3.244   3.924   2.207 -0.5202 -1.1591  0.5483
  528TMC3    H1 7844   3.474   3.681   1.944 -0.0881  2.1112  0.0627
  528TMC3    H2 7845   3.452   3.576   2.350 -1.3799  0.4351  0.9831
  528TMC3    C7 7846   3.538   3.494   2.137 -0.1446  0.3256  0.2708
  528TMC3    C8 7847   3.319   3.802   2.428  0.6558  0.0399  0.3240
  528TMC3    O1 7848   3.532   3.401   2.216 -0.1396  0.0747  0.7615
  528TMC3    O2 7849   3.274   3.918   2.429 -0.0640  0.0016 -0.0288
  529MPD2     C 7850   0.396   2.683   1.845 -0.0035  0.0103 -0.3288
  529MPD2    C1 7851   0.494   2.606   1.781  0.0551 -0.0027 -0.7916
  529MPD2    C2 7852   0.483   2.604   1.647  0.0323  0.1811  0.0833
  529MPD2    C3 7853   0.382   2.657   1.567  0.0456 -0.1170  0.4839
  529MPD2    C4 7854   0.288   2.737   1.633  0.2061 -0.1198  0.3027
  529MPD2    C5 7855   0.299   2.749   1.772 -0.0087 -0.2376 -0.2767
  529MPD2     H 7856   0.571   2.555   1.605  0.4893  1.5082 -0.4969
  529MPD2    H1 7857   0.210   2.781   1.572 -0.3015  0.0317  1.0631
  529MPD2    H2 7858   0.379   2.688   1.952 -1.7296  0.3808 -0.6327
  529MPD2    H3 7859   0.216   2.788   1.830  1.0153  0.0727  0.9738
  529MPD2     N 7860   0.366   2.636   1.430 -0.8760 -0.5218 -0.6022
  529MPD2    H5 7861   0.288   2.684   1.387 -1.1198 -0.2172  0.1811
  529MPD2    N1 7862   0.598   2.534   1.842 -0.5386  0.4087 -0.0041
  529MPD2    H7 7863   0.651   2.474   1.779 -0.9129  1.6158 -1.4649
  530TMC3    C1 7864   0.727   2.432   2.009  0.1488  0.0006 -0.7737
  530TMC3    C2 7865   0.815   2.461   2.113  0.2525  0.4949  0.6923
  530TMC3    C3 7866   0.900   2.363   2.136  0.2655 -0.3721  0.6673
  530TMC3    C4 7867   0.724   2.309   1.944  0.9551  0.2377  0.0061
  530TMC3    C5 7868   0.802   2.209   1.998  0.6082  0.2100 -0.7461
  530TMC3    C6 7869   0.897   2.236   2.094 -0.9321  0.4749 -1.1198
  530TMC3     C 7870   0.623   2.528   1.976 -0.3932 -0.3569 -0.6081
  530TMC3     O 7871   0.583   2.600   2.069  0.0993 -0.3421  0.0261
  530TMC3     H 7872   0.805   2.555   2.164 -0.4894  0.5496  0.4541
  530TMC3    H1 7873   0.645   2.300   1.871  0.1535 -1.2065  1.0603
  530TMC3    H2 7874   0.973   2.166   2.129  0.8908  2.6881 -0.6450
  530TMC3    C7 7875   0.782   2.070   1.954 -0.5154 -0.3879 -0.0742
  530TMC3    C8 7876   1.007   2.403   2.225 -0.2806 -0.2374  0.4104
  530TMC3    O1 7877   0.868   1.989   1.986  0.0157 -0.1543 -0.0927
  530TMC3    O2 7878   0.976   2.491   2.301  0.6248 -0.0377  0.0777
  531MPD2     C 7879   3.731   0.719  13.029 -0.4764  0.0610  0.3324
  531MPD2    C1 7880   3.613   0.752  13.077  0.0715  0.0241 -0.2903
  531MPD2    C2 7881   3.504   0.774  12.998  0.3772  0.0127  0.1313
  531MPD2    C3 7882   3.520   0.767  12.862 -0.0519 -0.4088 -0.0370
  531MPD2    C4 7883   3.645   0.735  12.808 -0.8597  0.6149  0.3772
  531MPD2    C5 7884   3.750   0.715  12.895 -0.2540  0.3087  0.4088
  531MPD2     H 7885   3.404   0.805  13.029  0.3582  0.7177 -0.6431
  531MPD2    H1 7886   3.660   0.725  12.701 -2.3968  1.4400  0.0907
  531MPD2    H2 7887   3.810   0.678  13.091 -0.9000 -0.3460  0.6077
  531MPD2    H3 7888   3.846   0.685  12.853 -0.4924  0.0139  0.0744
  531MPD2     N 7889   3.412   0.810  12.785  0.1276 -0.0227  0.3079
  531MPD2    H5 7890   3.329   0.830  12.840 -1.0327 -0.9570 -1.1075
  531MPD2    N1 7891   3.579   0.758  13.214 -1.3887  0.5331  0.5221
  531MPD2    H7 7892   3.482   0.759  13.243 -1.2417  1.6081  0.9527
  532TMC3    C1 7893   3.599   0.788  13.449  0.0738 -0.2116 -0.2810
  532TMC3    C2 7894   3.489   0.871  13.440  1.3545 -0.1898  0.2344
  532TMC3    C3 7895   3.458   0.948  13.554  0.1435  0.4079 -0.6245
  532TMC3    C4 7896   3.676   0.784  13.564 -0.1315  0.5752 -0.3533
  532TMC3    C5 7897   3.628   0.855  13.680  0.5048 -0.4179 -0.6845
  532TMC3    C6 7898   3.518   0.940  13.676 -0.2672  0.5157 -0.0595
  532TMC3     C 7899   3.662   0.754  13.323  0.4663  0.2883  0.1592
  532TMC3     O 7900   3.784   0.749  13.328  0.3536  0.3229  0.2354
  532TMC3     H 7901   3.430   0.871  13.349 -0.6536  2.4809  1.5290
  532TMC3    H1 7902   3.736   0.694  13.574 -1.1967  0.2129  2.7982
  532TMC3    H2 7903   3.499   1.006  13.760  1.2487 -0.0960  0.7595
  532TMC3    C7 7904   3.701   0.840  13.802  0.5051 -0.3662 -0.3756
  532TMC3    C8 7905   3.357   1.052  13.535  0.6142  1.0667 -0.5172
  532TMC3    O1 7906   3.651   0.894  13.896 -0.5334 -0.3701 -0.0167
  532TMC3    O2 7907   3.312   1.113  13.631 -0.2679 -0.2321  1.0468
  533TMC3    C1 7908   0.171   2.296  14.820 -0.1425  0.1799 -0.0925
  533TMC3    C2 7909   0.303   2.336  14.845 -1.2200 -0.5515  0.1363
  533TMC3    C3 7910   0.324   2.443  14.932 -0.1142  0.6773 -0.9895
  533TMC3    C4 7911   0.067   2.365  14.872  0.5878  0.3720  0.4186
  533TMC3    C5 7912   0.099   2.451  14.973  1.0484 -0.1684 -0.2108
  533TMC3    C6 7913   0.222   2.506  14.990 -0.4624  0.3746 -0.1260
  533TMC3     C 7914   0.155   2.153  14.812 -0.7204 -0.2306 -0.6294
  533TMC3     O 7915   0.207   2.101  14.910 -0.0007  0.9394 -0.1080
  533TMC3     H 7916   0.383   2.271  14.811  0.8876  1.8079  0.6269
  533TMC3    H1 7917   4.688   2.322  14.867  0.3662  0.8622  0.6104
  533TMC3    H2 7918   0.241   2.593  15.051  2.2113  0.8026 -1.5864
  533TMC3    C7 7919   0.041   2.406  15.098 -0.3482 -0.4174  0.1183
  533TMC3    C8 7920   0.454   2.508  14.942 -0.0809  0.0302 -0.0611
  533TMC3    O1 7921   4.711   2.293  15.101 -0.1153  0.2158  0.5692
  533TMC3    O2 7922   0.472   2.556  15.049  0.0382 -0.3881 -0.3220
  534MPD2     C 7923   3.186   2.634   1.837  0.1230  0.7295  0.4395
  534MPD2    C1 7924   3.132   2.752   1.794  0.6075  0.2728  0.0164
  534MPD2    C2 7925   2.995   2.767   1.772 -0.6721 -0.3386 -0.1531
  534MPD2    C3 7926   2.912   2.661   1.784 -0.5979 -0.4470  0.0160
  534MPD2    C4 7927   2.961   2.540   1.831  0.4163 -0.1675  0.3218
  534MPD2    C5 7928   3.097   2.528   1.862  0.5095  0.3326  0.4122
  534MPD2     H 7929   2.949   2.856   1.731 -0.6384 -1.4574 -2.6143
  534MPD2    H1 7930   2.894   2.456   1.845  1.4874 -1.2431 -0.9105
  534MPD2    H2 7931   3.288   2.618   1.867  0.4542 -0.0372 -1.0827
  534MPD2    H3 7932   3.146   2.437   1.896  1.0191  0.1199 -0.8610
  534MPD2     N 7933   2.772   2.679   1.763  0.2069  0.2267  0.3154
  534MPD2    H5 7934   2.747   2.776   1.752 -3.1232 -0.5043  1.3784
  534MPD2    N1 7935   3.214   2.867   1.772  0.5319  0.5417 -0.5041
  534MPD2    H7 7936   3.174   2.950   1.730 -2.5602 -0.0491  1.2969
  535TMC3    C1 7937   2.538   2.639   1.724  0.0298  0.4108 -0.1709
  535TMC3    C2 7938   2.422   2.585   1.770  0.4352  0.0934 -0.0563
  535TMC3    C3 7939   2.306   2.630   1.720  0.6307  0.1215  0.2549
  535TMC3    C4 7940   2.546   2.715   1.613  0.1621 -0.5053 -0.5664
  535TMC3    C5 7941   2.431   2.759   1.562 -0.2089 -0.2789  0.2422
  535TMC3    C6 7942   2.313   2.716   1.611  0.5540  1.1259 -0.1314
  535TMC3     C 7943   2.664   2.589   1.776 -1.0849  0.0630 -0.5728
  535TMC3     O 7944   2.668   2.474   1.795  0.0703  0.0102 -0.5093
  535TMC3     H 7945   2.431   2.519   1.856  1.9092  2.0725  1.3354
  535TMC3    H1 7946   2.640   2.734   1.561  0.2252 -1.5076 -0.8139
  535TMC3    H2 7947   2.218   2.742   1.565  0.4721  1.8128  0.4149
  535TMC3    C7 7948   2.440   2.865   1.465 -0.2137  0.0182  0.5859
  535TMC3    C8 7949   2.184   2.642   1.800  0.0324 -0.3532 -0.6452
  535TMC3    O1 7950   2.546   2.860   1.403 -0.4091 -0.1679 -0.0342
  535TMC3    O2 7951   2.102   2.719   1.764 -0.1718 -0.1597 -0.2006
  536MPD2     C 7952   1.667   1.762  16.970  0.1328  1.1005 -0.6937
  536MPD2    C1 7953   1.540   1.720  17.008  1.3526 -0.9455 -0.6912
  536MPD2    C2 7954   1.455   1.682  16.910  0.1172 -0.6009 -0.1819
  536MPD2    C3 7955   1.493   1.677  16.778  0.4027 -0.5921 -0.7270
  536MPD2    C4 7956   1.621   1.707  16.738  0.1498  0.3951 -0.1645
  536MPD2    C5 7957   1.703   1.752  16.840 -0.3923 -0.4891 -0.2505
  536MPD2     H 7958   1.361   1.636  16.936 -0.4931 -0.2209 -1.6753
  536MPD2    H1 7959   1.657   1.706  16.635  0.1042  2.0072 -0.1906
  536MPD2    H2 7960   1.739   1.788  17.047 -0.5236  3.2282 -0.7807
  536MPD2    H3 7961   1.804   1.774  16.807 -1.0252  0.0462 -1.8754
  536MPD2     N 7962   1.424   1.614  16.676  0.0321  0.5923  0.0430
  536MPD2    H5 7963   1.478   1.584  16.596  0.3554 -0.3556  0.6101
  536MPD2    N1 7964   1.517   1.715  17.149  0.3877  0.6963  0.3611
  536MPD2    H7 7965   1.595   1.727  17.213  0.4644  1.2211  0.1701
  537TMC3    C1 7966   1.411   1.647  17.349  0.1943  0.5217 -0.2846
  537TMC3    C2 7967   1.462   1.749  17.428  0.6291 -0.5504 -0.0474
  537TMC3    C3 7968   1.454   1.737  17.567 -0.0354 -0.0368 -0.4205
  537TMC3    C4 7969   1.353   1.536  17.408 -0.3005 -0.1381  0.2313
  537TMC3    C5 7970   1.346   1.534  17.545  0.4486  0.1401  0.3103
  537TMC3    C6 7971   1.405   1.626  17.624  0.1820 -1.0548 -0.3394
  537TMC3     C 7972   1.401   1.667  17.209  0.3219  0.4727 -0.7102
  537TMC3     O 7973   1.304   1.622  17.154 -0.3948 -0.3609  0.1518
  537TMC3     H 7974   1.495   1.840  17.378  0.5646 -1.8757 -2.4754
  537TMC3    H1 7975   1.300   1.468  17.342 -0.9674  0.0226  0.6029
  537TMC3    H2 7976   1.395   1.631   0.047 -1.9957  2.8167 -0.6973
  537TMC3    C7 7977   1.265   1.435  17.609 -0.5303  0.2243 -0.3085
  537TMC3    C8 7978   1.554   1.802  17.651 -0.3296 -0.4882  0.3120
  537TMC3    O1 7979   1.176   1.480  17.681 -0.2542 -0.0735  0.3509
  537TMC3    O2 7980   1.601   1.731   0.053  0.6492  0.1344 -0.4455
  538TMC3    C1 7981   2.470   0.194  11.013 -0.5710 -0.5640 -0.0074
  538TMC3    C2 7982   2.518   0.166  10.889 -0.3218  0.1795  0.3488
  538TMC3    C3 7983   2.443   0.193  10.778 -0.6371  0.4116  0.2644
  538TMC3    C4 7984   2.350   0.252  11.031  0.0785 -0.5824 -0.2853
  538TMC3    C5 7985   2.280   0.282  10.916 -0.2917 -1.2739  0.4891
  538TMC3    C6 7986   2.321   0.250  10.795  0.4966  0.1860 -0.6537
  538TMC3     C 7987   2.548   0.152  11.133  0.4089  0.2914  0.1994
  538TMC3     O 7988   2.491   0.169  11.240 -0.0334  0.3601  0.6122
  538TMC3     H 7989   2.615   0.119  10.880 -0.6626 -0.7531  1.6006
  538TMC3    H1 7990   2.308   0.267  11.130  1.4851  0.8449  0.0821
  538TMC3    H2 7991   2.248   0.241  10.715 -0.0908 -0.0428 -0.0960
  538TMC3    C7 7992   2.144   0.331  10.944 -0.1079 -0.6142  0.1842
  538TMC3    C8 7993   2.489   0.165  10.649  0.6736 -0.8319 -0.4086
  538TMC3    O1 7994   2.053   0.263  10.899  0.3720 -0.6599 -0.2451
  538TMC3    O2 7995   2.420   0.180  10.552  0.5113  0.2148  0.0695
  539MPD2     C 7996   1.991   4.157  12.353 -0.4607 -0.1903  0.0698
  539MPD2    C1 7997   2.012   4.196  12.224 -0.7547 -0.3307 -0.8676
  539MPD2    C2 7998   2.031   4.333  12.208  0.8512  0.2616  0.3179
  539MPD2    C3 7999   2.032   4.416  12.322  0.5852  0.1604  0.1500
  539MPD2    C4 8000   2.010   4.378  12.448 -0.0749  0.0053 -0.0129
  539MPD2    C5 8001   1.981   4.249  12.458  0.2661  0.3719  0.5598
  539MPD2     H 8002   2.058   4.379  12.113 -0.4478  0.3741  0.0121
  539MPD2    H1 8003   2.010   4.441  12.537  2.4474  0.3180 -0.2155
  539MPD2    H2 8004   1.981   4.052  12.379  0.5004 -0.6769 -1.4987
  539MPD2    H3 8005   1.957   4.206  12.554 -0.7488  0.7526  0.4716
  539MPD2     N 8006   2.041   4.556  12.308  0.8105 -0.1613  0.4463
  539MPD2    H5 8007   1.999   4.614  12.380 -0.1983  0.4198 -0.6032
  539MPD2    N1 8008   2.017   4.108  12.108  0.0830  0.0998  0.0475
  539MPD2    H7 8009   2.045   4.148  12.019 -1.0830  2.2349  0.6227
  540TMC3    C1 8010   2.039   0.031  12.178  0.1898  0.1911 -0.1830
  540TMC3    C2 8011   2.084   0.099  12.066 -0.6735 -0.2287  0.6711
  540TMC3    C3 8012   2.012   0.198  12.010  0.1949 -0.0543 -0.4774
  540TMC3    C4 8013   1.927   0.078  12.240  0.1075 -0.0367 -0.4740
  540TMC3    C5 8014   1.870   0.190  12.186  0.1492 -0.6993  0.4553
  540TMC3    C6 8015   1.906   0.254  12.068 -0.0268  0.4618 -0.4799
  540TMC3     C 8016   2.094   4.622  12.204 -0.2240  0.0285  0.1371
  540TMC3     O 8017   2.177   4.576  12.123 -0.0608  0.2359  0.1921
  540TMC3     H 8018   2.177   0.072  12.018 -0.2240  2.3676  0.0904
  540TMC3    H1 8019   1.877   0.036  12.327 -0.3440  0.9957 -0.2344
  540TMC3    H2 8020   1.852   0.330  12.014 -0.9493 -1.3066 -2.0299
  540TMC3    C7 8021   1.747   0.248  12.247 -0.5477 -0.4910  0.5779
  540TMC3    C8 8022   2.049   0.240  11.877 -0.1996  0.0914 -0.6081
  540TMC3    O1 8023   1.686   0.178  12.327 -0.1277  0.3356  0.6022
  540TMC3    O2 8024   2.169   0.262  11.862 -0.0773 -0.1069 -0.4182
  541MPD2     C 8025   0.068   0.947  13.581  0.7368 -0.2509 -0.3473
  541MPD2    C1 8026   0.168   0.907  13.507  0.0838  0.0930 -0.2051
  541MPD2    C2 8027   0.197   0.981  13.392 -0.4875  0.0304 -0.2058
  541MPD2    C3 8028   0.113   1.084  13.353  0.0763  0.4331 -0.0506
  541MPD2    C4 8029   0.007   1.115  13.429  0.0106  0.2240  0.1784
  541MPD2    C5 8030   4.706   1.044  13.546 -0.4043 -0.0257 -0.0829
  541MPD2     H 8031   0.270   0.944  13.321 -3.0187  0.5991 -3.0635
  541MPD2    H1 8032   4.658   1.194  13.404 -1.1052 -0.6891  0.4027
  541MPD2    H2 8033   0.045   0.900  13.676  1.0323 -1.7441 -1.0329
  541MPD2    H3 8034   4.632   1.078  13.619 -0.9752 -1.3217 -0.0556
  541MPD2     N 8035   0.142   1.159  13.238  0.0076  0.2972  0.1748
  541MPD2    H5 8036   0.071   1.224  13.206  0.0244  0.1987 -0.0592
  541MPD2    N1 8037   0.244   0.804  13.557 -0.5999 -0.2908 -0.5051
  541MPD2    H7 8038   0.217   0.766  13.647 -1.9138  2.3639  0.2145
  542TMC3    C1 8039   0.267   1.258  13.059 -0.3648  0.0589 -0.4394
  542TMC3    C2 8040   0.390   1.253  12.989  0.0662 -1.1217 -0.0269
  542TMC3    C3 8041   0.405   1.355  12.898 -0.1171 -1.2816 -0.3356
  542TMC3    C4 8042   0.174   1.350  13.047 -0.7632  0.2980 -0.3240
  542TMC3    C5 8043   0.207   1.465  12.976  0.1173  0.1311  0.6588
  542TMC3    C6 8044   0.321   1.466  12.895  0.4912 -0.5746  0.3211
  542TMC3     C 8045   0.262   1.161  13.168 -0.5916  0.2956  0.1390
  542TMC3     O 8046   0.361   1.095  13.193  0.5455  0.0580  0.5408
  542TMC3     H 8047   0.446   1.160  12.988 -1.3286 -1.9708  0.3837
  542TMC3    H1 8048   0.091   1.354  13.116 -1.1863 -0.4010 -0.7902
  542TMC3    H2 8049   0.344   1.542  12.821 -0.4729 -0.9828 -0.3945
  542TMC3    C7 8050   0.160   1.592  13.024 -0.4069  0.5135 -0.1067
  542TMC3    C8 8051   0.517   1.358  12.804 -0.7072  0.1557 -0.4284
  542TMC3    O1 8052   0.049   1.585  13.078  0.3589 -0.3705  0.1461
  542TMC3    O2 8053   0.498   1.438  12.715 -0.0153  0.0653 -0.0640
  543TMC3    C1 8054   4.300   2.026  17.370  0.6035 -0.0022  0.4476
  543TMC3    C2 8055   4.258   1.902  17.336  0.4624 -0.3917 -0.2268
  543TMC3    C3 8056   4.240   1.811  17.436  0.1635  0.3327 -0.6836
  543TMC3    C4 8057   4.333   2.048  17.501  0.1807 -0.8049 -0.1358
  543TMC3    C5 8058   4.331   1.950  17.597  0.1166 -0.8160  0.4729
  543TMC3    C6 8059   4.272   1.831  17.563 -0.0555 -0.3976  0.0051
  543TMC3     C 8060   4.402   2.060  17.279 -0.2414  0.2285 -0.3867
  543TMC3     O 8061   4.518   2.044  17.322  0.0426 -0.1460 -0.3822
  543TMC3     H 8062   4.256   1.865  17.234 -0.4962 -0.2162 -0.2697
  543TMC3    H1 8063   4.377   2.146  17.515  1.1475 -0.9799 -1.9358
  543TMC3    H2 8064   4.271   1.748  17.633  1.6958 -0.6641 -0.2750
  543TMC3    C7 8065   4.394   1.962   0.043  0.1261 -0.0754 -0.0493
  543TMC3    C8 8066   4.242   1.681  17.394  0.4968  0.5170 -0.0040
  543TMC3    O1 8067   4.336   1.895   0.128  0.6775  0.4694 -0.6174
  543TMC3    O2 8068   4.328   1.642  17.315  0.2393 -0.5813 -0.3501
  544MPD2     C 8069   4.102   1.193  17.446 -0.4350  0.5897 -0.5695
  544MPD2    C1 8070   4.212   1.249  17.390  0.3504  0.6638 -0.2243
  544MPD2    C2 8071   4.220   1.388  17.382  0.2837  0.1982  0.1268
  544MPD2    C3 8072   4.127   1.466  17.441  0.3367 -0.0126  0.1836
  544MPD2    C4 8073   4.018   1.411  17.495  0.4136  0.0624 -0.1897
  544MPD2    C5 8074   4.003   1.269  17.498  0.0366 -0.0684 -0.1891
  544MPD2     H 8075   4.310   1.435  17.343  1.6011 -0.3813  2.4837
  544MPD2    H1 8076   3.949   1.479  17.543  0.4165 -0.6218  0.7997
  544MPD2    H2 8077   4.078   1.088  17.437 -0.4438  0.5486 -0.0574
  544MPD2    H3 8078   3.922   1.218  17.549  0.0770  0.1866  0.1329
  544MPD2     N 8079   4.143   1.609  17.450 -0.4841  0.4740 -0.1354
  544MPD2    H5 8080   4.068   1.663  17.492 -1.2909  0.2645 -1.3185
  544MPD2    N1 8081   4.323   1.171  17.368  0.3167 -0.6430 -0.1044
  544MPD2    H7 8082   4.326   1.075  17.400  1.0718 -0.1941  1.1576
  545TMC3    C1 8083   4.531   1.118  17.274  0.9049  0.1540  0.6627
  545TMC3    C2 8084   4.621   1.132  17.167 -0.0218 -0.8795  0.5375
  545TMC3    C3 8085   0.029   1.083  17.180  0.3450 -0.0998 -0.1898
  545TMC3    C4 8086   4.565   1.056  17.388  0.2147  0.2777  1.0331
  545TMC3    C5 8087   4.698   1.016  17.400  0.3193 -0.3580  0.7352
  545TMC3    C6 8088   0.062   1.012  17.294 -0.3359  1.1033  0.1415
  545TMC3     C 8089   4.420   1.210  17.279 -0.6607  0.0632 -0.2038
  545TMC3     O 8090   4.429   1.310  17.212  0.1519  0.1463 -0.0015
  545TMC3     H 8091   4.589   1.181  17.077 -2.4427 -2.8047  0.3660
  545TMC3    H1 8092   4.500   1.069  17.473 -0.4552  1.5972  0.3142
  545TMC3    H2 8093   0.165   0.977  17.300 -0.6472  0.0831 -0.4645
  545TMC3    C7 8094   0.043   1.032  17.531  0.6214  0.1579 -1.4495
  545TMC3    C8 8095   0.137   1.118  17.089 -0.6041 -0.4638 -0.1017
  545TMC3    O1 8096   4.713   1.107  17.617 -0.4473 -0.1294 -0.3185
  545TMC3    O2 8097   0.206   1.025  17.060  0.3107  0.1523  0.6449
  546MPD2     C 8098   1.348   1.856   0.323 -0.5376 -0.9566 -0.1102
  546MPD2    C1 8099   1.275   1.908   0.214 -0.4554  0.4723 -0.1660
  546MPD2    C2 8100   1.322   2.029   0.156  0.4247 -0.0072 -0.3644
  546MPD2    C3 8101   1.440   2.091   0.212 -0.3211  0.5977 -0.3834
  546MPD2    C4 8102   1.495   2.046   0.326 -1.1685  0.1886  0.2317
  546MPD2    C5 8103   1.451   1.930   0.382  0.3843 -0.1053  0.4420
  546MPD2     H 8104   1.282   2.072   0.066 -2.6954  2.1862  2.0527
  546MPD2    H1 8105   1.574   2.101   0.375  0.9084 -2.5595 -0.0214
  546MPD2    H2 8106   1.320   1.767   0.377 -0.0842 -1.4901 -0.7680
  546MPD2    H3 8107   1.502   1.891   0.470  2.0590  2.0006  0.4043
  546MPD2     N 8108   1.494   2.215   0.154  0.6568  0.6546 -0.1236
  546MPD2    H5 8109   1.562   2.266   0.210  0.2171  1.6485 -0.4930
  546MPD2    N1 8110   1.166   1.827   0.158 -0.2339 -0.5334  0.2614
  546MPD2    H7 8111   1.145   1.739   0.205 -0.0446 -0.5119  0.3857
  547TMC3    C1 8112   0.973   1.752   0.033 -0.2124  0.2450 -0.0889
  547TMC3    C2 8113   0.889   1.757  17.613 -0.8338  0.0159 -0.4091
  547TMC3    C3 8114   0.764   1.707  17.623  0.3365 -0.3809 -0.8716
  547TMC3    C4 8115   0.936   1.690   0.145 -0.3764 -0.4105  0.0269
  547TMC3    C5 8116   0.810   1.626   0.157  0.2928 -0.0186 -0.2775
  547TMC3    C6 8117   0.726   1.632   0.051 -0.4901  0.4660 -0.3544
  547TMC3     C 8118   1.087   1.850   0.043 -0.3850 -0.8045 -0.1168
  547TMC3     O 8119   1.104   1.940  17.648  0.3515  0.0956 -0.3505
  547TMC3     H 8120   0.901   1.824  17.529  0.8436 -0.7946 -0.8284
  547TMC3    H1 8121   0.993   1.691   0.238  0.1323 -0.8294 -0.2767
  547TMC3    H2 8122   0.632   1.579   0.038 -0.7463  0.7336  0.4305
  547TMC3    C7 8123   0.749   1.609   0.289 -0.2263  0.6884 -0.0467
  547TMC3    C8 8124   0.663   1.728  17.517  0.0066  0.5721  0.1560
  547TMC3    O1 8125   0.813   1.640   0.386 -0.1172 -0.6864 -0.1622
  547TMC3    O2 8126   0.703   1.725  17.400 -0.9197 -0.1198 -0.2145
  548MPD2     C 8127   1.489   3.321  12.391 -0.2982  0.4153  0.1490
  548MPD2    C1 8128   1.479   3.211  12.469  0.1719 -0.2066 -0.2638
  548MPD2    C2 8129   1.567   3.107  12.446  0.4465  0.4965 -0.0911
  548MPD2    C3 8130   1.655   3.113  12.337  0.0511 -0.9146  0.2004
  548MPD2    C4 8131   1.665   3.230  12.261  0.0405 -0.1207 -0.4590
  548MPD2    C5 8132   1.582   3.330  12.291  0.5229  0.6985 -0.0849
  548MPD2     H 8133   1.570   3.016  12.505 -0.5896  1.1295  0.9472
  548MPD2    H1 8134   1.734   3.238  12.178  0.0731  0.9131 -0.3256
  548MPD2    H2 8135   1.423   3.406  12.404 -2.0542 -0.7367 -1.1102
  548MPD2    H3 8136   1.580   3.424  12.236  0.7648  0.5255 -0.3855
  548MPD2     N 8137   1.730   3.003  12.320  0.5228  0.9960 -0.7492
  548MPD2    H5 8138   1.742   2.950  12.406 -1.5102 -2.2105 -2.4485
  548MPD2    N1 8139   1.364   3.203  12.550 -0.6443 -0.1446 -0.0747
  548MPD2    H7 8140   1.301   3.281  12.540 -2.0266 -1.5190 -2.0661
  549TMC3    C1 8141   1.223   3.122  12.721  0.0581  0.1556 -0.7230
  549TMC3    C2 8142   1.140   3.230  12.696 -0.2220 -0.3937  1.2057
  549TMC3    C3 8143   1.008   3.206  12.738 -0.0796  0.4034  0.0391
  549TMC3    C4 8144   1.187   3.001  12.781  0.4333 -0.2722  0.6357
  549TMC3    C5 8145   1.058   2.996  12.824 -0.6377  0.0629 -1.0469
  549TMC3    C6 8146   0.966   3.092  12.796 -0.4275  0.6068  0.7593
  549TMC3     C 8147   1.331   3.095  12.629  0.7494 -0.0862 -0.4817
  549TMC3     O 8148   1.394   2.990  12.636  0.6391 -0.0286  0.8501
  549TMC3     H 8149   1.166   3.313  12.631  2.3147 -1.5979  0.6868
  549TMC3    H1 8150   1.259   2.921  12.795  0.5332  0.0067  1.7152
  549TMC3    H2 8151   0.863   3.087  12.831 -0.3707  0.6303  0.9278
  549TMC3    C7 8152   1.022   2.888  12.905 -0.0894 -1.2208 -0.8228
  549TMC3    C8 8153   0.900   3.299  12.708 -0.0335 -0.1101  0.1223
  549TMC3    O1 8154   0.921   2.906  12.969 -0.2601  0.2147  0.0017
  549TMC3    O2 8155   0.790   3.255  12.673  0.1210 -0.7673 -0.1230
  550TMC3    C1 8156   0.007   0.991  12.264  0.4578  0.0544  0.8102
  550TMC3    C2 8157   4.675   0.988  12.391  0.5937 -0.2213 -0.2722
  550TMC3    C3 8158   4.644   1.105  12.440 -0.2735  0.0848  0.5324
  550TMC3    C4 8159   0.047   1.093  12.192 -0.1870  0.4520  0.4728
  550TMC3    C5 8160   0.009   1.213  12.247 -0.0282 -0.0891  0.4704
  550TMC3    C6 8161   4.673   1.223  12.376 -0.3041 -0.1102 -0.4296
  550TMC3     C 8162   0.026   0.860  12.208  0.1700  0.0412  0.1677
  550TMC3     O 8163   0.040   0.776  12.295  0.0344 -0.5208  0.2558
  550TMC3     H 8164   4.643   0.893  12.432 -0.8749 -0.4300 -1.8801
  550TMC3    H1 8165   0.105   1.084  12.100 -0.3914  0.1632  0.3729
  550TMC3    H2 8166   4.647   1.324  12.406 -0.5698 -0.4298  0.4140
  550TMC3    C7 8167   4.638   1.286  12.161 -0.0896 -0.2770 -0.2858
  550TMC3    C8 8168   4.535   1.110  12.528 -0.8058 -0.3411  0.2654
  550TMC3    O1 8169   4.535   1.324  12.212  0.2764  0.3475 -0.4442
  550TMC3    O2 8170   4.472   1.215  12.526  0.1154  0.5669  0.3664
  551TMC3    C1 8171   2.589   3.608  13.261  0.1111  0.3831  0.1012
  551TMC3    C2 8172   2.679   3.649  13.166 -0.0081 -0.0291  0.4949
  551TMC3    C3 8173   2.768   3.743  13.210 -0.0094 -0.2837 -0.2309
  551TMC3    C4 8174   2.586   3.649  13.386 -0.2917 -0.6569 -0.2389
  551TMC3    C5 8175   2.681   3.733  13.426 -0.4477 -0.5270  0.7622
  551TMC3    C6 8176   2.767   3.786  13.338  1.1950 -0.2671  0.0846
  551TMC3     C 8177   2.483   3.528  13.214  0.4861  0.0986 -0.1514
  551TMC3     O 8178   2.504   3.424  13.151  0.3307  0.4569  0.2330
  551TMC3     H 8179   2.667   3.623  13.062 -1.0281  0.1956  0.5581
  551TMC3    H1 8180   2.508   3.613  13.453  1.4199 -2.0050  1.0366
  551TMC3    H2 8181   2.826   3.870  13.372 -1.5218  1.2214  1.1558
  551TMC3    C7 8182   2.683   3.785  13.558 -0.3367  0.2661 -0.1634
  551TMC3    C8 8183   2.837   3.825  13.106 -0.0647  0.0016 -0.3649
  551TMC3    O1 8184   2.787   3.802  13.617 -0.2970 -0.6993  0.0801
  551TMC3    O2 8185   2.822   3.780  12.997  0.1845  0.4270  0.4785
  552MPD2     C 8186   3.898   0.584  14.541  0.1719  0.0669 -0.0973
  552MPD2    C1 8187   4.001   0.524  14.476 -0.5897  0.1505 -0.0354
  552MPD2    C2 8188   4.132   0.546  14.516 -0.9091 -0.6438 -0.5417
  552MPD2    C3 8189   4.158   0.612  14.639  0.3642  0.3941 -0.5749
  552MPD2    C4 8190   4.048   0.654  14.700  0.2931 -0.2977 -0.4615
  552MPD2    C5 8191   3.921   0.650  14.654  0.2275 -0.2519 -0.3516
  552MPD2     H 8192   4.210   0.488  14.468 -0.2424 -0.5092  0.3831
  552MPD2    H1 8193   4.060   0.700  14.797 -1.1931 -0.7701 -0.0522
  552MPD2    H2 8194   3.797   0.586  14.502  0.2190  1.9907 -0.1592
  552MPD2    H3 8195   3.845   0.705  14.707 -0.0249 -1.0536  0.1226
  552MPD2     N 8196   4.285   0.629  14.699 -0.1813  0.1863 -0.0877
  552MPD2    H5 8197   4.287   0.667  14.793  0.9674  0.6459 -0.2922
  552MPD2    N1 8198   3.986   0.456  14.351  0.0366  0.6217 -0.3096
  552MPD2    H7 8199   4.073   0.428  14.308  0.4645  1.7779 -0.2117
  553TMC3    C1 8200   3.878   0.360  14.163 -0.5436 -0.1543 -0.2332
  553TMC3    C2 8201   3.839   0.397  14.035 -0.0855 -0.0048 -0.0974
  553TMC3    C3 8202   3.874   0.311  13.935 -0.2193  0.1971 -0.8892
  553TMC3    C4 8203   3.935   0.238  14.197 -0.3995 -0.5184 -0.0927
  553TMC3    C5 8204   3.962   0.158  14.087  0.0783 -0.4149  0.2445
  553TMC3    C6 8205   3.940   0.198  13.955 -0.3189 -0.8176  0.0796
  553TMC3     C 8206   3.875   0.459  14.269 -0.2495  0.0071  0.0392
  553TMC3     O 8207   3.774   0.527  14.270  0.7085  0.0278 -0.3301
  553TMC3     H 8208   3.796   0.493  14.008  0.9922  0.3603 -0.4862
  553TMC3    H1 8209   3.970   0.224  14.298 -1.3874  0.5833  0.4068
  553TMC3    H2 8210   3.970   0.129  13.877 -1.2097 -0.6914 -0.3656
  553TMC3    C7 8211   4.063   0.058  14.095  0.0318 -0.3134  0.5883
  553TMC3    C8 8212   3.900   0.366  13.803 -0.5811  0.0071 -0.0652
  553TMC3    O1 8213   4.035   4.667  14.045  0.4693 -0.0522  0.1847
  553TMC3    O2 8214   3.801   0.416  13.752  0.1190 -0.4787  0.3461
  554TMC3    C1 8215   0.978   4.347  12.101 -0.1754 -0.0162  0.0803
  554TMC3    C2 8216   0.879   4.282  12.033 -0.1270  1.0059 -0.5352
  554TMC3    C3 8217   0.807   4.377  11.964 -0.0250  0.0033  0.1017
  554TMC3    C4 8218   1.024   4.474  12.101  0.4910 -0.0462 -0.7457
  554TMC3    C5 8219   0.951   4.559  12.021 -0.4056  0.1433  0.3146
  554TMC3    C6 8220   0.843   4.510  11.960  0.7233  0.8251 -0.5010
  554TMC3     C 8221   1.086   4.258  12.148 -0.3710 -0.1621 -0.7058
  554TMC3     O 8222   1.097   4.156  12.080 -0.0006  0.1844  0.5080
  554TMC3     H 8223   0.863   4.175  12.042 -3.1697  1.4437 -0.9520
  554TMC3    H1 8224   1.124   4.501  12.131 -0.5735  2.4474  0.5074
  554TMC3    H2 8225   0.798   4.566  11.879 -0.9789 -0.0939 -0.1865
  554TMC3    C7 8226   1.020   4.655  11.940  0.7949 -1.0277  0.0707
  554TMC3    C8 8227   0.744   4.329  11.843 -0.5254 -0.2206  0.5167
  554TMC3    O1 8228   0.990   4.659  11.818  0.2474 -0.9956  0.1710
  554TMC3    O2 8229   0.685   4.412  11.774 -0.6877  0.1989 -0.7273
  555TMC3    C1 8230   0.253   3.565  15.301  0.2459 -0.1489  0.5815
  555TMC3    C2 8231   0.230   3.654  15.397 -0.3710 -0.6918 -0.6123
  555TMC3    C3 8232   0.223   3.597  15.529  0.1921 -0.1357 -1.0018
  555TMC3    C4 8233   0.295   3.440  15.341  0.6380 -0.1501  0.1347
  555TMC3    C5 8234   0.282   3.393  15.463 -0.2398 -0.5481 -0.2160
  555TMC3    C6 8235   0.239   3.466  15.568  0.0139 -0.2951 -0.2544
  555TMC3     C 8236   0.322   3.616  15.185 -0.3790 -0.0662  0.1757
  555TMC3     O 8237   0.438   3.577  15.167  0.3797 -0.2341 -0.0658
  555TMC3     H 8238   0.205   3.758  15.379  1.2625  0.0167  1.1179
  555TMC3    H1 8239   0.320   3.367  15.266  0.6349 -0.5330  0.5045
  555TMC3    H2 8240   0.221   3.427  15.668  2.1346 -0.5792  0.0006
  555TMC3    C7 8241   0.299   3.251  15.499  0.3729 -0.1193 -0.2864
  555TMC3    C8 8242   0.180   3.691  15.636  0.1848 -0.0551 -0.3564
  555TMC3    O1 8243   0.260   3.215  15.610  0.2789 -0.0855  0.5989
  555TMC3    O2 8244   0.145   3.802  15.594  0.5968 -0.1469  0.1195
  556MPD2     C 8245   3.861   0.280  11.054 -0.0563  0.8580 -0.0152
  556MPD2    C1 8246   3.724   0.286  11.064 -0.1127 -0.6928  0.4781
  556MPD2    C2 8247   3.638   0.228  10.969  0.3582 -0.0410 -0.4845
  556MPD2    C3 8248   3.694   0.163  10.859  0.2269 -0.0258  0.5008
  556MPD2    C4 8249   3.835   0.162  10.847  0.5743 -0.2285 -0.6895
  556MPD2    C5 8250   3.912   0.220  10.943  0.2478 -0.5812  0.9376
  556MPD2     H 8251   3.531   0.228  10.987  0.2856 -3.4436 -0.9282
  556MPD2    H1 8252   3.884   0.115  10.763  1.5000 -1.3357  0.4595
  556MPD2    H2 8253   3.937   0.319  11.121  1.3252 -1.4763 -0.2238
  556MPD2    H3 8254   4.020   0.216  10.934  0.2268  1.0854 -0.0258
  556MPD2     N 8255   3.608   0.099  10.769 -0.5689 -0.2164 -0.0810
  556MPD2    H5 8256   3.511   0.098  10.798 -0.1363 -1.0009  1.3470
  556MPD2    N1 8257   3.663   0.352  11.176  0.1847 -0.4102 -0.0256
  556MPD2    H7 8258   3.563   0.360  11.194  0.7100  0.8831  2.2654
  557TMC3    C1 8259   3.511   4.712  10.591 -0.1444 -0.1673 -0.6814
  557TMC3    C2 8260   3.533   4.590  10.533  0.1232 -0.0180 -0.2625
  557TMC3    C3 8261   3.421   4.531  10.478 -0.4287  0.2019  0.7055
  557TMC3    C4 8262   3.388   0.045  10.611 -0.5679  0.8646 -0.3674
  557TMC3    C5 8263   3.278   4.703  10.560 -0.5423  1.1346  0.4445
  557TMC3    C6 8264   3.292   4.582  10.500 -0.0990 -0.1068 -0.2500
  557TMC3     C 8265   3.637   0.041  10.654 -0.7067 -0.2211 -0.3321
  557TMC3     O 8266   3.744   4.716  10.624 -0.3464  0.2250 -0.3434
  557TMC3     H 8267   3.630   4.556  10.500 -0.1189  0.4019 -1.4104
  557TMC3    H1 8268   3.370   0.144  10.650  2.5150  1.2653 -0.0122
  557TMC3    H2 8269   3.206   4.523  10.470 -0.9964  1.0134  0.1425
  557TMC3    C7 8270   3.141   0.032  10.570  0.9136  0.1270 -0.6973
  557TMC3    C8 8271   3.441   4.387  10.440  0.4990 -0.4771 -0.4276
  557TMC3    O1 8272   3.124   0.129  10.643  0.0449  0.3020  0.7644
  557TMC3    O2 8273   3.546   4.338  10.475  0.6485 -0.5472  0.0913
  558TMC3    C1 8274   0.773   3.679  10.212  0.9854 -0.3871  0.2853
  558TMC3    C2 8275   0.718   3.629  10.323  0.2827  0.8090  0.9638
  558TMC3    C3 8276   0.592   3.580  10.330  0.4819 -0.5851 -0.3463
  558TMC3    C4 8277   0.699   3.668  10.099 -0.0427  0.2666  0.8025
  558TMC3    C5 8278   0.576   3.605  10.098  0.1798 -0.2809  0.4313
  558TMC3    C6 8279   0.518   3.572  10.216 -0.7913  0.1194 -0.4277
  558TMC3     C 8280   0.915   3.702  10.212 -0.8637 -0.1345  0.0226
  558TMC3     O 8281   0.955   3.770  10.309 -0.2713  0.4207 -0.2901
  558TMC3     H 8282   0.794   3.622  10.400  1.5728  1.0229 -0.2734
  558TMC3    H1 8283   0.733   3.715  10.008 -0.2661 -1.5997 -0.2536
  558TMC3    H2 8284   0.424   3.524  10.239 -0.5496  0.3917  1.1530
  558TMC3    C7 8285   0.493   3.616   9.977 -0.8291  0.3173 -0.7690
  558TMC3    C8 8286   0.547   3.517  10.451  0.0724  0.1524  0.5650
  558TMC3    O1 8287   0.518   3.717   9.910  0.3928 -0.0875 -0.2303
  558TMC3    O2 8288   0.428   3.491  10.456  0.0153 -0.4920 -0.4864
  559MPD2     C 8289   0.862   4.070  10.934  0.2551 -0.7940 -0.9205
  559MPD2    C1 8290   0.828   3.971  11.022 -0.2700  0.4708 -0.2031
  559MPD2    C2 8291   0.907   3.952  11.133  0.3409  0.3779 -0.2536
  559MPD2    C3 8292   1.008   4.042  11.163  0.1229 -0.1499 -0.8666
  559MPD2    C4 8293   1.042   4.137  11.070  0.3894 -0.1423  0.3841
  559MPD2    C5 8294   0.969   4.154  10.961  0.0898 -0.0248  0.0485
  559MPD2     H 8295   0.887   3.876  11.208  0.4890 -0.9279 -1.5234
  559MPD2    H1 8296   1.132   4.197  11.077 -2.2591  4.0051 -0.8890
  559MPD2    H2 8297   0.799   4.095  10.849 -0.1908  2.1646  0.2963
  559MPD2    H3 8298   1.000   4.239  10.902 -0.9234 -0.0943 -0.6001
  559MPD2     N 8299   1.081   4.020  11.283  0.1128 -0.1173 -0.5503
  559MPD2    H5 8300   1.058   3.937  11.337 -0.3924 -0.7894 -1.7914
  559MPD2    N1 8301   0.714   3.889  10.994  0.3752 -0.0318 -0.0021
  559MPD2    H7 8302   0.662   3.895  10.906  2.2902 -1.2432 -1.2189
  560TMC3    C1 8303   1.266   3.989  11.414 -0.2191 -0.0838  0.3318
  560TMC3    C2 8304   1.255   3.849  11.410  0.5468 -0.3573  0.6275
  560TMC3    C3 8305   1.317   3.777  11.506  0.3765 -0.8481 -0.0815
  560TMC3    C4 8306   1.344   4.050  11.510  0.6748  0.0861  0.1179
  560TMC3    C5 8307   1.411   3.970  11.595  0.1607 -0.1842  0.3943
  560TMC3    C6 8308   1.387   3.833  11.597 -0.0760  0.0565  0.3087
  560TMC3     C 8309   1.200   4.073  11.317 -0.0998  0.1168  0.3552
  560TMC3     O 8310   1.251   4.176  11.276  0.2074 -0.0818  0.0365
  560TMC3     H 8311   1.203   3.801  11.328 -1.2970  0.2723  1.4444
  560TMC3    H1 8312   1.335   4.156  11.529 -1.0016 -0.1184  0.5274
  560TMC3    H2 8313   1.442   3.778  11.672 -0.5775  0.1265  0.7227
  560TMC3    C7 8314   1.496   4.021  11.700 -0.5347  0.0651  0.2962
  560TMC3    C8 8315   1.310   3.635  11.501 -0.4641 -0.4963  0.2450
  560TMC3    O1 8316   1.507   3.956  11.806  0.4219  0.3615  0.4454
  560TMC3    O2 8317   1.198   3.591  11.477 -0.2824  0.3096  0.1890
  561TMC3    C1 8318   3.552   2.643  11.569 -0.0230 -1.0645  0.3701
  561TMC3    C2 8319   3.468   2.635  11.675 -0.5176  0.1695 -0.5225
  561TMC3    C3 8320   3.408   2.742  11.719 -0.0614  0.4562  0.1687
  561TMC3    C4 8321   3.551   2.752  11.489 -0.5142  0.0829 -0.1398
  561TMC3    C5 8322   3.476   2.860  11.537 -0.5567  0.1405 -0.8649
  561TMC3    C6 8323   3.419   2.866  11.661 -0.4716 -0.0897 -0.1809
  561TMC3     C 8324   3.594   2.514  11.518 -0.2325 -0.2373 -0.8077
  561TMC3     O 8325   3.566   2.410  11.579  0.6035  0.0338  0.1782
  561TMC3     H 8326   3.468   2.544  11.734 -0.1316 -1.0437 -2.3591
  561TMC3    H1 8327   3.614   2.766  11.402  0.3568  0.9898  0.6519
  561TMC3    H2 8328   3.381   2.960  11.699  0.0133  1.1730 -2.7887
  561TMC3    C7 8329   3.452   2.974  11.458  0.1137 -0.9282 -0.4789
  561TMC3    C8 8330   3.353   2.731  11.856 -0.0216  0.3003 -0.0350
  561TMC3    O1 8331   3.331   3.008  11.456 -0.0496  0.0628  0.6671
  561TMC3    O2 8332   3.353   2.618  11.903 -0.1136  0.3504 -0.2233
  562TMC3    C1 8333   0.399   4.179  16.330  0.8778 -0.5024 -0.0609
  562TMC3    C2 8334   0.273   4.161  16.276 -0.1426 -0.0813  0.0901
  562TMC3    C3 8335   0.160   4.185  16.352  0.1655 -0.4313 -0.4199
  562TMC3    C4 8336   0.413   4.221  16.458 -0.6271  0.0539  0.0174
  562TMC3    C5 8337   0.303   4.243  16.533  0.8013  0.4641 -0.8272
  562TMC3    C6 8338   0.174   4.225  16.482 -0.7199 -0.0090 -0.7676
  562TMC3     C 8339   0.513   4.117  16.266  0.1149 -0.3011  0.5695
  562TMC3     O 8340   0.605   4.084  16.341 -0.0198  0.5909  0.6495
  562TMC3     H 8341   0.269   4.121  16.176 -0.3634  0.5398 -0.1496
  562TMC3    H1 8342   0.507   4.240  16.508 -0.3134 -0.5794 -0.3285
  562TMC3    H2 8343   0.083   4.231  16.539 -1.2809  2.2327 -1.9188
  562TMC3    C7 8344   0.312   4.285  16.669 -0.1959  0.4099  0.7405
  562TMC3    C8 8345   0.027   4.193  16.290 -0.3898  0.6595  0.2799
  562TMC3    O1 8346   0.220   4.346  16.718 -0.5451 -0.2263  0.2374
  562TMC3    O2 8347   4.655   4.162  16.362  0.4575  0.0500  0.8057
  563MPD2     C 8348   2.288   0.883  15.820  0.1236 -0.7593  0.0494
  563MPD2    C1 8349   2.297   0.814  15.945  0.5357  0.6967  0.1786
  563MPD2    C2 8350   2.416   0.762  15.989  1.0419  0.8737  0.2357
  563MPD2    C3 8351   2.535   0.790  15.921 -0.0374 -0.2654 -0.7695
  563MPD2    C4 8352   2.525   0.865  15.803  0.4246  0.4386 -0.3553
  563MPD2    C5 8353   2.405   0.893  15.746  0.5351  0.7820 -0.1540
  563MPD2     H 8354   2.426   0.692  16.070  1.6571  2.8770  1.8781
  563MPD2    H1 8355   2.616   0.884  15.747  2.1052 -1.5811  1.6883
  563MPD2    H2 8356   2.192   0.923  15.789  0.1600 -1.4767 -1.0171
  563MPD2    H3 8357   2.404   0.945  15.651  0.6955  0.7630 -0.1658
  563MPD2     N 8358   2.648   0.736  15.979  0.5740 -0.1655  0.2055
  563MPD2    H5 8359   2.637   0.682  16.064 -3.5262 -1.4612 -1.1502
  563MPD2    N1 8360   2.180   0.807  16.026 -0.4557 -0.6496 -0.2788
  563MPD2    H7 8361   2.097   0.857  15.995  0.6620 -0.2962 -2.6405
  564TMC3    C1 8362   2.045   0.778  16.217  0.6449 -0.3085 -0.3392
  564TMC3    C2 8363   1.973   0.667  16.177 -0.0942  0.4309 -0.0511
  564TMC3    C3 8364   1.920   0.590  16.273 -0.2084  0.6616  0.7507
  564TMC3    C4 8365   2.065   0.806  16.346 -0.3309 -0.2520 -0.5369
  564TMC3    C5 8366   2.018   0.726  16.444  0.5945  0.3800  0.4861
  564TMC3    C6 8367   1.941   0.621  16.407  0.0503  0.1148  0.2858
  564TMC3     C 8368   2.180   0.780  16.157 -0.1872 -0.8071 -0.0438
  564TMC3     O 8369   2.273   0.760  16.234 -0.3435 -0.1118 -0.5005
  564TMC3     H 8370   1.977   0.641  16.072  0.1927 -1.4548  0.4351
  564TMC3    H1 8371   2.122   0.897  16.360 -0.6408  0.0145 -1.0293
  564TMC3    H2 8372   1.910   0.553  16.486  2.3998  0.4289  1.4860
  564TMC3    C7 8373   2.117   0.682  16.540  0.8020 -0.7121  0.4417
  564TMC3    C8 8374   1.876   0.456  16.255  0.6015  0.0798  0.5484
  564TMC3    O1 8375   2.130   0.561  16.563  0.0164  0.1788 -0.1980
  564TMC3    O2 8376   1.809   0.404  16.346  0.4187 -0.4279 -0.0193
  565TMC3    C1 8377   2.629   1.792  10.245  0.2004  0.7077 -0.6790
  565TMC3    C2 8378   2.660   1.700  10.341 -0.3822  0.1568 -0.3910
  565TMC3    C3 8379   2.582   1.590  10.348 -1.1972 -0.6376  0.2651
  565TMC3    C4 8380   2.514   1.777  10.162 -0.2061 -0.1879 -0.2376
  565TMC3    C5 8381   2.436   1.673  10.184 -0.5387  0.0399 -0.0994
  565TMC3    C6 8382   2.465   1.586  10.275  0.1203  0.1083 -0.3382
  565TMC3     C 8383   2.687   1.929  10.251  0.0015 -0.2947 -0.5903
  565TMC3     O 8384   2.661   2.006  10.162 -0.2092 -0.1605  0.9192
  565TMC3     H 8385   2.756   1.694  10.392  0.9907 -0.0989 -3.0145
  565TMC3    H1 8386   2.496   1.857  10.091 -0.0727 -0.5962 -0.7252
  565TMC3    H2 8387   2.405   1.496  10.283  0.4998 -0.1896 -0.8326
  565TMC3    C7 8388   2.296   1.672  10.144 -0.5740  0.5044 -0.6031
  565TMC3    C8 8389   2.613   1.499  10.460  0.0352 -0.5431 -0.8854
  565TMC3    O1 8390   2.213   1.598  10.194  0.0997  0.3824  0.2222
  565TMC3    O2 8391   2.690   1.533  10.546 -0.0824  0.3108 -0.2023
  566MPD2     C 8392   4.377   3.868  14.489 -0.2383 -0.6850  0.4827
  566MPD2    C1 8393   4.469   3.773  14.450 -0.0286 -0.8921 -0.5293
  566MPD2    C2 8394   4.437   3.674  14.355 -0.8263  0.1303 -0.6653
  566MPD2    C3 8395   4.313   3.686  14.293  0.1990 -0.0023 -0.2246
  566MPD2    C4 8396   4.226   3.779  14.328  0.6762  1.1791 -0.1469
  566MPD2    C5 8397   4.251   3.867  14.433  0.6208  0.3575 -0.3617
  566MPD2     H 8398   4.505   3.603  14.310 -0.0679 -0.7557  1.8878
  566MPD2    H1 8399   4.128   3.789  14.282 -0.3408 -0.4171  1.7122
  566MPD2    H2 8400   4.401   3.930  14.575 -0.2107  1.9478 -1.4383
  566MPD2    H3 8401   4.171   3.935  14.459 -0.1163 -1.4635  2.1638
  566MPD2     N 8402   4.266   3.602  14.179  0.4717  0.5072 -0.0327
  566MPD2    H5 8403   4.189   3.632  14.120  1.0593 -1.1645 -1.6592
  566MPD2    N1 8404   4.597   3.772  14.513  0.2803 -0.3672  0.0492
  566MPD2    H7 8405   4.614   3.835  14.590  1.2202  1.3329 -1.5368
  567TMC3    C1 8406   0.081   3.686  14.596 -0.1040 -0.5825  0.2868
  567TMC3    C2 8407   0.153   3.795  14.557 -0.6703 -0.0589  0.0925
  567TMC3    C3 8408   0.290   3.794  14.576  0.4595  0.5535  0.6914
  567TMC3    C4 8409   0.136   3.576  14.650  0.1071  1.2510 -0.7494
  567TMC3    C5 8410   0.272   3.581  14.672  0.1488 -0.6907 -0.1469
  567TMC3    C6 8411   0.344   3.681  14.618  0.4539 -0.4555  0.4627
  567TMC3     C 8412   4.691   3.669  14.510  0.0788  0.3575 -0.7303
  567TMC3     O 8413   4.684   3.569  14.443 -0.2748  0.0571  0.3752
  567TMC3     H 8414   0.108   3.874  14.498 -1.0542  0.6813  1.3795
  567TMC3    H1 8415   0.069   3.493  14.669  1.6895 -0.0435 -0.8011
  567TMC3    H2 8416   0.450   3.690  14.639  0.4604  0.7533 -0.0998
  567TMC3    C7 8417   0.344   3.488  14.754  0.1281  0.1799  0.3230
  567TMC3    C8 8418   0.356   3.880  14.479 -0.2921  0.6497  0.2516
  567TMC3    O1 8419   0.464   3.466  14.742  0.0076  0.1730 -0.1111
  567TMC3    O2 8420   0.289   3.981  14.448  0.0164 -0.4193 -0.6801
  568MPD2     C 8421   1.911   3.672  16.724  0.2336 -0.3918  0.3403
  568MPD2    C1 8422   1.903   3.787  16.812  0.4688  0.1279 -0.4830
  568MPD2    C2 8423   1.863   3.906  16.758  0.2485  0.9793  0.9151
  568MPD2    C3 8424   1.817   3.915  16.625  0.2820 -0.2018 -0.4178
  568MPD2    C4 8425   1.835   3.807  16.538  0.1261 -0.0657  0.1373
  568MPD2    C5 8426   1.873   3.689  16.594  0.5358 -0.1261 -0.0909
  568MPD2     H 8427   1.844   3.993  16.820  1.8274  1.5110  0.6340
  568MPD2    H1 8428   1.807   3.822  16.435  0.2288 -0.9002 -0.0109
  568MPD2    H2 8429   1.938   3.571  16.753 -0.3361 -0.8188 -0.6062
  568MPD2    H3 8430   1.892   3.607  16.526  0.0855  0.3020 -0.7302
  568MPD2     N 8431   1.775   4.039  16.580 -0.0667  0.2285 -0.3052
  568MPD2    H5 8432   1.758   4.102  16.658 -1.2907 -0.2495 -0.1796
  568MPD2    N1 8433   1.932   3.773  16.947  0.6504 -0.5019  0.4092
  568MPD2    H7 8434   1.937   3.677  16.978  0.8572 -0.1065  1.6099
  569TMC3    C1 8435   1.732   4.224  16.451 -0.3366  0.2829 -0.2051
  569TMC3    C2 8436   1.727   4.286  16.579 -0.5630  0.2765  0.4082
  569TMC3    C3 8437   1.791   4.408  16.597 -0.7075  0.3369  0.1660
  569TMC3    C4 8438   1.783   4.308  16.346 -0.7057  0.0251  0.6975
  569TMC3    C5 8439   1.823   4.439  16.368 -0.0838  0.0231  0.0469
  569TMC3    C6 8440   1.837   4.490  16.494  0.1971 -0.5969 -0.0296
  569TMC3     C 8441   1.767   4.085  16.448 -0.3079 -0.0024  0.1869
  569TMC3     O 8442   1.788   4.033  16.338  0.3953  0.3791  0.0884
  569TMC3     H 8443   1.708   4.235  16.673  0.7006 -1.7732 -0.4442
  569TMC3    H1 8444   1.780   4.265  16.246 -2.4621  1.6091  0.0543
  569TMC3    H2 8445   1.895   4.581  16.504 -2.0166  0.8325 -0.0926
  569TMC3    C7 8446   1.846   4.514  16.251 -0.4653  0.1577 -0.2736
  569TMC3    C8 8447   1.842   4.439  16.726 -0.3901 -0.9706  0.2081
  569TMC3    O1 8448   1.873   4.452  16.149 -0.3160  0.2194 -0.0887
  569TMC3    O2 8449   1.858   4.345  16.803 -0.6260 -0.2352 -0.1077
  570TMC3    C1 8450   1.624   3.064  16.547  0.3236  0.4010 -0.1537
  570TMC3    C2 8451   1.674   3.112  16.431 -0.0591 -0.0612 -0.2808
  570TMC3    C3 8452   1.695   3.247  16.424 -0.2874  0.3484  0.4582
  570TMC3    C4 8453   1.592   3.149  16.655 -0.0616  1.0687 -0.3742
  570TMC3    C5 8454   1.625   3.279  16.647 -1.0582  0.4665  0.0394
  570TMC3    C6 8455   1.681   3.331  16.530  0.4350 -0.4564  0.2134
  570TMC3     C 8456   1.587   2.921  16.538  0.4462 -0.2417 -0.7417
  570TMC3     O 8457   1.604   2.873  16.427 -0.3097 -0.6456 -0.0737
  570TMC3     H 8458   1.688   3.047  16.345  0.7483 -1.0994  0.6342
  570TMC3    H1 8459   1.531   3.122  16.740  0.1959  0.6482 -0.3233
  570TMC3    H2 8460   1.707   3.436  16.526  1.6644 -0.7416  0.7776
  570TMC3    C7 8461   1.559   3.369  16.740  0.1915 -0.3357 -0.3502
  570TMC3    C8 8462   1.764   3.303  16.315  0.1463  0.0566 -0.1465
  570TMC3    O1 8463   1.491   3.312  16.823 -0.4675 -0.6938 -0.1502
  570TMC3    O2 8464   1.812   3.413  16.337 -0.6356  0.2819  0.1311
  571MPD2     C 8465   3.748   3.934   0.198 -0.3966 -0.0394  0.2376
  571MPD2    C1 8466   3.732   4.007   0.310 -0.4164 -0.1043  0.4436
  571MPD2    C2 8467   3.771   4.143   0.303  0.4099 -0.1154  0.0127
  571MPD2    C3 8468   3.805   4.208   0.185 -0.7719 -0.5119  0.1477
  571MPD2    C4 8469   3.821   4.134   0.072 -0.4740 -1.9645 -0.1710
  571MPD2    C5 8470   3.797   3.997   0.086 -0.0874 -0.5194 -0.4311
  571MPD2     H 8471   3.761   4.204   0.393 -1.2287  0.2997 -0.4564
  571MPD2    H1 8472   3.838   4.182  17.661 -0.3100  0.6530  1.1862
  571MPD2    H2 8473   3.712   3.832   0.196 -0.0557 -0.1277 -1.1121
  571MPD2    H3 8474   3.799   3.932  17.684 -0.3559 -3.2273  1.6069
  571MPD2     N 8475   3.846   4.342   0.174 -0.5026 -0.1919  0.2287
  571MPD2    H5 8476   3.869   4.374   0.081 -1.5842  0.3695  0.1619
  571MPD2    N1 8477   3.690   3.942   0.428  0.3525  0.0340 -0.0095
  571MPD2    H7 8478   3.673   3.843   0.412  1.1781 -0.0273 -0.5194
  572TMC3    C1 8479   3.941   4.547   0.237 -0.0380 -0.5211 -0.0006
  572TMC3    C2 8480   4.072   4.508   0.210  0.0973 -0.7015 -1.0301
  572TMC3    C3 8481   4.165   4.597   0.249 -0.2242  0.6241  0.3411
  572TMC3    C4 8482   3.911   4.666   0.292  0.0609  0.2579  0.0978
  572TMC3    C5 8483   4.013   0.032   0.329  0.0739  0.0340 -0.9496
  572TMC3    C6 8484   4.141   0.004   0.297  0.0831 -0.5402 -0.2022
  572TMC3     C 8485   3.851   4.439   0.272  0.3334 -0.6083  0.1224
  572TMC3     O 8486   3.819   4.436   0.390 -0.1350 -0.0561  0.1991
  572TMC3     H 8487   4.104   4.407   0.189 -1.2976 -1.0263 -1.5699
  572TMC3    H1 8488   3.807   4.690   0.312 -0.1873 -1.1998  0.6011
  572TMC3    H2 8489   4.220   0.073   0.326 -1.0040  0.7807 -0.4058
  572TMC3    C7 8490   3.979   0.171   0.366  0.3242 -0.1396  0.0726
  572TMC3    C8 8491   4.304   4.542   0.269  0.1073  0.6192 -0.4646
  572TMC3    O1 8492   4.061   0.249   0.321  0.2239 -0.0234  0.0074
  572TMC3    O2 8493   4.332   4.434   0.214 -0.1092 -0.1024 -0.8805
  573MPD2     C 8494   0.293   0.040   0.918  0.5858 -1.0467 -0.1782
  573MPD2    C1 8495   0.268   0.173   0.897  0.2319 -0.0287 -0.0945
  573MPD2    C2 8496   0.291   0.234   0.777 -0.8279 -0.7748 -0.4412
  573MPD2    C3 8497   0.337   0.162   0.675  0.3933  0.9535 -0.3298
  573MPD2    C4 8498   0.349   0.022   0.693  0.5004  0.0465  0.6486
  573MPD2    C5 8499   0.329   4.684   0.814  0.3801  0.0980 -0.0666
  573MPD2     H 8500   0.269   0.338   0.752  1.1720  0.1507  1.7065
  573MPD2    H1 8501   0.370   4.681   0.607 -0.5445 -0.2055  0.5663
  573MPD2    H2 8502   0.297   4.715   1.016  2.7813  1.3047  0.8092
  573MPD2    H3 8503   0.332   4.576   0.821  0.0200  0.1037  0.1960
  573MPD2     N 8504   0.387   0.211   0.556 -0.1929  0.0273  0.0026
  573MPD2    H5 8505   0.419   0.144   0.487  0.8247 -0.6384  1.1110
  573MPD2    N1 8506   0.227   0.242   1.012  0.1052  0.0823 -0.2216
  573MPD2    H7 8507   0.236   0.191   1.100  0.4064 -0.8826 -0.8049
  574TMC3    C1 8508   0.481   0.374   0.414  0.5176  0.6346  0.0688
  574TMC3    C2 8509   0.518   0.506   0.399 -0.0183 -0.2166  0.4039
  574TMC3    C3 8510   0.543   0.549   0.271 -0.0092  0.5983 -0.1207
  574TMC3    C4 8511   0.483   0.286   0.306  0.4488  0.2115  0.3375
  574TMC3    C5 8512   0.517   0.334   0.183  0.6463 -0.1914 -0.1158
  574TMC3    C6 8513   0.546   0.463   0.163 -0.1031 -0.8492  0.6165
  574TMC3     C 8514   0.404   0.346   0.527 -0.2768  0.2663  0.1267
  574TMC3     O 8515   0.369   0.440   0.593  0.3586  0.4623  0.1273
  574TMC3     H 8516   0.522   0.570   0.486  1.6630 -0.9326  0.8560
  574TMC3    H1 8517   0.457   0.181   0.309 -0.7614  0.5481  1.8828
  574TMC3    H2 8518   0.559   0.503   0.063 -0.0246  4.2251  2.6300
  574TMC3    C7 8519   0.559   0.238   0.083 -0.0834 -0.4206  0.8400
  574TMC3    C8 8520   0.529   0.686   0.249 -0.0443 -0.2286 -0.0416
  574TMC3    O1 8521   0.520   0.124   0.094 -0.4572 -0.3865 -0.2438
  574TMC3    O2 8522   0.561   0.760   0.343  0.3407  0.3715  0.7127
  575TMC3    C1 8523   3.105   1.326  11.112  0.5779  0.3142  0.1531
  575TMC3    C2 8524   3.070   1.230  11.206  0.0331  0.0281  0.0743
  575TMC3    C3 8525   3.006   1.119  11.156  0.8055 -0.0007  0.9245
  575TMC3    C4 8526   3.066   1.324  10.980  0.3991 -0.3286 -0.6423
  575TMC3    C5 8527   2.981   1.221  10.947 -0.1464  0.6633 -0.4833
  575TMC3    C6 8528   2.958   1.111  11.027 -0.0727 -0.3463  0.2535
  575TMC3     C 8529   3.177   1.442  11.157  0.3807  0.5102 -0.2205
  575TMC3     O 8530   3.186   1.454  11.280 -0.1366 -0.4572 -0.1324
  575TMC3     H 8531   3.110   1.239  11.307 -0.0291  1.2081 -0.0038
  575TMC3    H1 8532   3.054   1.421  10.933  0.9094  0.5777  1.1087
  575TMC3    H2 8533   2.908   1.020  10.995 -1.2736 -0.0249  1.1827
  575TMC3    C7 8534   2.877   1.248  10.851  0.6168 -0.0542 -0.0015
  575TMC3    C8 8535   2.970   1.027  11.264  0.3391  0.5992  0.1309
  575TMC3    O1 8536   2.894   1.344  10.779 -0.3785  0.1997 -0.3858
  575TMC3    O2 8537   3.036   1.036  11.369  0.5115 -0.2333 -0.1998
  576MPD2     C 8538   2.434   3.468  12.739  0.1019 -0.1299 -0.0822
  576MPD2    C1 8539   2.528   3.553  12.695 -0.8738 -0.7800 -0.0666
  576MPD2    C2 8540   2.535   3.671  12.751  0.1542  0.3073 -0.7229
  576MPD2    C3 8541   2.451   3.719  12.848 -0.0641 -0.1687 -0.6486
  576MPD2    C4 8542   2.346   3.637  12.895 -0.0321  0.4794  0.0367
  576MPD2    C5 8543   2.346   3.512  12.841  0.0344 -0.7992  1.3061
  576MPD2     H 8544   2.616   3.740  12.729  1.7068 -0.6487  2.0310
  576MPD2    H1 8545   2.271   3.662  12.970 -1.2957  0.1758 -1.1299
  576MPD2    H2 8546   2.432   3.365  12.706  0.8877  0.3828 -1.7777
  576MPD2    H3 8547   2.278   3.438  12.883 -3.2010  0.4356 -1.7882
  576MPD2     N 8548   2.472   3.851  12.896 -0.4298  0.3213 -0.2922
  576MPD2    H5 8549   2.545   3.904  12.850 -0.9988  1.7854  0.4739
  576MPD2    N1 8550   2.619   3.519  12.593  0.1609 -0.2121  0.2305
  576MPD2    H7 8551   2.673   3.589  12.543 -0.7214 -0.7339 -1.4440
  577TMC3    C1 8552   2.747   3.379  12.447  0.3776  0.0582  0.5966
  577TMC3    C2 8553   2.833   3.276  12.451 -0.5921  0.0564 -0.3294
  577TMC3    C3 8554   2.918   3.257  12.349 -0.6695  0.3859  0.0191
  577TMC3    C4 8555   2.755   3.474  12.347  0.0965 -0.4086 -0.0602
  577TMC3    C5 8556   2.840   3.448  12.243  0.1647 -0.5111  0.1319
  577TMC3    C6 8557   2.928   3.343  12.243 -0.1516  0.5518 -0.4052
  577TMC3     C 8558   2.647   3.384  12.552  0.1695  0.0349 -0.4254
  577TMC3     O 8559   2.616   3.274  12.600  0.1629  0.0957  0.2422
  577TMC3     H 8560   2.820   3.212  12.538 -1.3599  1.7353  0.8021
  577TMC3    H1 8561   2.700   3.567  12.358  0.0590 -0.3536 -0.7216
  577TMC3    H2 8562   2.980   3.314  12.153 -1.6531 -2.0683 -0.4539
  577TMC3    C7 8563   2.830   3.527  12.127 -0.0469 -0.1136  0.1857
  577TMC3    C8 8564   3.000   3.137  12.348  0.4381  0.0493 -0.3186
  577TMC3    O1 8565   2.934   3.532  12.059 -0.5221  0.7029  0.0242
  577TMC3    O2 8566   3.001   3.068  12.449  0.1816 -0.0879  0.1058
  578MPD2     C 8567   0.719   2.965   2.177 -0.6319  0.6609 -0.0718
  578MPD2    C1 8568   0.739   2.925   2.053  0.3929  0.2971  0.7608
  578MPD2    C2 8569   0.855   2.858   2.027 -0.2493 -0.3087  0.0154
  578MPD2    C3 8570   0.946   2.819   2.123  0.3949  0.4483 -0.4924
  578MPD2    C4 8571   0.912   2.856   2.253 -0.4280 -0.6390 -0.3376
  578MPD2    C5 8572   0.802   2.930   2.279 -0.1570 -0.4760 -0.6372
  578MPD2     H 8573   0.874   2.845   1.921 -3.2503 -1.5033 -0.3844
  578MPD2    H1 8574   0.980   2.827   2.332  0.0038  1.0553 -0.1051
  578MPD2    H2 8575   0.633   3.024   2.206  0.2906  1.0183  1.9543
  578MPD2    H3 8576   0.778   2.963   2.380  1.7221  1.1963 -0.7398
  578MPD2     N 8577   1.072   2.768   2.088 -0.0121  0.6666  0.1621
  578MPD2    H5 8578   1.094   2.757   1.990  0.8184  1.9649  0.2026
  578MPD2    N1 8579   0.653   2.967   1.948  0.3458 -0.1666 -0.1865
  578MPD2    H7 8580   0.568   3.015   1.976  0.1177 -1.4154  1.2599
  579TMC3    C1 8581   1.279   2.659   2.103  0.4532 -0.3589 -0.5524
  579TMC3    C2 8582   1.399   2.669   2.158  0.4568  0.4868  0.1724
  579TMC3    C3 8583   1.505   2.617   2.087  0.0553 -0.5225  0.1737
  579TMC3    C4 8584   1.239   2.591   1.990  0.3091  0.2561 -0.6029
  579TMC3    C5 8585   1.347   2.534   1.933  0.5244  0.0585  0.0021
  579TMC3    C6 8586   1.477   2.548   1.979  0.0007 -0.4755  1.0439
  579TMC3     C 8587   1.174   2.740   2.172 -0.2785  0.7663  0.4447
  579TMC3     O 8588   1.189   2.758   2.286  0.1562 -0.9758 -0.2946
  579TMC3     H 8589   1.409   2.725   2.250 -0.8559  0.3936  0.3630
  579TMC3    H1 8590   1.140   2.595   1.946 -0.5523  0.0154  1.3149
  579TMC3    H2 8591   1.549   2.486   1.926 -0.8199 -1.4076  1.0193
  579TMC3    C7 8592   1.337   2.490   1.792  0.0720 -1.1629 -0.1707
  579TMC3    C8 8593   1.633   2.628   2.147  0.0737 -0.6412 -0.5704
  579TMC3    O1 8594   1.438   2.444   1.743 -0.3487  0.6101  0.0722
  579TMC3    O2 8595   1.643   2.660   2.265  0.5122  0.0665 -0.0927
  580TMC3    C1 8596   0.607   2.875  12.547  1.0729  0.3111  0.4460
  580TMC3    C2 8597   0.702   2.974  12.544  0.6844 -0.0146  0.6450
  580TMC3    C3 8598   0.831   2.936  12.531  0.5780  0.0054  0.1116
  580TMC3    C4 8599   0.644   2.743  12.549  0.3522 -0.1069 -0.0381
  580TMC3    C5 8600   0.775   2.712  12.548  0.3778 -0.2375 -0.0979
  580TMC3    C6 8601   0.872   2.808  12.546 -0.0528  0.2289 -0.2220
  580TMC3     C 8602   0.495   2.901  12.464 -0.4794  0.2462  0.0134
  580TMC3     O 8603   0.401   2.826  12.475  0.2668 -0.5763 -0.3182
  580TMC3     H 8604   0.665   3.076  12.540  2.8403  0.7407 -0.1679
  580TMC3    H1 8605   0.566   2.667  12.541  0.5523 -0.7187  3.7562
  580TMC3    H2 8606   0.972   2.771  12.526  0.7248  2.4071 -0.3018
  580TMC3    C7 8607   0.823   2.583  12.522 -0.1068 -1.0867 -0.6554
  580TMC3    C8 8608   0.903   3.014  12.436 -0.2725  0.0304  0.4215
  580TMC3    O1 8609   0.935   2.554  12.558 -0.0644  0.7559  0.2741
  580TMC3    O2 8610   0.833   3.089  12.371  0.1451 -0.3117  0.7541
  581MPD2     C 8611   3.378   1.896  15.066  0.3108  0.3882 -0.1421
  581MPD2    C1 8612   3.248   1.861  15.102 -0.6018  0.6815  0.4466
  581MPD2    C2 8613   3.150   1.950  15.074  0.5313  0.8444  0.3042
  581MPD2    C3 8614   3.175   2.067  15.007 -0.5243  0.4931 -0.2832
  581MPD2    C4 8615   3.306   2.099  14.973 -0.8998 -0.2352  0.0020
  581MPD2    C5 8616   3.407   2.016  15.010  0.1134  0.3642 -0.0608
  581MPD2     H 8617   3.047   1.920  15.090  0.0103  2.9236  0.7876
  581MPD2    H1 8618   3.335   2.193  14.927 -2.8055  0.2257 -0.2542
  581MPD2    H2 8619   3.459   1.827  15.085  0.9983  1.6056  1.3312
  581MPD2    H3 8620   3.508   2.038  14.978  0.6554 -2.1813 -0.1263
  581MPD2     N 8621   3.064   2.146  14.966  0.1677 -0.4762 -0.0490
  581MPD2    H5 8622   2.980   2.090  14.950 -0.7183  0.0922  2.6765
  581MPD2    N1 8623   3.228   1.745  15.169  0.4636  0.3647 -0.0710
  581MPD2    H7 8624   3.306   1.688  15.200  0.4105  1.8925  2.8367
  582TMC3    C1 8625   3.148   1.570  15.287 -0.4988 -0.4105 -0.1488
  582TMC3    C2 8626   3.220   1.581  15.400 -0.5129 -0.0783 -0.2345
  582TMC3    C3 8627   3.191   1.499  15.507 -0.1265 -0.7584  0.3250
  582TMC3    C4 8628   3.038   1.491  15.294  0.6133  0.1588 -0.7783
  582TMC3    C5 8629   2.987   1.432  15.411  0.8317 -0.6101  1.0059
  582TMC3    C6 8630   3.084   1.420  15.515 -0.0337  0.2093  0.1168
  582TMC3     C 8631   3.112   1.694  15.222  0.9497  0.0627  0.3599
  582TMC3     O 8632   2.996   1.724  15.216 -0.0414 -0.7295 -0.7470
  582TMC3     H 8633   3.285   1.667  15.414 -1.4623  0.4642  0.8718
  582TMC3    H1 8634   2.976   1.478  15.207 -0.7368  1.1228  0.0420
  582TMC3    H2 8635   3.044   1.416  15.615 -1.7703  1.6640 -0.5173
  582TMC3    C7 8636   2.873   1.481  15.472  0.0184 -0.1084  0.3039
  582TMC3    C8 8637   3.234   1.559  15.635 -0.0845  0.0031  0.2428
  582TMC3    O1 8638   2.827   1.421  15.564  0.4143 -0.2441  0.5245
  582TMC3    O2 8639   3.232   1.683  15.644  0.5673  0.3738  0.5223
  583MPD2     C 8640   3.313   3.408  16.920  0.4689  0.0495 -0.8119
  583MPD2    C1 8641   3.305   3.529  16.864 -0.3849 -0.3331  0.2361
  583MPD2    C2 8642   3.245   3.637  16.936 -0.1878 -0.5225 -0.3665
  583MPD2    C3 8643   3.198   3.617  17.062 -1.2149  1.1617 -0.2866
  583MPD2    C4 8644   3.212   3.491  17.119  0.6577  0.3758  0.0278
  583MPD2    C5 8645   3.261   3.394  17.042 -0.2812  0.0040  0.3821
  583MPD2     H 8646   3.234   3.738  16.899  1.6010  0.9729  3.1658
  583MPD2    H1 8647   3.180   3.462  17.219 -0.8972  0.1607 -0.5356
  583MPD2    H2 8648   3.371   3.325  16.880  1.7528 -0.1435  1.4666
  583MPD2    H3 8649   3.282   3.297  17.086  0.8856  0.1073  0.0617
  583MPD2     N 8650   3.142   3.730  17.126  0.0000 -0.3775 -0.8123
  583MPD2    H5 8651   3.132   3.814  17.070 -0.1158 -0.9398 -1.6310
  583MPD2    N1 8652   3.371   3.555  16.746 -0.0736  0.4871 -0.2115
  583MPD2    H7 8653   3.371   3.651  16.713 -2.8887 -0.1324 -2.0404
  584TMC3    C1 8654   3.070   3.865  17.302  0.4216  0.3026  0.5361
  584TMC3    C2 8655   3.125   3.977  17.235 -0.4225 -0.3277  0.6398
  584TMC3    C3 8656   3.125   4.096  17.301  0.1577  0.1040  0.4417
  584TMC3    C4 8657   3.028   3.874  17.434  0.7308 -0.1328  0.7119
  584TMC3    C5 8658   3.036   3.996  17.496  0.6516 -0.2990 -0.0908
  584TMC3    C6 8659   3.091   4.104  17.434  0.3970  0.1225 -0.0499
  584TMC3     C 8660   3.111   3.731  17.261  0.5833  0.5065  0.1759
  584TMC3     O 8661   3.107   3.637  17.345 -0.1665  0.7413  0.5915
  584TMC3     H 8662   3.142   3.980  17.128 -1.5737  0.7555  0.4808
  584TMC3    H1 8663   3.002   3.787  17.494  0.0155 -0.3723  0.0504
  584TMC3    H2 8664   3.120   4.190  17.494 -0.0733 -1.7738  2.8535
  584TMC3    C7 8665   3.023   3.987  17.636  0.0527  0.4551  0.4235
  584TMC3    C8 8666   3.163   4.213  17.219  0.1552 -1.4678  0.3466
  584TMC3    O1 8667   3.043   3.881   0.003  0.0778 -0.8132 -0.2590
  584TMC3    O2 8668   3.179   4.193  17.100 -0.4198  0.9473 -0.4363
  585MPD2     C 8669   2.856   2.675   0.970  0.2313  0.3102 -0.4660
  585MPD2    C1 8670   2.895   2.770   0.876  0.3100  0.0301  0.2177
  585MPD2    C2 8671   2.900   2.747   0.738 -0.1150 -0.3423  0.6998
  585MPD2    C3 8672   2.884   2.617   0.695 -0.3509 -0.0673 -0.8262
  585MPD2    C4 8673   2.875   2.516   0.788  0.1377  0.9413  0.8456
  585MPD2    C5 8674   2.864   2.541   0.925  0.2221  0.7213 -0.9485
  585MPD2     H 8675   2.914   2.829   0.670 -2.7361  0.2983  0.9211
  585MPD2    H1 8676   2.860   2.417   0.746  1.6984  0.8920  0.4209
  585MPD2    H2 8677   2.825   2.698   1.071  0.5961 -0.1034 -0.2612
  585MPD2    H3 8678   2.840   2.461   0.994  1.9804 -0.2787 -1.5093
  585MPD2     N 8679   2.860   2.595   0.561 -1.1267 -0.2306  0.6059
  585MPD2    H5 8680   2.805   2.511   0.546 -0.7265 -0.8637  2.6399
  585MPD2    N1 8681   2.894   2.898   0.938 -0.0015  0.1856  0.0096
  585MPD2    H7 8682   2.853   2.904   1.031 -0.8624 -0.7952 -0.3106
  586TMC3    C1 8683   2.737   2.671   0.395 -0.5777  0.6695 -0.1373
  586TMC3    C2 8684   2.733   2.714   0.265  0.2637  0.8788  0.2454
  586TMC3    C3 8685   2.613   2.725   0.201 -0.1598  0.7745 -0.1401
  586TMC3    C4 8686   2.624   2.658   0.472  0.4852  0.9687 -0.7507
  586TMC3    C5 8687   2.507   2.667   0.407 -0.2071 -0.3246 -0.6297
  586TMC3    C6 8688   2.500   2.695   0.271 -0.0921  0.2699 -0.6421
  586TMC3     C 8689   2.863   2.691   0.465  1.1269 -0.2795  0.5727
  586TMC3     O 8690   2.941   2.788   0.445  0.3825 -0.0175 -0.1692
  586TMC3     H 8691   2.824   2.742   0.214  1.8261 -2.1809  1.4027
  586TMC3    H1 8692   2.632   2.644   0.579  3.1703 -2.7854 -1.4353
  586TMC3    H2 8693   2.405   2.715   0.221 -2.6646  1.2329  4.6395
  586TMC3    C7 8694   2.395   2.598   0.466 -0.0615  0.2005 -0.3974
  586TMC3    C8 8695   2.593   2.680   0.067  0.5405  0.6545  0.9070
  586TMC3    O1 8696   2.311   2.569   0.382 -0.3224  0.6813  0.2566
  586TMC3    O2 8697   2.484   2.679   0.016  0.9128 -0.0427 -0.8349
  587TMC3    C1 8698   0.050   1.013  16.753 -0.3436 -0.3830 -0.5630
  587TMC3    C2 8699   0.054   1.132  16.678 -0.4574 -0.1894  0.5128
  587TMC3    C3 8700   0.168   1.157  16.604 -0.9467  0.6692 -0.0418
  587TMC3    C4 8701   0.162   0.930  16.766 -0.1876 -0.3260 -0.1770
  587TMC3    C5 8702   0.276   0.967  16.699  0.5178  0.0177 -0.3066
  587TMC3    C6 8703   0.275   1.072  16.613  0.8254  0.1276 -0.0084
  587TMC3     C 8704   4.646   0.963  16.798 -0.5077  0.4857  0.0298
  587TMC3     O 8705   4.634   0.842  16.790  0.4051 -0.3203  0.2753
  587TMC3     H 8706   4.679   1.175  16.652 -0.6449 -0.9421 -0.0418
  587TMC3    H1 8707   0.164   0.832  16.813 -1.5744  0.4055  1.3733
  587TMC3    H2 8708   0.373   1.089  16.571  0.4585 -0.4587 -1.0942
  587TMC3    C7 8709   0.404   0.908  16.738 -0.0086  0.1590 -0.5860
  587TMC3    C8 8710   0.188   1.276  16.528  0.3300 -0.7267  0.1211
  587TMC3    O1 8711   0.498   0.905  16.658  0.0998  0.2087  0.1129
  587TMC3    O2 8712   0.278   1.280  16.449 -0.4115  0.1087 -0.3428
  588TMC3    C1 8713   1.998   3.259   9.791 -0.8252 -0.5919 -0.0043
  588TMC3    C2 8714   1.962   3.134   9.817 -0.4799 -0.1637 -0.4380
  588TMC3    C3 8715   1.823   3.108   9.833 -0.5808 -0.1011  0.2019
  588TMC3    C4 8716   1.905   3.358   9.778  1.4211  0.1767 -0.0140
  588TMC3    C5 8717   1.773   3.328   9.804 -0.0440  0.3535 -0.3856
  588TMC3    C6 8718   1.725   3.205   9.811 -0.0801 -0.5507  0.5993
  588TMC3     C 8719   2.134   3.302   9.821 -0.2023 -0.1560  0.3079
  588TMC3     O 8720   2.192   3.228   9.898  0.2961 -0.3156  0.5936
  588TMC3     H 8721   2.040   3.060   9.831 -0.1891 -0.2386 -2.3707
  588TMC3    H1 8722   1.924   3.456   9.737  0.2186  0.6037  0.4567
  588TMC3    H2 8723   1.622   3.191   9.844 -0.1687  0.9160  0.9496
  588TMC3    C7 8724   1.687   3.442   9.842  0.1245  0.4060 -1.1701
  588TMC3    C8 8725   1.777   2.970   9.851 -0.1662 -0.3791 -0.4135
  588TMC3    O1 8726   1.567   3.436   9.819  0.1899  0.0709 -0.1824
  588TMC3    O2 8727   1.661   2.946   9.882 -0.2388 -0.4478  0.0458
  589TMC3    C1 8728   1.461   1.000   1.656 -1.0801 -0.3287  0.3992
  589TMC3    C2 8729   1.572   0.993   1.737 -0.2219 -0.6197 -0.3332
  589TMC3    C3 8730   1.651   0.878   1.739  0.0068  0.2926 -0.8645
  589TMC3    C4 8731   1.440   0.902   1.570 -0.1725  0.1668  0.5183
  589TMC3    C5 8732   1.513   0.790   1.576 -0.1002  0.3159 -0.2704
  589TMC3    C6 8733   1.618   0.771   1.660  0.5777 -1.1762  0.2862
  589TMC3     C 8734   1.373   1.115   1.661  0.7758 -0.0506 -0.0103
  589TMC3     O 8735   1.280   1.106   1.578 -0.1264  0.7210 -0.4731
  589TMC3     H 8736   1.612   1.073   1.798  1.1143 -0.9126 -0.8047
  589TMC3    H1 8737   1.361   0.912   1.496  2.3495 -1.7002 -2.4495
  589TMC3    H2 8738   1.673   0.679   1.641  1.2117 -0.7645  0.1286
  589TMC3    C7 8739   1.460   0.667   1.511 -0.7010 -0.4209 -0.3829
  589TMC3    C8 8740   1.776   0.892   1.809  0.2416 -0.0539 -0.4355
  589TMC3    O1 8741   1.506   0.557   1.550 -0.2093  0.3137  0.0008
  589TMC3    O2 8742   1.787   0.980   1.891  0.0468  0.1970  0.8157
  590MPD2     C 8743   0.936   4.308  16.860  0.8904  0.3306 -0.3985
  590MPD2    C1 8744   0.895   4.407  16.773 -0.2384 -0.1532 -0.3722
  590MPD2    C2 8745   0.993   4.458  16.683 -0.4363 -0.0625 -0.3915
  590MPD2    C3 8746   1.131   4.430  16.695 -1.0475 -0.4716 -0.8213
  590MPD2    C4 8747   1.166   4.332  16.791  0.0245 -0.6928  0.2683
  590MPD2    C5 8748   1.069   4.267  16.865  0.1968  0.3194 -0.1500
  590MPD2     H 8749   0.965   4.530  16.607 -0.4040 -1.1885 -1.4723
  590MPD2    H1 8750   1.269   4.298  16.793 -0.1948 -1.3976 -0.2813
  590MPD2    H2 8751   0.867   4.251  16.921  0.2278 -0.1872 -1.6256
  590MPD2    H3 8752   1.095   4.185  16.931  0.8598 -0.2022 -1.0561
  590MPD2     N 8753   1.221   4.503  16.608  0.0912 -0.0974  0.9933
  590MPD2    H5 8754   1.179   4.565  16.539 -1.5554  0.2816  2.3575
  590MPD2    N1 8755   0.762   4.458  16.780  0.3182 -0.1257 -0.5224
  590MPD2    H7 8756   0.713   4.432  16.865  0.2310  2.8995  0.3326
  591TMC3    C1 8757   1.400   4.588  16.517 -0.2933 -0.7471 -0.3134
  591TMC3    C2 8758   1.467   4.550  16.409 -0.4114  0.4693  0.3791
  591TMC3    C3 8759   1.460   4.634  16.297  0.2257 -0.1815  0.2254
  591TMC3    C4 8760   1.335   4.710  16.525 -0.0323  0.6073 -0.0166
  591TMC3    C5 8761   1.346   0.074  16.418 -0.0803  0.2496 -0.1935
  591TMC3    C6 8762   1.417   0.044  16.303  0.5240  0.1945  0.4796
  591TMC3     C 8763   1.353   4.476  16.591  0.6185  0.0250  0.2142
  591TMC3     O 8764   1.422   4.393  16.651  0.0457  0.2081 -0.2022
  591TMC3     H 8765   1.512   4.452  16.398  1.9373  1.2546  3.1064
  591TMC3    H1 8766   1.268   0.013  16.608 -0.8874 -0.8875 -0.2746
  591TMC3    H2 8767   1.409   0.111  16.218  1.1812  1.6460  1.5493
  591TMC3    C7 8768   1.227   0.147  16.401  0.6394 -0.5684 -0.1684
  591TMC3    C8 8769   1.495   4.577  16.169  0.4072  0.7657 -0.4560
  591TMC3    O1 8770   1.123   0.114  16.455 -0.5003 -0.2883  0.3675
  591TMC3    O2 8771   1.567   4.481  16.173  0.3440  0.9684 -0.0312
  592MPD2     C 8772   1.686   2.245  11.454  1.0104  0.2236  0.9529
  592MPD2    C1 8773   1.689   2.300  11.576 -0.2201 -0.2116  0.3985
  592MPD2    C2 8774   1.594   2.264  11.669 -0.0857 -0.4926  0.4981
  592MPD2    C3 8775   1.519   2.151  11.649  0.9074 -0.5481  0.4196
  592MPD2    C4 8776   1.521   2.087  11.528 -0.3597  0.2371 -0.6291
  592MPD2    C5 8777   1.595   2.142  11.426  0.0365  0.2834 -0.1502
  592MPD2     H 8778   1.596   2.300  11.772  3.2343  0.1658  0.2121
  592MPD2    H1 8779   1.452   2.011  11.492  0.6397 -1.4622  1.0550
  592MPD2    H2 8780   1.761   2.266  11.378  0.1334  2.0305  0.5663
  592MPD2    H3 8781   1.594   2.097  11.328  1.4619 -1.7743  0.7697
  592MPD2     N 8782   1.446   2.097  11.765  0.1841  0.4317 -0.4948
  592MPD2    H5 8783   1.442   2.165  11.841  1.7602  1.4125 -1.3027
  592MPD2    N1 8784   1.793   2.393  11.597  0.1321  0.4064  0.0596
  592MPD2    H7 8785   1.869   2.403  11.530  0.9389 -0.2031  0.8791
  593TMC3    C1 8786   1.907   2.585  11.688 -0.0297 -0.5037  0.0116
  593TMC3    C2 8787   1.946   2.657  11.794 -0.0497  0.5658  0.2563
  593TMC3    C3 8788   2.050   2.748  11.769  0.1076 -0.0697  0.1301
  593TMC3    C4 8789   1.972   2.592  11.560  0.9788  0.5635 -0.3232
  593TMC3    C5 8790   2.072   2.677  11.554 -0.0819 -0.0908  0.1451
  593TMC3    C6 8791   2.116   2.758  11.651 -0.1145  0.6926 -0.6112
  593TMC3     C 8792   1.813   2.470  11.706 -0.0045  0.4384 -0.1210
  593TMC3     O 8793   1.758   2.467  11.812  0.1235  0.0610  0.1844
  593TMC3     H 8794   1.902   2.643  11.892 -0.8294 -2.1670 -0.4906
  593TMC3    H1 8795   1.925   2.550  11.472 -0.4308 -1.8824  1.5943
  593TMC3    H2 8796   2.201   2.822  11.633  2.2051 -2.1560  0.1327
  593TMC3    C7 8797   2.138   2.710  11.425 -0.0423 -0.5016  0.1966
  593TMC3    C8 8798   2.068   2.865  11.862  0.1088  1.1383  0.5183
  593TMC3    O1 8799   2.193   2.818  11.413 -0.3121 -0.1772  0.6013
  593TMC3    O2 8800   2.049   2.977  11.820  0.1002  0.4461  0.2322
  594MPD2     C 8801   0.224   0.830  14.311  0.2630 -1.2186 -0.9387
  594MPD2    C1 8802   0.221   0.868  14.444  0.3504 -0.0602 -0.1326
  594MPD2    C2 8803   0.304   0.967  14.489 -0.4630 -0.0109 -0.3740
  594MPD2    C3 8804   0.388   1.030  14.394  0.6848 -0.0755  0.8383
  594MPD2    C4 8805   0.402   0.973  14.271  0.0141  0.5066  0.1088
  594MPD2    C5 8806   0.317   0.880  14.226 -0.2824  0.4055  0.0844
  594MPD2     H 8807   0.303   1.011  14.588 -0.6076 -1.2731  0.1865
  594MPD2    H1 8808   0.472   1.010  14.196  0.7673 -0.5123  0.3141
  594MPD2    H2 8809   0.183   0.734  14.281 -1.1156 -0.5679 -1.1750
  594MPD2    H3 8810   0.335   0.843  14.125 -0.2524  2.6355 -0.7257
  594MPD2     N 8811   0.459   1.146  14.436  0.4542  0.2882 -0.1988
  594MPD2    H5 8812   0.444   1.173  14.532 -1.1803 -0.4062 -0.2554
  594MPD2    N1 8813   0.126   0.806  14.528  0.3285  0.0472  0.0126
  594MPD2    H7 8814   0.057   0.743  14.488 -0.6266  1.5693 -0.7708
  595TMC3    C1 8815   0.767   1.451  14.528  0.8092 -0.2662 -0.2494
  595TMC3    C2 8816   0.721   1.367  14.433  0.6558 -0.9052  0.2369
  595TMC3    C3 8817   0.587   1.334  14.443 -0.1745 -0.7581 -0.0642
  595TMC3    C4 8818   0.693   1.508  14.630  0.3704 -0.3744 -0.5007
  595TMC3    C5 8819   0.561   1.481  14.631 -0.0331 -0.0100  0.3505
  595TMC3    C6 8820   0.503   1.396  14.531  0.5108 -0.7819  0.2600
  595TMC3     C 8821   0.909   1.464  14.547 -0.6152 -0.2558 -0.4921
  595TMC3     O 8822   0.948   1.472  14.662 -0.2816 -0.2551  0.4463
  595TMC3     H 8823   0.783   1.299  14.377 -0.3374 -1.5149 -0.1170
  595TMC3    H1 8824   0.736   1.561  14.715 -0.8134 -1.4284  0.7643
  595TMC3    H2 8825   0.400   1.364  14.538  0.8374 -2.1056 -0.9116
  595TMC3    C7 8826   0.490   1.483  14.753 -0.0675 -1.2097 -0.2512
  595TMC3    C8 8827   0.549   1.222  14.361  0.3775 -1.2529  0.4291
  595TMC3    O1 8828   0.368   1.499  14.741  0.2381 -0.2249 -0.6755
  595TMC3    O2 8829   0.604   1.206  14.250 -0.3595  0.2873 -0.7788
  596MPD2     C 8830   4.058   3.245  16.879  0.7071 -0.5353 -0.0013
  596MPD2    C1 8831   4.060   3.368  16.822  0.8952 -0.2492 -0.0376
  596MPD2    C2 8832   4.070   3.369  16.679  0.0267  0.4746  0.2535
  596MPD2    C3 8833   4.098   3.261  16.597 -0.0998  0.1438  0.0735
  596MPD2    C4 8834   4.092   3.141  16.664 -0.6407 -0.5617  0.0131
  596MPD2    C5 8835   4.058   3.132  16.797 -0.5151 -0.1422 -0.0423
  596MPD2     H 8836   4.069   3.469  16.636  0.1094  0.8832  1.1950
  596MPD2    H1 8837   4.110   3.045  16.616  1.7599 -0.0098 -0.2116
  596MPD2    H2 8838   4.055   3.223  16.985  1.4403  2.2093  0.5760
  596MPD2    H3 8839   4.054   3.033  16.841  3.5111  0.7352  2.3725
  596MPD2     N 8840   4.121   3.270  16.462 -0.5722  0.2994  0.3750
  596MPD2    H5 8841   4.118   3.181  16.413 -0.7532 -0.0575  1.0426
  596MPD2    N1 8842   4.042   3.494  16.891 -0.6013 -0.0482 -0.2255
  596MPD2    H7 8843   4.082   3.575  16.845  1.5214 -2.1761 -2.1514
  597TMC3    C1 8844   4.044   3.637  17.077  0.1541  0.3376 -0.6840
  597TMC3    C2 8845   4.140   3.711  17.013  0.1121  0.2951  0.0634
  597TMC3    C3 8846   4.131   3.846  17.040 -0.0105 -0.0223  0.0800
  597TMC3    C4 8847   3.950   3.683  17.161 -0.3882  1.2465 -0.3075
  597TMC3    C5 8848   3.949   3.816  17.180 -0.0725 -0.3410  1.4332
  597TMC3    C6 8849   4.037   3.903  17.125  0.3572  0.1081 -0.0441
  597TMC3     C 8850   4.006   3.507  17.021  0.4040 -0.2207 -0.3044
  597TMC3     O 8851   3.960   3.425  17.102  0.2609 -0.2655  0.3972
  597TMC3     H 8852   4.214   3.669  16.946 -0.7669  0.1639 -0.8280
  597TMC3    H1 8853   3.873   3.615  17.195  1.0825 -0.0880  0.3614
  597TMC3    H2 8854   4.023   4.008  17.144 -0.9385  0.2030 -1.5307
  597TMC3    C7 8855   3.856   3.860  17.284 -0.7037  0.0473 -0.8936
  597TMC3    C8 8856   4.243   3.932  17.005  0.2926  0.7339 -0.2655
  597TMC3    O1 8857   3.793   3.773  17.341 -0.3238  0.0754  0.7880
  597TMC3    O2 8858   4.246   4.036  17.072 -0.3580  0.3166  0.2520
  598TMC3    C1 8859   2.487   0.515  15.655  0.4266 -0.3877 -0.7462
  598TMC3    C2 8860   2.358   0.496  15.702  0.6106  0.4512 -0.3675
  598TMC3    C3 8861   2.253   0.538  15.629 -0.1584 -0.3823 -0.0769
  598TMC3    C4 8862   2.515   0.578  15.532 -0.3371 -0.1997  0.2030
  598TMC3    C5 8863   2.402   0.625  15.469 -0.1124 -0.1791  0.1404
  598TMC3    C6 8864   2.273   0.603  15.509 -0.1229  0.5150 -0.8017
  598TMC3     C 8865   2.589   0.456  15.734 -0.3144  0.1447  0.6986
  598TMC3     O 8866   2.563   0.399  15.840 -0.3535 -0.1956 -0.5383
  598TMC3     H 8867   2.338   0.442  15.794  1.7562  1.9070  0.7345
  598TMC3    H1 8868   2.608   0.578  15.478 -0.6828  2.8740 -0.4179
  598TMC3    H2 8869   2.192   0.626  15.441  0.9767 -1.0748 -2.6605
  598TMC3    C7 8870   2.415   0.661  15.326 -0.3764  0.2720 -1.2284
  598TMC3    C8 8871   2.123   0.475  15.647 -0.0096  0.2405 -0.5241
  598TMC3    O1 8872   2.337   0.618  15.243 -0.0936  0.6351 -0.1489
  598TMC3    O2 8873   2.080   0.473  15.765 -0.7184 -0.4792  0.5124
  599MPD2     C 8874   2.302   2.722  15.899 -0.0164  0.1334 -0.2174
  599MPD2    C1 8875   2.318   2.610  15.976 -0.1610  0.4453  1.0772
  599MPD2    C2 8876   2.240   2.595  16.085 -0.5083  0.0769 -0.0886
  599MPD2    C3 8877   2.134   2.682  16.109 -0.1553  0.7052 -0.8065
  599MPD2    C4 8878   2.119   2.796  16.031  0.3493 -0.0590 -0.2143
  599MPD2    C5 8879   2.201   2.818  15.925  0.1556  0.3866 -0.5583
  599MPD2     H 8880   2.261   2.509  16.147  0.7361 -0.4913 -1.3102
  599MPD2    H1 8881   2.055   2.879  16.056 -1.2595 -1.0855 -0.9081
  599MPD2    H2 8882   2.352   2.747  15.807  0.6520 -2.2210 -0.4837
  599MPD2    H3 8883   2.185   2.898  15.853  1.5329  0.6708 -0.5383
  599MPD2     N 8884   2.037   2.678  16.218 -0.5040 -0.3458 -0.2100
  599MPD2    H5 8885   1.979   2.761  16.227  0.9638  0.7123 -0.4377
  599MPD2    N1 8886   2.434   2.533  15.945  0.1414  0.4116 -0.3876
  599MPD2    H7 8887   2.490   2.587  15.880  1.5213 -1.0316 -0.3785
  600TMC3    C1 8888   1.940   2.611  16.415 -0.2532 -0.2018 -0.3450
  600TMC3    C2 8889   1.866   2.513  16.468 -0.0033  0.2221 -0.5988
  600TMC3    C3 8890   1.800   2.520  16.586  0.6617 -0.1419 -0.8002
  600TMC3    C4 8891   1.944   2.736  16.490  0.0667 -0.0644  0.3028
  600TMC3    C5 8892   1.869   2.744  16.605 -0.9773 -0.8203 -0.8588
  600TMC3    C6 8893   1.800   2.639  16.649 -0.6973 -0.3205  0.4271
  600TMC3     C 8894   2.038   2.582  16.314  0.2834  1.0066 -0.1505
  600TMC3     O 8895   2.088   2.474  16.313  0.0608  0.0792 -0.1654
  600TMC3     H 8896   1.872   2.419  16.413  2.2440  1.2045 -2.0539
  600TMC3    H1 8897   1.988   2.826  16.449  0.5004  0.6087  2.2480
  600TMC3    H2 8898   1.746   2.644  16.743 -0.2168  2.5395  0.5401
  600TMC3    C7 8899   1.880   2.857  16.695 -0.1754  0.2755  0.0358
  600TMC3    C8 8900   1.750   2.399  16.648  0.1039 -0.2391  0.7869
  600TMC3    O1 8901   1.838   2.846  16.808 -0.5009 -0.5479  0.1662
  600TMC3    O2 8902   1.811   2.369  16.754 -0.1881 -0.7847 -0.1396
  601MPD2     C 8903   3.692   0.521   0.599 -0.2525 -0.6836  0.0655
  601MPD2    C1 8904   3.787   0.538   0.506  0.4992 -0.1808 -0.3168
  601MPD2    C2 8905   3.840   0.424   0.447 -0.4367 -0.5986  1.5412
  601MPD2    C3 8906   3.799   0.299   0.486  1.0026 -0.2526 -0.2087
  601MPD2    C4 8907   3.704   0.280   0.588  0.1588  0.3402 -0.8941
  601MPD2    C5 8908   3.647   0.392   0.643  0.3845 -0.0602 -0.2742
  601MPD2     H 8909   3.915   0.428   0.369 -1.3639  3.7064  0.8568
  601MPD2    H1 8910   3.662   0.186   0.623  0.1809  0.4940 -0.4585
  601MPD2    H2 8911   3.636   0.605   0.638  1.6915 -0.8850  3.3331
  601MPD2    H3 8912   3.577   0.394   0.725  2.1212 -0.8308  1.2119
  601MPD2     N 8913   3.866   0.184   0.448 -0.0792 -0.2654 -0.0161
  601MPD2    H5 8914   3.827   0.096   0.479  2.0330 -0.9398  0.6937
  601MPD2    N1 8915   3.831   0.669   0.467  0.0363  0.0776  0.3133
  601MPD2    H7 8916   3.895   0.676   0.388  3.8204  0.5710  3.4192
  602TMC3    C1 8917   3.827   0.907   0.462 -0.2967  0.8875 -0.1366
  602TMC3    C2 8918   3.807   1.025   0.532  0.1303  0.3560  0.2199
  602TMC3    C3 8919   3.772   1.136   0.463 -0.0174 -0.6421  0.1651
  602TMC3    C4 8920   3.798   0.895   0.326 -0.7691 -0.8407  0.7348
  602TMC3    C5 8921   3.755   1.011   0.265 -0.5799  0.2665  0.9283
  602TMC3    C6 8922   3.753   1.134   0.326  0.7770 -0.6747 -0.8859
  602TMC3     C 8923   3.820   0.783   0.544 -0.4094 -0.1825  0.1612
  602TMC3     O 8924   3.780   0.802   0.660 -0.0753 -0.1638  0.3040
  602TMC3     H 8925   3.816   1.027   0.640  1.4537 -2.8484  0.1720
  602TMC3    H1 8926   3.798   0.811   0.257 -0.4622 -1.0262  0.9593
  602TMC3    H2 8927   3.731   1.223   0.270 -2.5079  0.2647  1.9086
  602TMC3    C7 8928   3.727   1.013   0.124  0.2687 -0.1080  1.0834
  602TMC3    C8 8929   3.708   1.242   0.538 -0.5129 -0.0419 -0.0257
  602TMC3    O1 8930   3.808   0.959   0.047  0.3496 -0.6433 -0.5328
  602TMC3    O2 8931   3.688   1.215   0.656 -0.2313 -0.0400 -0.7014
  603TMC3    C1 8932   2.357   1.265  10.949 -0.3780 -0.1455 -0.6077
  603TMC3    C2 8933   2.462   1.236  11.034 -0.1866  0.5108  0.6641
  603TMC3    C3 8934   2.564   1.322  11.044  0.1397 -0.1745  0.4223
  603TMC3    C4 8935   2.355   1.378  10.868  0.5396 -0.1134  0.1520
  603TMC3    C5 8936   2.457   1.467  10.884  0.1514 -0.5064 -0.3993
  603TMC3    C6 8937   2.557   1.442  10.976  0.1421  0.0319 -0.5311
  603TMC3     C 8938   2.252   1.164  10.931  0.4389  0.9869 -0.4804
  603TMC3     O 8939   2.259   1.072  11.013 -0.4485 -0.7060  0.3114
  603TMC3     H 8940   2.455   1.153  11.104 -1.2087  0.3004  0.3218
  603TMC3    H1 8941   2.262   1.397  10.814  0.9605  1.1738 -0.1215
  603TMC3    H2 8942   2.636   1.516  10.982  2.1309 -2.0082 -1.4141
  603TMC3    C7 8943   2.468   1.588  10.806  0.4490  0.5099  0.7559
  603TMC3    C8 8944   2.656   1.295  11.161 -0.1243  0.8309  0.4726
  603TMC3    O1 8945   2.551   1.673  10.841  0.0187 -0.6281 -0.1295
  603TMC3    O2 8946   2.655   1.182  11.206  0.1970  0.1423 -0.1748
  604MPD2     C 8947   2.748   0.049  16.059 -0.5548  0.1008  0.9819
  604MPD2    C1 8948   2.854   0.086  16.148  0.7021 -0.1969 -0.9365
  604MPD2    C2 8949   2.981   0.036  16.128  0.3124  0.0654 -0.6541
  604MPD2    C3 8950   3.010   4.673  16.019 -0.1023 -0.3668 -0.6805
  604MPD2    C4 8951   2.912   4.650  15.928 -0.0040  0.4820 -0.7556
  604MPD2    C5 8952   2.784   4.690  15.949 -0.1083  0.3130 -0.6592
  604MPD2     H 8953   3.070   0.054  16.187  0.8939  0.6473 -1.7092
  604MPD2    H1 8954   2.925   4.582  15.844  0.5946 -0.7280  0.3218
  604MPD2    H2 8955   2.645   0.080  16.070 -0.2388  1.2383  0.7222
  604MPD2    H3 8956   2.708   4.657  15.879 -1.6802  1.8554  0.3155
  604MPD2     N 8957   3.139   4.618  16.013 -0.5651  0.2672 -0.6317
  604MPD2    H5 8958   3.196   4.633  16.096  0.8094 -3.3606 -0.9144
  604MPD2    N1 8959   2.827   0.158  16.263  0.5597 -0.3495  0.5319
  604MPD2    H7 8960   2.734   0.180  16.298  0.7693  1.2351  0.0764
  605TMC3    C1 8961   2.876   0.271  16.465  0.3497  0.0979 -0.4074
  605TMC3    C2 8962   2.966   0.269  16.563 -0.0536 -0.2007  0.6883
  605TMC3    C3 8963   2.934   0.330  16.682  0.0181 -0.1218 -0.6792
  605TMC3    C4 8964   2.751   0.327  16.470 -0.3028 -0.2954 -0.2052
  605TMC3    C5 8965   2.732   0.408  16.581 -0.6209  0.3643 -0.1625
  605TMC3    C6 8966   2.820   0.404  16.688  0.2997 -0.7024 -0.5206
  605TMC3     C 8967   2.929   0.198  16.348  0.0892  0.0522  0.1013
  605TMC3     O 8968   3.050   0.192  16.339 -0.2491  0.1570 -0.6318
  605TMC3     H 8969   3.056   0.209  16.554  0.1273  0.0968  0.5316
  605TMC3    H1 8970   2.683   0.328  16.386  0.9701 -2.0717 -1.2731
  605TMC3    H2 8971   2.803   0.462  16.778  0.9386  0.1763 -0.9665
  605TMC3    C7 8972   2.615   0.494  16.582  0.9753 -0.0836 -0.5266
  605TMC3    C8 8973   3.046   0.386  16.756 -0.3494 -0.6539 -0.2401
  605TMC3    O1 8974   2.551   0.493  16.477 -0.4019 -0.4564  0.4252
  605TMC3    O2 8975   3.146   0.387  16.687 -0.0486  0.7133 -0.3118
  606TMC3    C1 8976   0.200   3.156   0.298 -0.5977  0.5723 -0.1679
  606TMC3    C2 8977   0.203   3.083   0.412  0.7089  0.1232  0.1131
  606TMC3    C3 8978   0.111   2.972   0.408 -0.1980 -0.3069  0.3132
  606TMC3    C4 8979   0.118   3.139   0.193  0.6900  0.1233  0.7479
  606TMC3    C5 8980   0.035   3.026   0.193 -0.1741 -0.2274  0.2985
  606TMC3    C6 8981   0.022   2.947   0.307 -0.0560 -0.0686  0.3628
  606TMC3     C 8982   0.298   3.262   0.280 -0.3634 -0.0604  0.1763
  606TMC3     O 8983   0.283   3.340   0.185  0.4397  0.0211 -0.4479
  606TMC3     H 8984   0.250   3.115   0.504  0.0768  2.1845 -0.2657
  606TMC3    H1 8985   0.129   3.201   0.105  0.1445 -0.0798  0.5341
  606TMC3    H2 8986   4.675   2.863   0.302  1.3217 -1.0546 -1.4485
  606TMC3    C7 8987   4.690   3.000   0.066 -0.0580 -0.0610 -0.4321
  606TMC3    C8 8988   0.079   2.912   0.538  0.6896 -0.1006 -0.0108
  606TMC3    O1 8989   0.034   3.021  17.648 -0.1602 -0.2054 -0.2493
  606TMC3    O2 8990   0.062   2.792   0.544  0.1047 -0.1122  0.5353
  607MPD2     C 8991   1.583   1.726  12.095  0.4311  0.4203 -0.0785
  607MPD2    C1 8992   1.655   1.814  12.172 -0.5941  0.4724  0.0557
  607MPD2    C2 8993   1.681   1.779  12.303 -0.5039 -0.0581  0.2740
  607MPD2    C3 8994   1.642   1.658  12.354  0.0601  0.5823 -0.1332
  607MPD2    C4 8995   1.564   1.569  12.275  0.3261 -0.1731 -0.1372
  607MPD2    C5 8996   1.544   1.602  12.142 -0.2503  0.2982 -0.0416
  607MPD2     H 8997   1.734   1.842  12.373  0.4839 -1.1041  0.4804
  607MPD2    H1 8998   1.522   1.477  12.312 -0.3877 -0.3803 -1.4464
  607MPD2    H2 8999   1.572   1.737  11.987  1.2252 -0.4856 -0.2499
  607MPD2    H3 9000   1.479   1.532  12.092  1.1030 -1.9974  1.4371
  607MPD2     N 9001   1.692   1.625  12.482 -0.5590 -0.2148 -0.0410
  607MPD2    H5 9002   1.742   1.699  12.529 -1.3280  1.2601 -1.5666
  607MPD2    N1 9003   1.712   1.933  12.134 -0.5495 -0.3349 -0.8520
  607MPD2    H7 9004   1.766   1.980  12.206 -1.0066  0.2514 -0.8928
  608TMC3    C1 9005   1.809   2.100  11.998  0.3295 -0.3008 -0.4512
  608TMC3    C2 9006   1.824   2.163  12.122 -0.2484 -0.3636 -0.0594
  608TMC3    C3 9007   1.934   2.249  12.128 -0.3255  0.0644  0.0814
  608TMC3    C4 9008   1.901   2.111  11.894 -0.6294  0.1688  0.2057
  608TMC3    C5 9009   2.003   2.201  11.907 -0.0002  0.9250 -0.1032
  608TMC3    C6 9010   2.025   2.259  12.025  0.2377  0.4928  0.5375
  608TMC3     C 9011   1.722   1.981  12.006  0.5174  0.0878 -0.0820
  608TMC3     O 9012   1.676   1.934  11.902  0.6449 -0.3815 -0.4715
  608TMC3     H 9013   1.745   2.166  12.196 -0.4423  2.4829 -0.3638
  608TMC3    H1 9014   1.882   2.060  11.801 -0.0038 -0.0538  0.2055
  608TMC3    H2 9015   2.117   2.311  12.048 -0.2108  1.4374  0.2126
  608TMC3    C7 9016   2.088   2.213  11.791  0.4512  0.7308  0.4109
  608TMC3    C8 9017   1.996   2.294  12.253 -0.0566 -0.1916 -0.7800
  608TMC3    O1 9018   2.065   2.139  11.699  0.1406  0.5461 -1.0987
  608TMC3    O2 9019   2.073   2.392  12.252  0.0616  0.2655 -0.1292
  609TMC3    C1 9020   4.218   0.503   9.905  1.1120  0.6544  0.8776
  609TMC3    C2 9021   4.130   0.432   9.828  0.3685 -0.0448  0.2096
  609TMC3    C3 9022   4.164   0.313   9.772  0.6460  0.2974  0.1094
  609TMC3    C4 9023   4.347   0.455   9.929 -0.3447  0.5017  0.5640
  609TMC3    C5 9024   4.376   0.342   9.859 -0.3110  0.1042 -0.2122
  609TMC3    C6 9025   4.292   0.268   9.785 -0.2337  0.0356 -0.5306
  609TMC3     C 9026   4.171   0.626   9.964 -0.6201 -0.0829  0.4376
  609TMC3     O 9027   4.062   0.663   9.922  0.2556 -0.1712 -0.3683
  609TMC3     H 9028   4.027   0.465   9.827  1.0297  1.9842 -1.1030
  609TMC3    H1 9029   4.403   0.500  10.010  2.3512 -2.7140  0.4828
  609TMC3    H2 9030   4.322   0.174   9.740 -1.3478 -0.3152 -0.5474
  609TMC3    C7 9031   4.514   0.300   9.854  0.0276  0.5493 -0.4410
  609TMC3    C8 9032   4.069   0.222   9.700  0.4597  0.6369  0.3558
  609TMC3    O1 9033   4.539   0.193   9.797  0.1064 -0.3464  0.0865
  609TMC3    O2 9034   4.087   0.106   9.719  0.1204 -0.0549 -0.1938
  610TMC3    C1 9035   2.343   1.638  12.913  0.3589 -0.1106 -0.5008
  610TMC3    C2 9036   2.443   1.697  12.841 -0.2600 -0.0683  0.1473
  610TMC3    C3 9037   2.521   1.623  12.753 -0.2476  0.2797 -0.7629
  610TMC3    C4 9038   2.333   1.503  12.901  0.7105 -0.1319  0.0632
  610TMC3    C5 9039   2.419   1.433  12.821 -0.2754  0.0889 -0.0887
  610TMC3    C6 9040   2.503   1.493  12.733  0.3132  0.4729 -0.2694
  610TMC3     C 9041   2.229   1.714  12.948  0.0442  0.4224 -0.5743
  610TMC3     O 9042   2.228   1.832  12.914 -0.3197  0.8240 -0.3220
  610TMC3     H 9043   2.460   1.804  12.851 -0.9850 -0.0232  0.8741
  610TMC3    H1 9044   2.276   1.441  12.970  0.1100  0.9302  0.5252
  610TMC3    H2 9045   2.567   1.434  12.669 -0.0435 -0.7348  0.5047
  610TMC3    C7 9046   2.467   1.302  12.854 -0.2966  0.1986  0.0862
  610TMC3    C8 9047   2.573   1.705  12.646 -1.0552 -0.1137 -0.1132
  610TMC3    O1 9048   2.589   1.289  12.863 -0.4883  0.4372  0.4410
  610TMC3    O2 9049   2.633   1.803  12.681 -0.5586  0.0142  0.2730
  611MPD2     C 9050   1.500   1.291  10.524  0.2697  0.1878 -0.3409
  611MPD2    C1 9051   1.437   1.410  10.485 -0.1771  0.2474  0.6030
  611MPD2    C2 9052   1.499   1.505  10.406  0.5184 -0.1237 -0.7499
  611MPD2    C3 9053   1.631   1.482  10.371 -0.0458  0.4429 -0.3945
  611MPD2    C4 9054   1.702   1.371  10.422 -0.0381 -0.6523 -0.1274
  611MPD2    C5 9055   1.635   1.269  10.488  0.2164  0.1548 -0.3415
  611MPD2     H 9056   1.443   1.593  10.376  0.5579  0.7955  1.9029
  611MPD2    H1 9057   1.809   1.354  10.411  0.0940  0.3072 -0.2776
  611MPD2    H2 9058   1.465   1.203  10.577 -0.4694  0.9926  0.4862
  611MPD2    H3 9059   1.680   1.177  10.524 -1.0353 -0.4158 -0.2294
  611MPD2     N 9060   1.702   1.593  10.305  0.8708  0.2197  0.0646
  611MPD2    H5 9061   1.803   1.588  10.305  0.8323 -0.8365 -1.5861
  611MPD2    N1 9062   1.311   1.427  10.548  0.5383  0.2007 -0.2270
  611MPD2    H7 9063   1.277   1.352  10.607  1.8064 -0.7125 -0.6560
  612TMC3    C1 9064   1.729   1.817  10.226 -0.5983 -0.6021  0.6319
  612TMC3    C2 9065   1.864   1.807  10.254 -0.2797  0.2787 -0.1661
  612TMC3    C3 9066   1.934   1.928  10.268 -0.6999 -0.7491  0.9077
  612TMC3    C4 9067   1.658   1.928  10.223 -0.8647  0.2571  0.1071
  612TMC3    C5 9068   1.729   2.045  10.246  0.4732  0.2953  0.2429
  612TMC3    C6 9069   1.864   2.045  10.260 -0.3362 -0.3971 -0.5257
  612TMC3     C 9070   1.643   1.697  10.245 -0.6981 -0.1454 -0.2559
  612TMC3     O 9071   1.527   1.708  10.201 -0.5690  0.8515 -0.0234
  612TMC3     H 9072   1.907   1.708  10.244 -1.9346 -0.3402 -1.1541
  612TMC3    H1 9073   1.551   1.932  10.207 -0.8406  2.8012  0.5699
  612TMC3    H2 9074   1.918   2.138  10.267  0.2645 -0.7682 -0.2381
  612TMC3    C7 9075   1.649   2.170  10.267  0.3029  0.2971  0.7305
  612TMC3    C8 9076   2.066   1.938  10.299  0.3554  0.2122 -0.1939
  612TMC3    O1 9077   1.531   2.159  10.231 -0.4947 -0.1813  0.1570
  612TMC3    O2 9078   2.126   2.038  10.267 -0.4621  0.2526  0.3835
  613MPD2     C 9079   1.054   3.854  16.545 -0.5329 -0.4824  0.2515
  613MPD2    C1 9080   0.987   3.753  16.607  0.5100  0.6556  0.5392
  613MPD2    C2 9081   0.997   3.742  16.742 -0.3611  0.6096 -0.0578
  613MPD2    C3 9082   1.064   3.831  16.821 -0.8258  0.5192 -0.5748
  613MPD2    C4 9083   1.132   3.941  16.763  0.4007 -0.3003 -0.0600
  613MPD2    C5 9084   1.129   3.940  16.626 -0.7989 -0.6186 -0.8511
  613MPD2     H 9085   0.948   3.659  16.792 -0.7421  0.4505 -0.7004
  613MPD2    H1 9086   1.189   4.013  16.820 -0.5962  0.6879 -0.3263
  613MPD2    H2 9087   1.048   3.868  16.438 -0.9162 -0.2646  0.2999
  613MPD2    H3 9088   1.188   4.012  16.571  0.2770 -0.2184  0.8543
  613MPD2     N 9089   1.052   3.803  16.958  0.0957  0.4213  0.1276
  613MPD2    H5 9090   0.969   3.750  16.983  0.5719  0.0602  0.9316
  613MPD2    N1 9091   0.896   3.669  16.549  0.5497 -0.3064  0.9454
  613MPD2    H7 9092   0.832   3.622  16.612 -1.2188 -1.5465 -1.7674
  614TMC3    C1 9093   0.749   3.575  16.399  0.0803 -0.2653  0.4196
  614TMC3    C2 9094   0.736   3.491  16.507  0.2154 -0.3987 -0.6218
  614TMC3    C3 9095   0.609   3.488  16.566 -0.6178  0.4010  0.4766
  614TMC3    C4 9096   0.644   3.636  16.343  0.3100 -0.0011  0.0621
  614TMC3    C5 9097   0.524   3.631  16.405  0.7040 -0.1451  0.1359
  614TMC3    C6 9098   0.504   3.561  16.520  0.1612 -1.0981 -0.9326
  614TMC3     C 9099   0.857   3.669  16.419 -0.5578 -0.3473 -0.0877
  614TMC3     O 9100   0.908   3.730  16.327  0.3167  0.0535 -0.4208
  614TMC3     H 9101   0.822   3.433  16.539  2.2889  2.2653 -1.4436
  614TMC3    H1 9102   0.664   3.711  16.267 -0.6458  0.8706  0.6670
  614TMC3    H2 9103   0.411   3.566  16.576  0.3173 -0.9463 -0.6835
  614TMC3    C7 9104   0.415   3.699  16.338 -0.6837  0.2397  1.0830
  614TMC3    C8 9105   0.624   3.476  16.710 -0.4089  0.3755 -0.6024
  614TMC3    O1 9106   0.346   3.774  16.398  0.2891 -0.3538  0.2941
  614TMC3    O2 9107   0.738   3.505  16.745 -0.0313  0.3649 -0.0200
  615MPD2     C 9108   4.302   4.684  16.651  0.6102  0.0741  0.0279
  615MPD2    C1 9109   4.372   0.021  16.547  0.1512 -0.4996  0.5474
  615MPD2    C2 9110   4.315   0.029  16.421 -0.5768  0.5269 -0.0365
  615MPD2    C3 9111   4.207   4.678  16.389  0.7009  0.1721  0.1341
  615MPD2    C4 9112   4.142   4.615  16.498 -0.2258  0.1549  0.2529
  615MPD2    C5 9113   4.182   4.625  16.628  0.2546 -0.8458 -0.6530
  615MPD2     H 9114   4.374   0.079  16.345 -2.5358  2.3351 -0.3678
  615MPD2    H1 9115   4.058   4.549  16.485  0.3860 -0.3089 -1.4323
  615MPD2    H2 9116   4.342   4.684  16.751 -2.0625 -0.5579  1.1007
  615MPD2    H3 9117   4.141   4.571  16.713  2.7647 -3.4456 -1.0870
  615MPD2     N 9118   4.179   4.656  16.252 -0.4231  0.0794  0.3677
  615MPD2    H5 9119   4.251   4.684  16.187 -0.0284  2.3041  1.7493
  615MPD2    N1 9120   4.496   0.085  16.558 -0.3343  0.6608  0.9035
  615MPD2    H7 9121   4.528   0.126  16.471 -0.5872  1.4368  1.1821
  616TMC3    C1 9122   4.660   0.204  16.666  0.1563  0.7652 -0.1281
  616TMC3    C2 9123   0.018   0.221  16.554  0.7304 -0.0760 -0.0581
  616TMC3    C3 9124   0.139   0.285  16.577 -0.2135 -0.1252 -0.4275
  616TMC3    C4 9125   4.694   0.259  16.789  0.5264  0.5376 -0.1187
  616TMC3    C5 9126   0.089   0.335  16.805 -0.9516  0.1351 -0.2018
  616TMC3    C6 9127   0.170   0.351  16.694  0.1593 -0.1778 -0.0890
  616TMC3     C 9128   4.563   0.100  16.676 -0.1901 -0.2697  0.0278
  616TMC3     O 9129   4.532   0.061  16.785  0.1853  0.1124  0.2032
  616TMC3     H 9130   0.003   0.159  16.467  0.1260 -0.8654  0.6074
  616TMC3    H1 9131   4.631   0.229  16.872 -1.2097 -0.9436 -1.9529
  616TMC3    H2 9132   0.253   0.420  16.701 -0.1818 -0.0009  2.2985
  616TMC3    C7 9133   0.097   0.438  16.913  0.7351 -0.2479  0.0246
  616TMC3    C8 9134   0.210   0.311  16.459  0.3229  0.0710  0.2633
  616TMC3    O1 9135   0.201   0.489  16.948 -0.6374 -0.4044 -0.4986
  616TMC3    O2 9136   0.152   0.304  16.353  0.3529  0.2891  0.1400
  617MPD2     C 9137   2.812   3.501  13.855 -0.1722  1.2692  1.1471
  617MPD2    C1 9138   2.823   3.449  13.979  0.3060 -0.3660 -0.2712
  617MPD2    C2 9139   2.708   3.395  14.040 -0.4703 -0.1549  1.0370
  617MPD2    C3 9140   2.583   3.406  13.976  0.5088 -0.0622 -0.1080
  617MPD2    C4 9141   2.574   3.461  13.849 -0.0558 -0.3831 -0.4740
  617MPD2    C5 9142   2.688   3.505  13.792  0.3828  0.4748 -0.3747
  617MPD2     H 9143   2.713   3.356  14.141 -0.4804  0.4261  1.2587
  617MPD2    H1 9144   2.479   3.467  13.798  0.2740 -3.0745 -1.4156
  617MPD2    H2 9145   2.885   3.553  13.794  0.5167  0.4502  1.2602
  617MPD2    H3 9146   2.681   3.552  13.695  0.1641  0.3791 -0.4050
  617MPD2     N 9147   2.462   3.348  14.013 -0.4388  0.2754 -0.2293
  617MPD2    H5 9148   2.394   3.337  13.939  0.1232 -0.4043 -0.6442
  617MPD2    N1 9149   2.947   3.461  14.034  0.9074 -0.7027 -0.0755
  617MPD2    H7 9150   3.019   3.517  13.990  1.3691 -1.8857 -0.8414
  618TMC3    C1 9151   3.135   3.399  14.156 -0.0985  0.4047 -0.6346
  618TMC3    C2 9152   3.191   3.289  14.215  0.2329  0.1636 -0.5753
  618TMC3    C3 9153   3.329   3.277  14.196  0.3684  0.8375 -0.2160
  618TMC3    C4 9154   3.204   3.490  14.083 -0.5349  0.1898  0.0192
  618TMC3    C5 9155   3.339   3.481  14.086 -0.4388  0.0008 -0.6515
  618TMC3    C6 9156   3.408   3.378  14.149  0.1133 -0.2369  0.0650
  618TMC3     C 9157   2.997   3.381  14.131 -0.1120  0.2987  0.5321
  618TMC3     O 9158   2.938   3.288  14.188  0.0917  0.3260 -0.2682
  618TMC3     H 9159   3.128   3.208  14.250  0.0837  1.5618  2.3376
  618TMC3    H1 9160   3.152   3.571  14.033 -1.3170  0.8452  1.8671
  618TMC3    H2 9161   3.516   3.373  14.142 -0.0521  0.3257 -2.9288
  618TMC3    C7 9162   3.405   3.560  13.984  0.4045  1.3834  0.5314
  618TMC3    C8 9163   3.385   3.163  14.254  0.3927 -0.3103  0.5142
  618TMC3    O1 9164   3.340   3.629  13.909 -0.5776 -0.0423  0.4779
  618TMC3    O2 9165   3.328   3.124  14.357 -0.1658  0.0236  0.5768
  619MPD2     C 9166   4.693   0.230  14.109 -0.4012 -1.0850 -0.2991
  619MPD2    C1 9167   4.669   0.277  13.981 -0.4983 -0.4558  0.4472
  619MPD2    C2 9168   4.629   0.203  13.873  0.0973  0.2122 -0.5148
  619MPD2    C3 9169   4.598   0.070  13.892 -0.3140  0.0135 -0.4034
  619MPD2    C4 9170   4.605   0.021  14.023  0.5070 -0.6036  0.8642
  619MPD2    C5 9171   4.658   0.099  14.126  0.4644  0.4124 -0.9341
  619MPD2     H 9172   4.615   0.261  13.782  2.1366 -1.4603 -1.8957
  619MPD2    H1 9173   4.569   4.644  14.053 -0.6790 -0.4036  0.0836
  619MPD2    H2 9174   0.006   0.286  14.196 -4.7700  0.2701  0.4686
  619MPD2    H3 9175   4.666   0.050  14.222 -0.0949  1.6446 -0.2534
  619MPD2     N 9176   4.557   4.699  13.794 -0.0158  0.3499 -0.1368
  619MPD2    H5 9177   4.513   4.611  13.817 -1.0763  0.8867 -0.1079
  619MPD2    N1 9178   4.680   0.415  13.951  0.1851 -0.1553 -0.0428
  619MPD2    H7 9179   4.644   0.443  13.860 -0.1544 -2.7536 -0.7063
  620TMC3    C1 9180   4.681   0.651  13.972  0.4692  0.2335  0.0980
  620TMC3    C2 9181   4.680   0.649  13.834  0.3984  0.0939  0.1398
  620TMC3    C3 9182   4.583   0.721  13.771 -0.4880 -0.1690  0.2032
  620TMC3    C4 9183   4.594   0.727  14.046  0.0461  0.0935 -0.4063
  620TMC3    C5 9184   4.515   0.808  13.982  0.2307 -0.0921 -1.0643
  620TMC3    C6 9185   4.514   0.814  13.846 -0.1834 -0.4814 -0.0534
  620TMC3     C 9186   4.702   0.524  14.031 -0.0126  0.7591 -0.3658
  620TMC3     O 9187   0.009   0.515  14.150  0.0942  0.1405  0.4201
  620TMC3     H 9188   0.020   0.572  13.789 -0.2863 -1.8998  2.6118
  620TMC3    H1 9189   4.582   0.714  14.153 -0.2641 -1.5270 -0.6402
  620TMC3    H2 9190   4.448   0.886  13.799  1.1756  0.5964 -0.2762
  620TMC3    C7 9191   4.379   0.823  14.041 -0.0427 -0.2053  0.3386
  620TMC3    C8 9192   4.496   0.615  13.724  0.9152 -0.2639 -0.6002
  620TMC3    O1 9193   4.367   0.830  14.162  0.2982  0.2026 -0.2348
  620TMC3    O2 9194   4.506   0.498  13.761  0.4526 -0.1072  0.2488
  621MPD2     C 9195   4.295   0.632  10.563  0.7071  0.7390  0.1994
  621MPD2    C1 9196   4.384   0.521  10.555  0.2517 -0.0096  0.6490
  621MPD2    C2 9197   4.518   0.542  10.521  0.0163 -0.4435 -0.0679
  621MPD2    C3 9198   4.568   0.662  10.478 -0.0974  0.2539  0.1330
  621MPD2    C4 9199   4.479   0.765  10.470  0.0580  0.3575 -0.0266
  621MPD2    C5 9200   4.351   0.751  10.516 -0.0866  0.2178  0.0947
  621MPD2     H 9201   4.586   0.458  10.524 -2.6119 -2.4917  1.3098
  621MPD2    H1 9202   4.509   0.860  10.427 -1.6489  0.5434 -0.7721
  621MPD2    H2 9203   4.191   0.633  10.591  0.3529 -1.2606 -1.0414
  621MPD2    H3 9204   4.284   0.836  10.507  0.9000  1.1660  1.7192
  621MPD2     N 9205   4.695   0.688  10.421  0.4247 -0.3324 -0.3179
  621MPD2    H5 9206   4.703   0.776  10.371  1.7560  0.4454  1.2639
  621MPD2    N1 9207   4.344   0.389  10.593 -0.1577  0.0594  0.4276
  621MPD2    H7 9208   4.415   0.319  10.572 -0.6325 -0.1805 -0.3661
  622TMC3    C1 9209   4.194   0.208  10.622 -0.2461  0.3730 -0.3658
  622TMC3    C2 9210   4.089   0.166  10.548  0.3444  0.1378  0.5544
  622TMC3    C3 9211   4.086   0.041  10.488  0.5320  0.3953 -0.5691
  622TMC3    C4 9212   4.299   0.127  10.638 -0.0360 -0.5289  0.0662
  622TMC3    C5 9213   4.304   0.006  10.575 -0.0880 -0.4714 -0.1401
  622TMC3    C6 9214   4.197   4.685  10.502 -0.4393 -0.2276 -0.5487
  622TMC3     C 9215   4.216   0.351  10.624  0.1677 -0.7335 -0.0701
  622TMC3     O 9216   4.120   0.422  10.624  0.8802  0.3722  0.1638
  622TMC3     H 9217   3.998   0.225  10.552 -0.2804 -0.9183  1.7531
  622TMC3    H1 9218   4.387   0.170  10.684 -0.9826 -1.1955  2.5306
  622TMC3    H2 9219   4.196   4.588  10.453 -0.2514 -1.1010  1.1980
  622TMC3    C7 9220   4.408   4.629  10.617 -0.3338  0.2860 -0.0427
  622TMC3    C8 9221   3.995   4.720  10.385  0.2625 -0.7385 -0.1942
  622TMC3    O1 9222   4.489   4.662  10.707 -0.4249 -0.7505 -0.1128
  622TMC3    O2 9223   4.025   4.617  10.324 -0.2131 -0.0391 -0.2804
  623MPD2     C 9224   3.519   0.721  16.038 -0.5565 -0.5426  0.0010
  623MPD2    C1 9225   3.441   0.663  16.140 -0.2630 -0.2976  0.0167
  623MPD2    C2 9226   3.484   0.665  16.268 -0.3380  0.5331 -0.3652
  623MPD2    C3 9227   3.601   0.736  16.301  0.1962 -0.1400 -0.4225
  623MPD2    C4 9228   3.667   0.805  16.199 -0.4968  0.7149  0.5749
  623MPD2    C5 9229   3.638   0.782  16.070 -0.4348 -0.0253 -0.0447
  623MPD2     H 9230   3.431   0.624  16.353  0.8135  0.4094  0.3006
  623MPD2    H1 9231   3.755   0.868  16.209  0.3648  0.1224 -3.3210
  623MPD2    H2 9232   3.481   0.728  15.937 -2.0435 -1.0973  0.5284
  623MPD2    H3 9233   3.700   0.826  15.993  0.4289 -1.0514  0.0750
  623MPD2     N 9234   3.632   0.747  16.440  0.1920  0.1654 -0.2538
  623MPD2    H5 9235   3.558   0.707  16.497 -0.6086  1.4665 -0.3756
  623MPD2    N1 9236   3.311   0.624  16.120  0.2438 -0.2143  0.0364
  623MPD2    H7 9237   3.268   0.598  16.208 -1.8927  0.2462 -0.8830
  624TMC3    C1 9238   3.798   0.745  16.828 -0.4749 -0.1373 -0.3821
  624TMC3    C2 9239   3.674   0.737  16.885 -0.0230 -0.2535 -0.5293
  624TMC3    C3 9240   3.575   0.775  16.803 -0.1262 -0.4593  0.0607
  624TMC3    C4 9241   3.831   0.798  16.711  0.3171 -0.5119 -0.0383
  624TMC3    C5 9242   3.726   0.842  16.636 -0.5131 -0.0501  0.3139
  624TMC3    C6 9243   3.598   0.829  16.674  0.9259  0.0309 -0.2900
  624TMC3     C 9244   3.898   0.668  16.900  0.0269 -0.2977  0.4150
  624TMC3     O 9245   3.898   0.652  17.022 -0.4265 -0.3826  0.7130
  624TMC3     H 9246   3.647   0.672  16.966 -1.0699  0.5793 -0.2125
  624TMC3    H1 9247   3.931   0.813  16.674  0.8526  1.6419  2.2945
  624TMC3    H2 9248   3.525   0.883  16.616  0.5307 -1.2051 -0.9558
  624TMC3    C7 9249   3.732   0.826  16.491  0.5306  0.3998 -0.3128
  624TMC3    C8 9250   3.442   0.730  16.814 -1.4674 -0.8263  0.0805
  624TMC3    O1 9251   3.822   0.883  16.430 -0.6390  0.0020 -0.2340
  624TMC3    O2 9252   3.383   0.699  16.714  0.0371 -0.1060  0.5744
  625MPD2     C 9253   4.059   1.293   0.493  0.0016  0.6564 -0.0802
  625MPD2    C1 9254   4.096   1.409   0.558  0.4340  0.7059  0.5364
  625MPD2    C2 9255   4.195   1.412   0.656 -0.2243  0.4352 -0.0090
  625MPD2    C3 9256   4.287   1.306   0.657 -0.0156  0.4067  0.1217
  625MPD2    C4 9257   4.254   1.191   0.583  0.3320  0.0703  0.0943
  625MPD2    C5 9258   4.144   1.183   0.502 -0.2166  0.1507 -0.1987
  625MPD2     H 9259   4.210   1.497   0.721  0.2526 -0.1929  0.7089
  625MPD2    H1 9260   4.300   1.096   0.604 -0.2373 -0.6514 -1.9390
  625MPD2    H2 9261   3.980   1.292   0.417 -1.4699 -2.1731  1.4967
  625MPD2    H3 9262   4.122   1.093   0.445  2.1925  0.2119 -1.2615
  625MPD2     N 9263   4.403   1.299   0.744  0.6362  0.0072 -0.1322
  625MPD2    H5 9264   4.398   1.350   0.831 -0.1457 -0.0869 -0.1212
  625MPD2    N1 9265   4.008   1.524   0.561  0.2379 -0.4316  0.2839
  625MPD2    H7 9266   4.028   1.596   0.629 -0.1347 -0.2891  0.2458
  626TMC3    C1 9267   3.823   1.654   0.491 -0.0254  1.0320 -1.0058
  626TMC3    C2 9268   3.759   1.717   0.390  0.0645  0.3545 -0.5317
  626TMC3    C3 9269   3.657   1.801   0.412  0.0303 -0.6344  0.5605
  626TMC3    C4 9270   3.771   1.654   0.611  0.1523 -0.3543 -0.1287
  626TMC3    C5 9271   3.671   1.746   0.637 -0.1572  0.5371  0.0326
  626TMC3    C6 9272   3.621   1.831   0.539  0.1460  0.2381 -0.2412
  626TMC3     C 9273   3.923   1.550   0.460 -0.4637 -0.1729 -0.1504
  626TMC3     O 9274   3.936   1.516   0.346  0.4178  0.8134 -0.3432
  626TMC3     H 9275   3.790   1.685   0.291 -0.1158 -0.3278 -0.3684
  626TMC3    H1 9276   3.799   1.582   0.687  2.2055 -0.0823 -0.6394
  626TMC3    H2 9277   3.561   1.917   0.565  0.5247  0.4583 -0.1000
  626TMC3    C7 9278   3.644   1.769   0.779  0.7652  0.1225  0.2995
  626TMC3    C8 9279   3.589   1.865   0.293 -0.2863 -1.0181  0.0325
  626TMC3    O1 9280   3.736   1.732   0.856  1.0494 -0.7343 -0.2087
  626TMC3    O2 9281   3.652   1.863   0.188 -0.1328 -0.0872  0.3904
  627MPD2     C 9282   2.784   1.836  14.545 -0.2714  0.6130  0.3347
  627MPD2    C1 9283   2.695   1.938  14.588  0.4164 -0.1868  0.4375
  627MPD2    C2 9284   2.568   1.906  14.650 -0.6375 -0.2170 -0.4029
  627MPD2    C3 9285   2.536   1.771  14.664  0.7417 -0.3065  0.0423
  627MPD2    C4 9286   2.621   1.671  14.614 -0.1478 -0.5987 -0.0829
  627MPD2    C5 9287   2.746   1.705  14.559  0.0887 -0.2636 -0.6232
  627MPD2     H 9288   2.493   1.979  14.679 -2.0420 -1.5078 -0.7275
  627MPD2    H1 9289   2.595   1.566  14.606  0.5888 -0.6230 -2.0776
  627MPD2    H2 9290   2.876   1.860  14.492  0.6473  0.1575  1.7137
  627MPD2    H3 9291   2.819   1.629  14.535  2.3582  2.5775 -2.6517
  627MPD2     N 9292   2.406   1.741  14.714 -0.4303  0.1359 -0.1096
  627MPD2    H5 9293   2.354   1.819  14.752 -1.8127 -0.5667 -0.5705
  627MPD2    N1 9294   2.743   2.069  14.584 -0.1952  0.2749 -0.4232
  627MPD2    H7 9295   2.839   2.076  14.551  0.1953  0.2947  0.7173
  628TMC3    C1 9296   2.789   2.276  14.691  0.4310 -0.2745  0.1171
  628TMC3    C2 9297   2.898   2.230  14.754  0.0777  0.0577 -0.0255
  628TMC3    C3 9298   2.959   2.319  14.847 -0.1675 -0.3969  0.8252
  628TMC3    C4 9299   2.746   2.411  14.693  0.0989  0.4733  0.0482
  628TMC3    C5 9300   2.818   2.491  14.776  0.3852 -0.7000  0.3458
  628TMC3    C6 9301   2.922   2.452  14.850 -0.2231  0.5934  0.2057
  628TMC3     C 9302   2.687   2.184  14.640  0.0263 -0.6318  0.1332
  628TMC3     O 9303   2.576   2.200  14.682 -0.1093 -0.2571 -0.0894
  628TMC3     H 9304   2.942   2.132  14.739  0.9542  0.5971 -1.0151
  628TMC3    H1 9305   2.649   2.439  14.655  0.0189  1.4240  0.9452
  628TMC3    H2 9306   2.959   2.512  14.932  0.6114 -0.6165  0.7151
  628TMC3    C7 9307   2.731   2.596  14.826 -0.0423 -0.1729 -0.2787
  628TMC3    C8 9308   3.077   2.274  14.916  0.1440 -0.0037  1.0451
  628TMC3    O1 9309   2.726   2.598  14.949  0.8551 -0.2411  0.3170
  628TMC3    O2 9310   3.163   2.357  14.924 -0.0092  0.4807  0.4128
  629MPD2     C 9311   0.585   0.558  16.214  0.6886  0.2352 -0.5275
  629MPD2    C1 9312   0.625   0.531  16.344 -0.5167 -0.1663  0.5755
  629MPD2    C2 9313   0.543   0.456  16.427  0.5614  0.0954  0.1375
  629MPD2    C3 9314   0.419   0.412  16.383  0.0478 -0.0302  0.3327
  629MPD2    C4 9315   0.381   0.451  16.256  0.3374 -0.4767 -0.7373
  629MPD2    C5 9316   0.461   0.521  16.175  0.3815  0.7463 -0.2222
  629MPD2     H 9317   0.575   0.434  16.528  1.0326 -0.5480 -0.1594
  629MPD2    H1 9318   0.287   0.420  16.214 -0.2154  0.9587 -0.5455
  629MPD2    H2 9319   0.642   0.617  16.144 -0.2191 -0.0308 -1.4908
  629MPD2    H3 9320   0.429   0.535  16.073 -2.5924 -1.2359  0.4604
  629MPD2     N 9321   0.340   0.356  16.481 -0.0615  0.4115 -0.2818
  629MPD2    H5 9322   0.385   0.336  16.570  0.1127 -1.4628 -0.8030
  629MPD2    N1 9323   0.756   0.571  16.378  0.0582  0.3758  0.0744
  629MPD2    H7 9324   0.801   0.627  16.306  1.3050 -2.1416 -1.1290
  630TMC3    C1 9325   0.955   0.589  16.488  0.3537  0.4817 -0.3607
  630TMC3    C2 9326   0.978   0.701  16.416  0.1598  0.3574  0.0547
  630TMC3    C3 9327   1.110   0.736  16.394  0.3999  0.2001  0.8268
  630TMC3    C4 9328   1.054   0.525  16.552  0.9502 -0.2715 -0.3850
  630TMC3    C5 9329   1.183   0.571  16.544 -0.3619  0.3518 -0.7714
  630TMC3    C6 9330   1.218   0.670  16.456 -0.1041 -0.2557  0.1858
  630TMC3     C 9331   0.824   0.524  16.488 -0.1280  0.5565 -0.1043
  630TMC3     O 9332   0.809   0.431  16.560 -0.5538  0.0045  0.7567
  630TMC3     H 9333   0.908   0.762  16.360  0.0541 -1.2274 -1.5668
  630TMC3    H1 9334   1.030   0.452  16.628  2.6732  1.3328  1.6722
  630TMC3    H2 9335   1.316   0.709  16.431  0.8046  0.2977  4.7455
  630TMC3    C7 9336   1.248   0.580  16.675  0.0559  0.6611  1.7287
  630TMC3    C8 9337   1.138   0.876  16.412 -0.1165  0.3298 -0.4619
  630TMC3    O1 9338   1.225   0.499  16.765 -0.3114  0.0632  0.2366
  630TMC3    O2 9339   1.251   0.915  16.387 -0.5690  0.4529 -0.8051
  631MPD2     C 9340   3.615   0.547  15.738  0.7472 -0.0992 -0.5183
  631MPD2    C1 9341   3.704   0.496  15.652 -0.1187  0.2131  0.8809
  631MPD2    C2 9342   3.753   0.362  15.663  0.6603  0.0868 -0.4458
  631MPD2    C3 9343   3.727   0.286  15.775  0.0632  0.0218  0.8301
  631MPD2    C4 9344   3.635   0.339  15.859 -0.7738 -1.0030  0.1600
  631MPD2    C5 9345   3.569   0.459  15.836 -0.5110 -0.2234 -1.2850
  631MPD2     H 9346   3.828   0.328  15.592 -0.5709 -1.3869 -1.0407
  631MPD2    H1 9347   3.606   0.282  15.947 -3.8992  0.5619  0.1441
  631MPD2    H2 9348   3.583   0.650  15.746  3.1972  0.5660  0.8673
  631MPD2    H3 9349   3.485   0.492  15.896 -0.4849 -0.3489 -1.1805
  631MPD2     N 9350   3.802   0.164  15.803 -0.2597  0.5661 -0.3226
  631MPD2    H5 9351   3.881   0.155  15.740 -0.4131  2.0204 -0.7301
  631MPD2    N1 9352   3.751   0.581  15.556  0.3640  0.0500  0.2661
  631MPD2    H7 9353   3.713   0.675  15.567 -0.4941 -0.1834 -0.7149
  632TMC3    C1 9354   3.895   0.686  15.410  0.4247  0.5150  0.1741
  632TMC3    C2 9355   3.899   0.786  15.495  0.4952  0.2299  0.6573
  632TMC3    C3 9356   3.970   0.894  15.456  0.3850  0.3114  0.0329
  632TMC3    C4 9357   3.938   0.692  15.281 -0.6604 -0.5239  0.0948
  632TMC3    C5 9358   4.004   0.808  15.243  0.1160  0.5686 -0.3627
  632TMC3    C6 9359   4.031   0.907  15.336  0.0763  0.2184 -0.8339
  632TMC3     C 9360   3.852   0.565  15.459 -0.6236 -0.1253 -0.4519
  632TMC3     O 9361   3.883   0.460  15.401  0.1654 -0.3969  0.1493
  632TMC3     H 9362   3.872   0.771  15.599  2.6829 -1.9592  0.9172
  632TMC3    H1 9363   3.941   0.608  15.214 -2.9947 -0.1750 -0.4419
  632TMC3    H2 9364   4.082   0.999  15.311 -1.7883  2.1912  2.5017
  632TMC3    C7 9365   4.045   0.820  15.106  0.5291  0.1833 -0.0924
  632TMC3    C8 9366   3.960   1.009  15.536 -0.7822  0.0492 -0.0738
  632TMC3    O1 9367   3.972   0.777  15.017 -0.2373 -0.0976 -0.1499
  632TMC3    O2 9368   4.045   1.095  15.531  0.3395 -0.2108  0.6284
  633MPD2     C 9369   3.659   3.191  17.610 -0.2598 -0.0387 -0.1500
  633MPD2    C1 9370   3.640   3.099  17.506 -0.5083 -0.3652 -0.2648
  633MPD2    C2 9371   3.644   2.961  17.534 -0.2584  0.6192  0.1538
  633MPD2    C3 9372   3.669   2.925  17.669 -0.5470  0.2432  0.1504
  633MPD2    C4 9373   3.698   3.024   0.082 -0.3581  0.7206 -0.3099
  633MPD2    C5 9374   3.695   3.154   0.054  0.2143  0.4364  1.2866
  633MPD2     H 9375   3.642   2.885  17.457 -4.4004  1.1456 -0.2563
  633MPD2    H1 9376   3.742   3.000   0.178  2.2763  1.5852 -1.2793
  633MPD2    H2 9377   3.651   3.296  17.584 -2.0640 -0.2453 -0.4775
  633MPD2    H3 9378   3.715   3.232   0.127  1.5052  1.2772  0.0227
  633MPD2     N 9379   3.709   2.798   0.015  0.1107 -0.1163  1.1986
  633MPD2    H5 9380   3.781   2.791   0.086 -0.0017 -1.5052  1.1669
  633MPD2    N1 9381   3.616   3.137  17.373 -0.3648  1.1893  0.1323
  633MPD2    H7 9382   3.617   3.062  17.305 -0.9602  1.2580  0.0452
  634TMC3    C1 9383   3.600   3.282  17.189  0.0260 -0.4604 -0.0451
  634TMC3    C2 9384   3.653   3.177  17.111  0.1414 -0.4237 -0.4340
  634TMC3    C3 9385   3.672   3.208  16.976  0.6105 -0.3096  0.8011
  634TMC3    C4 9386   3.578   3.403  17.135  0.0472 -0.2520 -0.6245
  634TMC3    C5 9387   3.622   3.433  17.009 -0.3530  0.0809 -0.3948
  634TMC3    C6 9388   3.662   3.333  16.921 -0.1242  0.2996 -0.1103
  634TMC3     C 9389   3.608   3.271  17.333 -0.4673  0.0500 -0.1293
  634TMC3     O 9390   3.586   3.375  17.393 -0.5426 -0.4754  0.0058
  634TMC3     H 9391   3.681   3.080  17.150  1.0389 -0.1731 -0.4618
  634TMC3    H1 9392   3.545   3.478  17.206  0.1365 -0.8024 -0.0118
  634TMC3    H2 9393   3.697   3.352  16.820  1.8348 -0.1993  0.4666
  634TMC3    C7 9394   3.632   3.569  16.958  1.0283 -0.2349  0.0028
  634TMC3    C8 9395   3.714   3.100  16.880 -0.5153  0.1075  0.2267
  634TMC3    O1 9396   3.679   3.592  16.843  0.0932  0.0437 -0.2213
  634TMC3    O2 9397   3.781   3.013  16.933 -0.1614 -0.0811 -0.2382
  635TMC3    C1 9398   3.609   3.920   0.648 -0.2106 -0.8780  0.0615
  635TMC3    C2 9399   3.642   3.788   0.667 -1.2877 -0.6382 -0.3434
  635TMC3    C3 9400   3.585   3.727   0.776 -0.2393  1.0531 -0.4471
  635TMC3    C4 9401   3.536   3.988   0.739 -0.2268  0.0668  0.2072
  635TMC3    C5 9402   3.474   3.921   0.840 -0.1960 -0.3382 -0.0980
  635TMC3    C6 9403   3.495   3.788   0.863  0.1283  0.1973  0.3281
  635TMC3     C 9404   3.680   4.000   0.551 -0.0010  0.0449  0.0297
  635TMC3     O 9405   3.704   4.114   0.590 -0.1452 -0.6662  0.0047
  635TMC3     H 9406   3.716   3.734   0.608  1.6351  2.1708  0.7280
  635TMC3    H1 9407   3.527   4.096   0.734  2.1602  0.2735  0.5852
  635TMC3    H2 9408   3.434   3.736   0.936  0.3538  0.1389  0.4750
  635TMC3    C7 9409   3.401   3.992   0.937 -0.1044 -0.1905  1.0525
  635TMC3    C8 9410   3.601   3.588   0.806  0.5038 -0.3614  0.1415
  635TMC3    O1 9411   3.370   4.107   0.906  0.1459  0.5273 -0.4879
  635TMC3    O2 9412   3.522   3.541   0.888  0.2503  0.0236 -0.6146
  636MPD2     C 9413   0.389   4.337  16.954 -0.2786  0.9830  0.7874
  636MPD2    C1 9414   0.455   4.251  16.871 -0.3745  1.1572 -0.7523
  636MPD2    C2 9415   0.553   4.175  16.930 -0.0210 -0.4892  0.6690
  636MPD2    C3 9416   0.586   4.184  17.063  0.2416  0.4269  0.0941
  636MPD2    C4 9417   0.526   4.280  17.135  0.0924 -0.2889  0.2396
  636MPD2    C5 9418   0.419   4.354  17.087 -0.1260  0.0786  0.3886
  636MPD2     H 9419   0.612   4.107  16.869  1.4454  1.5640 -0.2203
  636MPD2    H1 9420   0.558   4.307  17.235  1.3652 -0.9543  0.0112
  636MPD2    H2 9421   0.311   4.404  16.920 -0.5221  1.2271  1.8275
  636MPD2    H3 9422   0.365   4.426  17.148  0.2716  0.1290  0.6851
  636MPD2     N 9423   0.686   4.093  17.107  0.7453  0.0206 -0.0928
  636MPD2    H5 9424   0.735   4.041  17.035 -0.7444 -2.2045  0.4658
  636MPD2    N1 9425   0.424   4.234  16.732 -0.0463  0.0174  0.0980
  636MPD2    H7 9426   0.477   4.165  16.681 -2.4543 -0.1459 -2.1548
  637TMC3    C1 9427   0.816   3.972  17.257  0.0371  0.1238  0.2863
  637TMC3    C2 9428   0.934   3.977  17.180 -0.3773  0.5751 -0.4999
  637TMC3    C3 9429   1.024   3.871  17.168 -0.7320 -0.7785  0.1868
  637TMC3    C4 9430   0.787   3.844  17.297 -0.4951  0.2704 -0.0467
  637TMC3    C5 9431   0.856   3.734  17.260 -0.0710  0.3776  0.8246
  637TMC3    C6 9432   0.981   3.752  17.202  0.3742 -0.5068 -0.1184
  637TMC3     C 9433   0.713   4.071  17.245  0.0684 -0.2587 -0.1893
  637TMC3     O 9434   0.635   4.081  17.338  0.2334  1.1597 -0.2622
  637TMC3     H 9435   0.967   4.072  17.140 -3.2067  2.1287  0.8238
  637TMC3    H1 9436   0.694   3.846  17.353  0.2007  1.4402  1.0451
  637TMC3    H2 9437   1.038   3.661  17.187 -0.0423 -0.9317  0.8876
  637TMC3    C7 9438   0.773   3.641  17.188 -0.6295 -0.6744  0.3244
  637TMC3    C8 9439   1.109   3.878  17.054 -0.4572  0.7110 -0.4813
  637TMC3    O1 9440   0.841   3.584  17.099 -0.5703  0.2387  0.0151
  637TMC3    O2 9441   1.187   3.971  17.056 -0.4605 -0.1196  0.1251
  638MPD2     C 9442   0.022   2.604  15.408 -0.1864 -0.0049 -0.4453
  638MPD2    C1 9443   0.025   2.490  15.332 -1.1707 -0.3496 -0.3186
  638MPD2    C2 9444   0.006   2.360  15.387 -0.2323  0.4728 -0.3042
  638MPD2    C3 9445   4.684   2.343  15.519 -0.4516 -0.0086 -0.0998
  638MPD2    C4 9446   4.679   2.463  15.594  0.8231  0.1110  0.3850
  638MPD2    C5 9447   4.705   2.586  15.539 -0.5703 -0.1940  0.3345
  638MPD2     H 9448   0.016   2.276  15.319 -1.1085 -1.6073  2.1069
  638MPD2    H1 9449   4.647   2.452  15.697 -0.2600 -0.2001  0.0122
  638MPD2    H2 9450   0.039   2.705  15.373 -1.9875 -0.4611 -2.6381
  638MPD2    H3 9451   4.697   2.675  15.600 -0.7390 -0.5314  0.8079
  638MPD2     N 9452   4.653   2.213  15.564 -0.3990  0.4370  0.3414
  638MPD2    H5 9453   4.663   2.137  15.498 -3.1380 -0.2045  0.6547
  638MPD2    N1 9454   0.052   2.505  15.194 -0.1823 -0.3605  0.2470
  638MPD2    H7 9455   0.082   2.598  15.167 -1.1110 -0.0200  0.3774
  639TMC3    C1 9456   4.574   2.042  15.690  0.3737  0.7662 -0.3578
  639TMC3    C2 9457   4.473   2.003  15.606  0.1337  0.6807 -0.1501
  639TMC3    C3 9458   4.463   1.875  15.555  0.2733  0.0111 -0.1661
  639TMC3    C4 9459   4.684   1.959  15.694  0.1497  0.0631  0.0687
  639TMC3    C5 9460   4.678   1.837  15.624  0.3681  0.5524 -0.3056
  639TMC3    C6 9461   4.564   1.788  15.563 -0.8819 -0.3569  0.0296
  639TMC3     C 9462   4.606   2.180  15.693 -0.3341 -0.0253 -0.1144
  639TMC3     O 9463   4.623   2.241  15.800 -0.7699 -0.2409  0.0363
  639TMC3     H 9464   4.386   2.063  15.580 -0.1115  0.5538  0.3787
  639TMC3    H1 9465   0.052   1.992  15.748 -0.5576  0.0504  1.2417
  639TMC3    H2 9466   4.554   1.694  15.510 -1.5152  0.0893 -0.6503
  639TMC3    C7 9467   0.070   1.749  15.623  0.6092 -0.6149  0.5557
  639TMC3    C8 9468   4.386   1.858  15.436  0.4335 -0.6491 -0.7501
  639TMC3    O1 9469   0.053   1.630  15.606 -0.5125  0.3011  0.2011
  639TMC3    O2 9470   4.452   1.849  15.336 -0.5390 -0.2285 -0.0877
  640MPD2     C 9471   0.695   1.033  10.246 -0.4618  0.3462 -0.0434
  640MPD2    C1 9472   0.820   1.050  10.195  0.8253 -0.4361 -0.9201
  640MPD2    C2 9473   0.847   1.160  10.115 -0.3461 -0.6072 -0.2851
  640MPD2    C3 9474   0.747   1.257  10.090  0.2576  0.0114 -0.1668
  640MPD2    C4 9475   0.634   1.253  10.165  0.6266 -0.1488  0.0936
  640MPD2    C5 9476   0.603   1.135  10.235  0.4065 -0.0168 -0.0797
  640MPD2     H 9477   0.947   1.179  10.078 -0.5017  0.8622  0.0583
  640MPD2    H1 9478   0.563   1.335  10.156 -0.0685 -0.7592 -0.0176
  640MPD2    H2 9479   0.665   0.954  10.314  0.2238  1.5117  1.6132
  640MPD2    H3 9480   0.510   1.129  10.291  0.6887  2.2190  0.6119
  640MPD2     N 9481   0.767   1.377  10.016 -0.3061 -0.7520  0.2256
  640MPD2    H5 9482   0.697   1.450  10.026  0.7801  0.2534  0.4786
  640MPD2    N1 9483   0.915   0.953  10.219  0.6776 -0.1132  0.0250
  640MPD2    H7 9484   0.899   0.887  10.295 -2.0575  1.6141  0.9329
  641TMC3    C1 9485   1.097   0.813  10.177 -0.5858  0.0119 -0.0626
  641TMC3    C2 9486   1.016   0.708  10.184 -0.3010 -0.4954  0.9185
  641TMC3    C3 9487   1.074   0.586  10.164 -0.7364 -0.4894 -0.6371
  641TMC3    C4 9488   1.227   0.801  10.130  0.2832 -0.0626 -0.4502
  641TMC3    C5 9489   1.277   0.677  10.111 -0.3442 -0.0638  0.1065
  641TMC3    C6 9490   1.209   0.564  10.133 -0.0931  0.3147  0.6584
  641TMC3     C 9491   1.041   0.942  10.166 -0.5041  0.8242  0.9078
  641TMC3     O 9492   1.107   1.012  10.088 -0.0816 -0.5083 -0.0274
  641TMC3     H 9493   0.913   0.705  10.215 -0.0452 -0.6177  1.7428
  641TMC3    H1 9494   1.290   0.889  10.120  0.1431  0.1636  0.7093
  641TMC3    H2 9495   1.249   0.467  10.108 -2.4148 -0.3527 -0.4450
  641TMC3    C7 9496   1.429   0.671  10.097 -0.6958 -0.0990 -0.3659
  641TMC3    C8 9497   0.978   0.476  10.154  0.4205 -0.1209 -0.0686
  641TMC3    O1 9498   1.486   0.762  10.047 -0.5010  0.1556  0.3474
  641TMC3    O2 9499   0.858   0.487  10.147 -0.1697 -0.4276  0.5297
  642TMC3    C1 9500   1.857   2.833  12.234  1.0136  0.0085 -0.0206
  642TMC3    C2 9501   1.942   2.848  12.342 -0.0824 -0.2496  0.3092
  642TMC3    C3 9502   1.979   2.736  12.413 -0.1622 -0.4637  0.6555
  642TMC3    C4 9503   1.789   2.717  12.205 -0.5143 -0.5328  0.6218
  642TMC3    C5 9504   1.819   2.611  12.290  0.5026 -0.3517 -0.2420
  642TMC3    C6 9505   1.917   2.614  12.387 -0.3693 -0.4401  0.5255
  642TMC3     C 9506   1.779   2.950  12.208  0.4889 -0.2859  0.5243
  642TMC3     O 9507   1.743   2.969  12.093  0.3210 -0.2133  0.6503
  642TMC3     H 9508   1.980   2.946  12.367  4.3480 -1.7917 -0.3729
  642TMC3    H1 9509   1.705   2.702  12.138 -0.4696  1.7285  0.0742
  642TMC3    H2 9510   1.947   2.521  12.434  1.2283 -0.9072 -1.4169
  642TMC3    C7 9511   1.719   2.501  12.285  0.1884  0.3628 -0.2770
  642TMC3    C8 9512   2.083   2.727  12.514 -0.3560 -0.6231  0.5431
  642TMC3    O1 9513   1.661   2.472  12.183 -0.4464  0.1445  0.1567
  642TMC3    O2 9514   2.097   2.617  12.567  0.1146 -0.2134  0.3335
  643TMC3    C1 9515   0.667   1.868   1.063 -1.0525 -0.0951  0.0682
  643TMC3    C2 9516   0.588   1.969   1.016  0.3855 -0.6414  0.8315
  643TMC3    C3 9517   0.477   1.933   0.942 -0.1315  0.0893 -0.0821
  643TMC3    C4 9518   0.643   1.743   1.020  0.2066  0.0799  0.9801
  643TMC3    C5 9519   0.534   1.717   0.934 -0.0227 -0.4146  0.0126
  643TMC3    C6 9520   0.439   1.809   0.898 -0.2672 -0.2915  0.1912
  643TMC3     C 9521   0.793   1.897   1.124 -0.0738 -0.6487  0.0512
  643TMC3     O 9522   0.829   2.014   1.113  0.0827  0.5714  0.3317
  643TMC3     H 9523   0.620   2.071   1.030  1.3018 -1.1211  2.1686
  643TMC3    H1 9524   0.706   1.663   1.056 -0.4347  0.0975  2.1394
  643TMC3    H2 9525   0.352   1.793   0.835 -1.1667  0.1548  1.3216
  643TMC3    C7 9526   0.576   1.643   0.814 -0.4949  0.2333  0.3797
  643TMC3    C8 9527   0.424   2.039   0.862 -0.4716 -0.8896 -0.7272
  643TMC3    O1 9528   0.691   1.646   0.777 -0.3205 -0.2297 -0.0343
  643TMC3    O2 9529   0.302   2.052   0.867 -0.2566  0.2270 -0.0932
  644MPD2     C 9530   0.669   2.384  10.299 -0.2182 -0.6394 -0.1122
  644MPD2    C1 9531   0.674   2.310  10.182 -0.3377  0.3284 -0.4197
  644MPD2    C2 9532   0.575   2.345  10.086  0.0702  0.7886 -1.3235
  644MPD2    C3 9533   0.476   2.434  10.112 -0.1120 -0.3635 -0.7914
  644MPD2    C4 9534   0.472   2.498  10.232 -0.3925  0.6180 -0.0501
  644MPD2    C5 9535   0.574   2.484  10.324 -0.0498  0.3193 -0.6563
  644MPD2     H 9536   0.574   2.292   9.991 -0.6531  1.6292 -1.7785
  644MPD2    H1 9537   0.386   2.561  10.255  0.2210  0.4093  2.8465
  644MPD2    H2 9538   0.737   2.373  10.382 -0.2595  1.7347  0.2402
  644MPD2    H3 9539   0.576   2.531  10.422 -2.2424 -1.4014  0.2169
  644MPD2     N 9540   0.379   2.469  10.014 -0.4232  0.2789 -0.7568
  644MPD2    H5 9541   0.365   2.411   9.932  1.2014  0.7992 -1.4061
  644MPD2    N1 9542   0.783   2.228  10.155 -0.3645  0.3739  0.1393
  644MPD2    H7 9543   0.824   2.184  10.237 -1.7908 -0.3128  0.4861
  645TMC3    C1 9544   0.214   2.590   9.895  1.1844 -0.1917  0.0304
  645TMC3    C2 9545   0.153   2.476   9.849  0.7427  0.3816  0.2980
  645TMC3    C3 9546   0.070   2.499   9.736  0.4179 -0.4595  0.1851
  645TMC3    C4 9547   0.208   2.711   9.833  0.1581  0.6803 -0.6079
  645TMC3    C5 9548   0.142   2.719   9.716  0.4332 -0.2070 -0.0553
  645TMC3    C6 9549   0.066   2.615   9.670 -0.0324  0.0735  0.5475
  645TMC3     C 9550   0.310   2.582  10.010 -0.2736 -0.2514 -0.6421
  645TMC3     O 9551   0.327   2.683  10.076  0.2165  0.4907 -0.1450
  645TMC3     H 9552   0.150   2.380   9.899  1.6496 -0.7381 -1.7878
  645TMC3    H1 9553   0.239   2.797   9.891 -1.6329 -1.0268  2.8835
  645TMC3    H2 9554   0.011   2.617   9.577 -2.0872  1.1220  1.8078
  645TMC3    C7 9555   0.153   2.837   9.637  0.0618  0.6935  0.9160
  645TMC3    C8 9556   4.719   2.389   9.678  0.3726  0.4154  0.2740
  645TMC3    O1 9557   0.071   2.849   9.551 -0.3851 -0.1571  0.3033
  645TMC3    O2 9558   4.607   2.398   9.625  1.1094  0.0382  0.5749
  646MPD2     C 9559   0.127   1.271  14.795 -0.0882 -0.4993 -0.3276
  646MPD2    C1 9560   0.040   1.280  14.898 -0.2549 -0.0249 -0.1977
  646MPD2    C2 9561   4.650   1.362  14.892  0.5800 -0.3819 -0.1359
  646MPD2    C3 9562   4.636   1.442  14.784 -0.1665  0.3735  0.5485
  646MPD2    C4 9563   0.011   1.445  14.679  0.3886  0.1368  0.1680
  646MPD2    C5 9564   0.114   1.355  14.686 -0.3338  0.2640 -0.1895
  646MPD2     H 9565   4.574   1.372  14.969 -1.2040  0.6423 -2.0292
  646MPD2    H1 9566   4.712   1.497  14.586  0.4624  0.6905  0.4618
  646MPD2    H2 9567   0.194   1.186  14.786  1.7320  0.9356 -0.1626
  646MPD2    H3 9568   0.176   1.343  14.599  0.9129 -0.8307  0.8494
  646MPD2     N 9569   4.515   1.516  14.776 -0.6377 -0.7016 -0.8679
  646MPD2    H5 9570   4.446   1.500  14.848  0.5068 -1.9340 -0.0348
  646MPD2    N1 9571   0.062   1.190  15.005  0.6465 -0.1019 -0.5759
  646MPD2    H7 9572   0.154   1.149  15.015  0.7099  0.4694  1.1373
  647TMC3    C1 9573   0.076   1.106  15.222 -0.1291  1.3298 -0.2163
  647TMC3    C2 9574   0.009   1.067  15.333  0.4328  0.0291 -0.5859
  647TMC3    C3 9575   0.081   1.039  15.447 -0.3129 -0.3183  0.0216
  647TMC3    C4 9576   0.214   1.098  15.207  0.3888  0.2951 -0.0238
  647TMC3    C5 9577   0.279   1.051  15.317  0.2664  0.3466  0.7016
  647TMC3    C6 9578   0.218   1.020  15.438  0.4720  0.2765 -0.0312
  647TMC3     C 9579   4.709   1.158  15.117  0.4335  0.0151  0.2584
  647TMC3     O 9580   4.591   1.184  15.131 -0.8244  0.5544 -0.0049
  647TMC3     H 9581   4.622   1.054  15.335  0.6747 -2.0784 -1.2059
  647TMC3    H1 9582   0.273   1.141  15.127  2.3828 -0.9721  0.7742
  647TMC3    H2 9583   0.259   0.955  15.514 -0.0465 -1.0086 -0.8401
  647TMC3    C7 9584   0.427   1.042  15.316 -0.1670  0.0986 -0.7780
  647TMC3    C8 9585   0.012   0.949  15.538  0.0362 -0.7639  0.4053
  647TMC3    O1 9586   0.491   1.083  15.412 -0.4695 -0.0769  0.4573
  647TMC3    O2 9587   4.639   0.896  15.485  0.0426  0.1880  0.5078
  648TMC3    C1 9588   4.181   3.370  16.257 -0.0019  0.4319 -0.3807
  648TMC3    C2 9589   4.168   3.246  16.203  0.7295  1.4091  0.1550
  648TMC3    C3 9590   4.110   3.239  16.079  0.0677 -0.5413  0.3241
  648TMC3    C4 9591   4.155   3.485  16.185  0.0420  0.8257  0.9340
  648TMC3    C5 9592   4.092   3.473  16.063  0.1898 -0.4244 -0.0470
  648TMC3    C6 9593   4.065   3.350  16.010  0.4332  0.7054  0.1361
  648TMC3     C 9594   4.165   3.385  16.399 -0.1680  0.1360 -0.2736
  648TMC3     O 9595   4.209   3.485  16.450 -0.0383 -0.0383 -0.4600
  648TMC3     H 9596   4.191   3.152  16.252  0.2158  0.5092 -1.3440
  648TMC3    H1 9597   4.188   3.582  16.221 -0.3023  1.2715  0.0573
  648TMC3    H2 9598   4.020   3.341  15.912  2.5195  0.3461 -0.8066
  648TMC3    C7 9599   4.049   3.591  15.990  0.1752  0.2513  0.6835
  648TMC3    C8 9600   4.086   3.102  16.027  0.1817 -0.3507  0.4341
  648TMC3    O1 9601   4.038   3.583  15.867  0.3235  0.6944  0.2744
  648TMC3    O2 9602   3.980   3.069  15.974 -0.2265 -0.2722 -0.6175
  649TMC3    C1 9603   3.213   0.057  12.710  1.0356 -0.2542  0.7070
  649TMC3    C2 9604   3.311   0.109  12.629  0.6211 -0.3873 -0.7201
  649TMC3    C3 9605   3.440   0.077  12.668 -0.1422 -0.6472  0.2601
  649TMC3    C4 9606   3.238   4.704  12.827 -0.0434  0.0071  0.3944
  649TMC3    C5 9607   3.367   4.674  12.851  0.3757  0.1193  0.0354
  649TMC3    C6 9608   3.467   4.703  12.765 -0.0899  0.2651 -0.6518
  649TMC3     C 9609   3.083   0.110  12.696  0.3008  0.2678 -0.6687
  649TMC3     O 9610   3.013   0.100  12.798 -0.4284  0.7550  0.6074
  649TMC3     H 9611   3.292   0.158  12.535 -0.3593 -0.1834 -0.4085
  649TMC3    H1 9612   3.158   4.659  12.885  1.4799  0.0205  2.4941
  649TMC3    H2 9613   3.568   4.678  12.792 -0.7450  0.7755  2.3027
  649TMC3    C7 9614   3.383   4.574  12.950  0.3352  0.0949 -0.2845
  649TMC3    C8 9615   3.545   0.175  12.659  0.4597 -0.4775 -0.4650
  649TMC3    O1 9616   3.319   4.577  13.053  0.0955  0.7833  0.0804
  649TMC3    O2 9617   3.651   0.141  12.718  0.4082  0.8752 -0.2637
  650TMC3    C1 9618   1.159   1.901  12.874  0.4438 -0.5591 -0.1921
  650TMC3    C2 9619   1.183   2.027  12.915 -0.3461 -0.6245  0.3643
  650TMC3    C3 9620   1.214   2.114  12.815 -0.6125 -0.1172 -0.3293
  650TMC3    C4 9621   1.147   1.860  12.741  0.9755  1.0221  0.4920
  650TMC3    C5 9622   1.159   1.961  12.641  0.0375 -0.0390  0.6373
  650TMC3    C6 9623   1.201   2.086  12.682 -0.1923 -0.6914  0.1067
  650TMC3     C 9624   1.122   1.807  12.983  0.2789 -0.2452 -0.2837
  650TMC3     O 9625   1.087   1.860  13.089  0.2234 -0.0864  0.5021
  650TMC3     H 9626   1.214   2.039  13.018 -1.3870  1.5655  0.4299
  650TMC3    H1 9627   1.104   1.764  12.717  2.0967  0.9099 -1.0500
  650TMC3    H2 9628   1.244   2.156  12.612 -0.8128  1.1133  1.5453
  650TMC3    C7 9629   1.051   1.975  12.547 -0.1020 -0.3648  0.6640
  650TMC3    C8 9630   1.176   2.256  12.842 -0.3631 -0.0121  0.0399
  650TMC3    O1 9631   0.985   1.877  12.516 -0.2853  0.2744 -0.4512
  650TMC3    O2 9632   1.151   2.318  12.738  0.7165  0.5754  0.1678
  651MPD2     C 9633   4.664   3.120  11.083  0.4415 -0.6212  0.7560
  651MPD2    C1 9634   4.623   3.238  11.022  0.4772 -0.3483 -0.8459
  651MPD2    C2 9635   4.709   3.344  11.007 -0.5664  0.4631  0.2121
  651MPD2    C3 9636   0.116   3.344  11.062 -0.5217  0.5445  0.6832
  651MPD2    C4 9637   0.153   3.235  11.138  0.3822  0.2604 -0.0364
  651MPD2    C5 9638   0.072   3.129  11.145  0.4527 -0.5450  0.1950
  651MPD2     H 9639   4.678   3.432  10.952 -0.8335 -1.2580 -2.3909
  651MPD2    H1 9640   0.251   3.230  11.185  0.7813 -0.3569 -0.9331
  651MPD2    H2 9641   4.597   3.035  11.090  1.2214 -1.2470  0.7319
  651MPD2    H3 9642   0.100   3.044  11.206  1.4026 -0.5115 -0.1893
  651MPD2     N 9643   0.201   3.457  11.034 -0.0297 -0.1047  0.3990
  651MPD2    H5 9644   0.181   3.528  10.964 -2.2018 -1.1832 -0.0800
  651MPD2    N1 9645   4.499   3.258  10.965  0.1044  0.1995 -0.3579
  651MPD2    H7 9646   4.485   3.356  10.942 -2.1032  0.7644  3.3387
  652TMC3    C1 9647   0.531   3.760  11.057 -0.3291  0.3831 -0.0129
  652TMC3    C2 9648   0.488   3.641  11.103 -0.0183  0.0208  0.5786
  652TMC3    C3 9649   0.358   3.610  11.089 -0.4127  0.4822 -0.6874
  652TMC3    C4 9650   0.442   3.860  11.021 -0.2236 -0.5561  0.6763
  652TMC3    C5 9651   0.305   3.831  11.024  0.7391  0.2498 -0.0722
  652TMC3    C6 9652   0.269   3.705  11.055  0.3651  0.1661 -0.1246
  652TMC3     C 9653   0.663   3.800  11.084 -0.0873  0.4859 -0.7705
  652TMC3     O 9654   0.707   3.748  11.186  0.1146 -0.6552  0.0697
  652TMC3     H 9655   0.555   3.573  11.154  0.1680  0.2891  0.6928
  652TMC3    H1 9656   0.490   3.951  10.986 -1.7451  0.4003  1.0826
  652TMC3    H2 9657   0.162   3.692  11.057  0.4687 -0.6308  0.5432
  652TMC3    C7 9658   0.210   3.940  11.034 -0.1147 -0.6063  0.0339
  652TMC3    C8 9659   0.309   3.478  11.108 -0.0577 -0.6881  0.0388
  652TMC3    O1 9660   0.098   3.914  10.988 -0.2705 -0.0935 -0.2273
  652TMC3    O2 9661   0.374   3.408  11.186 -0.0090  0.0575 -0.2699
  653MPD2     C 9662   3.360   3.488   0.145  0.2417 -1.0019 -0.5110
  653MPD2    C1 9663   3.257   3.573   0.100  0.3492 -0.2749  0.7739
  653MPD2    C2 9664   3.186   3.535  17.681 -0.0038  0.1776  0.5416
  653MPD2    C3 9665   3.201   3.413  17.625  0.6062 -0.0694  1.1102
  653MPD2    C4 9666   3.297   3.324  17.675 -0.5663 -0.2112  0.2996
  653MPD2    C5 9667   3.383   3.367   0.081  0.0109  0.0668  0.8531
  653MPD2     H 9668   3.103   3.592  17.640  0.5961  0.7875  0.1686
  653MPD2    H1 9669   3.295   3.221  17.642  0.1651 -0.2147  0.2690
  653MPD2    H2 9670   3.411   3.503   0.239 -0.2290  1.3630 -0.6154
  653MPD2    H3 9671   3.454   3.294   0.120  1.2222 -0.1368 -1.7383
  653MPD2     N 9672   3.109   3.377  17.516  0.4462 -0.4922 -0.2439
  653MPD2    H5 9673   3.044   3.444  17.477 -0.5077 -0.4044  1.5412
  653MPD2    N1 9674   3.231   3.698   0.148  0.3239 -1.0701 -0.2292
  653MPD2    H7 9675   3.182   3.766   0.091 -2.0236 -1.1251  1.7045
  654TMC3    C1 9676   3.034   3.262  17.330 -0.0744  1.0417  0.1490
  654TMC3    C2 9677   2.937   3.361  17.312  0.1054  0.1050  0.5717
  654TMC3    C3 9678   2.872   3.363  17.193 -0.4140  0.0155  1.0051
  654TMC3    C4 9679   3.060   3.171  17.231  0.2331  0.0077  0.9160
  654TMC3    C5 9680   2.992   3.179  17.115  0.1745 -0.2444  0.3026
  654TMC3    C6 9681   2.897   3.278  17.093  0.4835 -0.1233 -0.8839
  654TMC3     C 9682   3.114   3.258  17.450 -0.6217  0.6091 -0.4276
  654TMC3     O 9683   3.182   3.160  17.464  0.0923  0.4084 -0.2697
  654TMC3     H 9684   2.895   3.421  17.392  4.7399  2.5612  1.1426
  654TMC3    H1 9685   3.126   3.088  17.253  3.6202  1.9097 -2.1405
  654TMC3    H2 9686   2.862   3.288  16.991 -0.1691  0.9317 -0.5520
  654TMC3    C7 9687   3.023   3.087  17.011 -0.2124  0.5137  0.1221
  654TMC3    C8 9688   2.729   3.403  17.193  0.2057 -0.1239  0.8522
  654TMC3    O1 9689   3.008   3.122  16.896  0.4359  0.0049 -0.8085
  654TMC3    O2 9690   2.704   3.501  17.268 -0.8434 -0.0525  0.9833
  655MPD2     C 9691   0.016   3.541  16.008  0.5389  0.8286  0.1418
  655MPD2    C1 9692   4.636   3.599  15.935  0.2376  0.4356  0.1352
  655MPD2    C2 9693   4.608   3.541  15.805 -0.4952 -0.9468  0.4965
  655MPD2    C3 9694   4.672   3.423  15.763 -0.7079  0.0987 -0.1533
  655MPD2    C4 9695   0.030   3.364  15.844 -0.1837 -0.1627  0.2472
  655MPD2    C5 9696   0.065   3.426  15.964 -0.0534  0.3797  0.4642
  655MPD2     H 9697   4.519   3.571  15.750 -0.5611  1.1232  1.7576
  655MPD2    H1 9698   0.072   3.266  15.823  0.9291  0.7706 -1.9770
  655MPD2    H2 9699   0.074   3.585  16.088 -1.6483  0.2617  2.0217
  655MPD2    H3 9700   0.136   3.361  16.014  2.5318  0.5732 -2.9562
  655MPD2     N 9701   4.651   3.360  15.641 -0.1820 -0.0808 -0.0401
  655MPD2    H5 9702   4.673   3.261  15.636  1.7058  0.2169  1.9951
  655MPD2    N1 9703   4.568   3.715  15.975  0.3159 -0.2675 -0.2845
  655MPD2    H7 9704   4.514   3.756  15.899 -0.1045  1.1374  0.7829
  656TMC3    C1 9705   4.507   3.899  16.113  0.7510 -0.1781 -0.1303
  656TMC3    C2 9706   4.444   3.909  16.236 -0.1818 -0.1146 -0.1214
  656TMC3    C3 9707   4.331   3.973  16.254 -0.3576  0.1074 -0.3517
  656TMC3    C4 9708   4.448   3.949  15.999 -0.0862 -0.8112  0.3778
  656TMC3    C5 9709   4.328   4.014  16.021 -0.0600 -0.1949  0.1527
  656TMC3    C6 9710   4.268   4.026  16.147  0.4341  0.1197 -0.1680
  656TMC3     C 9711   4.585   3.776  16.100  0.1452 -0.1481 -0.2038
  656TMC3     O 9712   4.639   3.727  16.201  0.0244  0.1102  0.2447
  656TMC3     H 9713   4.475   3.858  16.327 -0.3459  2.5470  1.4159
  656TMC3    H1 9714   4.498   3.938  15.904 -0.7764  0.4444 -0.1270
  656TMC3    H2 9715   4.172   4.073  16.166 -0.5956 -0.5252 -3.7483
  656TMC3    C7 9716   4.288   4.087  15.906  0.0823 -0.1036  0.6763
  656TMC3    C8 9717   4.243   3.898  16.332 -0.2239 -0.0362 -0.2236
  656TMC3    O1 9718   4.352   4.071  15.807 -0.1519  0.0125 -0.0470
  656TMC3    O2 9719   4.202   3.793  16.281  0.4152 -0.4947  0.6819
  657TMC3    C1 9720   3.417   3.155  15.319 -0.2169  0.0531 -0.6901
  657TMC3    C2 9721   3.491   3.235  15.399  0.5216  0.0198  0.1059
  657TMC3    C3 9722   3.468   3.367  15.390  0.2388 -0.5206 -0.2122
  657TMC3    C4 9723   3.332   3.201  15.224 -1.0167  0.2294 -0.3266
  657TMC3    C5 9724   3.316   3.336  15.210  0.0500 -0.5700  0.0993
  657TMC3    C6 9725   3.389   3.422  15.290  0.0097 -0.0204  0.8228
  657TMC3     C 9726   3.444   3.013  15.282 -0.0250 -0.4172  0.1699
  657TMC3     O 9727   3.354   2.941  15.238  0.0057 -0.2689 -0.1679
  657TMC3     H 9728   3.546   3.188  15.480  3.0838 -0.7727 -2.0781
  657TMC3    H1 9729   3.278   3.139  15.154 -0.7949 -1.6356  1.1719
  657TMC3    H2 9730   3.359   3.526  15.281 -0.4968 -0.2700 -0.4518
  657TMC3    C7 9731   3.222   3.385  15.107  0.3992 -0.1955  0.2188
  657TMC3    C8 9732   3.517   3.464  15.485  0.3798  0.1245  0.1390
  657TMC3    O1 9733   3.148   3.303  15.050 -0.0604 -0.2915 -0.0734
  657TMC3    O2 9734   3.558   3.571  15.444  0.4331  0.5740 -0.4428
  658MPD2     C 9735   0.214   3.114  15.085  0.3036  0.6071  0.0249
  658MPD2    C1 9736   0.125   3.215  15.094  0.4680  0.3592  0.9398
  658MPD2    C2 9737   0.147   3.333  15.028 -0.6539  0.5476 -0.5578
  658MPD2    C3 9738   0.248   3.346  14.933  0.4724  0.0304  0.3781
  658MPD2    C4 9739   0.337   3.242  14.922  0.7254 -0.2828  0.0085
  658MPD2    C5 9740   0.315   3.129  14.999 -0.3680  0.5090  0.2792
  658MPD2     H 9741   0.076   3.414  15.038 -1.1728  0.1478 -0.9815
  658MPD2    H1 9742   0.420   3.247  14.853  0.4649  1.3664 -0.1846
  658MPD2    H2 9743   0.197   3.019  15.134 -0.4523 -0.4786 -2.2933
  658MPD2    H3 9744   0.378   3.043  14.983 -2.1664 -0.8316  0.5002
  658MPD2     N 9745   0.250   3.460  14.850 -0.1128 -0.2452 -0.0064
  658MPD2    H5 9746   0.176   3.528  14.848  0.2831  0.1940  0.4291
  658MPD2    N1 9747   0.012   3.221  15.176 -0.3820 -0.2083 -0.3628
  658MPD2    H7 9748   4.679   3.306  15.191 -0.6976  0.0983 -3.1230
  659TMC3    C1 9749   4.561   3.132  15.306 -0.4839  0.2709 -0.5329
  659TMC3    C2 9750   4.613   3.222  15.398 -0.1022  0.1449 -0.0575
  659TMC3    C3 9751   4.524   3.300  15.458 -0.4212  0.2249 -0.0417
  659TMC3    C4 9752   4.435   3.122  15.263 -0.4621 -0.2347  0.7085
  659TMC3    C5 9753   4.352   3.206  15.327 -0.4072 -0.5744 -0.0998
  659TMC3    C6 9754   4.392   3.301  15.419 -0.1758 -0.3111 -0.1397
  659TMC3     C 9755   4.669   3.103  15.217  0.2071 -0.2049  0.3460
  659TMC3     O 9756   4.676   2.993  15.168 -0.1853 -0.1123  0.3050
  659TMC3     H 9757   4.718   3.222  15.424 -0.7578 -1.2428  2.5252
  659TMC3    H1 9758   4.407   3.040  15.197  0.6129  0.2779 -0.3957
  659TMC3    H2 9759   4.328   3.373  15.470 -1.9276 -3.1949  1.7558
  659TMC3    C7 9760   4.212   3.201  15.297 -0.9343 -0.5499 -0.3737
  659TMC3    C8 9761   4.572   3.410  15.539 -0.4343  0.8409  0.4523
  659TMC3    O1 9762   4.150   3.291  15.352  0.2896 -0.7556  0.4614
  659TMC3    O2 9763   4.509   3.517  15.522 -0.6520  0.3148  0.3534
  660MPD2     C 9764   2.814   2.277  12.743  0.0833  0.4221  0.1754
  660MPD2    C1 9765   2.701   2.345  12.708 -0.0893  0.1655  0.1020
  660MPD2    C2 9766   2.587   2.328  12.793  0.5729  0.0526  0.3840
  660MPD2    C3 9767   2.584   2.236  12.895  0.2540  0.1437  0.6802
  660MPD2    C4 9768   2.698   2.169  12.927 -0.9346 -0.6889  0.1278
  660MPD2    C5 9769   2.814   2.193  12.850 -0.5236 -0.1219  0.5298
  660MPD2     H 9770   2.500   2.386  12.766  1.0703 -0.0304 -1.4035
  660MPD2    H1 9771   2.690   2.092  13.003  1.0751  1.2676  2.2887
  660MPD2    H2 9772   2.905   2.286  12.686 -1.0526  0.8433 -1.5721
  660MPD2    H3 9773   2.909   2.149  12.878 -0.6571  0.0857  1.2953
  660MPD2     N 9774   2.480   2.219  12.982  1.0038 -0.4867 -0.9737
  660MPD2    H5 9775   2.489   2.132  13.033  1.4724  0.1038 -0.0412
  660MPD2    N1 9776   2.711   2.445  12.608 -0.2991 -0.1397  0.0020
  660MPD2    H7 9777   2.804   2.459  12.570 -0.0170 -1.5639  0.1626
  661TMC3    C1 9778   2.656   2.620  12.458 -0.1209  0.0118  0.7648
  661TMC3    C2 9779   2.768   2.605  12.384 -0.5595  0.2410  0.6970
  661TMC3    C3 9780   2.824   2.716  12.325 -0.7698 -0.0455 -0.1211
  661TMC3    C4 9781   2.591   2.739  12.473 -0.4486 -0.5302  0.1773
  661TMC3    C5 9782   2.643   2.849  12.406 -0.2453  0.6285  0.2187
  661TMC3    C6 9783   2.755   2.835  12.335  0.2443  0.8802  0.2369
  661TMC3     C 9784   2.611   2.522  12.559  0.6887  0.2432 -0.6509
  661TMC3     O 9785   2.491   2.515  12.581 -0.7441 -0.5585 -0.6792
  661TMC3     H 9786   2.812   2.507  12.377 -1.1788  0.0045  0.1034
  661TMC3    H1 9787   2.511   2.757  12.544 -1.0732 -1.5526 -0.2703
  661TMC3    H2 9788   2.799   2.929  12.302  0.5547  0.8775  0.6376
  661TMC3    C7 9789   2.552   2.952  12.359  0.4547  0.4301  0.3385
  661TMC3    C8 9790   2.896   2.695  12.202 -0.2242 -0.3462  0.7423
  661TMC3    O1 9791   2.593   3.054  12.306 -0.2674  0.0324 -1.1447
  661TMC3    O2 9792   2.954   2.588  12.193 -0.7687  0.1815 -0.1169
  662MPD2     C 9793   2.723   2.279  17.464 -0.2226 -0.1956 -0.6660
  662MPD2    C1 9794   2.606   2.312  17.527 -0.5623 -0.2605  0.5738
  662MPD2    C2 9795   2.598   2.429  17.595  0.0995 -0.4774 -0.3835
  662MPD2    C3 9796   2.707   2.512  17.604  0.0659 -0.0581  0.1491
  662MPD2    C4 9797   2.824   2.475  17.540  0.5682  0.3181  0.3203
  662MPD2    C5 9798   2.828   2.361  17.467  0.2639 -0.2209 -0.3579
  662MPD2     H 9799   2.504   2.440  17.647 -1.0100 -2.4209 -1.9820
  662MPD2    H1 9800   2.909   2.541  17.525  1.0809 -0.3764  0.1577
  662MPD2    H2 9801   2.733   2.176  17.433  1.2361 -0.6231  1.1917
  662MPD2    H3 9802   2.916   2.332  17.412  1.7223  3.3836  0.0508
  662MPD2     N 9803   2.709   2.621   0.017  0.6767 -0.3159  0.4437
  662MPD2    H5 9804   2.803   2.643   0.048  0.5885  1.0939 -0.3039
  662MPD2    N1 9805   2.501   2.222  17.525 -0.0627 -0.0987 -0.3737
  662MPD2    H7 9806   2.418   2.243  17.580 -0.7036 -1.5909 -0.7595
  663TMC3    C1 9807   2.416   2.003  17.537 -0.1411  0.3467 -0.2612
  663TMC3    C2 9808   2.394   2.030  17.671 -0.1291 -0.1733  0.3432
  663TMC3    C3 9809   2.342   1.923   0.054  0.4031  0.1237 -0.2050
  663TMC3    C4 9810   2.367   1.890  17.471  0.4774 -0.4219 -0.0373
  663TMC3    C5 9811   2.313   1.799  17.550  0.2294  0.5160 -0.3390
  663TMC3    C6 9812   2.302   1.808  17.682  0.1698 -0.0513 -0.2623
  663TMC3     C 9813   2.499   2.102  17.463 -0.3528 -0.2370 -0.1273
  663TMC3     O 9814   2.547   2.065  17.357 -0.5867  0.1998 -0.3935
  663TMC3     H 9815   2.448   2.099   0.050 -1.7064  0.1126  1.3666
  663TMC3    H1 9816   2.392   1.873  17.367 -1.6253  0.1941 -0.6281
  663TMC3    H2 9817   2.228   1.740   0.040  2.2962 -2.2213 -0.0698
  663TMC3    C7 9818   2.239   1.705  17.468  0.0054 -0.2615 -0.0504
  663TMC3    C8 9819   2.384   1.914   0.195  0.5293  0.1780  0.3163
  663TMC3    O1 9820   2.182   1.734  17.363  0.5669  0.1234  0.0121
  663TMC3    O2 9821   2.403   2.017   0.250  0.7338 -0.6450  0.0731
  664MPD2     C 9822   1.034   0.189   0.061 -0.4700  0.4899 -0.3019
  664MPD2    C1 9823   1.070   0.314   0.107  0.3986 -0.2069  0.6044
  664MPD2    C2 9824   1.009   0.356   0.222  0.3521  0.7655 -0.7611
  664MPD2    C3 9825   0.905   0.286   0.280  1.0206  0.6790  0.1863
  664MPD2    C4 9826   0.869   0.165   0.228 -0.1494  0.0062  0.6421
  664MPD2    C5 9827   0.927   0.124   0.114  0.5037  0.3836 -0.7204
  664MPD2     H 9828   1.035   0.454   0.260 -1.2915  0.9803 -0.1398
  664MPD2    H1 9829   0.791   0.104   0.272 -1.8578  0.8224 -1.2395
  664MPD2    H2 9830   1.076   0.142  17.657  1.4568  0.4977  0.6111
  664MPD2    H3 9831   0.892   0.029   0.074  1.5036 -0.2715 -0.0563
  664MPD2     N 9832   0.864   0.328   0.406 -0.6385 -0.2394  0.2196
  664MPD2    H5 9833   0.923   0.402   0.443 -1.1727  1.7862 -3.0038
  664MPD2    N1 9834   1.164   0.389   0.038  0.1112 -0.2947 -0.4433
  664MPD2    H7 9835   1.172   0.488   0.060  0.3514 -0.6789  1.1701
  665TMC3    C1 9836   0.774   0.326   0.620  0.7044  0.5464 -0.2538
  665TMC3    C2 9837   0.705   0.262   0.718 -0.5145 -0.9013  0.0498
  665TMC3    C3 9838   0.661   0.328   0.825  0.2922  0.4447  0.5336
  665TMC3    C4 9839   0.791   0.462   0.631 -0.2165 -0.0080  0.2300
  665TMC3    C5 9840   0.754   0.522   0.746  0.5691 -0.6720  0.0276
  665TMC3    C6 9841   0.685   0.459   0.847 -0.2734 -0.6598  0.1709
  665TMC3     C 9842   0.781   0.261   0.492  0.4222  0.1469 -0.3468
  665TMC3     O 9843   0.722   0.153   0.484 -0.0791  0.9258  0.3622
  665TMC3     H 9844   0.659   0.166   0.700 -4.4547  0.8129  1.0210
  665TMC3    H1 9845   0.847   0.519   0.558 -2.4576  0.3941 -1.1560
  665TMC3    H2 9846   0.653   0.514   0.935  1.6719 -1.2342  1.2450
  665TMC3    C7 9847   0.837   0.646   0.777 -0.1376 -0.5538 -0.2311
  665TMC3    C8 9848   0.597   0.252   0.936  0.2552  0.3696 -0.6347
  665TMC3    O1 9849   0.901   0.701   0.691  0.4967 -0.1715  0.4196
  665TMC3    O2 9850   0.554   0.316   1.031  0.3074 -0.5511 -0.3175
  666TMC3    C1 9851   0.211   0.660  10.375 -0.5473  1.0745 -0.1051
  666TMC3    C2 9852   0.333   0.623  10.424 -0.0327  0.3826  1.0652
  666TMC3    C3 9853   0.447   0.651  10.349 -0.3504  0.6357  0.1559
  666TMC3    C4 9854   0.197   0.723  10.249  0.6551 -0.3866  0.1977
  666TMC3    C5 9855   0.310   0.747  10.183 -0.9784  0.7615  0.1256
  666TMC3    C6 9856   0.429   0.717  10.232 -0.6890  0.3008 -0.7471
  666TMC3     C 9857   0.086   0.605  10.437  0.0770 -0.2116 -0.0641
  666TMC3     O 9858   0.099   0.514  10.514 -0.4622 -0.2069 -0.0783
  666TMC3     H 9859   0.331   0.583  10.524  0.0649  1.6647  1.5853
  666TMC3    H1 9860   0.100   0.732  10.202  0.3681  0.2283  0.8981
  666TMC3    H2 9861   0.516   0.757  10.180 -0.3332  1.3530  0.6524
  666TMC3    C7 9862   0.293   0.845  10.074 -0.2118 -0.2908 -0.2426
  666TMC3    C8 9863   0.579   0.618  10.398  0.5112 -0.4350  0.3000
  666TMC3    O1 9864   0.186   0.906  10.075 -0.5834 -0.1099  0.1694
  666TMC3    O2 9865   0.677   0.680  10.350  0.0002  0.3529  0.2007
  667MPD2     C 9866   1.926   0.285  15.153  0.6202 -0.6497  0.0431
  667MPD2    C1 9867   1.821   0.350  15.208  0.6766  0.4506  0.0128
  667MPD2    C2 9868   1.699   0.298  15.177  0.8127  0.5656  0.3719
  667MPD2    C3 9869   1.685   0.185  15.096  1.1232  0.0718  0.1825
  667MPD2    C4 9870   1.792   0.110  15.059  0.2988  0.0330 -0.0755
  667MPD2    C5 9871   1.913   0.166  15.081 -0.3369 -0.2209 -0.3404
  667MPD2     H 9872   1.618   0.359  15.217 -0.6979 -0.8797 -0.4682
  667MPD2    H1 9873   1.794   0.020  14.999  1.6426 -0.8142  1.2430
  667MPD2    H2 9874   2.026   0.316  15.183 -0.2743 -0.8207  3.2413
  667MPD2    H3 9875   2.001   0.114  15.043  0.0800 -0.9264  1.5981
  667MPD2     N 9876   1.557   0.141  15.060  0.3838  0.0380  0.5803
  667MPD2    H5 9877   1.563   0.050  15.016  1.1537 -1.0819  2.9942
  667MPD2    N1 9878   1.819   0.460  15.291 -0.3304 -0.0249  0.3723
  667MPD2    H7 9879   1.730   0.490  15.329 -1.0510 -0.8219 -0.6944
  668TMC3    C1 9880   1.906   0.645  15.409 -0.2050  0.8103 -0.4508
  668TMC3    C2 9881   1.972   0.761  15.387 -0.0700  0.4773  0.2188
  668TMC3    C3 9882   1.960   0.851  15.492  0.5520  0.8211 -0.1748
  668TMC3    C4 9883   1.823   0.618  15.511 -0.2839  0.3473  0.5334
  668TMC3    C5 9884   1.815   0.717  15.607 -0.5561 -0.3035 -0.0184
  668TMC3    C6 9885   1.883   0.834  15.602 -0.9560  0.7286 -0.0350
  668TMC3     C 9886   1.927   0.543  15.308 -0.1154  0.6300  0.1055
  668TMC3     O 9887   2.031   0.551  15.240  0.4589  0.3612 -0.1162
  668TMC3     H 9888   2.043   0.764  15.305 -1.0070  3.4770 -0.4877
  668TMC3    H1 9889   1.780   0.522  15.535 -2.2706  1.0220 -0.3864
  668TMC3    H2 9890   1.875   0.904  15.684 -1.3447 -0.3559  0.8527
  668TMC3    C7 9891   1.748   0.687  15.738 -0.3412 -0.4920  0.2925
  668TMC3    C8 9892   2.040   0.975  15.495  1.2740  0.9300 -0.7966
  668TMC3    O1 9893   1.809   0.730  15.835 -0.5145 -0.1464 -0.3895
  668TMC3    O2 9894   2.047   1.054  15.590  0.0286 -0.1176  0.1121
  669TMC3    C1 9895   4.654   0.608  14.904  0.1494  0.1598 -0.1406
  669TMC3    C2 9896   4.538   0.587  14.832 -0.2347 -0.2310 -0.3596
  669TMC3    C3 9897   4.524   0.655  14.717 -0.0726 -0.9032  0.2137
  669TMC3    C4 9898   0.035   0.684  14.844  0.0321 -0.2084 -0.0124
  669TMC3    C5 9899   0.017   0.745  14.723 -0.6951 -0.2244  0.1470
  669TMC3    C6 9900   4.620   0.730  14.652  0.1916 -0.2802  0.5276
  669TMC3     C 9901   4.677   0.511  15.007 -0.4137 -1.0397 -0.1746
  669TMC3     O 9902   4.589   0.428  15.020  0.0347  0.3690 -0.1422
  669TMC3     H 9903   4.456   0.524  14.865 -1.4029  1.2169 -0.5221
  669TMC3    H1 9904   0.137   0.679  14.879 -0.0384  0.7063  0.3419
  669TMC3    H2 9905   4.599   0.791  14.565  1.9214  0.7304  0.8046
  669TMC3    C7 9906   0.133   0.808  14.664  0.0825 -0.3332  0.3547
  669TMC3    C8 9907   4.404   0.611  14.632  0.0285 -0.0222 -0.5822
  669TMC3    O1 9908   0.219   0.845  14.740 -0.6084  0.1980 -0.1217
  669TMC3    O2 9909   4.419   0.574  14.518 -0.6083  0.7786  0.3072
  670MPD2     C 9910   2.763   3.302  13.377 -0.5697 -0.0335 -0.0058
  670MPD2    C1 9911   2.889   3.294  13.442 -0.3776 -0.4404 -0.5193
  670MPD2    C2 9912   2.881   3.236  13.567  0.3503 -0.9955 -0.0444
  670MPD2    C3 9913   2.768   3.193  13.627  0.0774 -0.5063 -0.1510
  670MPD2    C4 9914   2.646   3.215  13.559 -0.4947  0.3239  0.4529
  670MPD2    C5 9915   2.650   3.266  13.435 -0.0421  0.3658  0.4877
  670MPD2     H 9916   2.972   3.197  13.611  1.2744  1.3512  0.1305
  670MPD2    H1 9917   2.550   3.182  13.595 -1.1970  0.8547 -0.9458
  670MPD2    H2 9918   2.761   3.339  13.275 -1.2137  1.4593  0.5556
  670MPD2    H3 9919   2.562   3.274  13.371 -0.0668 -2.7368  0.1726
  670MPD2     N 9920   2.772   3.130  13.751  0.3545 -0.4460 -0.4504
  670MPD2    H5 9921   2.862   3.122  13.799  0.3871 -1.3715 -0.6725
  670MPD2    N1 9922   3.015   3.318  13.382 -0.2085 -0.2741  0.0889
  670MPD2    H7 9923   3.103   3.310  13.432 -0.5377 -1.1672  0.5194
  671TMC3    C1 9924   2.709   3.040  13.957 -0.2700  0.3439 -0.0975
  671TMC3    C2 9925   2.837   3.025  13.999  0.4825 -0.0130 -0.2190
  671TMC3    C3 9926   2.854   2.968  14.120  1.1362 -0.5703 -0.4806
  671TMC3    C4 9927   2.606   2.967  14.012  0.5357  0.8065  0.3075
  671TMC3    C5 9928   2.632   2.894  14.122 -0.2690  0.1312  0.4741
  671TMC3    C6 9929   2.755   2.907  14.188 -0.2403 -0.1320  0.0315
  671TMC3     C 9930   2.670   3.095  13.829  0.5987 -0.5735 -0.6410
  671TMC3     O 9931   2.548   3.109  13.812 -0.8312 -0.4114  0.2568
  671TMC3     H 9932   2.916   3.095  13.972  0.4780  1.2014  2.8686
  671TMC3    H1 9933   2.507   2.952  13.970  1.1832  0.8473 -1.2276
  671TMC3    H2 9934   2.775   2.837  14.269  0.4900  0.1266  0.0763
  671TMC3    C7 9935   2.584   2.752  14.090 -0.2737  0.1285 -0.5417
  671TMC3    C8 9936   2.985   2.917  14.133 -0.0103 -0.1895  0.5165
  671TMC3    O1 9937   2.563   2.734  13.972 -0.0705  0.5474  0.0635
  671TMC3    O2 9938   3.048   2.886  14.034 -0.0691  0.5557  0.4029
  672MPD2     C 9939   3.381   2.642   1.277  0.6177 -0.3462 -0.9065
  672MPD2    C1 9940   3.367   2.744   1.184  1.1123 -0.1473  0.2557
  672MPD2    C2 9941   3.443   2.859   1.203 -0.2259 -0.1126 -0.1649
  672MPD2    C3 9942   3.530   2.865   1.307  0.0378 -0.2836  0.1940
  672MPD2    C4 9943   3.532   2.768   1.400  0.2880  0.0506 -0.0111
  672MPD2    C5 9944   3.460   2.657   1.389 -0.3041 -0.5194  0.1575
  672MPD2     H 9945   3.462   2.923   1.118 -1.3200  1.1333  0.5374
  672MPD2    H1 9946   3.596   2.779   1.487 -0.1101  1.0261  0.1466
  672MPD2    H2 9947   3.326   2.548   1.272  0.3561 -0.3686  2.6727
  672MPD2    H3 9948   3.472   2.574   1.458  1.6720  0.1030  0.5789
  672MPD2     N 9949   3.621   2.972   1.316  0.1065 -0.0861  0.3937
  672MPD2    H5 9950   3.697   2.954   1.381  0.6677 -1.0429 -0.5240
  672MPD2    N1 9951   3.281   2.741   1.077 -0.5434  0.0646 -0.1502
  672MPD2    H7 9952   3.276   2.826   1.022 -0.4902  0.2409  0.1180
  673TMC3    C1 9953   3.220   2.637   0.872 -0.3497 -0.1439  0.2463
  673TMC3    C2 9954   3.216   2.522   0.797  0.8436  0.2512  0.1500
  673TMC3    C3 9955   3.209   2.524   0.660 -0.2772 -0.1149  0.3201
  673TMC3    C4 9956   3.246   2.756   0.809 -0.4714 -0.0902 -0.2727
  673TMC3    C5 9957   3.252   2.754   0.671  0.8486  0.0574 -0.2345
  673TMC3    C6 9958   3.245   2.642   0.595  0.2463 -0.4251  0.3144
  673TMC3     C 9959   3.241   2.626   1.017  0.1046  0.5165  0.4068
  673TMC3     O 9960   3.267   2.513   1.047  0.2143 -0.4005 -0.4955
  673TMC3     H 9961   3.208   2.433   0.859 -1.3666  2.1949  2.6692
  673TMC3    H1 9962   3.241   2.848   0.867 -0.6302 -0.8389  0.9136
  673TMC3    H2 9963   3.253   2.647   0.487 -0.5089  0.1769  0.2835
  673TMC3    C7 9964   3.330   2.857   0.601 -0.0622  0.7339 -0.5218
  673TMC3    C8 9965   3.253   2.408   0.588 -0.5938  0.1621 -0.6328
  673TMC3    O1 9966   3.399   2.822   0.505 -0.2802 -0.2959 -0.0269
  673TMC3    O2 9967   3.211   2.380   0.480 -0.2712  0.0001 -0.0426
  674MPD2     C 9968   3.073   3.213   0.240  0.0471 -0.5962 -0.0990
  674MPD2    C1 9969   3.066   3.103   0.329 -0.0331  0.6297 -0.2637
  674MPD2    C2 9970   3.027   3.136   0.455  0.0701  0.4311 -0.4198
  674MPD2    C3 9971   2.974   3.259   0.485  0.8333 -0.4735  0.0710
  674MPD2    C4 9972   2.957   3.352   0.390 -0.2207 -0.0906 -0.1402
  674MPD2    C5 9973   3.013   3.334   0.270  0.3018 -0.7742  0.3546
  674MPD2     H 9974   3.031   3.061   0.533  0.0453  2.0438  1.1479
  674MPD2    H1 9975   2.903   3.442   0.419 -0.4644 -0.2618 -0.0558
  674MPD2    H2 9976   3.123   3.197   0.145  1.3051 -0.6132  0.5541
  674MPD2    H3 9977   2.997   3.412   0.196 -1.4474  0.1143  1.6606
  674MPD2     N 9978   2.954   3.283   0.624 -0.1567  0.6318 -0.8788
  674MPD2    H5 9979   2.956   3.201   0.683 -0.2772  1.1832 -0.1074
  674MPD2    N1 9980   3.109   2.969   0.304 -0.1708 -0.2492 -0.0170
  674MPD2    H7 9981   3.060   2.890   0.344  0.5311 -0.5895  0.1606
  675TMC3    C1 9982   3.230   2.802   0.202 -0.1361  0.9729  0.2275
  675TMC3    C2 9983   3.125   2.719   0.184 -0.0125 -0.4149  0.3385
  675TMC3    C3 9984   3.155   2.585   0.178  0.0205 -0.3200  0.1567
  675TMC3    C4 9985   3.362   2.750   0.207  0.1560 -0.3322 -0.6661
  675TMC3    C5 9986   3.380   2.616   0.189 -0.3743 -0.4958 -0.7257
  675TMC3    C6 9987   3.281   2.532   0.164  0.5207 -0.3792 -0.0505
  675TMC3     C 9988   3.206   2.943   0.207 -0.2595  0.3042  0.3287
  675TMC3     O 9989   3.266   3.017   0.131  0.0219  0.7684 -0.2556
  675TMC3     H 9990   3.026   2.762   0.191  1.0999  2.6442 -3.3221
  675TMC3    H1 9991   3.445   2.819   0.209  0.1575 -0.3512 -0.1037
  675TMC3    H2 9992   3.297   2.425   0.159  2.1428 -0.1000 -0.6228
  675TMC3    C7 9993   3.503   2.551   0.233 -0.2141 -0.2833  0.6249
  675TMC3    C8 9994   3.034   2.498   0.181  0.3070  0.5394 -0.3142
  675TMC3    O1 9995   3.530   2.443   0.176  0.2627 -0.5208 -0.0039
  675TMC3    O2 9996   2.940   2.552   0.128  0.8850  0.5016  0.0881
  676MPD2     C 9997   1.151   1.696  11.423 -0.6363 -0.0422  0.5313
  676MPD2    C1 9998   1.027   1.674  11.481  0.4558 -0.0027 -0.1708
  676MPD2    C2 9999   0.974   1.547  11.500 -0.3089  0.3731  0.0759
  676MPD2    C310000   1.035   1.430  11.458  0.3692  0.9247  0.0097
  676MPD2    C410001   1.161   1.448  11.401  0.0917  0.1178 -0.8425
  676MPD2    C510002   1.217   1.574  11.388 -1.1734  0.0799 -1.0418
  676MPD2     H10003   0.883   1.537  11.557 -0.3071  1.1521  0.2257
  676MPD2    H110004   1.222   1.359  11.388 -0.3904 -0.5917  1.8914
  676MPD2    H210005   1.194   1.794  11.408 -2.5157  1.0766  2.4215
  676MPD2    H310006   1.313   1.587  11.341 -1.2368 -0.4922 -1.3249
  676MPD2     N10007   0.990   1.295  11.481  0.9796  0.7684 -0.6418
  676MPD2    H510008   1.056   1.222  11.457 -1.0927 -1.8112  1.6778
  676MPD2    N110009   0.948   1.775  11.540  0.1970 -0.4101 -0.1207
  676MPD2    H710010   0.862   1.765  11.592  0.2784 -1.9248 -0.2645
  677TMC3    C110011   0.877   1.983  11.609  1.1638 -0.4823 -0.5341
  677TMC3    C210012   0.746   1.951  11.608 -0.1100  0.6540 -0.2713
  677TMC3    C310013   0.665   2.001  11.708  0.4124  0.8206 -0.6493
  677TMC3    C410014   0.930   2.060  11.707  0.1794  0.1893  0.0934
  677TMC3    C510015   0.840   2.122  11.800  0.0193  0.1442  0.2784
  677TMC3    C610016   0.705   2.095  11.794  0.2431  0.4903 -0.4493
  677TMC3     C10017   0.974   1.910  11.533 -0.7346 -0.2323 -0.6148
  677TMC3     O10018   1.065   1.970  11.484 -0.0088  0.0668 -0.1777
  677TMC3     H10019   0.711   1.894  11.523 -0.4393  0.8400 -0.2604
  677TMC3    H110020   1.037   2.062  11.723  0.2656 -1.2431 -0.3365
  677TMC3    H210021   0.631   2.130  11.865 -0.5029  0.6139 -1.2902
  677TMC3    C710022   0.889   2.164  11.926  0.6675  0.0141  0.0801
  677TMC3    C810023   0.530   1.937  11.719 -0.2752  0.4962  0.5947
  677TMC3    O110024   0.836   2.121  12.026 -0.4194 -0.3353 -0.2089
  677TMC3    O210025   0.475   1.905  11.612  0.0319  0.1890 -0.2013
  678MPD2     C10026   2.277   0.805   1.883 -0.1910  0.4110  0.0165
  678MPD2    C110027   2.234   0.746   1.768  0.3720  0.3982 -0.5584
  678MPD2    C210028   2.107   0.750   1.729  0.2607 -0.1596 -0.0001
  678MPD2    C310029   2.006   0.808   1.806  0.8488  0.1389  0.7002
  678MPD2    C410030   2.045   0.868   1.924 -0.2983  0.2431 -0.3488
  678MPD2    C510031   2.179   0.863   1.957 -0.8511  0.2019  0.2310
  678MPD2     H10032   2.082   0.703   1.634 -0.2264  1.1837 -0.5305
  678MPD2    H110033   1.980   0.923   1.990 -1.1289 -2.0661  0.7320
  678MPD2    H210034   2.377   0.827   1.918  0.6566 -2.9483 -0.3039
  678MPD2    H310035   2.210   0.923   2.041 -0.3966  1.0273 -0.5246
  678MPD2     N10036   1.870   0.805   1.760 -0.2242 -0.0933 -0.1567
  678MPD2    H510037   1.853   0.761   1.670  0.0128 -1.3687  0.4252
  678MPD2    N110038   2.331   0.697   1.673  0.1780 -0.0421 -0.5161
  678MPD2    H710039   2.293   0.647   1.594 -0.6465  1.0657 -0.8296
  679TMC3    C110040   2.740   0.553   1.493  0.2135 -0.4116  0.1810
  679TMC3    C210041   2.654   0.571   1.600 -0.6597  0.2687  0.2739
  679TMC3    C310042   2.534   0.632   1.570 -0.0698 -0.2088 -0.0198
  679TMC3    C410043   2.699   0.552   1.362  0.1608 -0.1757  0.1022
  679TMC3    C510044   2.568   0.599   1.339 -0.1867  0.9026  0.8901
  679TMC3    C610045   2.488   0.651   1.440 -0.0459  0.7775  0.0285
  679TMC3     C10046   2.872   0.493   1.525  0.2766 -0.3405 -0.9867
  679TMC3     O10047   2.880   0.428   1.629 -0.3498 -0.1351 -0.1728
  679TMC3     H10048   2.689   0.549   1.700 -0.8619 -1.1682  0.0303
  679TMC3    H110049   2.764   0.497   1.294  0.3678  1.7147 -1.2195
  679TMC3    H210050   2.393   0.697   1.417  1.4163  5.1011  2.6239
  679TMC3    C710051   2.507   0.600   1.210 -0.5994  0.2875  0.5563
  679TMC3    C810052   2.464   0.682   1.688  0.1565  0.5141 -0.0513
  679TMC3    O110053   2.402   0.663   1.201 -0.0391  0.1236 -0.4259
  679TMC3    O210054   2.535   0.716   1.777 -0.4924  0.2262  0.3759
  680MPD2     C10055   3.536   0.023  13.793 -0.3589  0.0376  0.1430
  680MPD2    C110056   3.400   4.701  13.809 -0.8526 -0.7921 -0.0819
  680MPD2    C210057   3.319   0.059  13.881 -0.0662  0.2618 -0.5142
  680MPD2    C310058   3.358   0.189  13.928 -0.4594  0.2386 -0.6143
  680MPD2    C410059   3.488   0.227  13.911  0.6108 -0.7597  0.0010
  680MPD2    C510060   3.573   0.143  13.847  0.4381 -0.1851 -0.3621
  680MPD2     H10061   3.220   0.018  13.895 -0.0076  0.4769  0.5589
  680MPD2    H110062   3.519   0.328  13.937  1.4682 -1.3377  1.2205
  680MPD2    H210063   3.617   4.687  13.749 -1.7735 -0.5756 -1.6933
  680MPD2    H310064   3.674   0.182  13.842 -0.2558  1.6971  0.2331
  680MPD2     N10065   3.270   0.283  13.980 -0.7533  0.0007 -0.1418
  680MPD2    H510066   3.312   0.368  14.017 -0.4933  0.1275 -0.7198
  680MPD2    N110067   3.346   4.587  13.750  0.3330 -0.3222 -0.3806
  680MPD2    H710068   3.248   4.565  13.761  0.6636 -1.4700  0.2308
  681TMC3    C110069   3.354   4.369  13.650 -0.6060 -0.0986 -0.2643
  681TMC3    C210070   3.219   4.358  13.680  0.7271 -0.5783 -0.5493
  681TMC3    C310071   3.161   4.241  13.638  0.2239 -0.3308 -0.1637
  681TMC3    C410072   3.427   4.287  13.567  0.0010 -0.6860  0.1853
  681TMC3    C510073   3.361   4.183  13.521  0.0567 -0.2237 -0.0594
  681TMC3    C610074   3.233   4.152  13.553 -0.1698  0.0936 -0.6056
  681TMC3     C10075   3.424   4.489  13.691 -0.1878  0.3959 -0.8023
  681TMC3     O10076   3.535   4.507  13.647 -0.1359  0.1132  0.1540
  681TMC3     H10077   3.167   4.439  13.730  2.3400 -1.1199  1.9987
  681TMC3    H110078   3.535   4.291  13.564  0.0186  1.5601  3.6956
  681TMC3    H210079   3.185   4.075  13.494 -0.6840 -0.8019  0.9803
  681TMC3    C710080   3.415   4.137  13.401  0.0229  0.2562 -0.6105
  681TMC3    C810081   3.022   4.216  13.670 -0.0327 -0.1136  0.5205
  681TMC3    O110082   3.382   4.025  13.360  0.7379  0.1753 -0.4137
  681TMC3    O210083   2.975   4.118  13.622 -0.2915 -0.1065 -0.0551
  682MPD2     C10084   0.331   1.901  10.631 -0.0842  0.7355  0.3910
  682MPD2    C110085   0.234   1.817  10.576 -0.2284 -0.5559 -0.5338
  682MPD2    C210086   0.119   1.781  10.649  0.4451 -0.0107  0.7926
  682MPD2    C310087   0.110   1.810  10.779 -0.0109 -0.5279  0.0996
  682MPD2    C410088   0.198   1.901  10.833  0.4402  0.4717 -0.6566
  682MPD2    C510089   0.312   1.937  10.762  0.1511  0.4233  0.8288
  682MPD2     H10090   0.042   1.721  10.602 -1.3198  2.5955  0.3407
  682MPD2    H110091   0.200   1.918  10.940 -0.3515  0.3881 -0.6264
  682MPD2    H210092   0.418   1.924  10.570 -0.8362  1.4307 -0.4205
  682MPD2    H310093   0.382   2.002  10.814  1.1378 -0.0177  0.0362
  682MPD2     N10094   0.001   1.773  10.863 -0.2013  0.0149 -0.2177
  682MPD2    H510095   0.008   1.804  10.960  0.1580 -0.6714 -0.0257
  682MPD2    N110096   0.234   1.768  10.444  0.0399 -0.0326 -0.6791
  682MPD2    H710097   0.154   1.713  10.414  0.4299 -1.4431  0.8875
  683TMC3    C110098   4.549   1.583  11.184  1.1778 -0.9719  1.0007
  683TMC3    C210099   4.456   1.488  11.169 -0.6316 -0.9022 -0.1316
  683TMC3    C310100   4.438   1.448  11.043  0.3356  0.0971  0.6110
  683TMC3    C410101   4.606   1.652  11.087 -0.3488 -0.1288  0.3505
  683TMC3    C510102   4.566   1.626  10.958  0.2616 -0.4569  0.1270
  683TMC3    C610103   4.489   1.515  10.938 -0.5808 -0.2728 -0.3112
  683TMC3     C10104   4.560   1.636  11.323  0.0125 -0.2068 -0.5451
  683TMC3     O10105   4.673   1.645  11.367  0.7251 -0.0903 -0.2529
  683TMC3     H10106   4.411   1.441  11.256 -0.0075  0.0829  0.7213
  683TMC3    H110107   4.675   1.727  11.123 -1.4467  1.6715 -1.2736
  683TMC3    H210108   4.469   1.465  10.844  0.9648 -0.3535 -0.6024
  683TMC3    C710109   4.619   1.683  10.838  0.4016  0.2074  0.1168
  683TMC3    C810110   4.339   1.348  11.011 -1.0366  0.1801 -0.0545
  683TMC3    O110111   4.577   1.631  10.734  0.2548 -0.3254  0.0626
  683TMC3    O210112   4.269   1.373  10.912 -0.1726  0.0383  0.2089
  684MPD2     C10113   2.916   0.755  16.650  0.9493  0.3821  0.4982
  684MPD2    C110114   2.887   0.820  16.534 -0.2932  0.5090  0.0662
  684MPD2    C210115   2.853   0.953  16.540 -0.9551 -0.7225  0.0230
  684MPD2    C310116   2.848   1.022  16.660  0.7347 -0.0372 -0.6659
  684MPD2    C410117   2.879   0.955  16.777 -0.0126  0.0138  0.4050
  684MPD2    C510118   2.919   0.824  16.768 -0.1618 -0.4338  0.1965
  684MPD2     H10119   2.829   1.001  16.446  1.8811 -1.9196 -1.3429
  684MPD2    H110120   2.890   1.005  16.872 -0.2040  1.3173 -0.2612
  684MPD2    H210121   2.939   0.649  16.648 -1.8799 -0.1722 -2.7661
  684MPD2    H310122   2.941   0.766  16.857  1.1289  0.2681  0.3237
  684MPD2     N10123   2.810   1.160  16.674  0.5979  0.4586  0.4304
  684MPD2    H510124   2.825   1.202  16.765  0.0186  0.0681  0.7053
  684MPD2    N110125   2.891   0.760  16.409  0.0846 -0.3665 -0.4946
  684MPD2    H710126   2.874   0.826  16.334  1.4970 -0.4097 -0.8676
  685TMC3    C110127   2.955   0.622  16.225  0.1460  0.1147  0.6353
  685TMC3    C210128   2.853   0.675  16.146  0.1922  0.7969 -0.7582
  685TMC3    C310129   2.877   0.697  16.018  0.2237 -0.7401  0.0407
  685TMC3    C410130   3.073   0.572  16.180 -0.9308  0.4599 -0.1132
  685TMC3    C510131   3.097   0.609  16.046 -0.0328 -0.1434 -0.5187
  685TMC3    C610132   3.003   0.676  15.967  0.4936 -0.1270  0.1444
  685TMC3     C10133   2.950   0.638  16.376  0.7385  0.5243 -0.3945
  685TMC3     O10134   3.006   0.558  16.448  0.0537  0.5763 -0.7957
  685TMC3     H10135   2.758   0.699  16.194 -0.7257  0.3084 -2.3181
  685TMC3    H110136   3.140   0.521  16.248 -1.0427 -0.3563 -0.6076
  685TMC3    H210137   3.018   0.706  15.864  2.2259  1.1224  0.7668
  685TMC3    C710138   3.239   0.635  16.003  0.0844 -0.2453 -0.5299
  685TMC3    C810139   2.779   0.757  15.936 -0.5581 -0.0911  0.4587
  685TMC3    O110140   3.269   0.667  15.887  0.5603 -0.2775  0.0853
  685TMC3    O210141   2.816   0.788  15.824  0.3651  0.2450  0.1050
  686MPD2     C10142   4.132   0.454  15.615 -1.0852  0.2901  0.2458
  686MPD2    C110143   4.123   0.402  15.741  0.4712  0.3131  0.6675
  686MPD2    C210144   4.171   0.271  15.759 -0.2922  1.1030 -0.4681
  686MPD2    C310145   4.211   0.194  15.651  0.3520  0.5308  0.3319
  686MPD2    C410146   4.222   0.252  15.526 -0.3939  0.1219  0.8887
  686MPD2    C510147   4.180   0.380  15.512 -0.2836 -0.0588  0.2767
  686MPD2     H10148   4.182   0.233  15.860 -1.9742 -2.3789 -1.5922
  686MPD2    H110149   4.255   0.194  15.440 -0.3089  1.9406 -0.2937
  686MPD2    H210150   4.097   0.553  15.587 -1.9159 -0.2409 -0.5959
  686MPD2    H310151   4.202   0.427  15.416 -1.5233  0.3149  0.1768
  686MPD2     N10152   4.248   0.057  15.661  0.4646 -0.0996 -0.4199
  686MPD2    H510153   4.288   0.020  15.575 -1.7091  0.4338 -1.6696
  686MPD2    N110154   4.071   0.471  15.851  0.3115  0.8847  0.5639
  686MPD2    H710155   4.066   0.571  15.832 -1.8086  0.5019 -0.8212
  687TMC3    C110156   4.137   4.714  15.873 -0.2927  0.1729 -0.1027
  687TMC3    C210157   4.009   0.018  15.831  1.1165  0.3283  0.1584
  687TMC3    C310158   3.906   4.719  15.918 -0.1955  0.0859  0.5053
  687TMC3    C410159   4.155   4.647  15.990 -0.0564 -0.2146  0.0452
  687TMC3    C510160   4.046   4.620  16.066  0.1802 -0.3181  0.4932
  687TMC3    C610161   3.920   4.662  16.041 -0.3230  0.3208 -0.4643
  687TMC3     C10162   4.235   4.687  15.770  0.6633 -0.0560 -0.1693
  687TMC3     O10163   4.285   4.577  15.768  0.5071 -0.5290 -0.1615
  687TMC3     H10164   3.993   0.035  15.725  1.2505  0.8359  0.2193
  687TMC3    H110165   4.255   4.632  16.028 -0.0336 -0.9531 -0.3010
  687TMC3    H210166   3.837   4.648  16.109 -1.4941  0.2495 -1.9059
  687TMC3    C710167   4.063   4.594  16.205  0.3016  0.3413  0.4845
  687TMC3    C810168   3.776   0.067  15.893  0.2686 -0.1307 -0.0208
  687TMC3    O110169   3.968   4.542  16.259  0.1570  0.0062  0.1467
  687TMC3    O210170   3.692   0.058  15.979  0.5344  0.2410 -0.1866
  688MPD2     C10171   3.535   4.231  17.440 -0.6250 -0.0343  0.2057
  688MPD2    C110172   3.564   4.111  17.500  0.5445  0.3475 -0.1328
  688MPD2    C210173   3.666   4.030  17.447  0.5120 -0.2861 -0.1279
  688MPD2    C310174   3.743   4.077  17.341 -0.0726  0.2511 -0.1697
  688MPD2    C410175   3.713   4.201  17.288  0.3429 -0.3022 -0.2537
  688MPD2    C510176   3.610   4.279  17.336  0.1117  0.4487  0.1755
  688MPD2     H10177   3.690   3.937  17.497 -0.3591 -1.5924 -2.1771
  688MPD2    H110178   3.763   4.236  17.199  1.4321  0.3647  0.6192
  688MPD2    H210179   3.454   4.291  17.480  0.1464  0.1637  1.4691
  688MPD2    H310180   3.581   4.376  17.297  2.1758  0.4684 -1.2988
  688MPD2     N10181   3.840   3.995  17.278  0.8813  0.6550 -0.5578
  688MPD2    H510182   3.871   4.048  17.197  0.5497  1.9336  0.1561
  688MPD2    N110183   3.485   4.070  17.611  0.3478  0.3108 -0.5365
  688MPD2    H710184   3.498   3.973  17.640  1.3061  0.1855 -1.3883
  689TMC3    C110185   3.369   4.087   0.131 -0.7764  0.1398 -0.3699
  689TMC3    C210186   3.377   4.162   0.243 -0.3222  0.8461 -0.9374
  689TMC3    C310187   3.374   4.102   0.371  0.1390 -0.7824 -0.3462
  689TMC3    C410188   3.349   3.954   0.129  1.0095 -0.5721 -0.3538
  689TMC3    C510189   3.303   3.897   0.255 -0.0470 -0.0100  0.2128
  689TMC3    C610190   3.339   3.963   0.378  0.4992 -0.5309  0.0627
  689TMC3     C10191   3.404   4.150   0.003 -0.8278  0.0307 -0.1356
  689TMC3     O10192   3.370   4.270  17.682  0.2442  0.0650  0.6336
  689TMC3     H10193   3.409   4.266   0.236 -0.6137  0.9126 -1.3080
  689TMC3    H110194   3.336   3.903   0.034  1.4198 -1.7794  0.2345
  689TMC3    H210195   3.308   3.920   0.472 -2.6218  1.4764 -0.0516
  689TMC3    C710196   3.289   3.749   0.265 -0.1653  0.0932 -0.3306
  689TMC3    C810197   3.356   4.182   0.489 -0.1540 -0.2754 -0.0091
  689TMC3    O110198   3.368   3.708   0.353  0.7128 -0.6090  0.5448
  689TMC3    O210199   3.333   4.119   0.588  0.6001 -0.0606  0.4724
  690MPD2     C10200   0.950   1.130  16.198 -0.3586  0.2331 -0.2544
  690MPD2    C110201   0.877   1.189  16.093 -0.5107 -0.0096  0.7148
  690MPD2    C210202   0.943   1.264  15.998 -0.3591 -0.0878 -0.1232
  690MPD2    C310203   1.082   1.288  16.010  0.4690  0.3744  0.3038
  690MPD2    C410204   1.152   1.222  16.106 -0.5031 -0.3006  0.1239
  690MPD2    C510205   1.081   1.148  16.203  0.2601 -0.1221  0.7508
  690MPD2     H10206   0.882   1.318  15.927 -1.1062 -2.1632 -1.0848
  690MPD2    H110207   1.260   1.223  16.115 -0.4955  1.4512 -0.1267
  690MPD2    H210208   0.903   1.072  16.276 -2.0347 -0.8452 -2.0927
  690MPD2    H310209   1.148   1.093  16.268  1.0776  1.2151  1.0512
  690MPD2     N10210   1.137   1.370  15.910  0.2246 -0.1487 -0.0079
  690MPD2    H510211   1.061   1.412  15.857 -0.3249 -1.7269 -0.4755
  690MPD2    N110212   0.736   1.170  16.081 -1.1070  0.5856 -0.2221
  690MPD2    H710213   0.688   1.190  15.994 -1.4369 -0.9003 -0.3855
  691TMC3    C110214   0.533   1.066  16.136  0.0441 -0.3450 -0.0082
  691TMC3    C210215   0.447   1.028  16.241  0.1000  0.0109  0.1230
  691TMC3    C310216   0.372   0.914  16.230 -0.5134  0.6975  0.1988
  691TMC3    C410217   0.549   0.982  16.030  0.8604 -0.8123  0.3414
  691TMC3    C510218   0.472   0.867  16.029  0.6527 -0.1577  0.3516
  691TMC3    C610219   0.372   0.843  16.118 -0.3103 -0.0510 -0.0299
  691TMC3     C10220   0.651   1.127  16.186  1.4885 -0.7217  0.3852
  691TMC3     O10221   0.670   1.121  16.308  0.1993  0.4250  0.1609
  691TMC3     H10222   0.432   1.075  16.337  1.0696 -0.6597  0.6043
  691TMC3    H110223   0.634   0.988  15.964  0.0092 -1.7869 -0.8267
  691TMC3    H210224   0.293   0.771  16.104 -1.3394  1.1732 -0.4435
  691TMC3    C710225   0.487   0.784  15.913 -0.4519 -0.0912 -0.1709
  691TMC3    C810226   0.242   0.899  16.291 -0.5163 -0.4087 -0.4492
  691TMC3    O110227   0.602   0.767  15.867 -0.0535 -0.3202 -0.0509
  691TMC3    O210228   0.207   0.782  16.321  0.2979 -0.3604 -0.3216
  692TMC3    C110229   2.596   2.368  15.951 -0.5772  0.2070  0.6144
  692TMC3    C210230   2.689   2.471  15.940 -0.0976 -0.2547 -0.4078
  692TMC3    C310231   2.818   2.445  15.894  1.0821 -0.1127 -0.0941
  692TMC3    C410232   2.626   2.239  15.930  0.3449 -0.2985  0.2411
  692TMC3    C510233   2.753   2.217  15.881 -0.1308 -0.0285 -0.8284
  692TMC3    C610234   2.844   2.317  15.856 -0.5887 -0.8463 -0.4114
  692TMC3     C10235   2.462   2.408  15.996  0.3615  0.0307 -0.0466
  692TMC3     O10236   2.394   2.325  16.050  0.6628 -0.0156 -0.3299
  692TMC3     H10237   2.673   2.568  15.985 -0.1369 -0.1446 -0.6551
  692TMC3    H110238   2.540   2.173  15.924  0.7185 -0.7201 -0.5063
  692TMC3    H210239   2.949   2.288  15.854 -0.3893 -0.0915 -0.8855
  692TMC3    C710240   2.792   2.082  15.875  0.6031  0.9926  0.2629
  692TMC3    C810241   2.907   2.492  16.001 -0.1508  0.0189  0.0052
  692TMC3    O110242   2.880   2.052  15.797 -0.1533 -0.2216 -0.1811
  692TMC3    O210243   2.970   2.602  15.996 -0.3706  0.3435  0.2947
  693MPD2     C10244   1.851   0.671  11.187  0.2277  0.3480  0.7324
  693MPD2    C110245   1.821   0.540  11.162  0.1331 -0.2618 -0.8070
  693MPD2    C210246   1.917   0.462  11.091 -0.5898 -0.5751 -0.7934
  693MPD2    C310247   2.047   0.517  11.078 -0.4702  0.5985  1.0772
  693MPD2    C410248   2.074   0.647  11.106 -0.7626  0.8572 -0.4096
  693MPD2    C510249   1.972   0.725  11.149  0.0136  0.2622 -0.4268
  693MPD2     H10250   1.893   0.365  11.052 -0.4932 -0.5671 -0.8722
  693MPD2    H110251   2.165   0.700  11.080  0.5590 -1.7849 -1.1688
  693MPD2    H210252   1.776   0.727  11.242 -1.6415 -3.5971  2.2429
  693MPD2    H310253   1.997   0.828  11.173 -1.4466  0.1653  1.4858
  693MPD2     N10254   2.150   0.449  11.014  0.8902  0.4528  0.2100
  693MPD2    H510255   2.246   0.484  11.013  0.3119  2.0129 -0.9239
  693MPD2    N110256   1.691   0.498  11.193  0.1277  0.0247 -0.0778
  693MPD2    H710257   1.625   0.565  11.232 -1.1583  0.5719 -3.1475
  694TMC3    C110258   1.516   0.342  11.231 -0.5866  0.0588 -0.0542
  694TMC3    C210259   1.418   0.279  11.158  0.3549  0.2422 -1.1650
  694TMC3    C310260   1.320   0.224  11.235  0.1613  0.7554 -0.1528
  694TMC3    C410261   1.520   0.357  11.367  0.0927  0.8012 -0.1495
  694TMC3    C510262   1.414   0.304  11.435 -0.8754 -0.6598 -0.4133
  694TMC3    C610263   1.315   0.232  11.366  0.0810  0.3497  0.6573
  694TMC3     C10264   1.643   0.368  11.168  0.1421 -1.0982 -0.4872
  694TMC3     O10265   1.703   0.276  11.121 -0.4436 -0.2905  0.3019
  694TMC3     H10266   1.418   0.288  11.050 -0.5249 -1.5156 -1.3014
  694TMC3    H110267   1.602   0.406  11.419  0.8903  0.0974 -0.7590
  694TMC3    H210268   1.223   0.197  11.411  0.2675 -0.5414  0.3524
  694TMC3    C710269   1.428   0.297  11.576 -0.1109  0.7574  0.1843
  694TMC3    C810270   1.222   0.140  11.166 -0.0972 -0.0746  0.2021
  694TMC3    O110271   1.506   0.380  11.621  0.1486 -0.3825  0.4971
  694TMC3    O210272   1.151   0.064  11.241 -0.4142  0.3701 -0.3859
  695MPD2     C10273   3.136   2.084  13.636  0.1897  0.6183  0.4694
  695MPD2    C110274   3.070   2.118  13.749  0.4840 -0.1888  0.1498
  695MPD2    C210275   2.929   2.127  13.747  0.2320 -0.3586  0.5502
  695MPD2    C310276   2.858   2.104  13.629  0.2500 -0.1749  0.2171
  695MPD2    C410277   2.925   2.054  13.519 -0.1619  0.0360  0.3751
  695MPD2    C510278   3.061   2.041  13.526  0.4758 -0.6473  0.0829
  695MPD2     H10279   2.871   2.169  13.828  0.0916  1.5225 -0.5260
  695MPD2    H110280   2.875   2.021  13.429 -0.8276  0.8641  0.4373
  695MPD2    H210281   3.243   2.068  13.634 -0.1538 -1.8971  2.5508
  695MPD2    H310282   3.131   2.006  13.451  1.0878 -1.0049  0.8085
  695MPD2     N10283   2.717   2.116  13.625 -0.4065 -0.3946 -0.1245
  695MPD2    H510284   2.670   2.143  13.712  1.5018  0.6951  0.5632
  695MPD2    N110285   3.144   2.167  13.857 -0.1810 -0.3778 -0.1136
  695MPD2    H710286   3.090   2.209  13.932 -1.1324 -1.4567 -0.1895
  696TMC3    C110287   2.502   2.164  13.561  0.1938  0.4633 -0.7680
  696TMC3    C210288   2.461   2.162  13.692 -0.3734 -0.1964  0.5202
  696TMC3    C310289   2.360   2.244  13.734 -0.0107 -0.3007 -0.0762
  696TMC3    C410290   2.433   2.244  13.467 -0.1532 -0.1193  0.1450
  696TMC3    C510291   2.331   2.325  13.512 -0.1605  0.3914  0.1516
  696TMC3    C610292   2.289   2.323  13.645  0.1574  0.2652  0.2911
  696TMC3     C10293   2.635   2.131  13.518  0.0465 -0.0584 -0.2562
  696TMC3     O10294   2.661   2.129  13.399  0.3543  0.4497 -0.3494
  696TMC3     H10295   2.499   2.091  13.766  1.5872 -0.9797 -1.2352
  696TMC3    H110296   2.475   2.243  13.367  1.2968 -1.0238  0.7688
  696TMC3    H210297   2.197   2.373  13.671 -1.6843 -2.4782 -1.0220
  696TMC3    C710298   2.353   2.459  13.465 -0.1296 -0.0848 -0.1566
  696TMC3    C810299   2.377   2.314  13.863  0.2670 -0.2605 -1.2101
  696TMC3    O110300   2.394   2.481  13.353  0.4856  0.6033 -0.4667
  696TMC3    O210301   2.329   2.427  13.867  0.4763  0.1783 -0.1497
  697MPD2     C10302   2.478   4.219  16.051  0.3765 -0.2290 -0.3100
  697MPD2    C110303   2.481   4.155  15.923  0.4155 -0.4167 -0.4699
  697MPD2    C210304   2.509   4.229  15.812 -0.1004  0.8354 -0.3531
  697MPD2    C310305   2.514   4.366  15.820 -0.2793 -0.7329  0.3481
  697MPD2    C410306   2.494   4.434  15.940  0.6649 -0.2831 -0.3745
  697MPD2    C510307   2.466   4.360  16.058  0.2457  0.9223 -0.1634
  697MPD2     H10308   2.516   4.180  15.716  0.7411 -0.4537  0.3618
  697MPD2    H110309   2.495   4.542  15.941 -3.2662 -0.2203 -0.2579
  697MPD2    H210310   2.467   4.163  16.143 -0.0199  2.1354  1.0824
  697MPD2    H310311   2.428   4.406  16.148 -0.3862  0.3058 -0.1099
  697MPD2     N10312   2.539   4.436  15.698  0.4145  0.0721  0.0221
  697MPD2    H510313   2.573   4.387  15.615  1.6705  2.2757 -0.7793
  697MPD2    N110314   2.462   4.015  15.902 -0.4854  0.1216 -0.1080
  697MPD2    H710315   2.443   3.979  15.809 -2.2670  2.1239 -0.5055
  698TMC3    C110316   2.604   4.632  15.572 -1.1856  0.5540  0.1428
  698TMC3    C210317   2.633   0.044  15.583  0.8869  0.3685 -1.2267
  698TMC3    C310318   2.734   0.089  15.510  0.0111  0.5099  0.8975
  698TMC3    C410319   2.681   4.548  15.493 -0.4855 -0.4697 -0.1917
  698TMC3    C510320   2.787   4.605  15.425  0.0189 -0.0362  0.1010
  698TMC3    C610321   2.821   0.013  15.440 -0.1344 -0.2637 -0.0400
  698TMC3     C10322   2.534   4.576  15.682 -0.1316 -0.1227  0.2156
  698TMC3     O10323   2.475   4.654  15.751  0.8839 -0.1262 -0.2866
  698TMC3     H10324   2.570   0.116  15.634 -0.9597 -1.4145 -0.9596
  698TMC3    H110325   2.655   4.445  15.472 -3.2411  0.3652 -0.9096
  698TMC3    H210326   2.882   0.048  15.357  0.9584  1.6659  1.5648
  698TMC3    C710327   2.841   4.546  15.296 -0.5515  1.0447 -0.3469
  698TMC3    C810328   2.693   0.209  15.440 -0.1556  0.3873 -0.1835
  698TMC3    O110329   2.956   4.580  15.260  0.4187  0.5990  0.2416
  698TMC3    O210330   2.571   0.243  15.439 -0.0656  0.2125 -0.2712
  699TMC3    C110331   2.278   2.241  13.091 -0.1707 -0.2966 -0.2503
  699TMC3    C210332   2.275   2.101  13.108 -0.2839 -0.2728 -0.6120
  699TMC3    C310333   2.165   2.053  13.180 -0.3399  0.0171 -0.2109
  699TMC3    C410334   2.185   2.329  13.141 -0.5815 -0.1489 -0.3246
  699TMC3    C510335   2.079   2.272  13.205 -0.3664  0.1382  0.4559
  699TMC3    C610336   2.064   2.139  13.222 -0.2901  0.3925  0.6509
  699TMC3     C10337   2.370   2.298  12.999  0.8656 -0.2667 -0.7209
  699TMC3     O10338   2.344   2.410  12.954  0.1162 -0.1050  0.2854
  699TMC3     H10339   2.345   2.033  13.060  0.8018  0.2499  0.2208
  699TMC3    H110340   2.204   2.435  13.144  2.5204 -0.7027 -0.3479
  699TMC3    H210341   1.982   2.104  13.284 -0.3405 -0.8535 -0.1148
  699TMC3    C710342   2.024   2.348  13.313 -0.1034 -0.6378  0.2353
  699TMC3    C810343   2.194   1.958  13.282  0.7277 -0.5184  0.5412
  699TMC3    O110344   1.984   2.283  13.412 -0.1659 -0.0950 -0.5938
  699TMC3    O210345   2.096   1.914  13.344  0.2791 -0.0797 -0.3657
  700TMC3    C110346   0.985   4.414  17.202  0.1862  0.2621  0.1586
  700TMC3    C210347   1.107   4.349  17.221  0.0998  0.0164  0.2100
  700TMC3    C310348   1.115   4.274  17.336 -0.3024  0.5405  0.4280
  700TMC3    C410349   0.875   4.398  17.283 -0.2470 -0.2690  0.9015
  700TMC3    C510350   0.890   4.310  17.389  0.0923 -0.0609 -0.3905
  700TMC3    C610351   1.009   4.246  17.413 -0.4077 -0.2690  0.3034
  700TMC3     C10352   0.975   4.518  17.104 -0.6171 -0.4676  0.3621
  700TMC3     O10353   0.857   4.546  17.081 -0.1044 -0.4121 -0.9569
  700TMC3     H10354   1.192   4.362  17.154 -1.0809  1.7661 -0.9508
  700TMC3    H110355   0.778   4.444  17.271 -0.6420 -1.5399 -0.7670
  700TMC3    H210356   1.006   4.188  17.505  0.9155  1.0355  1.1742
  700TMC3    C710357   0.814   4.339  17.510 -0.0638 -0.3063  0.6114
  700TMC3    C810358   1.240   4.195  17.360  0.1477  0.5713 -0.0559
  700TMC3    O110359   0.692   4.328  17.498 -0.0569  1.0684  0.8512
  700TMC3    O210360   1.336   4.212  17.287  0.2304 -0.5773  0.7241
  701TMC3    C110361   1.681   3.561  15.901  0.1742 -0.6474 -0.0757
  701TMC3    C210362   1.666   3.508  15.774  0.0704  0.2013  0.2234
  701TMC3    C310363   1.755   3.545  15.676  0.1092  0.5728 -0.4251
  701TMC3    C410364   1.802   3.622  15.931 -1.0249 -0.3035  0.0482
  701TMC3    C510365   1.888   3.652  15.830  0.4038  0.0220 -0.2676
  701TMC3    C610366   1.865   3.613  15.704  0.5536  0.3852  0.1204
  701TMC3     C10367   1.586   3.525  16.013  0.6275 -0.3840  0.0084
  701TMC3     O10368   1.506   3.433  15.993 -0.6027  0.4370  0.1874
  701TMC3     H10369   1.575   3.451  15.759 -0.4328  0.6588  1.5800
  701TMC3    H110370   1.827   3.645  16.034  1.9385  1.3022 -1.0445
  701TMC3    H210371   1.918   3.654  15.619 -1.2687 -0.2632 -1.3518
  701TMC3    C710372   1.987   3.749  15.852 -0.6172 -0.4105  0.6946
  701TMC3    C810373   1.743   3.506  15.537 -0.0751 -0.9070 -0.0864
  701TMC3    O110374   2.062   3.765  15.751 -0.0274  0.1054  0.3757
  701TMC3    O210375   1.834   3.527  15.459  0.5812 -0.2615  0.0569
  702MPD2     C10376   1.018   0.810  11.045 -0.0610 -0.1645 -0.3457
  702MPD2    C110377   0.962   0.929  11.088 -0.4871 -0.7970  0.3783
  702MPD2    C210378   0.947   1.034  11.000 -0.4118 -0.0791  0.2407
  702MPD2    C310379   0.989   1.029  10.870  0.2951 -0.5331 -0.8042
  702MPD2    C410380   1.038   0.907  10.824 -0.0440 -0.0806  0.1662
  702MPD2    C510381   1.044   0.799  10.913  0.5623  0.1700 -0.3540
  702MPD2     H10382   0.934   1.128  11.053  0.6791  0.3583 -0.2795
  702MPD2    H110383   1.080   0.895  10.725 -0.6343 -2.8857  0.2461
  702MPD2    H210384   1.037   0.727  11.112 -1.8398 -1.2474 -1.1904
  702MPD2    H310385   1.096   0.708  10.886  0.0398 -0.5742  1.1619
  702MPD2     N10386   0.992   1.152  10.796  0.2672  0.6143  0.2154
  702MPD2    H510387   1.013   1.138  10.698  1.1488  0.1270  0.4779
  702MPD2    N110388   0.922   0.950  11.218 -0.1871 -0.1213  0.3482
  702MPD2    H710389   0.892   1.046  11.230  0.5637  0.0413  0.8577
  703TMC3    C110390   0.954   1.387  10.748  0.4254 -0.6632  0.6348
  703TMC3    C210391   0.872   1.498  10.776 -0.1507  0.0308  0.5542
  703TMC3    C310392   0.909   1.616  10.726 -0.3966 -0.2787 -0.0134
  703TMC3    C410393   1.071   1.402  10.683  0.3867 -0.4347 -0.1552
  703TMC3    C510394   1.106   1.521  10.627  0.2380 -0.4718  0.2180
  703TMC3    C610395   1.015   1.630  10.640 -0.3018  0.0028  0.7216
  703TMC3     C10396   0.941   1.274  10.839  0.2499 -0.4323 -0.3480
  703TMC3     O10397   0.853   1.292  10.928 -0.0684  0.1543 -0.4387
  703TMC3     H10398   0.773   1.480  10.818 -0.3927 -0.3862 -0.1770
  703TMC3    H110399   1.131   1.316  10.655  2.0480  0.9185 -0.6980
  703TMC3    H210400   1.033   1.717  10.579 -0.0124  0.1084  0.9610
  703TMC3    C710401   1.231   1.542  10.548 -0.5112 -0.5224  0.1331
  703TMC3    C810402   0.850   1.737  10.779  0.0065  0.8381 -0.3761
  703TMC3    O110403   1.259   1.655  10.512 -0.6808 -0.0379 -0.0725
  703TMC3    O210404   0.901   1.840  10.738 -0.5056 -0.2081 -0.5503
  704TMC3    C110405   3.676   4.369  12.291 -0.0876  0.6737  0.9214
  704TMC3    C210406   3.813   4.357  12.284  0.3338 -0.4508  0.2022
  704TMC3    C310407   3.872   4.274  12.373 -0.0643 -0.0837  0.9551
  704TMC3    C410408   3.602   4.292  12.376  0.0547  0.9625 -0.1609
  704TMC3    C510409   3.666   4.226  12.471 -0.3543 -0.1910 -0.2271
  704TMC3    C610410   3.798   4.210  12.475 -0.3885 -0.0852  0.4301
  704TMC3     C10411   3.606   4.440  12.187  0.1049  0.5248  0.3928
  704TMC3     O10412   3.489   4.469  12.210 -0.1214  0.3938 -0.4606
  704TMC3     H10413   3.876   4.400  12.207 -1.4316 -0.4143 -1.2058
  704TMC3    H110414   3.494   4.292  12.365 -0.1507 -1.1382  1.8965
  704TMC3    H210415   3.853   4.144  12.541 -1.9449 -1.2683  0.5451
  704TMC3    C710416   3.588   4.136  12.556 -0.0143 -0.2148  0.6035
  704TMC3    C810417   3.993   4.213  12.320 -1.0627 -0.0351  0.9222
  704TMC3    O110418   3.483   4.179  12.604 -0.3048 -0.9302 -0.1658
  704TMC3    O210419   4.006   4.203  12.200 -0.1552  1.2561 -0.2571
  705MPD2     C10420   2.996   2.102  16.884  0.4782 -0.5760  0.7350
  705MPD2    C110421   2.927   2.036  16.780  0.0694  0.2099 -0.7782
  705MPD2    C210422   2.802   1.981  16.808  0.5440 -0.1367  0.6190
  705MPD2    C310423   2.736   2.007  16.929 -0.8682  0.6377 -0.2478
  705MPD2    C410424   2.811   2.065  17.033 -0.2765  0.2056 -0.7462
  705MPD2    C510425   2.937   2.105  17.005  0.1776 -0.2392  0.2946
  705MPD2     H10426   2.743   1.939  16.727  2.9799  0.7274 -1.5962
  705MPD2    H110427   2.771   2.083  17.132  0.7333  0.7200 -0.4284
  705MPD2    H210428   3.093   2.144  16.860 -2.1473  3.4674 -2.8485
  705MPD2    H310429   2.996   2.159  17.077  1.2623 -1.4231  0.2942
  705MPD2     N10430   2.599   1.967  16.958  0.6069  0.4448 -0.5151
  705MPD2    H510431   2.575   1.974  17.056 -1.0248  2.8689 -1.0897
  705MPD2    N110432   2.974   2.042  16.644 -0.2027 -0.2877  0.3184
  705MPD2    H710433   2.910   2.008  16.573 -0.6914  2.1579 -0.3939
  706TMC3    C110434   3.083   1.952  16.258 -0.2959 -0.2924 -0.4708
  706TMC3    C210435   3.163   2.038  16.190 -0.0369  0.3534  0.6620
  706TMC3    C310436   3.212   2.149  16.255 -0.3436 -0.0581 -0.3620
  706TMC3    C410437   3.050   1.967  16.392  0.2465  0.3288  0.0083
  706TMC3    C510438   3.098   2.082  16.449  0.4094  0.2121 -0.0400
  706TMC3    C610439   3.188   2.169  16.385  0.4415  0.0504 -0.2264
  706TMC3     C10440   3.110   1.807  16.237  0.0872 -0.5804  0.4171
  706TMC3     O10441   3.126   1.737  16.335  0.2277  0.2699  0.8689
  706TMC3     H10442   3.189   2.020  16.086  0.6294  0.7089  0.7636
  706TMC3    H110443   2.998   1.891  16.448  0.3848 -0.3537 -0.7885
  706TMC3    H210444   3.234   2.249  16.442 -2.2848 -0.6915  3.0311
  706TMC3    C710445   3.090   2.095  16.594 -0.2818 -0.0439 -0.2329
  706TMC3    C810446   3.253   2.264  16.176 -0.5179  0.6245 -1.2683
  706TMC3    O110447   3.172   2.170  16.641  0.4472 -0.3174 -0.1972
  706TMC3    O210448   3.213   2.264  16.062 -0.8449 -0.4801 -0.1053
  707TMC3    C110449   4.104   0.672   1.501 -0.5093 -0.7015  0.1567
  707TMC3    C210450   4.123   0.598   1.616  0.6228 -0.1920 -0.0435
  707TMC3    C310451   4.049   0.487   1.635 -0.6791  0.3279 -0.2865
  707TMC3    C410452   4.011   0.643   1.410 -0.6158  0.4447  0.3014
  707TMC3    C510453   3.945   0.521   1.425 -0.1807 -0.4079  0.6311
  707TMC3    C610454   3.958   0.446   1.539 -0.6742 -0.3317 -0.8089
  707TMC3     C10455   4.218   0.749   1.476  0.2298 -0.9329 -0.2879
  707TMC3     O10456   4.326   0.710   1.527 -0.2671 -0.0246  0.3978
  707TMC3     H10457   4.195   0.631   1.690  1.1116 -2.2350  0.3910
  707TMC3    H110458   4.006   0.698   1.316 -1.0787 -1.5635 -0.8400
  707TMC3    H210459   3.910   0.353   1.566  0.4206 -1.0569 -1.3540
  707TMC3    C710460   3.825   0.492   1.352 -0.2807  0.8397  0.5737
  707TMC3    C810461   4.091   0.388   1.728  0.0094  0.5029 -0.2352
  707TMC3    O110462   3.759   0.395   1.393 -0.4576 -0.1036 -0.1423
  707TMC3    O210463   3.997   0.327   1.780  0.2800 -0.3283 -0.1518
  708MPD2     C10464   1.814   0.257  14.217 -0.2749 -0.2121 -0.5426
  708MPD2    C110465   1.756   0.382  14.197 -0.5843 -0.6219 -0.4316
  708MPD2    C210466   1.637   0.405  14.268 -0.1712  0.6317  0.2063
  708MPD2    C310467   1.597   0.316  14.365 -0.4668  0.0400  0.2547
  708MPD2    C410468   1.662   0.193  14.381 -0.2249 -0.1016  0.0882
  708MPD2    C510469   1.773   0.163  14.309  0.1443 -0.5411 -0.0359
  708MPD2     H10470   1.597   0.506  14.260  0.3051  0.9300  1.4514
  708MPD2    H110471   1.632   0.115  14.450 -0.6973  0.1299  0.1496
  708MPD2    H210472   1.911   0.242  14.173 -1.6716 -1.8385 -3.0720
  708MPD2    H310473   1.836   0.077  14.329  1.0188 -0.1967 -1.2986
  708MPD2     N10474   1.492   0.360  14.453 -0.0639 -0.5028 -0.1824
  708MPD2    H510475   1.460   0.455  14.439 -1.6408 -0.6999  2.0925
  708MPD2    N110476   1.815   0.486  14.117  0.3593  0.4134  0.4576
  708MPD2    H710477   1.909   0.460  14.089 -0.9778 -2.3007 -1.5292
  709TMC3    C110478   1.864   0.711  14.040  0.0482 -0.0723 -1.1914
  709TMC3    C210479   1.884   0.715  13.906 -0.2491  0.0153 -0.2600
  709TMC3    C310480   1.901   0.835  13.851 -0.9755 -0.4866  0.2766
  709TMC3    C410481   1.845   0.821  14.113  0.2386  0.9277 -0.4494
  709TMC3    C510482   1.835   0.942  14.047  0.5911  0.4667 -0.8362
  709TMC3    C610483   1.869   0.946  13.920  0.1818  0.3385 -0.7307
  709TMC3     C10484   1.764   0.610  14.075 -0.2945 -0.3327  0.1565
  709TMC3     O10485   1.650   0.653  14.088 -0.2038 -0.0400  0.2650
  709TMC3     H10486   1.899   0.625  13.847  1.0489  0.3759 -0.4581
  709TMC3    H110487   1.817   0.805  14.216  1.5419  1.3738 -0.0197
  709TMC3    H210488   1.873   1.044  13.874 -2.1197  1.1809  0.8824
  709TMC3    C710489   1.726   1.020  14.096 -0.3175 -0.3346 -0.5208
  709TMC3    C810490   1.934   0.857  13.710  0.4245  0.0673 -1.1365
  709TMC3    O110491   1.704   1.134  14.054  0.0593 -0.3351 -0.2410
  709TMC3    O210492   1.898   0.966  13.665 -0.2072  0.3062 -0.2060
  710TMC3    C110493   2.145   1.091   0.727  0.2019  0.5962 -0.9079
  710TMC3    C210494   2.175   1.206   0.653  0.1178 -0.7792  0.2188
  710TMC3    C310495   2.280   1.209   0.563  0.1615 -0.9788 -0.4429
  710TMC3    C410496   2.231   0.980   0.716 -0.0356 -0.1125  0.2172
  710TMC3    C510497   2.334   0.981   0.619 -0.6470 -0.7269 -0.1116
  710TMC3    C610498   2.352   1.088   0.537 -0.4005 -0.2931  0.2440
  710TMC3     C10499   2.053   1.096   0.831 -0.4088  0.4352  0.2019
  710TMC3     O10500   1.975   1.004   0.852 -0.2412  0.3835 -0.2198
  710TMC3     H10501   2.114   1.293   0.676  0.5854 -0.6100  0.8314
  710TMC3    H110502   2.212   0.896   0.782  1.3640  0.1735  0.9803
  710TMC3    H210503   2.438   1.077   0.473 -0.5397 -0.2616  0.0500
  710TMC3    C710504   2.448   0.888   0.640  0.0280  0.0930 -0.3857
  710TMC3    C810505   2.330   1.333   0.499 -0.0330  0.4235  0.1681
  710TMC3    O110506   2.539   0.893   0.558 -0.3464 -0.4010  0.7336
  710TMC3    O210507   2.405   1.328   0.402 -0.2792 -0.4333  0.3541
  711TMC3    C110508   1.994   3.262  15.351  0.1426  0.2907 -0.0401
  711TMC3    C210509   2.063   3.354  15.428 -0.1511 -0.0067 -0.2470
  711TMC3    C310510   2.203   3.363  15.422  0.7534 -0.6443  0.7270
  711TMC3    C410511   2.068   3.181  15.261 -0.2143  0.7291 -0.1371
  711TMC3    C510512   2.200   3.193  15.257  0.1902  0.4741  0.5825
  711TMC3    C610513   2.265   3.289  15.326  0.1061  0.6337  0.0844
  711TMC3     C10514   1.889   3.197  15.427 -0.0510 -0.0647 -0.2161
  711TMC3     O10515   1.893   3.214  15.551 -0.3003  0.3912  0.9921
  711TMC3     H10516   2.013   3.389  15.518  1.0937  0.4037  0.2884
  711TMC3    H110517   2.023   3.091  15.221  1.6313 -0.2085 -0.0813
  711TMC3    H210518   2.371   3.310  15.313 -0.2047  1.2639 -1.4958
  711TMC3    C710519   2.280   3.071  15.254  0.8533  1.0659  0.4893
  711TMC3    C810520   2.260   3.330  15.555  0.2449  0.0028  0.0916
  711TMC3    O110521   2.381   3.069  15.319  0.2098  0.1340 -0.1156
  711TMC3    O210522   2.205   3.372  15.660 -0.1443  0.4601  0.3175
  712MPD2     C10523   4.170   3.974  13.860 -0.2192  0.9284 -0.1115
  712MPD2    C110524   4.117   4.007  13.739 -0.4729  0.5100 -0.3537
  712MPD2    C210525   4.172   4.105  13.663 -0.5368  1.0696 -0.0571
  712MPD2    C310526   4.281   4.173  13.706  0.0898  0.0603  0.1463
  712MPD2    C410527   4.337   4.143  13.827 -0.3250 -0.7852  0.2833
  712MPD2    C510528   4.277   4.046  13.903  0.0260  0.3135 -0.2388
  712MPD2     H10529   4.135   4.139  13.567  0.1675  3.3957  0.5098
  712MPD2    H110530   4.415   4.199  13.879  1.8092 -0.8161 -2.8434
  712MPD2    H210531   4.129   3.898  13.926  1.6633  0.0504  0.0642
  712MPD2    H310532   4.333   4.013  13.989  0.4384  0.8303 -0.3075
  712MPD2     N10533   4.335   4.290  13.644 -0.4527  0.3385  0.2852
  712MPD2    H510534   4.402   4.334  13.706  0.1360  0.0685 -0.1577
  712MPD2    N110535   4.004   3.938  13.689  0.4354  0.5323  0.0803
  712MPD2    H710536   3.987   3.958  13.591 -2.7342  0.9175  0.6999
  713TMC3    C110537   4.355   4.473  13.496  0.0400 -0.2791 -0.0502
  713TMC3    C210538   4.449   4.526  13.588 -0.5503 -0.1802  0.0695
  713TMC3    C310539   4.491   4.657  13.571 -0.1450  0.3720  0.1980
  713TMC3    C410540   4.300   4.556  13.400  0.0275 -0.2685  0.7770
  713TMC3    C510541   4.348   4.681  13.383 -0.1541 -1.0280 -0.0031
  713TMC3    C610542   4.439   0.009  13.464 -0.5184 -0.5352 -0.2944
  713TMC3     C10543   4.285   4.350  13.531  0.1235 -0.0457 -0.2888
  713TMC3     O10544   4.192   4.324  13.456 -0.2749 -0.4569 -0.0805
  713TMC3     H10545   4.484   4.474  13.676 -0.6738  0.3579  0.4381
  713TMC3    H110546   4.228   4.515  13.329  0.1575  0.3732  0.2745
  713TMC3    H210547   4.465   0.113  13.453 -0.5209 -0.5646 -0.5811
  713TMC3    C710548   4.276   0.059  13.314 -0.2100 -0.4579 -0.5474
  713TMC3    C810549   4.569   0.006  13.663  0.8023 -0.7020 -0.0468
  713TMC3    O110550   4.345   0.139  13.249  0.2801 -0.2278  0.7697
  713TMC3    O210551   4.638   0.086  13.608 -0.7370 -0.2015 -0.4661
  714MPD2     C10552   1.486   2.363   2.396 -0.1919  0.9395  0.1230
  714MPD2    C110553   1.489   2.311   2.267  0.0223 -0.0094  0.7620
  714MPD2    C210554   1.362   2.304   2.209 -0.3225  0.2504  0.1714
  714MPD2    C310555   1.248   2.356   2.269 -0.5967  0.6788  0.1407
  714MPD2    C410556   1.257   2.408   2.396  0.1756  0.6437  0.2402
  714MPD2    C510557   1.376   2.405   2.456  0.4974 -0.2213 -0.1317
  714MPD2     H10558   1.347   2.261   2.111 -0.2572 -0.7367  0.5991
  714MPD2    H110559   1.170   2.440   2.452  0.4947 -1.2759  1.8025
  714MPD2    H210560   1.573   2.374   2.461 -0.7811  0.3073  1.0206
  714MPD2    H310561   1.386   2.445   2.556 -0.4162 -1.4836  0.4673
  714MPD2     N10562   1.128   2.337   2.201  0.0449  0.6738  0.4123
  714MPD2    H510563   1.125   2.286   2.113 -2.4019  0.0553  0.8640
  714MPD2    N110564   1.612   2.268   2.207  0.2761 -0.1580  0.2443
  714MPD2    H710565   1.686   2.253   2.275  2.0955  1.7255 -1.3574
  715TMC3    C110566   1.739   2.151   2.044 -0.8559  0.7038 -0.3096
  715TMC3    C210567   1.729   2.067   1.937  0.1351 -0.1981  0.4825
  715TMC3    C310568   1.840   2.002   1.894 -0.0031 -0.0976  0.2971
  715TMC3    C410569   1.865   2.190   2.090  0.4089  0.0650  0.8498
  715TMC3    C510570   1.978   2.135   2.031 -0.4083  0.3327 -0.7252
  715TMC3    C610571   1.966   2.036   1.927 -0.0640  0.0920 -0.2806
  715TMC3     C10572   1.621   2.227   2.078  0.4353  0.1720 -0.5357
  715TMC3     O10573   1.528   2.221   2.001 -0.7666  0.1590  0.5368
  715TMC3     H10574   1.630   2.043   1.899  0.5580 -2.3058  0.7168
  715TMC3    H110575   1.871   2.269   2.163  3.4226 -0.9026  1.6653
  715TMC3    H210576   2.056   1.987   1.892  0.2454  0.8961 -0.6162
  715TMC3    C710577   2.107   2.161   2.089  0.4824 -0.5004 -0.1512
  715TMC3    C810578   1.815   1.895   1.799  0.6403 -0.4751 -0.3681
  715TMC3    O110579   2.204   2.100   2.046  0.1717 -0.1444 -0.1189
  715TMC3    O210580   1.704   1.878   1.754  0.4387  0.1449 -0.2164
  716MPD2     C10581   1.060   0.153  10.294  0.2555  0.7424 -0.0229
  716MPD2    C110582   0.981   0.238  10.230 -0.6132  0.9079 -0.3902
  716MPD2    C210583   0.866   0.193  10.167 -0.0056  0.4211  0.0132
  716MPD2    C310584   0.839   0.058  10.178 -0.2744 -0.3937  0.3790
  716MPD2    C410585   0.908   4.695  10.259  0.2841  0.3389  0.4261
  716MPD2    C510586   1.025   0.027  10.315 -0.4181 -0.8017 -0.1060
  716MPD2     H10587   0.819   0.253  10.091 -2.1590 -1.5547 -0.2273
  716MPD2    H110588   0.886   4.591  10.279  2.8004 -0.0961  0.9076
  716MPD2    H210589   1.148   0.187  10.347  2.0622 -4.0771  0.0310
  716MPD2    H310590   1.085   4.683  10.379  1.6971 -0.0470 -1.3255
  716MPD2     N10591   0.729   0.012  10.111 -0.4733  0.2178 -0.3323
  716MPD2    H510592   0.670   0.081  10.066  1.7329  1.8085 -0.8418
  716MPD2    N110593   1.040   0.363  10.202  0.1780  0.1409 -0.6735
  716MPD2    H710594   1.136   0.370  10.235  0.6832 -1.4433 -1.8353
  717TMC3    C110595   0.568   4.567  10.054  0.4399  0.3521 -1.1988
  717TMC3    C210596   0.473   4.668  10.029 -0.1327 -0.1451  0.4419
  717TMC3    C310597   0.369   4.633   9.940  0.9731  0.0009  0.0926
  717TMC3    C410598   0.542   4.442  10.009  0.0726 -0.3860 -0.5221
  717TMC3    C510599   0.448   4.415   9.923  0.9355 -0.7538  0.7875
  717TMC3    C610600   0.355   4.506   9.893 -0.1776  0.5689  0.8745
  717TMC3     C10601   0.700   4.596  10.104  0.8374 -0.3366 -0.2993
  717TMC3     O10602   0.775   4.499  10.120 -0.1259 -0.1151 -0.8451
  717TMC3     H10603   0.471   0.046  10.074 -0.2122 -1.0666  2.4341
  717TMC3    H110604   0.622   4.370  10.016  1.2678  0.8400 -1.5361
  717TMC3    H210605   0.277   4.469   9.827  1.2340  1.0279 -1.0103
  717TMC3    C710606   0.452   4.279   9.868 -1.0240 -0.3887 -0.1383
  717TMC3    C810607   0.261   0.002   9.919 -0.1141 -0.7322  0.2423
  717TMC3    O110608   0.514   4.194   9.925 -0.0897  0.0576  0.4562
  717TMC3    O210609   0.151   4.684   9.876  0.0288  0.0484 -0.1096
  718MPD2     C10610   0.146   4.578  13.425  0.1970  0.2636  0.4381
  718MPD2    C110611   0.168   4.503  13.313 -0.0582  0.2206 -0.1845
  718MPD2    C210612   0.265   4.406  13.315 -0.2109 -0.7586  0.2458
  718MPD2    C310613   0.330   4.373  13.432  0.2431  0.1651  0.4809
  718MPD2    C410614   0.314   4.450  13.550 -0.2418 -0.8957 -0.3572
  718MPD2    C510615   0.223   4.556  13.539  0.0080  0.6462 -0.2727
  718MPD2     H10616   0.290   4.365  13.218 -1.2816  2.4356 -1.4043
  718MPD2    H110617   0.362   4.429  13.645 -1.9333 -2.1527  0.2192
  718MPD2    H210618   0.067   4.652  13.433 -1.4287 -1.4187 -0.1132
  718MPD2    H310619   0.209   4.625  13.622 -1.8209  0.5238 -0.4766
  718MPD2     N10620   0.418   4.266  13.414  0.1373 -0.3837  0.4942
  718MPD2    H510621   0.400   4.218  13.326 -1.4652  0.6407  0.2648
  718MPD2    N110622   0.118   4.533  13.186 -0.6097  0.3473 -0.2716
  718MPD2    H710623   0.156   4.473  13.114 -1.8479  0.5723 -1.1087
  719TMC3    C110624   0.019   4.620  13.002  0.1141  0.5049 -0.0038
  719TMC3    C210625   0.033   4.486  12.960 -0.0462  0.1549 -0.4635
  719TMC3    C310626   0.109   4.461  12.845 -0.0353 -0.7392 -0.7313
  719TMC3    C410627   0.069   0.002  12.928 -0.1202 -0.3932 -0.2086
  719TMC3    C510628   0.136   4.694  12.813 -0.7805 -0.3556 -0.1702
  719TMC3    C610629   0.165   4.568  12.776 -0.4198 -0.4578 -0.6720
  719TMC3     C10630   0.046   4.640  13.146  0.0383  0.1935  0.1975
  719TMC3     O10631   0.018   0.025  13.202 -0.1400  0.3699 -0.6225
  719TMC3     H10632   4.687   4.410  13.000  2.2398 -1.7748 -0.3411
  719TMC3    H110633   0.040   0.105  12.948  1.5068  0.3111 -1.5210
  719TMC3    H210634   0.227   4.553  12.689 -0.8015 -1.5328 -0.7620
  719TMC3    C710635   0.236   0.069  12.767  0.1841  0.6264 -0.5251
  719TMC3    C810636   0.210   4.366  12.887 -0.1224 -0.5404  0.1191
  719TMC3    O110637   0.341   0.024  12.720  0.1798 -0.1186 -0.0531
  719TMC3    O210638   0.213   4.340  13.006 -0.6214 -0.4614 -0.4969
  720MPD2     C10639   3.392   1.325  14.168 -0.0327  0.0071  0.2682
  720MPD2    C110640   3.479   1.314  14.059 -0.1206  1.2688  0.5577
  720MPD2    C210641   3.598   1.252  14.082 -0.4102  0.5689  0.2082
  720MPD2    C310642   3.636   1.210  14.207 -0.2010  0.1000  0.5225
  720MPD2    C410643   3.546   1.214  14.316  0.1935  0.1754  0.4667
  720MPD2    C510644   3.423   1.271  14.291  0.5522 -0.6782  0.0180
  720MPD2     H10645   3.667   1.237  14.000 -1.2776 -1.2073 -0.2037
  720MPD2    H110646   3.575   1.168  14.410  0.4328 -0.9619 -0.1588
  720MPD2    H210647   3.294   1.372  14.162 -0.2239 -0.8496 -3.2722
  720MPD2    H310648   3.350   1.288  14.370 -0.0489  1.3682 -0.9846
  720MPD2     N10649   3.768   1.165  14.214 -0.0283  0.0435 -0.1129
  720MPD2    H510650   3.812   1.161  14.123 -0.6101 -2.0104 -0.3173
  720MPD2    N110651   3.460   1.359  13.929  0.6246 -0.4195  0.5282
  720MPD2    H710652   3.542   1.344  13.871  0.8012  2.3604  0.0656
  721TMC3    C110653   3.979   1.105  14.313  0.3854 -0.6265  0.1374
  721TMC3    C210654   4.053   1.054  14.421  0.3298 -0.1150 -0.2358
  721TMC3    C310655   4.191   1.048  14.405  0.3736 -0.4082 -0.5697
  721TMC3    C410656   4.040   1.155  14.198 -0.4255 -0.0859 -0.3525
  721TMC3    C510657   4.171   1.140  14.196  0.0174  0.4348 -0.5339
  721TMC3    C610658   4.249   1.085  14.292  1.3806  1.0778 -0.5364
  721TMC3     C10659   3.829   1.112  14.327  0.0701 -0.1402 -0.2162
  721TMC3     O10660   3.791   1.094  14.444  0.3199 -0.1125 -0.1860
  721TMC3     H10661   3.997   1.002  14.498 -1.3533  0.9248 -0.7678
  721TMC3    H110662   3.983   1.212  14.125  1.5082  3.0025  0.5491
  721TMC3    H210663   4.357   1.079  14.286  1.4650  0.8799  1.2147
  721TMC3    C710664   4.249   1.188  14.080 -0.0630  0.0133  0.8128
  721TMC3    C810665   4.273   0.994  14.510  0.3452 -0.1595 -0.2471
  721TMC3    O110666   4.359   1.236  14.104  0.5146  0.1380 -0.1887
  721TMC3    O210667   4.392   0.986  14.486  0.3170  0.2529 -0.5691
  722MPD2     C10668   3.073   4.495  13.323 -0.1518  0.5743  0.0158
  722MPD2    C110669   3.057   4.564  13.441  1.0379 -0.8308 -0.6178
  722MPD2    C210670   2.934   4.552  13.514  0.3737  0.0103  0.2887
  722MPD2    C310671   2.828   4.485  13.456 -1.0295  0.2123 -0.2445
  722MPD2    C410672   2.845   4.414  13.342  0.6156 -0.5085 -0.0397
  722MPD2    C510673   2.965   4.418  13.274 -0.3455 -0.1021  0.6246
  722MPD2     H10674   2.920   4.610  13.604  0.3537  0.9653 -0.3388
  722MPD2    H110675   2.768   4.360  13.288  1.8205 -0.7400 -1.5156
  722MPD2    H210676   3.160   4.505  13.260  0.2250  0.3025  0.4986
  722MPD2    H310677   2.973   4.366  13.179 -1.1240  0.3260  0.3236
  722MPD2     N10678   2.702   4.499  13.525  0.3530  0.3127  0.2196
  722MPD2    H510679   2.702   4.558  13.608 -3.5002  1.3695 -0.5558
  722MPD2    N110680   3.146   4.671  13.488  0.4432 -0.1008  0.3823
  722MPD2    H710681   3.109   0.021  13.551 -0.4405 -0.7518  0.5928
  723TMC3    C110682   2.477   4.459  13.567  0.1332 -0.0454  0.5610
  723TMC3    C210683   2.374   4.358  13.574 -0.1371  0.6449 -0.1462
  723TMC3    C310684   2.285   4.372  13.668  0.1808 -0.1999  0.0963
  723TMC3    C410685   2.473   4.580  13.643  0.1471 -0.2274 -0.7143
  723TMC3    C510686   2.370   4.576  13.736 -0.3057  0.0585  0.5650
  723TMC3    C610687   2.278   4.478  13.757 -0.3716  0.4999 -0.3340
  723TMC3     C10688   2.587   4.427  13.488 -0.0295 -0.0149  0.0270
  723TMC3     O10689   2.583   4.325  13.421 -0.3027  0.2073  0.4129
  723TMC3     H10690   2.383   4.268  13.515 -1.2566  1.7579 -1.9847
  723TMC3    H110691   2.541   4.664  13.639 -0.0740  0.0508  1.3437
  723TMC3    H210692   2.194   4.494  13.824  1.7566 -0.2500  2.5000
  723TMC3    C710693   2.355   4.693  13.823 -0.4483  0.1322 -0.0650
  723TMC3    C810694   2.183   4.264  13.695 -0.2010 -0.0878 -0.8379
  723TMC3    O110695   2.295   4.673  13.927 -0.4944  0.4021 -0.2504
  723TMC3    O210696   2.160   4.232  13.809 -0.2806  0.5064 -0.1616
  724TMC3    C110697   1.761   2.461   9.606  0.0941 -0.4046 -0.2393
  724TMC3    C210698   1.716   2.591   9.582  0.0797  0.2213 -0.2449
  724TMC3    C310699   1.797   2.671   9.506 -0.2926  0.1120 -0.1865
  724TMC3    C410700   1.872   2.408   9.555 -0.2180 -0.0732  1.4586
  724TMC3    C510701   1.950   2.494   9.479  0.1445 -0.5138 -0.2542
  724TMC3    C610702   1.918   2.627   9.449  0.7459 -0.6563  0.5243
  724TMC3     C10703   1.681   2.382   9.697  0.2352 -0.1893 -0.8042
  724TMC3     O10704   1.720   2.277   9.744 -0.0816 -0.3890  0.1874
  724TMC3     H10705   1.665   2.636   9.666  1.3401  1.5891 -0.2219
  724TMC3    H110706   1.896   2.305   9.579 -1.8061 -0.3644  1.7957
  724TMC3    H210707   1.965   2.686   9.372 -1.6577 -0.4251 -0.7729
  724TMC3    C710708   2.061   2.445   9.401 -0.2563 -0.3443 -0.5175
  724TMC3    C810709   1.764   2.813   9.495 -0.4749 -0.6085 -0.2232
  724TMC3    O110710   2.136   2.531   9.356 -0.2541 -0.2755 -0.2306
  724TMC3    O210711   1.650   2.842   9.519  0.1871  0.8931  0.5603
  725TMC3    C110712   3.934   1.548  13.012 -0.5911  0.0460  0.0414
  725TMC3    C210713   3.898   1.599  12.891  0.8902 -0.4001 -0.0435
  725TMC3    C310714   3.895   1.508  12.783  0.0551  0.3227  0.1385
  725TMC3    C410715   3.956   1.414  13.023 -0.5190  0.2989  0.4278
  725TMC3    C510716   3.943   1.324  12.922 -0.1920  0.4310 -0.1800
  725TMC3    C610717   3.915   1.373  12.797 -0.2192 -0.5952  0.3788
  725TMC3     C10718   4.025   1.633  13.092 -0.5688  0.3586  0.5927
  725TMC3     O10719   4.056   1.744  13.046  0.5752  0.1840  0.0498
  725TMC3     H10720   3.891   1.706  12.875 -0.4208 -0.5991 -0.8303
  725TMC3    H110721   3.991   1.374  13.118  0.1180  0.2180  0.1601
  725TMC3    H210722   3.898   1.301  12.717  1.3433 -0.4634 -0.0799
  725TMC3    C710723   4.022   1.203  12.943  0.0033  0.0487 -0.1216
  725TMC3    C810724   3.848   1.557  12.656  0.3062  0.2008 -0.1172
  725TMC3    O110725   4.038   1.168  13.059 -0.1648 -0.0430  0.0378
  725TMC3    O210726   3.781   1.484  12.584  0.3487 -0.3698  0.4019
  726MPD2     C10727   1.787   3.200  10.191  0.1212 -0.1924  0.5982
  726MPD2    C110728   1.878   3.223  10.290 -0.1297 -0.2921  0.2391
  726MPD2    C210729   1.860   3.176  10.420  0.3359 -0.2718  0.0742
  726MPD2    C310730   1.741   3.105  10.452 -0.3748 -0.0478  1.0947
  726MPD2    C410731   1.649   3.094  10.354 -0.7805 -0.9845  0.2049
  726MPD2    C510732   1.673   3.140  10.224  0.2529  0.5804  0.1203
  726MPD2     H10733   1.935   3.197  10.496 -0.5341  1.4465  0.4508
  726MPD2    H110734   1.573   3.019  10.375 -1.4453 -0.9209 -1.9919
  726MPD2    H210735   1.805   3.240  10.092 -0.8887 -2.7636 -0.6325
  726MPD2    H310736   1.596   3.128  10.149  0.2508  1.2125  0.0142
  726MPD2     N10737   1.726   3.033  10.575 -0.4083  0.4350 -0.0137
  726MPD2    H510738   1.649   2.967  10.580  0.7978 -0.9566  0.1895
  726MPD2    N110739   1.994   3.302  10.261  0.0856  0.7357  0.6486
  726MPD2    H710740   2.055   3.306  10.342  0.1893 -0.4097  0.6281
  727TMC3    C110741   2.124   3.479  10.181 -0.3958  0.3923  0.3331
  727TMC3    C210742   2.240   3.434  10.240 -0.4601 -0.3844  0.4664
  727TMC3    C310743   2.320   3.524  10.300 -0.3441  0.2319  0.4449
  727TMC3    C410744   2.108   3.613  10.167 -0.8046 -0.2743  0.1547
  727TMC3    C510745   2.197   3.703  10.227  0.1865  0.4474 -0.1981
  727TMC3    C610746   2.293   3.660  10.310 -0.1546 -0.3911  0.5150
  727TMC3     C10747   2.008   3.392  10.158 -0.2626  0.5359 -0.4140
  727TMC3     O10748   1.924   3.448  10.087 -0.0569  0.2158  0.0456
  727TMC3     H10749   2.264   3.328  10.236  0.1198 -0.1735 -1.6448
  727TMC3    H110750   2.011   3.647  10.132 -0.8551 -0.1877  0.3819
  727TMC3    H210751   2.357   3.721  10.374  0.3446 -1.2218  0.8135
  727TMC3    C710752   2.140   3.838  10.254  1.5743  0.0001 -0.5044
  727TMC3    C810753   2.429   3.466  10.378  0.1098 -1.2453 -0.4265
  727TMC3    O110754   2.029   3.857  10.203 -0.0554 -0.2488  0.1439
  727TMC3    O210755   2.469   3.357  10.341  0.6015  0.4491  0.0294
  728TMC3    C110756   1.319   1.469  15.788  0.1871 -0.8878 -0.2530
  728TMC3    C210757   1.452   1.493  15.784  0.4316  0.0165  0.0120
  728TMC3    C310758   1.497   1.553  15.667  0.4059 -0.7483 -0.7839
  728TMC3    C410759   1.239   1.487  15.675 -0.1813  0.2883 -0.6593
  728TMC3    C510760   1.288   1.544  15.566  0.7233 -0.1748  0.0654
  728TMC3    C610761   1.417   1.582  15.562 -0.1553  0.7333 -0.0529
  728TMC3     C10762   1.275   1.386  15.896 -1.0189  0.4861  0.5811
  728TMC3     O10763   1.368   1.339  15.957 -0.7103 -0.2626  0.6146
  728TMC3     H10764   1.525   1.482  15.864  1.1294  1.2178 -0.4593
  728TMC3    H110765   1.138   1.449  15.665 -0.0162 -0.6532  1.2302
  728TMC3    H210766   1.454   1.632  15.473 -0.9366  2.0179  0.3346
  728TMC3    C710767   1.198   1.602  15.474  0.1782  0.4739  0.1827
  728TMC3    C810768   1.643   1.555  15.662  0.5104  0.4804 -0.1738
  728TMC3    O110769   1.095   1.541  15.446  0.0991  0.0900 -0.0436
  728TMC3    O210770   1.707   1.573  15.766 -0.2045 -0.5314  0.6999
  729MPD2     C10771   3.652   2.548  16.912 -0.3197 -0.7082 -0.7688
  729MPD2    C110772   3.746   2.451  16.943 -0.0357  0.4184 -1.1384
  729MPD2    C210773   3.762   2.410  17.074  0.2067  0.1523 -0.0998
  729MPD2    C310774   3.685   2.471  17.177  0.1113 -0.2371 -0.0723
  729MPD2    C410775   3.593   2.567  17.139 -0.0629 -0.2484  0.2722
  729MPD2    C510776   3.579   2.604  17.010  0.2946 -0.3502 -0.0072
  729MPD2     H10777   3.841   2.339  17.096  1.6240  1.7119 -0.1060
  729MPD2    H110778   3.526   2.613  17.211  1.9902  3.0741  0.0157
  729MPD2    H210779   3.629   2.582  16.812  1.1154  1.2989 -0.4268
  729MPD2    H310780   3.505   2.676  16.977  3.0362  2.7128  0.6364
  729MPD2     N10781   3.715   2.455  17.315 -0.6644 -0.3254 -0.3971
  729MPD2    H510782   3.686   2.531  17.375  0.0321 -0.2999 -0.0864
  729MPD2    N110783   3.832   2.417  16.836  0.7160 -0.3936  0.2906
  729MPD2    H710784   3.805   2.452  16.744 -2.7826 -0.4792  1.2557
  730TMC3    C110785   3.837   2.395  17.506  0.6712 -0.2373 -0.9540
  730TMC3    C210786   3.972   2.414  17.517  0.2157  0.3609  0.5087
  730TMC3    C310787   4.010   2.533  17.577  0.6108  0.1653 -0.0107
  730TMC3    C410788   3.749   2.468  17.573  0.5501 -0.1523  0.2956
  730TMC3    C510789   3.794   2.586  17.629  0.3596  0.1291 -0.5309
  730TMC3    C610790   3.922   2.623  17.645 -0.3298 -0.0543 -0.1534
  730TMC3     C10791   3.798   2.359  17.370 -0.4868  0.2527  0.2086
  730TMC3     O10792   3.864   2.272  17.311  0.7492 -0.0940 -0.5122
  730TMC3     H10793   4.047   2.357  17.464  1.0835  2.0212 -0.0609
  730TMC3    H110794   3.644   2.447  17.560  0.6793 -0.6211  0.0399
  730TMC3    H210795   3.954   2.725  17.667 -0.0184  0.1075 -1.3471
  730TMC3    C710796   3.685   2.682  17.622  0.2684  0.0471  0.2413
  730TMC3    C810797   4.122   2.593  17.526  0.3889  0.2795 -0.1622
  730TMC3    O110798   3.599   2.668  17.538 -0.2115 -0.3296 -0.5644
  730TMC3    O210799   4.153   2.570  17.410  0.0534 -0.7049  0.1046
  731MPD2     C10800   3.586   1.474  12.139 -0.2007 -0.1820  0.7106
  731MPD2    C110801   3.607   1.339  12.131 -0.7015  0.1669 -0.1150
  731MPD2    C210802   3.544   1.263  12.225  0.3107  0.4118  0.1985
  731MPD2    C310803   3.464   1.321  12.325 -0.3460  0.2128  0.4946
  731MPD2    C410804   3.440   1.456  12.330 -0.3169 -0.1238 -1.0093
  731MPD2    C510805   3.512   1.524  12.240  0.3162  0.9587  0.6510
  731MPD2     H10806   3.553   1.155  12.216  0.2130  0.3381  0.9996
  731MPD2    H110807   3.375   1.508  12.399 -1.0609 -1.2858 -0.8313
  731MPD2    H210808   3.631   1.548  12.075  0.5650 -0.4133  0.9824
  731MPD2    H310809   3.493   1.631  12.247  1.2609  1.2136 -0.6686
  731MPD2     N10810   3.407   1.232  12.416 -0.0809  0.3000  0.0854
  731MPD2    H510811   3.402   1.134  12.391  1.9146 -0.1698  1.4972
  731MPD2    N110812   3.692   1.278  12.045  0.3685  0.1295  0.1829
  731MPD2    H710813   3.691   1.177  12.055 -0.0391  0.0034 -1.0871
  732TMC3    C110814   3.858   1.249  11.884 -0.5164  0.6322  0.3601
  732TMC3    C210815   3.806   1.130  11.840 -0.1890 -0.4459  0.0038
  732TMC3    C310816   3.885   1.059  11.759  0.3389 -0.7470 -0.4147
  732TMC3    C410817   3.977   1.303  11.842  0.0700  0.0037  0.0807
  732TMC3    C510818   4.048   1.223  11.757 -0.4267  0.4854 -0.0727
  732TMC3    C610819   4.005   1.097  11.716 -0.1324  0.3262 -0.0496
  732TMC3     C10820   3.790   1.341  11.974  0.0128 -0.1030 -0.0195
  732TMC3     O10821   3.824   1.458  11.959 -0.3332 -0.2778  0.8076
  732TMC3     H10822   3.700   1.111  11.849  0.1968 -2.0574  1.1160
  732TMC3    H110823   4.018   1.397  11.878  0.3701  1.0452 -2.9842
  732TMC3    H210824   4.068   1.042  11.647  0.9916 -0.6417  1.7309
  732TMC3    C710825   4.187   1.251  11.728  0.3994 -0.4428  0.0720
  732TMC3    C810826   3.853   0.915  11.750 -0.0748 -0.3551 -0.4335
  732TMC3    O110827   4.238   1.209  11.626 -0.0830 -0.1526 -0.2812
  732TMC3    O210828   3.936   0.836  11.711  0.0234  0.1217 -0.1472
  733TMC3    C110829   0.556   3.862  13.433  0.0535  0.2693  0.2417
  733TMC3    C210830   0.534   3.976  13.498 -0.1140 -0.3927  0.2410
  733TMC3    C310831   0.560   4.091  13.447  0.0155  0.1149 -0.3885
  733TMC3    C410832   0.631   3.865  13.318  0.1766 -0.3574  0.2055
  733TMC3    C510833   0.651   3.987  13.260  1.1014 -0.2971 -0.1022
  733TMC3    C610834   0.614   4.106  13.325  0.2942 -0.3770 -0.2595
  733TMC3     C10835   0.449   3.770  13.427 -0.0200 -0.5358  0.4989
  733TMC3     O10836   0.447   3.688  13.334  0.0000  1.0886 -0.1759
  733TMC3     H10837   0.487   3.969  13.595 -2.1554  0.6690 -0.6610
  733TMC3    H110838   0.636   3.775  13.257 -1.0294  0.3090 -0.8731
  733TMC3    H210839   0.645   4.203  13.288 -0.5579  0.1989  0.5531
  733TMC3    C710840   0.668   3.991  13.119 -0.6553  0.0703 -0.3900
  733TMC3    C810841   0.495   4.203  13.503 -0.0350 -0.0809 -0.3457
  733TMC3    O110842   0.729   3.903  13.057 -1.0068 -0.6276  1.1314
  733TMC3    O210843   0.511   4.229  13.620  0.5705 -0.4327 -0.0253
  734MPD2     C10844   2.197   2.084  12.674  0.4699 -0.2158 -0.4139
  734MPD2    C110845   2.082   2.021  12.641 -0.5092  0.5732 -0.2278
  734MPD2    C210846   2.008   2.066  12.541  0.3567  0.3852  0.0323
  734MPD2    C310847   2.041   2.179  12.474  0.4201  0.1030  0.2049
  734MPD2    C410848   2.142   2.260  12.518 -0.2030 -1.0023 -0.0636
  734MPD2    C510849   2.228   2.205  12.611  0.0925 -0.3897 -0.4672
  734MPD2     H10850   1.916   2.014  12.514 -0.3590  0.6685  1.9610
  734MPD2    H110851   2.169   2.352  12.467 -0.2233 -1.9615 -1.7896
  734MPD2    H210852   2.268   2.043  12.745 -0.4408 -1.1461 -0.0502
  734MPD2    H310853   2.314   2.266  12.633  0.3602 -0.9476  0.0399
  734MPD2     N10854   1.965   2.205  12.354  0.4945 -0.0997 -0.0378
  734MPD2    H510855   1.907   2.123  12.334  0.5098  0.2837 -1.6154
  734MPD2    N110856   2.054   1.902  12.705 -0.6025 -0.2590 -0.1002
  734MPD2    H710857   2.120   1.877  12.779 -0.8853  1.9015  0.8793
  735TMC3    C110858   1.966   1.678  12.703 -0.0850 -0.5388 -0.5623
  735TMC3    C210859   1.845   1.625  12.684 -0.1987  0.2421  0.7297
  735TMC3    C310860   1.833   1.505  12.622 -0.2556  0.0745 -0.5670
  735TMC3    C410861   2.076   1.619  12.645  0.7291 -0.5435  0.8837
  735TMC3    C510862   2.059   1.505  12.570 -0.1411 -0.6577  0.6633
  735TMC3    C610863   1.938   1.447  12.564 -0.7545 -0.1131 -0.5873
  735TMC3     C10864   1.947   1.824  12.673  0.2822  0.4420  0.6069
  735TMC3     O10865   1.846   1.840  12.604  0.1118  0.1451  0.4979
  735TMC3     H10866   1.755   1.665  12.730  0.9566  1.1667  2.1982
  735TMC3    H110867   2.164   1.680  12.630  1.2514 -1.3203  0.7679
  735TMC3    H210868   1.929   1.370  12.489  0.8025 -1.6942  0.8506
  735TMC3    C710869   2.182   1.438  12.524  0.3736 -0.1905  0.4875
  735TMC3    C810870   1.719   1.497  12.532  0.3704 -0.1864 -0.8003
  735TMC3    O110871   2.280   1.507  12.502 -0.1613  0.8790  0.4090
  735TMC3    O210872   1.689   1.383  12.491 -0.0044 -0.1087 -0.1126
  736MPD2     C10873   2.272   1.075  12.535 -0.4671  0.1751  0.2515
  736MPD2    C110874   2.285   1.203  12.488 -0.9028 -0.3684  1.1246
  736MPD2    C210875   2.387   1.229  12.400  0.6252  0.2894  0.4634
  736MPD2    C310876   2.484   1.130  12.370  0.2433 -0.1831  0.1808
  736MPD2    C410877   2.473   1.008  12.436  0.6407  0.0033 -0.4158
  736MPD2    C510878   2.368   0.979  12.514 -0.3628  0.2769 -0.3568
  736MPD2     H10879   2.405   1.326  12.354 -0.4326  0.9642  1.4795
  736MPD2    H110880   2.551   0.936  12.412 -0.5676 -1.0723 -1.0867
  736MPD2    H210881   2.185   1.054  12.596 -1.0022 -2.5530 -1.4801
  736MPD2    H310882   2.339   0.879  12.543  1.4645 -0.0214  0.4632
  736MPD2     N10883   2.584   1.138  12.273  0.3195  0.0344 -0.4159
  736MPD2    H510884   2.644   1.056  12.269  0.4192  0.1366 -1.0645
  736MPD2    N110885   2.183   1.294  12.529  0.8931 -0.8076  0.0724
  736MPD2    H710886   2.101   1.256  12.575 -0.6115  2.1126 -0.1348
  737TMC3    C110887   2.716   1.210  12.092 -0.7599 -0.3572 -0.6293
  737TMC3    C210888   2.736   1.302  11.989  0.2141 -0.0897 -0.2189
  737TMC3    C310889   2.806   1.249  11.885  0.4562  0.4896  0.0035
  737TMC3    C410890   2.783   1.092  12.106 -0.1595 -0.0706 -0.6576
  737TMC3    C510891   2.849   1.047  11.990  0.3508 -0.0310  0.3521
  737TMC3    C610892   2.861   1.128  11.883 -0.3167 -0.7550  0.4499
  737TMC3     C10893   2.593   1.232  12.172 -0.5074 -0.2389  0.4513
  737TMC3     O10894   2.527   1.333  12.152 -0.2409  0.5338  0.1612
  737TMC3     H10895   2.695   1.403  11.995 -1.9536 -1.0573  1.3082
  737TMC3    H110896   2.766   1.022  12.187 -0.8677  0.5699 -0.2545
  737TMC3    H210897   2.916   1.099  11.794  0.1454  1.7156 -0.0650
  737TMC3    C710898   2.872   0.903  11.978 -0.3194 -0.0667 -0.3688
  737TMC3    C810899   2.856   1.353  11.789  0.5987  0.8503  0.5905
  737TMC3    O110900   2.840   0.826  12.065  0.1038  0.6045 -0.5095
  737TMC3    O210901   2.847   1.468  11.829  0.1888  0.5665  0.6588
  738MPD2     C10902   2.683   0.419  15.241 -0.0137 -1.0356 -0.4450
  738MPD2    C110903   2.789   0.397  15.325  0.4272  0.1884 -0.0871
  738MPD2    C210904   2.903   0.472  15.300 -0.6537  0.3671  0.6748
  738MPD2    C310905   2.915   0.572  15.202 -0.0583 -0.2960 -0.0077
  738MPD2    C410906   2.807   0.597  15.123  0.2425 -0.2019  0.4187
  738MPD2    C510907   2.691   0.520  15.143  0.0761  0.4667  0.4069
  738MPD2     H10908   2.991   0.437  15.352  0.3778  1.4414 -0.3442
  738MPD2    H110909   2.812   0.668  15.041  0.7698 -0.4097  0.2683
  738MPD2    H210910   2.586   0.370  15.245 -0.9495  0.9533  1.1938
  738MPD2    H310911   2.610   0.527  15.071 -2.2554 -0.7183  2.8969
  738MPD2     N10912   3.032   0.643  15.177 -1.1457 -0.0451  0.1369
  738MPD2    H510913   3.034   0.699  15.092  1.8634  2.2089  1.7106
  738MPD2    N110914   2.798   0.290  15.416 -0.3822  0.4522 -0.3080
  738MPD2    H710915   2.893   0.259  15.434 -0.8803 -0.9334 -0.0544
  739TMC3    C110916   3.247   0.719  15.201  0.5693 -0.4962  0.7677
  739TMC3    C210917   3.256   0.690  15.066  0.1158  0.2010  0.3056
  739TMC3    C310918   3.336   0.766  14.989 -0.4546  0.2000  0.1637
  739TMC3    C410919   3.325   0.819  15.261  0.2951  0.3030 -0.5496
  739TMC3    C510920   3.404   0.894  15.184  0.3498 -0.0342  0.3223
  739TMC3    C610921   3.413   0.862  15.049  0.0112 -0.2800 -0.5632
  739TMC3     C10922   3.134   0.663  15.264 -0.0307 -0.7253 -0.3789
  739TMC3     O10923   3.141   0.631  15.384 -0.0132 -0.3941 -0.3069
  739TMC3     H10924   3.201   0.607  15.023 -2.6976  2.1256  0.2196
  739TMC3    H110925   3.307   0.837  15.367  0.8130  1.6209 -0.6895
  739TMC3    H210926   3.473   0.920  14.980  0.8058 -1.4283 -0.8512
  739TMC3    C710927   3.486   0.995  15.251 -0.0042  0.0499  1.3907
  739TMC3    C810928   3.299   0.758  14.855 -0.1715 -0.6410 -0.1717
  739TMC3    O110929   3.505   0.979  15.375  0.8366 -0.1515  0.0021
  739TMC3    O210930   3.199   0.689  14.832  0.4945  0.3805  0.5164
  740TMC3    C110931   3.591   1.635  14.356  0.0664  0.8084 -0.5132
  740TMC3    C210932   3.676   1.597  14.454  0.3500 -0.3671 -0.3842
  740TMC3    C310933   3.793   1.532  14.423  0.0836 -0.4095  0.2043
  740TMC3    C410934   3.628   1.610  14.220  0.2044 -0.1402 -0.0163
  740TMC3    C510935   3.749   1.544  14.192  0.2566 -0.2951  1.0325
  740TMC3    C610936   3.827   1.500  14.299  0.2350  0.4501 -0.0212
  740TMC3     C10937   3.480   1.720  14.383 -0.7535 -0.1004 -0.8504
  740TMC3     O10938   3.428   1.791  14.296  0.1556 -0.7088  0.4987
  740TMC3     H10939   3.660   1.623  14.559  1.7822  2.8381 -0.9784
  740TMC3    H110940   3.568   1.644  14.136  0.8767  1.4262  0.1532
  740TMC3    H210941   3.913   1.436  14.281 -0.7500 -0.7958 -0.2782
  740TMC3    C710942   3.789   1.511  14.055 -0.2195  0.3122  0.4793
  740TMC3    C810943   3.868   1.489  14.536 -0.6881  0.0448 -0.2045
  740TMC3    O110944   3.888   1.439  14.049  0.3399  0.3562 -0.2811
  740TMC3    O210945   3.804   1.482  14.641  0.2316 -0.6224  0.4995
  741TMC3    C110946   2.886   0.986  14.480 -0.2232 -0.0281 -0.5312
  741TMC3    C210947   2.774   0.913  14.498 -0.9109  0.3175 -0.2809
  741TMC3    C310948   2.776   0.851  14.617 -0.0850 -0.1598 -0.2629
  741TMC3    C410949   2.994   0.994  14.561  0.8921  0.7943  0.1872
  741TMC3    C510950   2.980   0.946  14.696 -0.5541  0.2122 -0.0732
  741TMC3    C610951   2.869   0.865  14.721  0.4049  0.0890 -0.8161
  741TMC3     C10952   2.918   0.994  14.338  0.2387  0.1859 -0.5040
  741TMC3     O10953   2.824   1.009  14.256  0.6300 -0.2142 -0.2290
  741TMC3     H10954   2.697   0.901  14.423  1.0727  0.8669 -2.4248
  741TMC3    H110955   3.084   1.045  14.529  0.0093  2.4119  0.2998
  741TMC3    H210956   2.853   0.823  14.819 -0.8967  0.0104 -1.0568
  741TMC3    C710957   3.061   1.010  14.801 -0.9608 -0.1754 -0.6479
  741TMC3    C810958   2.668   0.763  14.641  0.9148 -0.2726 -0.2192
  741TMC3    O110959   3.138   1.089  14.755  0.0922 -0.1499 -0.2961
  741TMC3    O210960   2.557   0.803  14.599  0.5076 -0.0432 -0.5434
  742TMC3    C110961   2.942   4.133  15.487 -0.4678 -0.3758  0.1048
  742TMC3    C210962   2.870   4.151  15.368 -0.3843  0.5593  0.3041
  742TMC3    C310963   2.924   4.081  15.260  0.0876  0.4586 -0.0459
  742TMC3    C410964   3.067   4.090  15.484 -0.3873 -0.3558 -0.0904
  742TMC3    C510965   3.132   4.051  15.369 -0.3779  0.0048 -0.2878
  742TMC3    C610966   3.056   4.047  15.253  0.0930 -0.1849  0.2116
  742TMC3     C10967   2.896   4.186  15.611 -0.3473 -0.6800  0.1446
  742TMC3     O10968   2.826   4.283  15.610  0.0130 -0.3147  0.2427
  742TMC3     H10969   2.764   4.173  15.379 -0.1230  1.8442  0.1568
  742TMC3    H110970   3.121   4.074  15.577 -0.5284  0.7464  0.1747
  742TMC3    H210971   3.098   4.034  15.154  0.1857 -0.4005  0.2780
  742TMC3    C710972   3.274   4.022  15.371  0.4700 -0.3285 -0.6306
  742TMC3    C810973   2.848   4.072  15.137 -0.0204 -0.1148 -0.4706
  742TMC3    O110974   3.319   3.953  15.280  0.3185  0.3748  0.0316
  742TMC3    O210975   2.920   4.077  15.038 -0.0035  0.7329  0.3586
  743MPD2     C10976   0.019   4.085   1.765 -0.7474 -0.1762  0.1219
  743MPD2    C110977   0.128   4.152   1.721  0.5871 -1.0905  0.3441
  743MPD2    C210978   0.255   4.095   1.738  0.2329 -0.3708 -0.4754
  743MPD2    C310979   0.267   3.977   1.804 -0.3164 -0.1795  0.4053
  743MPD2    C410980   0.156   3.920   1.860 -0.6029 -0.6952  0.4412
  743MPD2    C510981   0.034   3.972   1.843  0.1597 -0.9624 -0.3169
  743MPD2     H10982   0.351   4.140   1.716  0.6500 -0.9522  0.1595
  743MPD2    H110983   0.159   3.821   1.905  1.3925 -1.3852 -1.2055
  743MPD2    H210984   4.640   4.130   1.762 -0.6756 -0.0016  0.3688
  743MPD2    H310985   4.666   3.918   1.875  0.3995  0.2997  2.5085
  743MPD2     N10986   0.398   3.928   1.799 -0.6283  0.1090  0.4061
  743MPD2    H510987   0.462   3.967   1.732  0.8290  1.3800  2.5451
  743MPD2    N110988   0.109   4.285   1.672 -0.5685  0.1814  0.1652
  743MPD2    H710989   0.014   4.321   1.673 -0.3536  0.7537  0.2594
  744TMC3    C110990   0.160   4.492   1.580 -0.6291 -0.3880 -0.0032
  744TMC3    C210991   0.053   4.561   1.628 -0.4607 -0.3664 -0.2075
  744TMC3    C310992   0.041   4.689   1.587 -1.5797 -0.4354  0.4200
  744TMC3    C410993   0.249   4.551   1.483 -0.4087 -0.3416 -0.1317
  744TMC3    C510994   0.231   4.684   1.445  0.2532 -0.4123  0.3519
  744TMC3    C610995   0.122   0.033   1.491 -0.2732 -0.1435  0.2731
  744TMC3     C10996   0.214   4.367   1.641  0.7623 -0.1093 -0.6292
  744TMC3     O10997   0.335   4.344   1.632 -0.4091  0.0459 -0.6348
  744TMC3     H10998   4.713   4.502   1.696 -0.1327 -1.3763 -0.7868
  744TMC3    H110999   0.341   4.499   1.461  0.5214  0.6776  1.3529
  744TMC3    H211000   0.099   0.134   1.459  1.6663 -0.0184 -0.7345
  744TMC3    C711001   0.300   0.025   1.338 -0.7621 -0.4343  0.2460
  744TMC3    C811002   4.625   0.031   1.605 -0.3389 -0.9828  0.3128
  744TMC3    O111003   0.265   0.096   1.242  0.3797 -0.3731  0.1680
  744TMC3    O211004   4.600   0.115   1.520 -0.0945 -0.1265  0.0657
  745TMC3    C111005   3.810   3.815  13.695 -0.1762  0.2929 -0.4002
  745TMC3    C211006   3.687   3.828  13.764  0.3653 -0.0901  0.2449
  745TMC3    C311007   3.570   3.827  13.687 -0.7540 -0.2590 -0.0775
  745TMC3    C411008   3.821   3.805  13.559 -0.0165 -0.4044 -0.0423
  745TMC3    C511009   3.703   3.806  13.496  0.0774  0.3956 -0.2783
  745TMC3    C611010   3.579   3.811  13.557  0.0334  0.2279  0.6569
  745TMC3     C11011   3.919   3.868  13.765 -0.2630  0.3074  0.3601
  745TMC3     O11012   3.916   3.868  13.887 -0.2203  0.0862 -0.3566
  745TMC3     H11013   3.684   3.847  13.871 -0.7851  0.9560  0.0180
  745TMC3    H111014   3.922   3.790  13.521  0.1431 -0.8667  0.5613
  745TMC3    H211015   3.488   3.829  13.501  0.2617  0.8215  0.4777
  745TMC3    C711016   3.698   3.770  13.355  0.2762  0.1025  0.1130
  745TMC3    C811017   3.453   3.904  13.740 -0.6951  0.4704 -0.3456
  745TMC3    O111018   3.592   3.764  13.293  0.5106 -0.3406  0.2862
  745TMC3    O211019   3.341   3.862  13.719 -0.0919  0.6433  0.4357
  746TMC3    C111020   0.840   1.132  11.553  0.4185  0.0245  0.2123
  746TMC3    C211021   0.913   1.043  11.482  0.0286  0.4141  0.1214
  746TMC3    C311022   0.853   0.929  11.440  0.0147 -0.7569  0.3822
  746TMC3    C411023   0.711   1.113  11.578 -0.3438  0.3085  0.1445
  746TMC3    C511024   0.649   1.005  11.523  0.2773  0.0827 -0.2603
  746TMC3    C611025   0.719   0.902  11.467  0.5263  0.6860  1.1454
  746TMC3     C11026   0.867   1.269  11.536 -0.3184  0.0140  0.1673
  746TMC3     O11027   0.774   1.346  11.555  0.2932  0.3790 -0.8556
  746TMC3     H11028   1.011   1.064  11.441 -0.4893  3.0736  0.2684
  746TMC3    H111029   0.651   1.188  11.629  0.4230 -0.5586  2.3456
  746TMC3    H211030   0.677   0.818  11.413  0.8699  1.0516  0.3039
  746TMC3    C711031   0.513   1.018  11.475 -0.4619  0.6422 -0.1429
  746TMC3    C811032   0.902   0.860  11.318 -0.1452 -0.4160 -0.1878
  746TMC3    O111033   0.487   0.930  11.396 -0.2013 -0.1879  0.4553
  746TMC3    O211034   0.896   0.737  11.310 -0.2416  0.4148  0.2565
  747TMC3    C111035   3.629   0.514  11.342  1.1707  0.5059  0.1694
  747TMC3    C211036   3.528   0.474  11.419 -0.3383 -0.3213  0.5699
  747TMC3    C311037   3.477   0.562  11.509 -0.4212 -0.2104  0.3267
  747TMC3    C411038   3.686   0.643  11.348 -0.5390  0.1897 -0.4395
  747TMC3    C511039   3.630   0.723  11.445  0.1211 -0.5033  0.7250
  747TMC3    C611040   3.524   0.689  11.522 -0.1716  0.5640 -0.5165
  747TMC3     C11041   3.722   0.430  11.265 -0.4451  0.4287  0.1342
  747TMC3     O11042   3.843   0.446  11.292  0.1989  0.3719 -0.0537
  747TMC3     H11043   3.508   0.367  11.421 -0.6681 -0.3386 -3.3944
  747TMC3    H111044   3.770   0.660  11.282  0.0606 -0.7007  0.0906
  747TMC3    H211045   3.495   0.752  11.605  0.0611 -0.3765  0.2976
  747TMC3    C711046   3.671   0.858  11.451 -0.2272  0.2809 -0.1446
  747TMC3    C811047   3.365   0.520  11.591  0.1691 -0.1630  0.3116
  747TMC3    O111048   3.593   0.938  11.492  0.1208  0.4059  0.3799
  747TMC3    O211049   3.334   0.400  11.586  0.3475 -0.5464 -0.2784
  748MPD2     C11050   3.884   1.239   1.091 -0.1562 -0.0782  0.2660
  748MPD2    C111051   3.929   1.174   1.205 -0.0816 -0.5847 -0.2886
  748MPD2    C211052   4.063   1.185   1.251 -0.9201  0.1750  0.6191
  748MPD2    C311053   4.148   1.250   1.169 -0.5708  0.6480 -0.8781
  748MPD2    C411054   4.105   1.306   1.052 -0.0597 -0.4804 -0.1225
  748MPD2    C511055   3.972   1.306   1.014 -0.1038 -1.2001  0.1559
  748MPD2     H11056   4.101   1.153   1.347 -0.7034 -0.6490  0.2553
  748MPD2    H111057   4.171   1.365   0.990 -1.2547  1.4103  0.3978
  748MPD2    H211058   3.779   1.239   1.068  0.1071 -0.3821 -0.9004
  748MPD2    H311059   3.928   1.358   0.931  1.4532 -0.4556 -0.2107
  748MPD2     N11060   4.288   1.260   1.205 -0.2678  0.1529 -0.1405
  748MPD2    H511061   4.302   1.222   1.298  1.0111 -1.5465 -1.0193
  748MPD2    N111062   3.837   1.094   1.273  0.2586  0.1984 -0.9308
  748MPD2    H711063   3.743   1.111   1.240  0.8639  0.3435 -2.5743
  749TMC3    C111064   4.531   1.280   1.188  0.6170  0.3203  0.7614
  749TMC3    C211065   4.549   1.170   1.264  0.1239 -0.1576  0.3149
  749TMC3    C311066   4.659   1.156   1.336 -0.3768 -0.5713 -0.6398
  749TMC3    C411067   4.632   1.373   1.185  0.0428 -0.7120  0.3198
  749TMC3    C511068   0.027   1.360   1.249 -0.1752 -0.0134  0.1044
  749TMC3    C611069   0.042   1.254   1.332 -0.9478  0.1905  0.6296
  749TMC3     C11070   4.398   1.314   1.133  0.2505 -0.4411  0.3018
  749TMC3     O11071   4.392   1.389   1.036  0.0254  0.6745 -0.1194
  749TMC3     H11072   4.465   1.103   1.281 -0.7320  0.9871  0.6036
  749TMC3    H111073   4.602   1.460   1.126 -1.2224 -2.0552 -1.0115
  749TMC3    H211074   0.124   1.271   1.402 -0.0672 -2.0346  0.1333
  749TMC3    C711075   0.129   1.464   1.232 -0.6178 -0.1255  0.0453
  749TMC3    C811076   4.666   1.058   1.439  0.3849 -0.3261  0.1062
  749TMC3    O111077   0.089   1.579   1.225 -0.0351  0.4359  0.4188
  749TMC3    O211078   4.565   1.026   1.500  0.4793  0.3178 -0.4356
  750MPD2     C11079   1.153   2.984  11.458 -0.0682 -1.0778 -0.3560
  750MPD2    C111080   1.021   2.975  11.437 -0.2150 -0.0621  0.6745
  750MPD2    C211081   0.979   2.857  11.382  0.0331 -0.5521 -0.4175
  750MPD2    C311082   1.059   2.760  11.348  0.0355 -0.3749 -0.1731
  750MPD2    C411083   1.193   2.772  11.366 -0.3797  0.5300 -0.8678
  750MPD2    C511084   1.239   2.889  11.424 -0.0498  0.4568  0.0855
  750MPD2     H11085   0.875   2.840  11.357  0.2334 -1.7477 -0.4535
  750MPD2    H111086   1.265   2.700  11.330  0.0697  2.3459 -3.5464
  750MPD2    H211087   1.184   3.075  11.508 -0.8697 -1.8886  1.6402
  750MPD2    H311088   1.345   2.911  11.429 -0.1559  1.1145 -0.6741
  750MPD2     N11089   1.001   2.639  11.301 -0.3913  0.0998  0.3325
  750MPD2    H511090   0.902   2.639  11.279 -0.0340 -0.2374 -1.2710
  750MPD2    N111091   0.943   3.090  11.463 -0.0455 -0.6574 -0.1531
  750MPD2    H711092   0.985   3.167  11.513  0.6870  0.9378 -3.2060
  751TMC3    C111093   0.983   2.415  11.236 -0.2774 -0.3666 -0.2904
  751TMC3    C211094   0.865   2.401  11.307  0.2686 -0.4677  0.1592
  751TMC3    C311095   0.807   2.271  11.313 -0.2777 -0.2191  0.3052
  751TMC3    C411096   1.040   2.312  11.162 -0.3875 -0.0811 -1.0896
  751TMC3    C511097   0.982   2.191  11.169  0.2082  0.1728 -0.2375
  751TMC3    C611098   0.867   2.166  11.246 -0.1620 -0.5158 -0.0961
  751TMC3     C11099   1.071   2.526  11.267 -0.2307 -0.6609  0.5621
  751TMC3     O11100   1.192   2.510  11.271  0.1092 -0.4368  0.2221
  751TMC3     H11101   0.827   2.488  11.360  0.2629 -0.2195 -0.2489
  751TMC3    H111102   1.128   2.337  11.105  2.3380 -0.9169  2.7577
  751TMC3    H211103   0.837   2.063  11.258 -0.0060 -0.7353 -1.6125
  751TMC3    C711104   1.054   2.086  11.105  0.9082 -0.1289 -0.2904
  751TMC3    C811105   0.675   2.244  11.366  0.4336  0.1132  0.0233
  751TMC3    O111106   1.134   2.119  11.018  0.5891 -0.0746  0.2888
  751TMC3    O211107   0.613   2.144  11.332  0.6136 -0.6354  0.6027
  752TMC3    C111108   0.004   2.631  17.425 -0.6246 -0.4578  0.5258
  752TMC3    C211109   4.619   2.560  17.463  0.3900 -0.1153  0.0432
  752TMC3    C311110   4.604   2.509  17.587  0.6713 -0.1355 -0.4927
  752TMC3    C411111   0.092   2.680  17.520  0.7081 -0.8676  0.4177
  752TMC3    C511112   0.075   2.628  17.646 -0.1033 -0.1498  0.2541
  752TMC3    C611113   4.700   2.533  17.678  0.4159  0.1184  0.4558
  752TMC3     C11114   0.022   2.686  17.289  0.1908 -0.8790  0.4466
  752TMC3     O11115   0.109   2.768  17.260 -0.4271  0.2563 -0.0762
  752TMC3     H11116   4.533   2.547  17.399 -0.4179  0.0268  1.0921
  752TMC3    H111117   0.174   2.749  17.503 -0.6839  0.8431  0.5869
  752TMC3    H211118   4.695   2.504   0.098 -0.3816  3.0381  1.2279
  752TMC3    C711119   0.170   2.657   0.069 -0.5008  0.1251 -0.0230
  752TMC3    C811120   4.486   2.431  17.615 -0.5511 -0.4118  0.0837
  752TMC3    O111121   0.173   2.580   0.164 -0.4236  0.4325 -0.3226
  752TMC3    O211122   4.424   2.388  17.521 -0.3463 -0.4939 -0.2317
  753TMC3    C111123   1.624   3.784  13.884 -0.1016 -0.3780 -0.2096
  753TMC3    C211124   1.750   3.773  13.934  0.1292  0.5468 -0.4831
  753TMC3    C311125   1.834   3.682  13.883 -0.0179  0.0832  0.0820
  753TMC3    C411126   1.582   3.710  13.780 -0.4835 -0.6427 -0.3205
  753TMC3    C511127   1.667   3.608  13.736  0.3440 -0.2281  0.0231
  753TMC3    C611128   1.793   3.598  13.784 -0.0251  0.0801  0.6836
  753TMC3     C11129   1.579   3.915  13.869  0.0040  0.1045 -0.1894
  753TMC3     O11130   1.535   3.961  13.761 -0.7261  0.4036  0.3049
  753TMC3     H11131   1.769   3.829  14.025  1.1875 -1.8931  0.8081
  753TMC3    H111132   1.490   3.739  13.732 -0.6097  2.8420  2.0564
  753TMC3    H211133   1.868   3.537  13.734  0.0647  0.3502  0.4926
  753TMC3    C711134   1.636   3.531  13.614  0.1584  0.2559 -0.3389
  753TMC3    C811135   1.971   3.671  13.931 -0.1789 -1.0389 -0.2860
  753TMC3    O111136   1.733   3.509  13.543 -0.3452 -0.0424 -0.7117
  753TMC3    O211137   2.020   3.571  13.882 -0.0419  0.7280 -0.2416
  754MPD2     C11138   0.385   1.967  12.552  0.8446  0.3819 -0.3160
  754MPD2    C111139   0.409   2.060  12.651 -0.4430  0.1020 -0.6390
  754MPD2    C211140   0.302   2.096  12.735  0.4456  0.3705 -0.4335
  754MPD2    C311141   0.177   2.031  12.725  0.2029  0.6733 -0.2564
  754MPD2    C411142   0.158   1.947  12.619 -0.3595  0.0812 -0.0968
  754MPD2    C511143   0.263   1.913  12.540  0.1031 -0.5279 -0.2903
  754MPD2     H11144   0.323   2.168  12.814  3.2506 -1.7255  0.7413
  754MPD2    H111145   0.061   1.900  12.610 -0.5109  0.2292  0.7124
  754MPD2    H211146   0.464   1.928  12.489  1.2383  2.0686 -0.8576
  754MPD2    H311147   0.254   1.845  12.456 -0.7920 -0.4069 -0.2895
  754MPD2     N11148   0.068   2.065  12.819  0.6409 -0.4221  0.8763
  754MPD2    H511149   4.704   2.008  12.821  0.2396  0.1596  0.8709
  754MPD2    N111150   0.547   2.094  12.675 -1.3499  0.1949  0.5178
  754MPD2    H711151   0.619   2.046  12.622 -1.7603 -1.1781  1.1888
  755MPD2     C11152   4.273   2.788  13.349 -0.7128  0.3025  0.3549
  755MPD2    C111153   4.312   2.694  13.440 -0.4447  0.3993  0.6358
  755MPD2    C211154   4.397   2.588  13.399  0.1649  0.7199  0.4317
  755MPD2    C311155   4.432   2.579  13.267  0.4591  0.1585 -0.1343
  755MPD2    C411156   4.392   2.671  13.176  0.2318 -0.2153  0.4455
  755MPD2    C511157   4.314   2.775  13.220  0.1051 -0.2143  0.3458
  755MPD2     H11158   4.418   2.509  13.471 -0.7363 -0.8160 -1.0082
  755MPD2    H111159   4.412   2.674  13.069  1.9531  1.1822  0.8210
  755MPD2    H211160   4.220   2.873  13.390 -1.7019 -0.5209  0.7737
  755MPD2    H311161   4.287   2.846  13.141 -2.1338  0.5404  1.7834
  755MPD2     N11162   4.506   2.467  13.229 -0.1980 -0.2609  0.1031
  755MPD2    H511163   4.530   2.462  13.131  0.2282  2.4224  0.0686
  755MPD2    N111164   4.274   2.707  13.578  0.0212  0.2455 -0.0140
  755MPD2    H711165   4.308   2.635  13.642 -0.1372  0.9550  0.8539
  756MPD2     C11166   0.269   3.596   9.791  0.2139 -0.0685 -0.0283
  756MPD2    C111167   0.306   3.494   9.876 -0.4057 -0.4194  0.6031
  756MPD2    C211168   0.234   3.372   9.869 -0.3519  0.2307 -0.7044
  756MPD2    C311169   0.126   3.357   9.784 -0.1007 -0.0723 -0.3520
  756MPD2    C411170   0.103   3.453   9.690 -0.0412 -0.1107 -0.2699
  756MPD2    C511171   0.165   3.570   9.697 -0.6004  0.0571  0.1519
  756MPD2     H11172   0.248   3.304   9.952 -2.0116 -1.6204 -1.9262
  756MPD2    H111173   0.019   3.457   9.621 -0.7959 -0.3218  0.6513
  756MPD2    H211174   0.314   3.694   9.793 -0.5673  0.3316 -1.8188
  756MPD2    H311175   0.131   3.648   9.630 -0.9120 -2.4824 -2.6791
  756MPD2     N11176   0.056   3.235   9.794 -0.0952 -0.5560 -0.2795
  756MPD2    H511177   0.083   3.164   9.861 -1.6214  0.7340  1.6939
  756MPD2    N111178   0.402   3.512   9.973 -0.2138 -0.4371  0.0812
  756MPD2    H711179   0.402   3.439  10.043  0.9471 -0.5094  0.0038
  757MPD2     C11180   4.043   2.501   9.354  0.1340  0.4401 -0.1433
  757MPD2    C111181   4.117   2.448   9.463  0.0693 -0.1364 -1.0145
  757MPD2    C211182   4.216   2.526   9.519 -0.1131 -0.9825 -0.0987
  757MPD2    C311183   4.237   2.656   9.485  0.7288  0.5801  0.4719
  757MPD2    C411184   4.156   2.711   9.385 -0.7152 -0.7669 -0.0296
  757MPD2    C511185   4.071   2.632   9.321 -0.6666 -0.2285  0.6439
  757MPD2     H11186   4.273   2.479   9.598  0.7998  2.5286  1.3322
  757MPD2    H111187   4.167   2.812   9.345  3.7492 -0.7778  1.2214
  757MPD2    H211188   3.971   2.438   9.305  1.7370 -1.5769  0.1174
  757MPD2    H311189   4.023   2.681   9.237 -2.1705  0.0704  1.6864
  757MPD2     N11190   4.333   2.723   9.571 -0.1074 -0.3170 -0.0243
  757MPD2    H511191   4.369   2.678   9.654 -1.3493 -3.1029 -0.9814
  757MPD2    N111192   4.088   2.313   9.496 -0.2762 -0.4699 -0.4539
  757MPD2    H711193   4.033   2.253   9.436 -1.0754  0.5296 -0.7126
  758MPD2     C11194   0.707   1.667  16.183  0.3712  0.0969 -0.1154
  758MPD2    C111195   0.735   1.622  16.312  0.6051  0.9379 -0.2600
  758MPD2    C211196   0.646   1.656  16.405  0.9539  0.1782 -0.3344
  758MPD2    C311197   0.540   1.740  16.385 -0.3322  0.1809  0.1047
  758MPD2    C411198   0.500   1.761  16.255 -0.5974 -0.2803  0.1707
  758MPD2    C511199   0.585   1.720  16.153 -0.4626 -0.0814  0.2007
  758MPD2     H11200   0.656   1.620  16.507 -0.6795 -0.0061 -0.2269
  758MPD2    H111201   0.417   1.826  16.230 -1.3025 -0.6342  1.5603
  758MPD2    H211202   0.768   1.639  16.098  1.6357  2.0807  0.1400
  758MPD2    H311203   0.550   1.734  16.052 -2.8280 -0.1409  1.0156
  758MPD2     N11204   0.464   1.801  16.491  0.6983 -0.8020 -0.3397
  758MPD2    H511205   0.385   1.862  16.471  0.4329 -0.6481  1.1932
  758MPD2    N111206   0.854   1.551  16.343 -0.6963  0.4724  0.1907
  758MPD2    H711207   0.921   1.559  16.268  0.4062 -1.8043  0.9471
  759MPD2     C11208   3.239   0.889   9.839  0.0392  0.6285  0.0992
  759MPD2    C111209   3.315   0.844   9.947  0.1731 -0.0511  0.2758
  759MPD2    C211210   3.421   0.922   9.988  0.6689 -0.5383  0.3693
  759MPD2    C311211   3.442   1.045   9.931 -0.2241 -0.4350  0.7739
  759MPD2    C411212   3.357   1.090   9.831 -0.3856  0.5091  0.0659
  759MPD2    C511213   3.261   1.013   9.782  0.0061  0.2685 -0.2865
  759MPD2     H11214   3.487   0.886  10.067  2.8502 -1.9669 -2.1132
  759MPD2    H111215   3.360   1.186   9.781 -2.1568  0.8233  0.5565
  759MPD2    H211216   3.147   0.836   9.816  0.5132 -0.3249  0.3929
  759MPD2    H311217   3.188   1.041   9.707  0.2163 -0.9829 -0.9680
  759MPD2     N11218   3.552   1.118   9.977 -0.1926  0.6809  0.1645
  759MPD2    H511219   3.610   1.080  10.052 -0.0609 -2.4948 -1.5453
  759MPD2    N111220   3.296   0.725  10.021 -0.2126  0.2538 -0.2205
  759MPD2    H711221   3.362   0.715  10.098  0.9079  0.2787 -1.1669
  760MPD2     C11222   3.885   2.748  12.180  0.0881  0.5954  0.0129
  760MPD2    C111223   4.016   2.779  12.164 -0.0865  0.1739 -0.7798
  760MPD2    C211224   4.108   2.681  12.176 -0.1022  0.1885  0.2685
  760MPD2    C311225   4.064   2.552  12.211 -0.1024 -0.6358  0.7328
  760MPD2    C411226   3.935   2.530  12.243 -0.1593  0.2490 -0.2244
  760MPD2    C511227   3.841   2.628  12.227  0.4521  1.1370  0.4809
  760MPD2     H11228   4.208   2.696  12.137  1.5471 -1.9333  3.6916
  760MPD2    H111229   3.908   2.430  12.276  0.3265  0.6479  1.3957
  760MPD2    H211230   3.798   2.811  12.167 -0.3254  0.0384  0.0265
  760MPD2    H311231   3.737   2.618  12.253  0.4262 -0.6486 -0.2852
  760MPD2     N11232   4.137   2.435  12.216  0.7262 -0.4107  0.0319
  760MPD2    H511233   4.099   2.354  12.262 -1.8063  0.1267 -1.0972
  760MPD2    N111234   4.059   2.909  12.128  0.1026 -0.1900  0.0967
  760MPD2    H711235   4.158   2.925  12.113 -0.2934  0.3719 -1.8424
  761MPD2     C11236   0.316   2.241  11.714  0.4149 -0.5664  0.0382
  761MPD2    C111237   0.312   2.196  11.588 -0.1430 -0.1176 -0.5253
  761MPD2    C211238   0.420   2.229  11.504 -0.0092 -0.0759  0.0638
  761MPD2    C311239   0.529   2.303  11.545 -0.5072 -0.1825  0.4366
  761MPD2    C411240   0.518   2.356  11.674 -0.5406  0.8661  0.0463
  761MPD2    C511241   0.415   2.326  11.760  0.4164 -0.1348 -0.1444
  761MPD2     H11242   0.412   2.194  11.402 -1.7699  0.2226  0.1006
  761MPD2    H111243   0.596   2.422  11.710 -0.7674  0.7766  0.6972
  761MPD2    H211244   0.237   2.214  11.783 -0.7716 -0.7913 -1.4073
  761MPD2    H311245   0.414   2.368  11.860 -3.3326 -2.4565  0.8165
  761MPD2     N11246   0.647   2.318  11.472  0.3374  0.1217 -0.0837
  761MPD2    H511247   0.711   2.385  11.514 -0.1135  2.1690 -2.6892
  761MPD2    N111248   0.203   2.114  11.551 -0.2356 -0.3409  0.5762
  761MPD2    H711249   0.161   2.072  11.633 -1.5728  0.0340  0.0893
  762MPD2     C11250   0.512   2.016  11.064 -0.0017  0.1045 -0.1626
  762MPD2    C111251   0.486   1.882  11.083 -0.1599  0.5984 -0.0251
  762MPD2    C211252   0.564   1.783  11.015  0.5403 -0.0180  0.2387
  762MPD2    C311253   0.666   1.819  10.927 -0.0496 -0.3858  0.3095
  762MPD2    C411254   0.695   1.955  10.910  0.7085 -0.2473 -0.3223
  762MPD2    C511255   0.619   2.043  10.984 -0.6459 -0.0197  0.4939
  762MPD2     H11256   0.542   1.677  11.024 -0.4814 -0.0404 -2.4082
  762MPD2    H111257   0.776   1.991  10.847 -0.1862  2.2069 -0.0803
  762MPD2    H211258   0.462   2.096  11.117 -0.2876  0.2209 -0.6031
  762MPD2    H311259   0.644   2.148  10.970  0.3954 -0.5959 -2.0134
  762MPD2     N11260   0.745   1.718  10.865 -0.6957  0.4716  0.5611
  762MPD2    H511261   0.718   1.627  10.902  1.4585 -0.7851 -0.9640
  762MPD2    N111262   0.385   1.861  11.174  0.3194 -0.0939  0.2621
  762MPD2    H711263   0.346   1.948  11.210 -2.5913 -1.0752 -0.4940
  763MPD2     C11264   2.356   1.839  16.177 -0.0548 -0.0595 -0.2801
  763MPD2    C111265   2.338   1.974  16.168 -0.1785 -0.3022  0.3315
  763MPD2    C211266   2.342   2.050  16.284 -0.3511  0.3143 -0.0891
  763MPD2    C311267   2.396   1.999  16.402 -0.2737  0.0812 -0.4728
  763MPD2    C411268   2.422   1.864  16.399 -0.5294 -0.7102 -0.4743
  763MPD2    C511269   2.387   1.785  16.296 -0.3469 -0.3388  0.1877
  763MPD2     H11270   2.325   2.156  16.277  1.7528  0.5924 -0.9883
  763MPD2    H111271   2.445   1.812  16.492 -1.0674  1.3246  0.7825
  763MPD2    H211272   2.345   1.784  16.084 -1.1895  0.7657 -0.6223
  763MPD2    H311273   2.414   1.681  16.307 -3.0313 -0.9478  1.0354
  763MPD2     N11274   2.416   2.065  16.521 -0.0202 -0.3293 -0.5782
  763MPD2    H511275   2.487   2.023  16.580  0.8255  0.6286 -0.9069
  763MPD2    N111276   2.323   2.043  16.045 -1.1926 -0.8967 -0.3204
  763MPD2    H711277   2.313   2.144  16.053  1.6369 -0.4573 -2.2340
  764MPD2     C11278   0.890   2.458   0.525  0.0223  0.0096 -0.2307
  764MPD2    C111279   0.782   2.532   0.506 -0.7675  0.3190  0.7283
  764MPD2    C211280   0.678   2.520   0.596  0.0246 -0.4282 -0.4174
  764MPD2    C311281   0.685   2.436   0.699  0.3083  0.5292 -0.3726
  764MPD2    C411282   0.802   2.365   0.723 -0.6193  0.0057  0.6271
  764MPD2    C511283   0.906   2.381   0.634  0.7899  0.0460 -0.3967
  764MPD2     H11284   0.587   2.577   0.584 -0.9907 -2.4111 -2.0954
  764MPD2    H111285   0.823   2.307   0.812  1.7123 -0.0910  0.0136
  764MPD2    H211286   0.968   2.455   0.449  1.5777  0.6694  1.3348
  764MPD2    H311287   0.983   2.305   0.632  1.3511  0.5896  1.3329
  764MPD2     N11288   0.581   2.449   0.795  0.6716 -0.3582  0.1285
  764MPD2    H511289   0.491   2.490   0.771 -0.5354 -2.3911  1.1443
  764MPD2    N111290   0.759   2.616   0.398  0.9753  0.2961  0.0598
  764MPD2    H711291   0.672   2.668   0.386  0.9703 -0.1524 -1.8438
  765MPD2     C11292   4.501   1.099  16.438  0.0385 -0.4901 -0.1121
  765MPD2    C111293   4.570   1.188  16.357  0.0060  0.1577  0.0820
  765MPD2    C211294   4.699   1.151  16.319 -0.1295 -0.4918 -0.7978
  765MPD2    C311295   0.026   1.023  16.328  0.2802 -0.1814 -0.0188
  765MPD2    C411296   4.658   0.932  16.384 -0.0550  0.1894  0.2470
  765MPD2    C511297   4.543   0.975  16.436  0.3894  0.8289  0.4340
  765MPD2     H11298   0.049   1.224  16.280 -0.2478 -0.1537 -0.3711
  765MPD2    H111299   4.670   0.826  16.366 -3.3829 -0.1393  0.0165
  765MPD2    H211300   4.401   1.116  16.476 -0.0924  2.1760 -1.6512
  765MPD2    H311301   4.479   0.897  16.475  0.6447  0.0051 -0.8080
  765MPD2     N11302   0.161   1.005  16.275 -0.0951  0.4404  0.5273
  765MPD2    H511303   0.200   1.084  16.226  0.0980  0.6823  1.0743
  765MPD2    N111304   4.503   1.309  16.328  0.3573  0.1564 -0.7599
  765MPD2    H711305   4.416   1.320  16.378  0.4546 -0.0789 -0.5394
  766MPD2     C11306   4.053   1.613  15.816  0.3643  0.0060 -0.4662
  766MPD2    C111307   4.186   1.581  15.843  0.0739  0.3300 -0.4277
  766MPD2    C211308   4.263   1.533  15.735 -0.0892 -0.1296  0.3653
  766MPD2    C311309   4.214   1.529  15.601 -0.2336  0.4408 -0.2804
  766MPD2    C411310   4.078   1.555  15.586  0.2999 -0.3108 -0.2418
  766MPD2    C511311   4.002   1.601  15.689 -0.1954 -0.0493  0.0939
  766MPD2     H11312   4.362   1.493  15.756  0.3762  0.6140 -0.3973
  766MPD2    H111313   4.029   1.544  15.490 -2.0080 -0.0813  0.9129
  766MPD2    H211314   3.993   1.662  15.892 -0.0930  1.9157 -2.0480
  766MPD2    H311315   3.899   1.629  15.672 -0.4130 -0.9827 -0.1545
  766MPD2     N11316   4.292   1.478  15.496 -0.4061  0.1256 -0.7388
  766MPD2    H511317   4.255   1.473  15.401  1.0909  0.6242 -1.3515
  766MPD2    N111318   4.251   1.587  15.964 -0.2117 -0.5871  0.0223
  766MPD2    H711319   4.344   1.551  15.978 -0.3597 -0.1155  2.2395
  767MPD2     C11320   4.028   1.802  15.405  0.2689  0.6309  0.2706
  767MPD2    C111321   4.157   1.824  15.362  0.2460  0.7871 -0.4554
  767MPD2    C211322   4.187   1.795  15.226 -0.2293  0.0307  0.3569
  767MPD2    C311323   4.094   1.749  15.139  0.6826 -0.2982  0.3245
  767MPD2    C411324   3.959   1.735  15.181  0.3164 -0.5520  0.2349
  767MPD2    C511325   3.928   1.761  15.312 -0.3276 -0.3617  0.0714
  767MPD2     H11326   4.286   1.802  15.181 -0.0706 -2.2614  0.3280
  767MPD2    H111327   3.877   1.712  15.113 -0.7052 -0.1629  1.3284
  767MPD2    H211328   4.000   1.819  15.508 -1.6293 -0.9995  0.0277
  767MPD2    H311329   3.826   1.753  15.345 -1.0368  1.7141 -1.6211
  767MPD2     N11330   4.139   1.723  15.009 -0.2546  0.5877 -0.1813
  767MPD2    H511331   4.240   1.719  15.004 -0.3052  0.4006 -1.1485
  767MPD2    N111332   4.256   1.865  15.454  0.2800  0.2522 -0.2910
  767MPD2    H711333   4.223   1.898  15.544  1.0595 -0.9212  0.4267
  768MPD2     C11334   0.556   0.727  10.870 -0.2085 -0.6959 -0.3642
  768MPD2    C111335   0.463   0.696  10.958 -0.0795 -0.0376 -0.9794
  768MPD2    C211336   0.503   0.629  11.070 -0.8167  0.1227  0.2401
  768MPD2    C311337   0.628   0.593  11.097 -0.4025  0.6242  0.0586
  768MPD2    C411338   0.725   0.635  11.006  0.6696  0.9094  0.3775
  768MPD2    C511339   0.692   0.700  10.889 -0.1109  0.6255  0.1165
  768MPD2     H11340   0.431   0.600  11.145  1.2426  2.2395  3.0493
  768MPD2    H111341   0.829   0.606  11.013 -0.0609 -1.7298  0.4693
  768MPD2    H211342   0.531   0.774  10.775 -2.9229  0.7149  1.0647
  768MPD2    H311343   0.764   0.724  10.811  0.3115 -1.0096 -0.0024
  768MPD2     N11344   0.669   0.516  11.208 -0.2571 -0.1554 -0.1901
  768MPD2    H511345   0.767   0.517  11.234 -0.6879  2.1614  1.3608
  768MPD2    N111346   0.330   0.737  10.944  0.2062 -0.3010 -0.2870
  768MPD2    H711347   0.265   0.720  11.021 -1.0990  1.0643 -1.0966
  769MPD2     C11348   1.497   3.292  15.131 -0.3671 -0.2998 -0.1261
  769MPD2    C111349   1.421   3.275  15.247  0.2438  0.1974 -0.2892
  769MPD2    C211350   1.470   3.329  15.366  0.6116  0.2761  0.0070
  769MPD2    C311351   1.587   3.397  15.372  0.6483 -0.3552  0.3679
  769MPD2    C411352   1.654   3.417  15.255 -0.0842  0.4750 -0.1180
  769MPD2    C511353   1.613   3.360  15.139  0.0983 -1.1102 -0.1915
  769MPD2     H11354   1.414   3.322  15.459  0.6922 -3.1041 -0.1907
  769MPD2    H111355   1.753   3.461  15.252 -0.0928  0.5565  0.7512
  769MPD2    H211356   1.467   3.246  15.038  0.4004 -1.6619  0.3100
  769MPD2    H311357   1.677   3.372  15.053  0.8824  0.1675  0.5903
  769MPD2     N11358   1.631   3.436  15.504  0.2411  0.9791  0.0380
  769MPD2    H511359   1.562   3.412  15.575  1.7289  0.7712  1.4128
  769MPD2    N111360   1.305   3.192  15.233  0.0757 -0.4769 -0.0546
  769MPD2    H711361   1.268   3.175  15.140 -0.1262  1.0968 -0.2704
  770MPD2     C11362   0.674   2.509  15.698  0.6019  0.0360  0.2933
  770MPD2    C111363   0.767   2.473  15.601  0.3313  0.4050 -0.4048
  770MPD2    C211364   0.800   2.580  15.518 -0.1602 -0.2003 -0.5202
  770MPD2    C311365   0.757   2.708  15.536  0.2091 -0.0595 -0.4099
  770MPD2    C411366   0.666   2.743  15.631  0.2496  0.0102  0.3640
  770MPD2    C511367   0.626   2.640  15.721  0.1701 -0.1812  0.5627
  770MPD2     H11368   0.860   2.570  15.428  0.6350 -1.5414  0.1629
  770MPD2    H111369   0.631   2.844  15.646  2.0143  0.3205  2.4777
  770MPD2    H211370   0.643   2.438  15.774 -1.0498 -0.2464 -0.6342
  770MPD2    H311371   0.548   2.666  15.791 -0.7394 -1.9759  0.2047
  770MPD2     N11372   0.812   2.795  15.439  0.0704 -0.3222 -0.4893
  770MPD2    H511373   0.876   2.770  15.365  0.7678 -2.7959  0.9563
  770MPD2    N111374   0.809   2.340  15.581  0.4003 -0.2134 -0.1032
  770MPD2    H711375   0.763   2.269  15.638  0.0559 -2.3786 -3.1092
  771MPD2     C11376   2.061   1.268  14.289 -0.1605  0.4077  0.6690
  771MPD2    C111377   2.107   1.321  14.168 -0.6675  0.6566  0.4520
  771MPD2    C211378   2.149   1.237  14.075 -0.2639 -0.1858  0.8969
  771MPD2    C311379   2.162   1.106  14.089 -0.3399  1.2730 -0.9584
  771MPD2    C411380   2.130   1.048  14.212 -0.0827  0.2687  0.3172
  771MPD2    C511381   2.078   1.131  14.310 -0.0214 -0.0583 -0.0245
  771MPD2     H11382   2.171   1.279  13.977 -2.3939  1.2495  1.0520
  771MPD2    H111383   2.145   0.944  14.241 -1.2390 -0.2938 -1.0927
  771MPD2    H211384   2.027   1.327  14.374 -1.7254  0.8544 -0.2663
  771MPD2    H311385   2.053   1.097  14.410  0.8022 -2.7515 -0.7480
  771MPD2     N11386   2.202   1.045  13.974 -0.4435  0.3071 -0.4899
  771MPD2    H511387   2.226   1.093  13.888  0.2745  0.1679 -0.3663
  771MPD2    N111388   2.107   1.462  14.138 -0.7911  0.1188 -0.3852
  771MPD2    H711389   2.167   1.490  14.061 -0.6158 -0.5583 -0.5024
  772MPD2     C11390   1.692   2.157  13.987  0.9306 -0.4492 -0.5415
  772MPD2    C111391   1.701   2.020  14.007  0.1192  0.5783 -0.4446
  772MPD2    C211392   1.582   1.947  14.005  0.1387  0.2046 -0.0551
  772MPD2    C311393   1.458   2.005  13.980  0.0505  1.5072  0.5743
  772MPD2    C411394   1.452   2.139  13.965 -0.5294 -0.2917  0.9352
  772MPD2    C511395   1.566   2.216  13.966 -0.2160 -0.0708 -0.2118
  772MPD2     H11396   1.583   1.841  14.027  0.5652  0.7460  2.5666
  772MPD2    H111397   1.357   2.185  13.938  0.9693  2.6065  0.5599
  772MPD2    H211398   1.779   2.222  13.995  0.1029  0.8714 -2.1217
  772MPD2    H311399   1.558   2.323  13.953 -1.0572 -0.0475  0.4822
  772MPD2     N11400   1.340   1.928  13.965  0.0590  0.2792 -0.4099
  772MPD2    H511401   1.261   1.985  13.937  0.2455  0.0241 -1.4894
  772MPD2    N111402   1.815   1.947  14.036 -0.0793 -0.1468 -0.0910
  772MPD2    H711403   1.809   1.846  14.049 -0.5044 -0.1049  0.0173
  773MPD2     C11404   1.325   2.280   0.502 -0.0964  0.2113 -0.2991
  773MPD2    C111405   1.220   2.193   0.482  0.0492 -0.9835 -0.6286
  773MPD2    C211406   1.202   2.089   0.572 -0.4151  0.3647  0.0589
  773MPD2    C311407   1.271   2.069   0.690 -0.2002  0.1334 -0.1828
  773MPD2    C411408   1.369   2.161   0.707  0.3711  0.3425  0.3916
  773MPD2    C511409   1.395   2.266   0.620 -0.2141 -0.1886  0.9575
  773MPD2     H11410   1.113   2.027   0.572  2.0579 -3.1349 -0.4334
  773MPD2    H111411   1.427   2.164   0.799 -0.7417 -2.6710  1.2108
  773MPD2    H211412   1.348   2.364   0.437 -1.7398  1.6636  0.9849
  773MPD2    H311413   1.469   2.345   0.634 -0.0772 -0.3983  1.4250
  773MPD2     N11414   1.249   1.964   0.783 -0.3513  0.1320  0.4551
  773MPD2    H511415   1.170   1.902   0.773 -1.0407  0.8595  1.3626
  773MPD2    N111416   1.129   2.206   0.371 -0.4266 -0.2529  0.0561
  773MPD2    H711417   1.060   2.133   0.357  0.4763 -0.9467 -0.8570
  774MPD2     C11418   0.515   1.491  13.212 -0.9541 -0.0147  0.4524
  774MPD2    C111419   0.466   1.616  13.249 -0.0064  0.1500  0.4041
  774MPD2    C211420   0.535   1.727  13.206  0.0786 -0.1463  1.2959
  774MPD2    C311421   0.648   1.719  13.131 -0.2127 -0.5269 -0.3036
  774MPD2    C411422   0.685   1.594  13.084 -0.1746 -0.1302 -0.7217
  774MPD2    C511423   0.621   1.481  13.126 -0.0495 -0.4068 -0.1280
  774MPD2     H11424   0.506   1.826  13.238  2.8657  1.0625  0.0599
  774MPD2    H111425   0.775   1.579  13.026 -0.5690 -0.9026 -1.1298
  774MPD2    H211426   0.468   1.399  13.244 -0.4572  0.1296  1.5954
  774MPD2    H311427   0.667   1.389  13.092  2.6696  1.2643 -0.9588
  774MPD2     N11428   0.716   1.835  13.101 -0.0923  0.2047 -0.1764
  774MPD2    H511429   0.688   1.911  13.162 -1.5549 -1.9634  1.8359
  774MPD2    N111430   0.364   1.640  13.341 -0.0973 -0.0282 -0.9073
  774MPD2    H711431   0.348   1.735  13.371  0.2649 -1.0882  2.5626
  775MPD2     C11432   1.800   3.175  15.979 -0.1685  0.0789  0.2424
  775MPD2    C111433   1.838   3.254  16.084  0.7318 -0.1882  0.5239
  775MPD2    C211434   1.939   3.351  16.071 -0.5563 -0.5625 -0.4750
  775MPD2    C311435   2.012   3.355  15.952 -0.1867  0.1807 -0.3825
  775MPD2    C411436   1.966   3.284  15.844  0.1880  0.4385  0.6532
  775MPD2    C511437   1.867   3.188  15.860  0.6659 -1.3804  0.4881
  775MPD2     H11438   1.967   3.393  16.166 -1.2762 -1.2004  0.0220
  775MPD2    H111439   2.008   3.287  15.745 -1.2010 -4.1758 -0.0721
  775MPD2    H211440   1.723   3.098  15.987  0.2189 -0.3356 -0.0536
  775MPD2    H311441   1.826   3.135  15.775  1.5190 -0.7711 -0.3089
  775MPD2     N11442   2.130   3.443  15.927 -0.5303 -0.1565  0.0690
  775MPD2    H511443   2.159   3.437  15.830 -0.4410  0.7551  0.0446
  775MPD2    N111444   1.767   3.226  16.204 -0.6135  0.1770 -0.4672
  775MPD2    H711445   1.728   3.133  16.196 -0.7680  0.3604 -1.6877
  776MPD2     C11446   1.097   3.587  11.962  0.1700  0.5216 -0.5722
  776MPD2    C111447   1.021   3.614  11.851 -0.6344 -0.2685 -0.6347
  776MPD2    C211448   1.035   3.739  11.800 -0.1786 -0.2707  0.1344
  776MPD2    C311449   1.098   3.844  11.868  0.1204 -0.9847  0.3310
  776MPD2    C411450   1.168   3.812  11.984 -0.3996 -0.7174  1.0386
  776MPD2    C511451   1.167   3.683  12.026  0.0380 -0.0075 -0.2501
  776MPD2     H11452   0.977   3.761  11.712 -0.6284 -1.8652  0.0175
  776MPD2    H111453   1.220   3.892  12.035 -1.0495 -0.2900  1.0330
  776MPD2    H211454   1.104   3.491  12.013  1.1558  1.5133  1.1679
  776MPD2    H311455   1.217   3.664  12.120 -0.9604  0.4919  0.3854
  776MPD2     N11456   1.106   3.975  11.819 -0.5313 -0.0300 -0.5332
  776MPD2    H511457   1.148   4.043  11.882  0.4669 -2.0102  0.9288
  776MPD2    N111458   0.932   3.513  11.802  0.3064  0.5416  0.3306
  776MPD2    H711459   0.930   3.429  11.859 -0.7431  1.4252  1.5823
  777MPD2     C11460   1.064   0.956   1.130 -0.2698  0.6077  0.1028
  777MPD2    C111461   0.955   0.891   1.195  0.0183 -0.4214  0.0613
  777MPD2    C211462   0.870   0.809   1.112 -0.2606 -0.3249 -0.2194
  777MPD2    C311463   0.906   0.783   0.980 -0.1563  0.3329  0.0296
  777MPD2    C411464   1.016   0.848   0.922  0.3200 -0.3723 -0.5800
  777MPD2    C511465   1.093   0.933   0.994  0.9940  0.4301 -0.3379
  777MPD2     H11466   0.784   0.762   1.159 -0.7080 -1.0127 -1.7350
  777MPD2    H111467   1.039   0.833   0.817  1.9682 -1.7949 -0.0113
  777MPD2    H211468   1.131   1.016   1.189  0.3508  0.9870 -0.9935
  777MPD2    H311469   1.177   0.981   0.945  1.1070  2.5365  1.9112
  777MPD2     N11470   0.828   0.686   0.913 -0.0642 -0.5164 -0.7707
  777MPD2    H511471   0.764   0.645   0.981  0.4364 -0.9757 -0.5730
  777MPD2    N111472   0.925   0.926   1.333  0.1968  0.4204 -0.0429
  777MPD2    H711473   0.992   0.981   1.386 -0.0012 -0.1823  0.8261
  778MPD2     C11474   2.248   1.184  15.412  0.5948 -0.2596  0.1148
  778MPD2    C111475   2.197   1.086  15.333  0.1001  0.7867  0.1896
  778MPD2    C211476   2.229   1.091  15.200 -0.6847  0.1551  0.7684
  778MPD2    C311477   2.302   1.194  15.146 -0.1163 -0.1725 -0.6938
  778MPD2    C411478   2.355   1.292  15.228 -0.1846  0.0574 -0.6678
  778MPD2    C511479   2.335   1.280  15.365 -0.2522  0.0076  0.7516
  778MPD2     H11480   2.197   1.007  15.139 -1.1444  0.4760  0.5714
  778MPD2    H111481   2.431   1.361  15.195 -0.7634  1.5056  1.0619
  778MPD2    H211482   2.236   1.190  15.520  1.0300 -0.4163  0.1699
  778MPD2    H311483   2.383   1.347  15.436  0.5102  1.6566 -1.3117
  778MPD2     N11484   2.327   1.178  15.008  0.2021  0.4105 -0.5675
  778MPD2    H511485   2.285   1.098  14.962  2.0684 -0.9277  0.0723
  778MPD2    N111486   2.114   0.978  15.377  0.1224  0.0455 -0.0006
  778MPD2    H711487   2.087   0.916  15.301  0.6311 -1.6083  1.1777
  779MPD2     C11488   1.781   4.526  14.776  0.2899  0.1094  0.0210
  779MPD2    C111489   1.906   4.572  14.740  0.1850  0.6229 -0.1505
  779MPD2    C211490   1.923   4.706  14.709  0.5935  0.5120 -0.3390
  779MPD2    C311491   1.812   0.070  14.717 -0.5337 -0.1898 -0.1759
  779MPD2    C411492   1.685   0.023  14.753  0.1746  0.3092 -0.2805
  779MPD2    C511493   1.673   4.610  14.782 -0.0239  0.1494  0.0663
  779MPD2     H11494   2.021   0.027  14.683  0.8323 -0.1465 -0.4734
  779MPD2    H111495   1.595   0.084  14.760 -0.6887 -1.1135  0.9846
  779MPD2    H211496   1.757   4.425  14.807 -0.8141  0.5999  0.7383
  779MPD2    H311497   1.580   4.564  14.813 -0.0745  0.6516  0.6717
  779MPD2     N11498   1.845   0.205  14.702  0.3530  0.6433 -0.2294
  779MPD2    H511499   1.938   0.234  14.676  1.0784 -0.4741  1.0609
  779MPD2    N111500   2.012   4.483  14.723  0.2303 -0.0758  0.0603
  779MPD2    H711501   2.099   4.526  14.692 -0.4613  1.6048  0.4468
  780MPD2     C11502   1.539   4.257   1.450  0.1952  0.2664 -0.1028
  780MPD2    C111503   1.446   4.195   1.368  0.0188 -0.3885  0.2192
  780MPD2    C211504   1.438   4.238   1.240 -0.2537  0.0577 -0.3206
  780MPD2    C311505   1.512   4.342   1.187  0.5951  0.2862  0.1846
  780MPD2    C411506   1.597   4.404   1.270 -0.2507  0.3712 -0.6592
  780MPD2    C511507   1.608   4.361   1.398 -0.6188 -0.7676 -0.1113
  780MPD2     H11508   1.367   4.188   1.175  0.5213 -0.1533 -1.0074
  780MPD2    H111509   1.648   4.492   1.233  2.1462 -0.6035  0.3490
  780MPD2    H211510   1.566   4.217   1.547 -0.6716 -0.7885 -0.2922
  780MPD2    H311511   1.688   4.400   1.460 -0.2948 -3.7839  1.3675
  780MPD2     N11512   1.499   4.383   1.052 -0.4209  0.2200 -0.7165
  780MPD2    H511513   1.422   4.345   0.998 -0.9516 -1.1622  1.0367
  780MPD2    N111514   1.354   4.103   1.419  0.1606 -1.3044 -1.0192
  780MPD2    H711515   1.376   4.058   1.507  1.1408  0.5121 -0.3271
  781MPD2     C11516   3.168   1.351  11.964  0.6826  0.2802  0.0724
  781MPD2    C111517   3.211   1.472  12.009 -0.1582  0.5327 -0.4563
  781MPD2    C211518   3.324   1.523  11.948  0.1256  0.4820  0.2276
  781MPD2    C311519   3.386   1.454  11.842  0.0742  0.3137 -0.5875
  781MPD2    C411520   3.343   1.331  11.803  1.0280 -0.6218  0.6169
  781MPD2    C511521   3.231   1.284  11.863 -0.2319 -0.2691  0.6083
  781MPD2     H11522   3.366   1.615  11.987  2.3707 -0.6073  0.3992
  781MPD2    H111523   3.398   1.272  11.731  3.5068  0.4976  1.6193
  781MPD2    H211524   3.093   1.292  12.016  0.8291 -0.4959 -0.6066
  781MPD2    H311525   3.205   1.179  11.852 -0.0212 -0.2745  0.1398
  781MPD2     N11526   3.504   1.503  11.786  0.7717 -0.0140 -0.3278
  781MPD2    H511527   3.542   1.449  11.708  0.4158 -1.1180  0.2630
  781MPD2    N111528   3.163   1.548  12.114  0.6189  0.7094  0.5088
  781MPD2    H711529   3.212   1.634  12.138  0.2215  0.2803  2.9057
  782MPD2     C11530   1.351   2.232  10.571 -0.5566 -0.4597  0.0339
  782MPD2    C111531   1.475   2.182  10.600  0.0559 -0.0861 -0.2260
  782MPD2    C211532   1.569   2.266  10.651  0.4155 -0.4397 -0.7032
  782MPD2    C311533   1.538   2.399  10.668 -0.8369 -0.2226 -1.1779
  782MPD2    C411534   1.416   2.447  10.640  0.3184 -0.3990 -0.2327
  782MPD2    C511535   1.323   2.360  10.594 -0.2320 -0.3628 -0.3311
  782MPD2     H11536   1.670   2.229  10.662 -1.0892 -3.4969  2.5956
  782MPD2    H111537   1.392   2.552  10.654 -1.9407 -0.9341 -0.0033
  782MPD2    H211538   1.265   2.173  10.544 -0.9422 -0.1910  0.6592
  782MPD2    H311539   1.221   2.395  10.592  0.1566  0.5562 -4.3380
  782MPD2     N11540   1.646   2.480  10.710  0.4123  0.2462  0.2791
  782MPD2    H511541   1.724   2.428  10.751  0.3483  0.4350  0.6433
  782MPD2    N111542   1.494   2.041  10.574 -0.1137  0.3525 -0.7238
  782MPD2    H711543   1.416   1.978  10.555 -0.8373 -0.0100  3.2949
  783MPD2     C11544   1.014   1.720  11.135  0.1078 -0.6210  0.4562
  783MPD2    C111545   1.071   1.841  11.100 -0.1461 -0.4937 -1.1042
  783MPD2    C211546   1.159   1.830  10.997 -0.3135 -0.0847  0.0280
  783MPD2    C311547   1.209   1.712  10.944 -0.1725 -0.3497 -0.1945
  783MPD2    C411548   1.159   1.595  10.979  0.5133  0.0156  0.4746
  783MPD2    C511549   1.058   1.603  11.075 -0.4930 -0.6031  0.0484
  783MPD2     H11550   1.200   1.921  10.955  0.5891 -0.1317  0.8055
  783MPD2    H111551   1.193   1.499  10.943  2.5749  1.7452 -2.2175
  783MPD2    H211552   0.945   1.723  11.219 -1.0907  0.7836 -0.5790
  783MPD2    H311553   1.013   1.509  11.105 -0.9472 -1.2297 -2.5438
  783MPD2     N11554   1.319   1.726  10.855 -0.7502 -0.3258  0.2288
  783MPD2    H511555   1.370   1.811  10.838  0.2104 -1.4733 -2.7311
  783MPD2    N111556   1.023   1.958  11.156 -0.1377 -0.1958  0.4201
  783MPD2    H711557   0.962   1.952  11.237  1.2098 -0.1657  1.4328
  784MPD2     C11558   3.701   2.155   0.499  0.0885  0.1824  0.0131
  784MPD2    C111559   3.713   2.221   0.618 -0.5127 -0.0593 -0.0383
  784MPD2    C211560   3.598   2.286   0.671  0.6768  0.0925  0.1153
  784MPD2    C311561   3.479   2.300   0.605  0.0900 -0.3525  0.8463
  784MPD2    C411562   3.476   2.241   0.477  0.1045  0.6242  0.4400
  784MPD2    C511563   3.587   2.178   0.427 -0.0822 -0.3354 -0.4434
  784MPD2     H11564   3.606   2.336   0.767 -1.8533  0.1108  0.3118
  784MPD2    H111565   3.387   2.251   0.417  0.8624  0.3711 -0.7377
  784MPD2    H211566   3.782   2.105   0.447  0.2779  1.7983 -1.2580
  784MPD2    H311567   3.576   2.148   0.324 -1.4615 -2.0827  0.2045
  784MPD2     N11568   3.371   2.375   0.657  0.3744 -0.8135  0.6269
  784MPD2    H511569   3.386   2.414   0.750  1.5262  0.0827  0.0665
  784MPD2    N111570   3.830   2.231   0.697 -0.6546  0.0666  0.2163
  784MPD2    H711571   3.819   2.278   0.786 -0.7047 -0.9745  0.7664
  785MPD2     C11572   3.977   1.064  10.625 -0.0264 -0.1815  0.1066
  785MPD2    C111573   3.894   1.038  10.732 -0.2000 -0.0057  0.6357
  785MPD2    C211574   3.841   0.912  10.749 -0.1445  0.2949 -0.3688
  785MPD2    C311575   3.863   0.809  10.660 -1.0634 -0.7196 -0.6352
  785MPD2    C411576   3.933   0.845  10.541  0.2007  0.1655 -0.7698
  785MPD2    C511577   3.994   0.968  10.530  0.1008  0.2010  0.5180
  785MPD2     H11578   3.797   0.879  10.843 -0.6495 -1.9865 -1.4164
  785MPD2    H111579   3.930   0.783  10.452  1.2312 -0.1279 -0.5990
  785MPD2    H211580   4.026   1.160  10.618 -1.4696  0.3984 -1.9968
  785MPD2    H311581   4.050   0.998  10.442 -1.7202  1.7214 -0.1355
  785MPD2     N11582   3.791   0.689  10.688 -0.0509 -0.6900  0.2483
  785MPD2    H511583   3.754   0.681  10.783  0.3605 -1.1722  0.3676
  785MPD2    N111584   3.886   1.146  10.825 -0.4981  0.8025  0.5782
  785MPD2    H711585   3.952   1.221  10.807 -1.3661  1.0969 -1.3813
  786MPD2     C11586   2.465   3.976  14.823 -0.4119  0.3566  0.3322
  786MPD2    C111587   2.600   3.970  14.805 -0.6267  0.3386 -0.3657
  786MPD2    C211588   2.675   4.013  14.912 -0.4527 -0.3641  0.1230
  786MPD2    C311589   2.622   4.050  15.034 -0.2841  0.3998 -0.0417
  786MPD2    C411590   2.484   4.068  15.042  0.1299  0.9278 -0.0268
  786MPD2    C511591   2.410   4.017  14.942  0.7575 -0.4838  0.1629
  786MPD2     H11592   2.782   4.006  14.892 -0.4106 -0.8484  0.4936
  786MPD2    H111593   2.445   4.100  15.138  0.0599 -0.6808  0.4844
  786MPD2    H211594   2.402   3.949  14.738  1.0073  1.9089 -1.2181
  786MPD2    H311595   2.302   4.023  14.951  0.4620 -2.3875 -2.0362
  786MPD2     N11596   2.713   4.095  15.137  0.2075  0.0472 -0.2182
  786MPD2    H511597   2.667   4.120  15.223  0.9003 -1.1915  0.5179
  786MPD2    N111598   2.657   3.926  14.685 -0.8781 -0.3842  0.1022
  786MPD2    H711599   2.759   3.924  14.680 -1.0859 -2.3384 -2.7073
  787MPD2     C11600   2.684   3.403  14.680 -1.0236 -0.3613 -0.6373
  787MPD2    C111601   2.799   3.415  14.619 -0.0994  0.1717 -0.4869
  787MPD2    C211602   2.915   3.343  14.651 -0.1088  0.3412  0.1584
  787MPD2    C311603   2.893   3.245  14.749  0.5291  0.4011  0.4344
  787MPD2    C411604   2.767   3.227  14.809 -0.2138 -0.4687  0.2334
  787MPD2    C511605   2.665   3.309  14.771 -0.4654 -0.0796 -0.1424
  787MPD2     H11606   3.007   3.353  14.594 -1.1872 -2.2630 -2.0203
  787MPD2    H111607   2.750   3.149  14.882  0.6316  0.1819  1.1347
  787MPD2    H211608   2.602   3.466  14.649 -1.3801  0.1105  1.2467
  787MPD2    H311609   2.568   3.295  14.818 -0.0859 -1.5472  0.2098
  787MPD2     N11610   3.002   3.165  14.782  0.1809  0.2350  0.3043
  787MPD2    H511611   3.081   3.184  14.722 -0.0644  1.0445  0.2370
  787MPD2    N111612   2.790   3.516  14.521 -0.3345 -0.7562  1.2389
  787MPD2    H711613   2.702   3.564  14.501  0.0004 -0.0899  1.3579
  788MPD2     C11614   0.152   1.738   0.630  0.4957  0.7161  0.1812
  788MPD2    C111615   0.069   1.632   0.608  0.1367 -1.0207  0.4116
  788MPD2    C211616   0.025   1.619   0.478 -0.2973  0.1054  0.2792
  788MPD2    C311617   0.049   1.713   0.385 -0.9031  0.5651 -0.6191
  788MPD2    C411618   0.132   1.817   0.416 -0.0287  0.7482 -0.0098
  788MPD2    C511619   0.177   1.834   0.541 -0.2193 -0.2762 -0.3781
  788MPD2     H11620   4.689   1.531   0.447  2.1781 -1.3245 -0.1306
  788MPD2    H111621   0.149   1.888   0.336  1.5254 -2.0673 -2.2309
  788MPD2    H211622   0.179   1.769   0.730  0.8397  0.1276  0.2763
  788MPD2    H311623   0.234   1.922   0.567 -2.4948  0.4889  2.1236
  788MPD2     N11624   4.709   1.696   0.263 -0.0232  0.6036 -0.3143
  788MPD2    H511625   4.648   1.616   0.260  0.5892  0.1512 -0.7709
  788MPD2    N111626   0.034   1.543   0.709 -0.0305 -0.1559  0.5712
  788MPD2    H711627   4.676   1.480   0.696 -0.3761  0.3389  0.2696
  789MPD2     C11628   0.169   1.566  16.444 -0.9153  0.1014 -0.1020
  789MPD2    C111629   0.081   1.502  16.528 -0.3725  0.3452  0.7921
  789MPD2    C211630   4.681   1.565  16.571  0.2717 -0.0562 -0.6253
  789MPD2    C311631   4.662   1.702  16.553  0.1031 -0.5333 -0.0655
  789MPD2    C411632   0.040   1.773  16.480 -0.2242 -0.1383 -0.1089
  789MPD2    C511633   0.136   1.698  16.421  0.2378  0.5061 -0.3877
  789MPD2     H11634   4.611   1.502  16.623  0.9677  0.5876  1.0759
  789MPD2    H111635   0.030   1.880  16.464  2.3493  0.3925  1.8859
  789MPD2    H211636   0.262   1.528  16.404 -1.3416  1.4026 -2.3279
  789MPD2    H311637   0.202   1.758  16.359  0.4337 -0.3647 -1.0163
  789MPD2     N11638   4.551   1.773  16.609 -0.0752  0.5103 -0.0457
  789MPD2    H511639   4.539   1.868  16.575 -1.4937  1.1061  2.1327
  789MPD2    N111640   0.091   1.368  16.570 -0.1390 -0.8933 -0.2603
  789MPD2    H711641   0.033   1.341  16.648 -2.5069 -0.3980 -1.8582
  790MPD2     C11642   1.140   4.024  13.717 -0.0850 -1.2072 -1.1279
  790MPD2    C111643   1.173   3.895  13.743  0.3256 -0.4816  0.0232
  790MPD2    C211644   1.153   3.795  13.651 -0.2041  0.1579 -0.3382
  790MPD2    C311645   1.100   3.829  13.526  0.1040  0.9248 -0.1908
  790MPD2    C411646   1.073   3.961  13.499 -0.3655  0.1430 -0.0498
  790MPD2    C511647   1.084   4.056  13.598 -0.2483  0.6052 -0.3453
  790MPD2     H11648   1.166   3.689  13.671 -0.5831  0.3796  1.0450
  790MPD2    H111649   1.020   3.990  13.409  1.0689  0.1862 -0.8881
  790MPD2    H211650   1.148   4.108  13.784  0.0458 -0.9211 -1.5014
  790MPD2    H311651   1.053   4.157  13.577  0.7330  0.9558 -0.0882
  790MPD2     N11652   1.069   3.726  13.437 -0.0144  0.0709  0.4835
  790MPD2    H511653   1.069   3.630  13.468 -0.3595  0.2603  1.0593
  790MPD2    N111654   1.213   3.872  13.874 -0.0909  0.2426 -0.7367
  790MPD2    H711655   1.222   3.952  13.937 -2.3162  0.8180 -1.1522
  791MPD2     C11656   0.485   3.748  12.879  0.2052 -0.0773 -0.3334
  791MPD2    C111657   0.530   3.623  12.910  0.2741 -0.1207  0.4959
  791MPD2    C211658   0.470   3.509  12.860  0.8178 -0.2802 -0.5877
  791MPD2    C311659   0.346   3.521  12.801 -0.0300  0.1764 -0.2938
  791MPD2    C411660   0.296   3.648  12.773  0.5885 -0.2825  0.4594
  791MPD2    C511661   0.373   3.755  12.807  0.4555  0.0356  0.1394
  791MPD2     H11662   0.519   3.414  12.876  2.4297  0.8100  0.9832
  791MPD2    H111663   0.204   3.671  12.721 -0.6002 -2.1105  1.7792
  791MPD2    H211664   0.535   3.840  12.908  0.8066 -0.5196  0.0252
  791MPD2    H311665   0.323   3.849  12.785 -0.3437 -0.6877 -1.0812
  791MPD2     N11666   0.280   3.403  12.753  0.9086  0.1860  0.1087
  791MPD2    H511667   0.323   3.311  12.757  1.8162  0.5929 -0.2693
  791MPD2    N111668   0.653   3.628  12.986  0.1484  0.1082  0.5845
  791MPD2    H711669   0.689   3.718  13.013  0.4274 -0.4434  2.0546
  792MPD2     C11670   1.599   3.406  11.480  0.4891  0.4020  0.1976
  792MPD2    C111671   1.473   3.450  11.460  0.8017  0.2330  0.5080
  792MPD2    C211672   1.394   3.382  11.370  0.5428  0.2443 -0.7180
  792MPD2    C311673   1.434   3.258  11.318 -0.6568 -0.2630 -0.1742
  792MPD2    C411674   1.562   3.212  11.346 -0.7431 -0.4715  0.1814
  792MPD2    C511675   1.637   3.285  11.430 -0.4101  0.2554  0.9716
  792MPD2     H11676   1.299   3.423  11.340  0.9106  1.4390 -0.2481
  792MPD2    H111677   1.596   3.118  11.304  1.2047  0.7579 -1.0010
  792MPD2    H211678   1.669   3.459  11.544  2.0381 -1.9229  0.4162
  792MPD2    H311679   1.740   3.256  11.449 -0.3744 -0.5549 -0.4162
  792MPD2     N11680   1.351   3.192  11.225 -0.0832 -0.4768 -0.0730
  792MPD2    H511681   1.386   3.102  11.194 -0.8993 -1.3081  1.4099
  792MPD2    N111682   1.436   3.582  11.509  0.1013  0.1558 -0.0343
  792MPD2    H711683   1.514   3.633  11.549 -0.2113  1.2000 -0.7425
  793MPD2     C11684   0.489   3.395  10.715 -0.0242  0.6547 -0.3292
  793MPD2    C111685   0.614   3.427  10.665 -0.2673 -0.1253  0.0379
  793MPD2    C211686   0.721   3.371  10.739 -0.3028 -0.2777 -0.2690
  793MPD2    C311687   0.708   3.301  10.863 -0.3312 -0.3736 -0.5608
  793MPD2    C411688   0.580   3.291  10.921 -0.1057  0.3658 -0.1107
  793MPD2    C511689   0.472   3.328  10.836 -0.2910 -0.6532 -0.8046
  793MPD2     H11690   0.821   3.380  10.697 -1.0334  0.0358 -1.9228
  793MPD2    H111691   0.566   3.238  11.014 -1.1023 -1.8123 -1.5091
  793MPD2    H211692   0.391   3.421  10.676  0.2456  1.0378 -0.7500
  793MPD2    H311693   0.371   3.306  10.868  0.3095 -1.3142  0.6564
  793MPD2     N11694   0.821   3.245  10.921 -0.1760  0.3464  0.2921
  793MPD2    H511695   0.909   3.264  10.872 -0.2140  0.4308  0.2554
  793MPD2    N111696   0.643   3.480  10.539  0.3200  0.0183  0.1696
  793MPD2    H711697   0.736   3.513  10.515  0.8407  0.9389  3.4250
  794MPD2     C11698   0.882   2.725  17.363 -0.4346 -0.1570  0.4779
  794MPD2    C111699   0.817   2.604  17.380  0.3701 -0.4643 -0.0684
  794MPD2    C211700   0.716   2.572  17.292  0.2823 -0.0545  0.1383
  794MPD2    C311701   0.666   2.664  17.203  0.4193 -0.5917  0.4661
  794MPD2    C411702   0.723   2.790  17.195 -0.5513  0.2480  1.0135
  794MPD2    C511703   0.830   2.813  17.271  0.3032  0.6680  0.0086
  794MPD2     H11704   0.656   2.482  17.296 -1.3143  1.0203  0.3589
  794MPD2    H111705   0.682   2.864  17.128 -1.5861  0.0535  1.4232
  794MPD2    H211706   0.967   2.752  17.425  0.9664 -0.3047 -1.3688
  794MPD2    H311707   0.877   2.911  17.270 -0.7523  1.1357 -2.4794
  794MPD2     N11708   0.558   2.630  17.118  0.2370  0.0397  0.0257
  794MPD2    H511709   0.507   2.710  17.081 -1.7939 -0.8014  1.0264
  794MPD2    N111710   0.838   2.510  17.483  0.1037  0.3252 -0.5526
  794MPD2    H711711   0.762   2.443  17.492 -0.4290  0.9211 -0.6095
  795MPD2     C11712   3.866   0.369  13.306  0.6424  0.2411 -0.1988
  795MPD2    C111713   3.827   0.253  13.367 -0.2305  0.2496 -0.1209
  795MPD2    C211714   3.916   0.140  13.373  0.0054 -0.5336  0.6503
  795MPD2    C311715   4.049   0.156  13.333 -0.4344 -0.0181  0.0236
  795MPD2    C411716   4.091   0.276  13.279  0.1838  0.4027 -0.1231
  795MPD2    C511717   3.998   0.378  13.268  0.2186 -0.1517 -0.3779
  795MPD2     H11718   3.877   0.046  13.410 -2.2121  0.5609  1.1252
  795MPD2    H111719   4.192   0.298  13.248  0.5509 -2.0342 -0.6232
  795MPD2    H211720   3.804   0.457  13.299  1.6501  0.8968 -0.8690
  795MPD2    H311721   4.033   0.471  13.225  1.3501 -1.5379 -2.4051
  795MPD2     N11722   4.143   0.057  13.353 -0.2871  0.0818 -0.4805
  795MPD2    H511723   4.117   4.697  13.409  2.9539  0.2505  1.2409
  795MPD2    N111724   3.693   0.232  13.401  0.0337  0.6006  0.3959
  795MPD2    H711725   3.665   0.138  13.426  0.0150  0.6094  0.4076
  796MPD2     C11726   2.813   1.602  16.060  0.1994 -0.1447 -0.1790
  796MPD2    C111727   2.764   1.687  16.158  0.6954 -0.2765 -0.4735
  796MPD2    C211728   2.732   1.820  16.132  0.0654 -0.1031  0.4538
  796MPD2    C311729   2.766   1.871  16.007 -0.1471  0.2257  0.4777
  796MPD2    C411730   2.819   1.789  15.906  0.4938  0.1588  0.5152
  796MPD2    C511731   2.838   1.657  15.939  0.1074 -0.4795  0.1049
  796MPD2     H11732   2.686   1.884  16.206 -0.0938  0.8992 -0.5177
  796MPD2    H111733   2.849   1.818  15.806 -0.0508  1.4661  0.7345
  796MPD2    H211734   2.852   1.502  16.075 -1.7239 -1.1806 -2.0559
  796MPD2    H311735   2.875   1.587  15.865  1.7709  0.2007  0.2963
  796MPD2     N11736   2.740   2.008  15.976 -0.4105  0.2469  0.0806
  796MPD2    H511737   2.691   2.063  16.046  0.7160 -0.5562  1.4835
  796MPD2    N111738   2.754   1.632  16.289  0.5562 -0.0473  0.3255
  796MPD2    H711739   2.778   1.536  16.310 -0.3164 -0.3381 -0.0562
  797MPD2     C11740   3.662   1.154  17.548  0.2466 -0.2115 -0.5146
  797MPD2    C111741   3.581   1.160  17.663  0.2291 -1.0575 -0.2544
  797MPD2    C211742   3.457   1.235  17.659 -0.2155  0.1644  0.1396
  797MPD2    C311743   3.423   1.296  17.544  0.3396  0.1847  0.5836
  797MPD2    C411744   3.500   1.283  17.437 -0.4628  0.5881  0.2429
  797MPD2    C511745   3.620   1.225  17.438  0.1006 -0.6245 -0.5576
  797MPD2     H11746   3.393   1.244   0.062  1.2564  1.4987  1.0734
  797MPD2    H111747   3.467   1.343  17.353  0.4785 -1.8352 -1.8699
  797MPD2    H211748   3.758   1.104  17.549 -0.2583 -1.1609  0.0925
  797MPD2    H311749   3.684   1.232  17.351  1.5901  1.6297  0.7260
  797MPD2     N11750   3.302   1.358  17.526  0.7679 -0.2113  0.2531
  797MPD2    H511751   3.302   1.417  17.443  1.5288 -1.4139 -0.6120
  797MPD2    N111752   3.616   1.093   0.098 -0.4425 -0.4363  0.1232
  797MPD2    H711753   3.551   1.100   0.175 -2.7053  1.2103 -1.9184
  798MPD2     C11754   3.279   1.538   0.519  0.1927  0.4498  0.4553
  798MPD2    C111755   3.347   1.539   0.395 -0.1668 -0.4379 -0.5575
  798MPD2    C211756   3.474   1.488   0.387  0.2701 -0.6839 -0.5923
  798MPD2    C311757   3.537   1.420   0.497 -0.2009  0.3161 -0.2233
  798MPD2    C411758   3.472   1.416   0.619  0.7702 -0.1877 -0.0433
  798MPD2    C511759   3.344   1.467   0.622 -0.2752  0.0288  0.0841
  798MPD2     H11760   3.524   1.495   0.291  1.5115  1.4206  0.2148
  798MPD2    H111761   3.515   1.371   0.708  1.5222  0.7227  0.0515
  798MPD2    H211762   3.179   1.574   0.534 -0.4606 -1.5638  1.0048
  798MPD2    H311763   3.300   1.463   0.721 -0.1770 -1.9278  0.0455
  798MPD2     N11764   3.648   1.339   0.457  0.5890 -0.0129 -0.3527
  798MPD2    H511765   3.682   1.341   0.362  0.7141  0.5069 -0.2985
  798MPD2    N111766   3.294   1.608   0.287 -0.2779  0.5518 -0.2172
  798MPD2    H711767   3.199   1.642   0.300  0.5989  2.5075  1.1421
  799MPD2     C11768   2.551   2.841  14.857 -0.6570  0.4138 -0.6547
  799MPD2    C111769   2.563   2.768  14.742 -0.1010 -0.0923  0.4963
  799MPD2    C211770   2.503   2.812  14.623  0.0392  0.1222  0.6268
  799MPD2    C311771   2.439   2.930  14.623  0.2581  0.1342  0.5682
  799MPD2    C411772   2.416   3.004  14.735 -0.4714 -0.2816  0.2680
  799MPD2    C511773   2.481   2.958  14.849 -0.2283  0.9681  0.2077
  799MPD2     H11774   2.517   2.756  14.531  0.9374  1.6091 -0.1335
  799MPD2    H111775   2.349   3.089  14.735 -2.0766 -1.5518  1.2276
  799MPD2    H211776   2.594   2.808  14.951 -2.8605  0.1649  0.2638
  799MPD2    H311777   2.461   3.017  14.937  2.1897 -1.3368  2.2951
  799MPD2     N11778   2.363   2.980  14.510  0.2494 -0.1225 -0.6725
  799MPD2    H511779   2.313   3.066  14.527 -1.1862 -0.8761 -1.1029
  799MPD2    N111780   2.655   2.663  14.730  0.1489 -0.4996 -0.1731
  799MPD2    H711781   2.669   2.632  14.634  1.8022 -1.6861  0.4507
  800MPD2     C11782   3.281   4.231  14.096 -0.3059  0.1710 -0.3781
  800MPD2    C111783   3.401   4.282  14.044 -0.1505  0.9597  0.3699
  800MPD2    C211784   3.464   4.201  13.951 -0.3206 -0.5280 -0.2504
  800MPD2    C311785   3.413   4.086  13.904  0.1417  0.4213 -0.3209
  800MPD2    C411786   3.291   4.040  13.954  0.3975 -0.5155 -0.5859
  800MPD2    C511787   3.233   4.110  14.054 -0.8158 -0.4160  0.8409
  800MPD2     H11788   3.553   4.237  13.902 -1.0277 -0.4390 -1.4876
  800MPD2    H111789   3.256   3.942  13.922  0.8319 -0.5755 -0.8801
  800MPD2    H211790   3.227   4.275  14.179 -0.7373 -4.0981  1.5953
  800MPD2    H311791   3.132   4.082  14.082 -1.1016 -0.2960 -0.0835
  800MPD2     N11792   3.493   4.007  13.821 -0.1709 -0.2869 -0.1877
  800MPD2    H511793   3.588   4.042  13.812 -0.7194  0.6992 -2.1520
  800MPD2    N111794   3.450   4.403  14.093  0.0847  0.3413 -0.2357
  800MPD2    H711795   3.399   4.450  14.167  1.9191 -1.0653  1.9365
  801MPD2     C11796   3.226   0.275  14.486 -0.1589 -0.3445  0.1482
  801MPD2    C111797   3.199   0.152  14.422 -0.2002  0.3998  0.3886
  801MPD2    C211798   3.068   0.117  14.405  0.4026  0.0855 -0.6465
  801MPD2    C311799   2.967   0.198  14.444  0.0714  0.1242 -0.6093
  801MPD2    C411800   2.997   0.306  14.521 -0.4681 -0.1258  1.1030
  801MPD2    C511801   3.126   0.344  14.547 -0.4203 -1.2713 -0.3225
  801MPD2     H11802   3.052   0.023  14.352 -0.0971 -0.7239  0.9573
  801MPD2    H111803   2.908   0.358  14.554 -2.6143 -1.4495 -2.5412
  801MPD2    H211804   3.326   0.309  14.511  0.5676 -0.9416 -1.9488
  801MPD2    H311805   3.156   0.425  14.612 -0.5228 -1.6523  0.1998
  801MPD2     N11806   2.831   0.157  14.421 -0.5573 -0.5602 -0.0774
  801MPD2    H511807   2.757   0.198  14.477 -0.8145  0.1195 -0.8991
  801MPD2    N111808   3.297   0.070  14.365 -0.0543  0.1807  0.3450
  801MPD2    H711809   3.265   4.701  14.330 -1.5799  0.7777  0.2192
  802MPD2     C11810   2.500   0.341   0.632 -1.1638  0.3153 -0.3997
  802MPD2    C111811   2.454   0.423   0.525 -0.6906  1.1620  0.9502
  802MPD2    C211812   2.522   0.425   0.406 -0.4340  0.6699  0.5414
  802MPD2    C311813   2.644   0.358   0.398 -0.3348 -0.2749 -0.2485
  802MPD2    C411814   2.686   0.280   0.502  0.1865 -0.0637 -0.2292
  802MPD2    C511815   2.619   0.271   0.624  0.3108  0.4972 -0.0097
  802MPD2     H11816   2.483   0.478   0.320 -0.1131 -1.4484 -0.9013
  802MPD2    H111817   2.781   0.229   0.506 -0.0498 -0.4140  1.1020
  802MPD2    H211818   2.433   0.320   0.715 -0.7573 -1.6995 -0.5809
  802MPD2    H311819   2.638   0.207   0.709 -0.5327 -2.8926 -2.3988
  802MPD2     N11820   2.729   0.378   0.278  0.1069  0.2167 -0.1673
  802MPD2    H511821   2.696   0.449   0.212 -0.5291 -0.1606 -0.2570
  802MPD2    N111822   2.325   0.486   0.529  0.2462  0.3437 -0.0432
  802MPD2    H711823   2.261   0.463   0.605  1.0116 -2.2299 -0.1813
  803MPD2     C11824   3.837   3.597  11.827 -0.2025  0.2615  0.4497
  803MPD2    C111825   3.936   3.557  11.916  0.4938 -0.3924 -0.1865
  803MPD2    C211826   3.896   3.484  12.024  0.3421  0.5723  0.7327
  803MPD2    C311827   3.767   3.447  12.040 -0.1837  0.6668 -0.3086
  803MPD2    C411828   3.668   3.484  11.949  0.2336  0.1633 -0.3231
  803MPD2    C511829   3.706   3.562  11.844 -0.5402 -0.3961 -0.2962
  803MPD2     H11830   3.979   3.441  12.079 -0.3472 -0.4740  0.9455
  803MPD2    H111831   3.564   3.452  11.952  0.3064 -0.0638 -0.2533
  803MPD2    H211832   3.862   3.666  11.748 -1.9684  1.2068  0.7137
  803MPD2    H311833   3.628   3.583  11.772  0.5892 -1.5693 -1.8947
  803MPD2     N11834   3.737   3.363  12.146  0.0749  0.4214  0.4722
  803MPD2    H511835   3.639   3.356  12.172  0.2243  0.8595  1.1621
  803MPD2    N111836   4.077   3.596  11.905 -0.1784  0.5701 -0.2025
  803MPD2    H711837   4.131   3.588  11.990  0.9863  0.3895 -0.9483
  804MPD2     C11838   3.308   4.465  17.158 -0.3642 -0.5195  0.0910
  804MPD2    C111839   3.267   4.430  17.283 -0.4623  0.2490  0.1969
  804MPD2    C211840   3.298   4.503  17.393  0.2012 -0.4363 -0.5540
  804MPD2    C311841   3.391   4.605  17.386  0.1149  0.5825 -0.3931
  804MPD2    C411842   3.446   4.629  17.258  0.4224  0.0639 -0.2013
  804MPD2    C511843   3.388   4.574  17.147 -0.8916  0.2510 -0.4042
  804MPD2     H11844   3.258   4.474  17.490 -1.1881  1.6448 -0.4944
  804MPD2    H111845   3.516   4.710  17.243  0.7203  0.3679  2.7556
  804MPD2    H211846   3.305   4.400  17.071 -0.1819  3.9271 -3.2578
  804MPD2    H311847   3.428   4.587  17.047  0.9484 -0.9062  0.1963
  804MPD2     N11848   3.449   4.673  17.501  0.0590 -0.8468 -0.7318
  804MPD2    H511849   3.540   4.717  17.491 -0.5912  0.4130 -1.1396
  804MPD2    N111850   3.205   4.306  17.308 -0.6006 -0.3737  0.2094
  804MPD2    H711851   3.183   4.284  17.404  0.9623  0.3761  0.7512
  805MPD2     C11852   2.403   3.184  15.774  0.0938 -0.1361 -0.0019
  805MPD2    C111853   2.444   3.190  15.645  0.0077  0.1197  0.3569
  805MPD2    C211854   2.553   3.123  15.611  0.7248  0.1700 -0.7908
  805MPD2    C311855   2.633   3.053  15.698  0.0172  0.1442 -0.0996
  805MPD2    C411856   2.601   3.070  15.831 -0.2416  0.2072 -0.2404
  805MPD2    C511857   2.484   3.130  15.871 -0.2829 -0.2792  0.4795
  805MPD2     H11858   2.572   3.111  15.505 -0.6483  0.4057 -1.0527
  805MPD2    H111859   2.653   3.018  15.910 -0.6646 -1.1613 -0.8667
  805MPD2    H211860   2.307   3.222  15.806 -0.1717  0.5658 -1.6033
  805MPD2    H311861   2.454   3.141  15.975  1.1630  0.8198  0.7765
  805MPD2     N11862   2.757   2.990  15.664 -0.6499  0.1161  0.5803
  805MPD2    H511863   2.795   3.018  15.574 -1.0264  2.4660  1.1552
  805MPD2    N111864   2.365   3.241  15.545 -0.4785 -0.7680  0.0846
  805MPD2    H711865   2.401   3.217  15.453 -0.6888  2.6482 -0.8989
  806MPD2     C11866   2.676   2.233   0.427  0.3955  0.1553  0.1727
  806MPD2    C111867   2.797   2.223   0.499 -0.3160  0.1944  0.1713
  806MPD2    C211868   2.910   2.286   0.453 -0.1199  0.4920  0.5039
  806MPD2    C311869   2.911   2.353   0.331 -0.0476 -0.3318 -0.3766
  806MPD2    C411870   2.800   2.344   0.252  0.0965 -0.5369  0.0250
  806MPD2    C511871   2.682   2.284   0.301  0.1530  0.1184 -0.1606
  806MPD2     H11872   3.003   2.282   0.508  0.6119  0.2085 -0.7661
  806MPD2    H111873   2.804   2.373   0.148 -0.7385  0.4499  0.2681
  806MPD2    H211874   2.580   2.194   0.461  1.0521 -2.6442 -1.1379
  806MPD2    H311875   2.600   2.294   0.231  1.8110 -0.3056 -2.1963
  806MPD2     N11876   3.033   2.410   0.282 -0.0119 -0.8139 -0.1412
  806MPD2    H511877   3.112   2.389   0.341 -0.8108  0.9452  1.5573
  806MPD2    N111878   2.784   2.144   0.613 -0.1580 -0.4516 -0.2760
  806MPD2    H711879   2.687   2.121   0.632 -0.2122 -0.7796 -0.9464
  807MPD2     C11880   2.653   1.430   0.773 -0.6326 -0.1607  0.1175
  807MPD2    C111881   2.605   1.494   0.887 -0.4637  0.3652  0.4514
  807MPD2    C211882   2.544   1.423   0.989 -0.5517  0.5248  0.0678
  807MPD2    C311883   2.510   1.290   0.972  0.2550  0.3831 -0.1353
  807MPD2    C411884   2.545   1.228   0.847 -0.6837 -0.6487  0.2544
  807MPD2    C511885   2.608   1.300   0.753 -0.3951  0.7304  0.2324
  807MPD2     H11886   2.498   1.474   1.072 -1.8845 -0.8597  0.1942
  807MPD2    H111887   2.526   1.123   0.833  0.4765 -1.0884  1.9243
  807MPD2    H211888   2.719   1.481   0.704 -1.4107 -0.6380 -0.9700
  807MPD2    H311889   2.635   1.250   0.661  0.3885  1.4777  0.0530
  807MPD2     N11890   2.433   1.227   1.072 -0.5789 -0.3800  0.0516
  807MPD2    H511891   2.428   1.276   1.161 -2.7701  2.6850 -1.7172
  807MPD2    N111892   2.642   1.629   0.917  0.5473 -0.0663 -0.2728
  807MPD2    H711893   2.609   1.662   1.007 -0.9608 -1.8520 -0.1524
  808MPD2     C11894   2.898   3.414   9.808 -0.1454 -0.3934 -0.4241
  808MPD2    C111895   2.848   3.526   9.741 -0.2116  0.0355  0.1528
  808MPD2    C211896   2.919   3.638   9.754 -0.5085 -0.6341  0.5092
  808MPD2    C311897   3.033   3.645   9.836  0.1307 -0.1365 -0.2787
  808MPD2    C411898   3.092   3.534   9.881  0.7478  0.0217 -1.2186
  808MPD2    C511899   3.019   3.415   9.870 -0.9583  0.1942  0.2183
  808MPD2     H11900   2.878   3.727   9.708  0.7648 -0.9042 -1.1457
  808MPD2    H111901   3.182   3.528   9.942 -0.9994 -0.2365  1.3510
  808MPD2    H211902   2.841   3.322   9.800  0.0190 -0.4280 -1.1992
  808MPD2    H311903   3.047   3.329   9.931 -2.2448 -0.5077 -0.1917
  808MPD2     N11904   3.111   3.760   9.855 -0.2118 -0.6287  0.7768
  808MPD2    H511905   3.195   3.752   9.911 -0.5291 -0.0918  1.3348
  808MPD2    N111906   2.722   3.525   9.673 -0.0599  0.4773 -0.2202
  808MPD2    H711907   2.693   3.607   9.621 -2.5118  0.8151  1.6725
  809MPD2     C11908   3.988   4.075   9.994 -0.2023  0.3450 -0.1682
  809MPD2    C111909   3.920   3.991  10.080 -0.6970 -0.2379  0.3392
  809MPD2    C211910   3.781   3.998  10.072 -0.7840 -0.1930  0.5362
  809MPD2    C311911   3.721   4.076   9.971  0.5756 -0.1144  0.5171
  809MPD2    C411912   3.797   4.150   9.883  0.2692 -0.2690  0.8897
  809MPD2    C511913   3.931   4.166   9.909  0.6421 -0.2358  0.6411
  809MPD2     H11914   3.732   3.947  10.154 -0.1576  1.0858  1.7196
  809MPD2    H111915   3.750   4.210   9.806  0.1111 -2.2550 -0.5388
  809MPD2    H211916   4.096   4.083   9.994 -0.1408 -0.6040  2.3835
  809MPD2    H311917   3.996   4.225   9.845 -0.4593 -2.4647 -2.4788
  809MPD2     N11918   3.582   4.088   9.951  0.3060 -0.2623  0.6029
  809MPD2    H511919   3.548   4.160   9.888 -1.1834  0.3045  2.0584
  809MPD2    N111920   3.988   3.916  10.174 -0.5627 -0.1353  0.0828
  809MPD2    H711921   3.925   3.857  10.227 -3.0545  0.3232 -2.3426
  810MPD2     C11922   2.961   2.679   9.859 -0.1477 -0.5395 -0.2987
  810MPD2    C111923   2.896   2.656   9.984  0.7250  0.1229  0.1101
  810MPD2    C211924   2.939   2.726  10.102 -0.0546 -0.2159  0.8153
  810MPD2    C311925   3.053   2.812  10.084 -0.4999 -0.1307 -0.4323
  810MPD2    C411926   3.106   2.830   9.959  0.1668  0.2705 -0.0819
  810MPD2    C511927   3.062   2.768   9.847 -0.1534 -0.4805  0.5334
  810MPD2     H11928   2.895   2.702  10.198 -1.5398  0.9412  0.4279
  810MPD2    H111929   3.189   2.900   9.952  0.0898  0.6019  2.2360
  810MPD2    H211930   2.946   2.628   9.765 -2.8205 -0.6678  0.2056
  810MPD2    H311931   3.115   2.785   9.754 -0.3043 -1.2866  0.2952
  810MPD2     N11932   3.114   2.876  10.197  0.7404 -0.5638 -0.0102
  810MPD2    H511933   3.195   2.931  10.172  0.6686 -0.7191 -0.5786
  810MPD2    N111934   2.769   2.580   9.991  0.4817  0.3743 -0.4325
  810MPD2    H711935   2.722   2.596  10.080 -1.9899 -1.5544 -1.3835
  811MPD2     C11936   1.902   2.493   9.974  0.4514 -0.1860  0.4938
  811MPD2    C111937   2.011   2.546   9.904  0.5870  0.3981  0.1740
  811MPD2    C211938   2.002   2.680   9.859 -0.0213  0.3580 -0.0121
  811MPD2    C311939   1.878   2.744   9.867  0.3224 -0.3339 -0.5815
  811MPD2    C411940   1.765   2.680   9.918  0.1719 -0.5573  0.7373
  811MPD2    C511941   1.783   2.557   9.971  0.1363 -0.6990 -0.7897
  811MPD2     H11942   2.090   2.729   9.819  0.1271 -1.0076 -1.3551
  811MPD2    H111943   1.668   2.727   9.918 -0.2987 -1.5105  3.2985
  811MPD2    H211944   1.900   2.399  10.028  0.2757 -0.3959  0.1235
  811MPD2    H311945   1.697   2.508  10.013  1.1422 -0.5405  1.4338
  811MPD2     N11946   1.880   2.878   9.835  0.6767 -0.0432  0.4369
  811MPD2    H511947   1.969   2.918   9.808  0.0408  0.2354 -1.2728
  811MPD2    N111948   2.134   2.481   9.924 -0.1053  0.4798  0.0315
  811MPD2    H711949   2.119   2.399   9.982 -1.2288  0.7571  0.1277
  812MPD2     C11950   1.941   3.569  12.326 -0.1631 -0.4793  0.0548
  812MPD2    C111951   1.881   3.588  12.451 -0.5669  0.0222  0.6226
  812MPD2    C211952   1.885   3.492  12.549 -0.1588 -0.2590 -0.8516
  812MPD2    C311953   1.947   3.370  12.525 -0.3788 -0.1106 -0.2688
  812MPD2    C411954   1.991   3.340  12.397  0.5048 -0.3142 -0.0174
  812MPD2    C511955   1.986   3.439  12.299 -0.3251 -0.0403 -0.3743
  812MPD2     H11956   1.853   3.511  12.651  0.3234 -0.4244 -0.6701
  812MPD2    H111957   2.036   3.243  12.378 -1.0955 -1.4621  1.9957
  812MPD2    H211958   1.930   3.645  12.250 -1.5638  0.0443  0.7960
  812MPD2    H311959   2.011   3.417  12.196 -0.9382 -1.1593 -0.2891
  812MPD2     N11960   1.951   3.287  12.638 -0.4906 -0.0266  0.0602
  812MPD2    H511961   1.935   3.329  12.729 -0.6986  0.5912 -0.2656
  812MPD2    N111962   1.829   3.719  12.484  0.1672  0.4586 -0.2509
  812MPD2    H711963   1.851   3.786  12.410  0.8483 -0.7790 -1.1690
  813MPD2     C11964   1.187   0.513  13.326  0.0633 -0.0358  0.0862
  813MPD2    C111965   1.120   0.634  13.306 -0.5711  0.3740  0.2860
  813MPD2    C211966   0.994   0.656  13.374  0.1209  0.5222 -0.3929
  813MPD2    C311967   0.932   0.555  13.441  0.4878 -0.2688 -0.2242
  813MPD2    C411968   1.002   0.431  13.451  0.0199 -0.7133 -0.4964
  813MPD2    C511969   1.124   0.410  13.390  0.2223  0.0000 -0.0193
  813MPD2     H11970   0.940   0.749  13.357 -0.4995  0.1480 -0.4535
  813MPD2    H111971   0.961   0.345  13.502  1.3662 -0.3729  1.1468
  813MPD2    H211972   1.288   0.500  13.288  0.9024  0.2164  2.2395
  813MPD2    H311973   1.182   0.321  13.413 -0.3277 -0.3857 -0.1205
  813MPD2     N11974   0.810   0.581  13.506  0.2355  1.0412 -0.0672
  813MPD2    H511975   0.781   0.675  13.482 -0.0504  0.6320 -1.3035
  813MPD2    N111976   1.180   0.742  13.239 -0.0442 -0.3131  0.2211
  813MPD2    H711977   1.139   0.835  13.246  2.6121  0.7606  1.6433
  814MPD2     C11978   1.534   2.064  12.439  0.8429 -0.5639  0.0849
  814MPD2    C111979   1.486   2.143  12.342  0.0038  0.1247  0.0851
  814MPD2    C211980   1.543   2.268  12.329 -0.3545  0.2095  0.7005
  814MPD2    C311981   1.636   2.320  12.421 -0.1982 -0.0009 -0.6759
  814MPD2    C411982   1.675   2.235  12.521  0.2612  0.2572  0.8108
  814MPD2    C511983   1.621   2.111  12.532  0.3703  0.5741 -0.8064
  814MPD2     H11984   1.509   2.339  12.255  0.1772  1.1084  1.3115
  814MPD2    H111985   1.755   2.257  12.591  0.3843 -1.0440  1.0677
  814MPD2    H211986   1.500   1.962  12.447 -0.3198  0.0442  3.0898
  814MPD2    H311987   1.667   2.046  12.605 -0.0154  0.5153 -0.6188
  814MPD2     N11988   1.708   2.432  12.402  0.0421 -0.0777 -0.0430
  814MPD2    H511989   1.770   2.451  12.480 -0.3806 -0.4801  0.3890
  814MPD2    N111990   1.396   2.108  12.245 -0.7970  0.4379 -0.1107
  814MPD2    H711991   1.380   2.171  12.167 -0.8484  0.5023 -0.0487
  815MPD2     C11992   1.642   0.593  12.277 -0.9814  0.0114 -0.0094
  815MPD2    C111993   1.626   0.460  12.277 -0.4355  0.5355 -0.7995
  815MPD2    C211994   1.512   0.412  12.344 -0.0806  0.1244  0.4457
  815MPD2    C311995   1.410   0.503  12.387  0.1970  0.6026 -0.4436
  815MPD2    C411996   1.426   0.638  12.377  0.1068 -0.4906  0.8569
  815MPD2    C511997   1.548   0.677  12.326  0.0403  0.2751  0.2142
  815MPD2     H11998   1.495   0.306  12.355 -1.1416  0.5391  2.7061
  815MPD2    H111999   1.365   0.716  12.422  0.6222  0.0243  0.6630
  815MPD2    H212000   1.734   0.631  12.234 -1.9585  1.0625 -1.1836
  815MPD2    H312001   1.573   0.782  12.331 -2.6873  1.0266 -1.7117
  815MPD2     N12002   1.284   0.447  12.436  0.4014  0.2695 -0.1385
  815MPD2    H512003   1.262   0.348  12.436  2.5209 -0.2009  0.0442
  815MPD2    N112004   1.730   0.382  12.216  0.9585 -0.3985  0.1450
  815MPD2    H712005   1.809   0.433  12.176  1.3946 -1.8122 -0.8379
  816MPD2     C12006   1.236   3.874  17.539 -0.2612 -0.6905 -0.3769
  816MPD2    C112007   1.293   3.979  17.468 -0.0210 -0.6925 -0.3161
  816MPD2    C212008   1.422   3.958  17.423  0.0954  0.7556  1.0081
  816MPD2    C312009   1.487   3.832  17.437  0.0172 -0.4012 -0.3191
  816MPD2    C412010   1.424   3.732  17.505  0.1123  0.0272  0.2135
  816MPD2    C512011   1.298   3.757  17.557 -0.4337  0.9648 -0.1682
  816MPD2     H12012   1.484   4.040  17.389 -0.2674  0.4048 -0.4955
  816MPD2    H112013   1.460   3.632  17.521 -1.4884 -0.6613 -0.4625
  816MPD2    H212014   1.140   3.887  17.589  0.8347 -1.8536  2.0390
  816MPD2    H312015   1.238   3.690  17.618  0.4140 -1.2832 -1.8008
  816MPD2     N12016   1.621   3.817  17.387 -0.3573  0.3685 -0.2543
  816MPD2    H512017   1.647   3.889  17.321  0.0443 -0.8001 -1.3676
  816MPD2    N112018   1.217   4.096  17.453  0.2446 -0.0339 -0.1930
  816MPD2    H712019   1.128   4.093  17.501 -0.0390 -0.1462 -0.7231
  817MPD2     C12020   0.888   1.323  10.415  0.0437 -0.6597  0.3057
  817MPD2    C112021   1.012   1.330  10.356 -0.4808  0.3245  0.2796
  817MPD2    C212022   1.043   1.449  10.292 -0.1373 -0.3225 -0.3241
  817MPD2    C312023   0.962   1.559  10.299 -0.1840 -0.4108  0.1405
  817MPD2    C412024   0.842   1.551  10.363 -0.4389 -0.3550  0.2715
  817MPD2    C512025   0.810   1.434  10.424 -1.1348  0.0452 -0.9021
  817MPD2     H12026   1.139   1.447  10.243 -0.7926  1.1110 -1.6455
  817MPD2    H112027   0.784   1.642  10.377 -1.8949 -0.9598 -1.8390
  817MPD2    H212028   0.849   1.235  10.464  0.9582 -1.7412 -0.8910
  817MPD2    H312029   0.722   1.429  10.487 -0.0743 -0.2918  0.5240
  817MPD2     N12030   1.004   1.669  10.223  0.2522 -0.4957  0.4814
  817MPD2    H512031   1.101   1.671  10.195 -0.5098  2.1719 -1.9497
  817MPD2    N112032   1.114   1.232  10.359 -0.2846 -0.0820  0.8828
  817MPD2    H712033   1.195   1.252  10.301 -0.2939 -1.3407  0.4345
  818MPD2     C12034   0.479   1.235   9.831  0.2375  0.7088 -0.0582
  818MPD2    C112035   0.400   1.224   9.941  0.7378 -0.1607  0.2216
  818MPD2    C212036   0.373   1.103   9.995  0.9223 -0.1035  0.1333
  818MPD2    C312037   0.430   0.993   9.944 -0.4727  0.4198 -0.9158
  818MPD2    C412038   0.519   1.003   9.839  0.1618 -0.0442  0.1551
  818MPD2    C512039   0.537   1.126   9.771  0.9236 -0.2333 -0.0255
  818MPD2     H12040   0.310   1.096  10.083  1.1150 -4.0100 -0.0653
  818MPD2    H112041   0.560   0.909   9.805  2.2281  0.8239  0.2785
  818MPD2    H212042   0.499   1.331   9.784  2.3384  0.1899 -0.2482
  818MPD2    H312043   0.594   1.144   9.680  0.6438 -1.8267 -0.5126
  818MPD2     N12044   0.406   0.864   9.999  0.2660 -0.4940 -0.3976
  818MPD2    H512045   0.470   0.786   9.987  1.9725  0.1780  4.1131
  818MPD2    N112046   0.333   1.334  10.004 -0.1842  0.4574 -0.5981
  818MPD2    H712047   0.264   1.304  10.073  0.6351  0.6927  0.3168
  819MPD2     C12048   3.274   2.746  15.513  0.3636  0.0345  0.1125
  819MPD2    C112049   3.223   2.629  15.568 -0.4931 -0.3666 -0.7537
  819MPD2    C212050   3.301   2.559  15.661  0.2294 -0.6123 -0.0807
  819MPD2    C312051   3.426   2.603  15.697 -0.6048 -0.0151  0.7917
  819MPD2    C412052   3.467   2.729  15.646  0.1539 -0.6339 -0.2719
  819MPD2    C512053   3.397   2.796  15.550 -0.5437  0.0564  0.1768
  819MPD2     H12054   3.269   2.461  15.696 -1.5828  0.0706  0.2020
  819MPD2    H112055   3.560   2.778  15.674  0.4589 -0.3378 -1.8033
  819MPD2    H212056   3.219   2.797  15.435  1.1852  0.5216 -0.1577
  819MPD2    H312057   3.438   2.885  15.504 -1.8108 -0.0552 -1.1565
  819MPD2     N12058   3.511   2.529  15.784 -0.0096 -0.4671 -0.2306
  819MPD2    H512059   3.475   2.438  15.809 -0.1945 -0.4738 -0.5230
  819MPD2    N112060   3.096   2.593  15.522  0.5740 -0.0596  0.1006
  819MPD2    H712061   3.051   2.641  15.445 -0.6661 -0.3007  0.6810
  820MPD2     C12062   2.236   2.755  15.070 -0.3584 -0.2579 -0.2275
  820MPD2    C112063   2.288   2.834  15.162 -0.2549  0.6066 -0.6070
  820MPD2    C212064   2.390   2.786  15.243 -0.2035 -0.0408  0.0702
  820MPD2    C312065   2.445   2.663  15.221  0.1652  0.9763 -0.8713
  820MPD2    C412066   2.383   2.578  15.123  0.2835  0.3514 -0.0539
  820MPD2    C512067   2.280   2.629  15.049  0.3852 -0.0697  0.4161
  820MPD2     H12068   2.444   2.842  15.319 -0.4394 -0.1845  0.3428
  820MPD2    H112069   2.422   2.482  15.094  0.1216  1.0257 -2.5214
  820MPD2    H212070   2.163   2.800  15.004 -0.9657  1.0897  1.3636
  820MPD2    H312071   2.244   2.576  14.961 -0.1647  0.9785  0.0026
  820MPD2     N12072   2.547   2.598  15.296  0.7824  0.5723 -0.0832
  820MPD2    H512073   2.566   2.503  15.267 -1.0449 -0.7477  2.9623
  820MPD2    N112074   2.233   2.965  15.173 -0.4545  0.2943 -0.3200
  820MPD2    H712075   2.163   2.982  15.102 -0.9241  0.0900  0.0968
  821MPD2     C12076   3.765   3.751  13.045  0.2835  0.1329  0.0659
  821MPD2    C112077   3.846   3.739  13.155 -0.0450 -0.6706 -0.3899
  821MPD2    C212078   3.980   3.716  13.132 -0.0055  0.6160 -0.5843
  821MPD2    C312079   4.033   3.707  13.001 -0.5153 -0.9579 -0.0382
  821MPD2    C412080   3.945   3.732  12.893  0.1082  0.4382 -0.0112
  821MPD2    C512081   3.813   3.750  12.918  0.4887  0.0668 -0.1266
  821MPD2     H12082   4.056   3.730  13.208 -0.8777 -0.5851  0.5082
  821MPD2    H112083   3.979   3.719  12.791  0.9290  0.7523  0.2217
  821MPD2    H212084   3.657   3.758  13.052  0.2860  1.8406 -1.6469
  821MPD2    H312085   3.744   3.746  12.834  0.2024 -1.4734  0.1784
  821MPD2     N12086   4.176   3.696  12.980 -0.1094 -0.4121  0.2240
  821MPD2    H512087   4.204   3.703  12.883 -0.7707  1.7732  0.2012
  821MPD2    N112088   3.822   3.758  13.296 -0.9750 -0.1055 -0.2482
  821MPD2    H712089   3.907   3.748  13.352 -1.7735 -0.9818  0.8182
  822MPD2     C12090   3.937   3.860  15.926  0.0486  0.1644 -0.7318
  822MPD2    C112091   3.949   3.811  16.049 -0.6326 -0.3475 -0.8403
  822MPD2    C212092   3.877   3.870  16.152 -0.3267 -0.1649 -0.1130
  822MPD2    C312093   3.808   3.990  16.132 -0.2093 -0.0791  0.0137
  822MPD2    C412094   3.793   4.038  16.006 -0.0224  0.7635  0.4689
  822MPD2    C512095   3.850   3.968  15.900 -0.5350 -0.2290 -0.1695
  822MPD2     H12096   3.865   3.825  16.250  1.6112 -1.3613 -0.4291
  822MPD2    H112097   3.720   4.114  15.981 -1.4041 -0.9919 -0.7430
  822MPD2    H212098   3.975   3.811  15.837 -0.6688  0.6041 -1.2806
  822MPD2    H312099   3.829   4.023  15.809 -0.0942  1.2487  0.6147
  822MPD2     N12100   3.743   4.052  16.238  0.5791 -0.3055 -0.2928
  822MPD2    H512101   3.747   4.009  16.330 -0.7073 -0.6430 -0.3848
  822MPD2    N112102   4.005   3.684  16.078 -0.2124  0.3813  0.7864
  822MPD2    H712103   4.007   3.670  16.178 -1.4069 -0.1341  0.7433
  823MPD2     C12104   3.488   4.063  17.021  0.0349  0.0718  0.0826
  823MPD2    C112105   3.532   3.992  16.914  0.1377  0.0959 -0.1490
  823MPD2    C212106   3.557   3.857  16.920 -0.7337  0.0436 -0.2269
  823MPD2    C312107   3.552   3.790  17.038 -0.6493 -0.1126 -0.1973
  823MPD2    C412108   3.518   3.856  17.158  0.5442  0.4990 -0.1892
  823MPD2    C512109   3.482   3.989  17.140  0.0225  0.0179  0.3077
  823MPD2     H12110   3.580   3.805  16.828 -1.5692 -0.4788 -0.1396
  823MPD2    H112111   3.495   3.807  17.251 -1.7890  1.0952 -0.4730
  823MPD2    H212112   3.459   4.167  17.018 -0.5230 -0.1164 -0.9924
  823MPD2    H312113   3.442   4.047  17.222 -2.7213 -3.6151  1.5207
  823MPD2     N12114   3.582   3.656  17.053  0.4673  0.3029  0.1912
  823MPD2    H512115   3.549   3.612  17.138 -3.8853  2.5432 -0.3409
  823MPD2    N112116   3.533   4.065  16.792 -0.0207  0.3521 -0.5030
  823MPD2    H712117   3.508   4.163  16.791  1.3908  0.7311  0.3420
  824MPD2     C12118   4.133   2.812  15.969 -0.1730 -0.0629 -0.2405
  824MPD2    C112119   4.227   2.903  16.010  0.2121  0.6052  0.2539
  824MPD2    C212120   4.362   2.865  16.010 -0.3807 -0.4529  0.3477
  824MPD2    C312121   4.403   2.732  15.975 -0.3280 -0.3587 -0.0039
  824MPD2    C412122   4.305   2.640  15.960 -0.7692  0.1576 -0.4807
  824MPD2    C512123   4.168   2.680  15.955  0.0364 -0.8319 -0.2593
  824MPD2     H12124   4.434   2.944  16.027 -1.0707 -0.0670  1.4741
  824MPD2    H112125   4.324   2.540  15.924 -0.8518 -0.0458  0.0356
  824MPD2    H212126   4.031   2.845  15.956 -0.4275 -1.1341 -0.8686
  824MPD2    H312127   4.090   2.611  15.927 -0.5395 -0.5331  0.5836
  824MPD2     N12128   4.549   2.711  15.969 -0.2401 -0.1023  0.5455
  824MPD2    H512129   4.614   2.789  15.980  0.3940 -0.2431 -2.2611
  824MPD2    N112130   4.203   3.037  16.038  0.2400  0.2666  0.6031
  824MPD2    H712131   4.286   3.090  16.065  0.8872 -0.1801 -0.5155
  825MPD2     C12132   0.435   2.772  15.395 -0.0710  0.2353  0.4989
  825MPD2    C112133   0.357   2.821  15.495 -0.5721 -0.9715  1.1942
  825MPD2    C212134   0.338   2.956  15.494  0.2292  0.4370 -0.8708
  825MPD2    C312135   0.394   3.044  15.406 -0.4347  0.3406 -0.2593
  825MPD2    C412136   0.474   2.997  15.305 -0.8491  0.8487  0.1320
  825MPD2    C512137   0.487   2.858  15.301 -0.1226 -0.2708 -0.0075
  825MPD2     H12138   0.263   2.994  15.562  1.1582  0.6533  0.0299
  825MPD2    H112139   0.526   3.057  15.231  1.5664 -0.5824  0.6587
  825MPD2    H212140   0.463   2.668  15.385 -1.3556 -0.1912  1.3208
  825MPD2    H312141   0.539   2.808  15.221 -0.9206  0.5022 -1.0175
  825MPD2     N12142   0.363   3.183  15.404 -0.9528  0.3543  0.6670
  825MPD2    H512143   0.406   3.243  15.334 -2.1950  0.2384 -0.2009
  825MPD2    N112144   0.310   2.738  15.601  0.1760  0.3119 -0.0609
  825MPD2    H712145   0.347   2.643  15.599  0.5018  0.4336  0.1123
  826MPD2     C12146   4.691   2.757  13.831  0.0132 -0.3499  0.7837
  826MPD2    C112147   4.646   2.833  13.722  0.1776  0.1204 -0.5208
  826MPD2    C212148   4.550   2.923  13.746 -0.7517 -0.0843  0.5236
  826MPD2    C312149   4.518   2.971  13.875  0.3691 -0.4864 -0.1877
  826MPD2    C412150   4.580   2.908  13.974 -0.1216  0.9602 -0.1718
  826MPD2    C512151   4.659   2.799  13.956  0.4255  0.1030  0.1981
  826MPD2     H12152   4.514   2.983  13.663 -1.3711  1.6620  2.0684
  826MPD2    H112153   4.563   2.941  14.076 -2.2331  2.0545 -0.8906
  826MPD2    H212154   0.022   2.665  13.806  2.0465  0.7868  0.8034
  826MPD2    H312155   4.691   2.739  14.041 -1.5694 -0.6456  0.4202
  826MPD2     N12156   4.433   3.079  13.906 -0.1757  1.1182 -0.8860
  826MPD2    H512157   4.407   3.087  14.004  1.4758 -0.3923 -0.3281
  826MPD2    N112158   4.705   2.815  13.588 -0.2289  0.0831 -0.0621
  826MPD2    H712159   0.056   2.745  13.573 -0.1764  0.3631 -1.0897
  827MPD2     C12160   0.232   4.588  10.683  0.0382 -0.4472  0.1392
  827MPD2    C112161   0.269   4.458  10.691 -0.1501  0.2358 -0.0392
  827MPD2    C212162   0.202   4.361  10.616  0.9457 -0.1394 -0.0187
  827MPD2    C312163   0.095   4.393  10.529 -0.1796  0.3125 -0.3443
  827MPD2    C412164   0.043   4.525  10.542 -0.0958  0.1116  0.7066
  827MPD2    C512165   0.123   4.619  10.600  0.3468  0.2850 -0.6018
  827MPD2     H12166   0.224   4.257  10.637  1.6725 -0.1197 -0.6586
  827MPD2    H112167   4.681   4.567  10.486  2.9453  4.3524 -0.5599
  827MPD2    H212168   0.285   4.667  10.734 -0.5414 -0.4885  0.8149
  827MPD2    H312169   0.100   0.003  10.582  2.6711  1.0891  1.0546
  827MPD2     N12170   0.027   4.294  10.452 -0.3255  0.4777  0.4977
  827MPD2    H512171   0.055   4.197  10.443  1.3120  0.9445  0.5799
  827MPD2    N112172   0.377   4.431  10.780 -0.3319  0.4856 -0.2642
  827MPD2    H712173   0.425   4.512  10.817 -0.6098 -1.0148  3.3686
  828MPD2     C12174   4.099   4.521  12.460 -0.4726 -0.5935  0.1628
  828MPD2    C112175   4.109   4.553  12.331  0.2310 -0.3774  0.2093
  828MPD2    C212176   4.201   4.489  12.253  0.2110 -0.3248 -0.1949
  828MPD2    C312177   4.292   4.406  12.312  0.1332  0.1093 -0.1539
  828MPD2    C412178   4.289   4.388  12.445 -0.0105  0.3767 -0.0982
  828MPD2    C512179   4.190   4.443  12.520  0.3522 -0.6251 -0.2273
  828MPD2     H12180   4.198   4.496  12.145  1.1360  2.0727 -0.0661
  828MPD2    H112181   4.353   4.319  12.498  0.5646 -0.4244 -1.8579
  828MPD2    H212182   4.026   4.562  12.529 -0.0578  1.3026 -0.5265
  828MPD2    H312183   4.171   4.425  12.625  2.5346 -0.5436  0.1766
  828MPD2     N12184   4.391   4.328  12.252 -0.7301 -0.9002 -0.6994
  828MPD2    H512185   4.433   4.260  12.315 -1.5713  0.1873  1.0212
  828MPD2    N112186   4.013   4.635  12.267 -0.0210 -0.5161  0.0514
  828MPD2    H712187   4.010   4.629  12.166 -0.3679 -1.0381  0.0947
  829MPD2     C12188   3.994   4.713  11.411 -0.6965  0.6835 -0.0380
  829MPD2    C112189   3.865   0.032  11.439 -0.2623 -0.3215  0.2923
  829MPD2    C212190   3.833   0.046  11.571 -0.1671  0.3595  0.1666
  829MPD2    C312191   3.918   0.018  11.678  0.3913 -0.4629  0.2077
  829MPD2    C412192   4.042   4.689  11.649 -0.1562  0.0133 -0.7768
  829MPD2    C512193   4.080   4.696  11.518 -0.4312  0.1369  0.5051
  829MPD2     H12194   3.734   0.082  11.596  0.3957  1.4840  0.7641
  829MPD2    H112195   4.124   4.678  11.720  0.2202 -0.5212 -1.2846
  829MPD2    H212196   4.031   4.709  11.309  2.1971 -1.2641  1.0817
  829MPD2    H312197   4.184   4.676  11.495 -0.8003  0.2614 -1.2583
  829MPD2     N12198   3.884   0.042  11.813  0.3258  0.3166  0.4363
  829MPD2    H512199   3.956   0.029  11.883  2.4138  1.2361 -1.5411
  829MPD2    N112200   3.773   0.037  11.335 -0.6294  0.8364  0.8765
  829MPD2    H712201   3.806   0.015  11.241 -2.1550 -0.3597  0.6109
  830MPD2     C12202   4.142   2.097  15.998  0.0302 -0.2090  0.1809
  830MPD2    C112203   4.060   2.152  15.902 -0.1972 -0.7992 -0.2018
  830MPD2    C212204   4.109   2.242  15.816 -0.3293  0.4381  0.0317
  830MPD2    C312205   4.240   2.275  15.815 -0.2372  0.1601 -1.1157
  830MPD2    C412206   4.326   2.231  15.916 -0.1554 -0.9205 -0.2122
  830MPD2    C512207   4.275   2.144  16.009  0.0730 -1.0628 -0.3344
  830MPD2     H12208   4.045   2.285  15.739  1.2378  0.4300 -1.2826
  830MPD2    H112209   4.430   2.255  15.932  0.0346 -0.4548 -2.2185
  830MPD2    H212210   4.106   2.029  16.075  0.6925 -0.9439 -0.1586
  830MPD2    H312211   4.330   2.120  16.100 -0.7615  0.5144  0.5880
  830MPD2     N12212   4.298   2.367  15.719  0.7386  0.3948 -0.5308
  830MPD2    H512213   4.379   2.421  15.749  0.1825  1.6207 -1.2174
  830MPD2    N112214   3.924   2.112  15.911  0.0843 -0.7190  0.5401
  830MPD2    H712215   3.898   2.053  15.990  2.4405 -1.9534  0.3882
  831MPD2     C12216   4.083   3.974  16.649  0.0907  0.0437 -0.3056
  831MPD2    C112217   4.104   3.908  16.529 -0.4548 -0.3003 -0.0984
  831MPD2    C212218   4.033   3.796  16.501  0.5662  0.3416 -0.4695
  831MPD2    C312219   3.929   3.749  16.582  0.1311 -0.6255  0.5328
  831MPD2    C412220   3.905   3.816  16.702 -0.5231  0.1193  0.1963
  831MPD2    C512221   3.983   3.928  16.737 -0.5718  0.4511 -0.3463
  831MPD2     H12222   4.036   3.744  16.405 -0.3805  2.2959 -1.5510
  831MPD2    H112223   3.832   3.791  16.778  0.3217 -3.8360 -0.2876
  831MPD2    H212224   4.153   4.050  16.681 -1.2863  0.7894  0.9479
  831MPD2    H312225   3.983   3.971  16.836 -1.0508 -1.5470  0.5072
  831MPD2     N12226   3.828   3.658  16.541 -0.2330  0.3335  0.3430
  831MPD2    H512227   3.755   3.645  16.610 -1.6531 -0.3923 -1.3026
  831MPD2    N112228   4.204   3.963  16.449 -0.3019 -0.7898  0.4960
  831MPD2    H712229   4.248   4.051  16.476 -1.7753 -0.1635  0.8841
  832MPD2     C12230   2.147   0.289  17.496  0.3817  1.0435 -0.0516
  832MPD2    C112231   2.148   0.411  17.433 -0.0379 -0.3941  0.0705
  832MPD2    C212232   2.059   0.420  17.323 -0.5327  0.1034 -0.3140
  832MPD2    C312233   1.966   0.314  17.291 -0.3015  0.6166  0.8654
  832MPD2    C412234   1.990   0.189  17.348  0.4941 -0.6240 -0.3742
  832MPD2    C512235   2.085   0.179  17.446  0.0918  0.1258 -0.1969
  832MPD2     H12236   2.066   0.514  17.269  0.4689  1.0232  1.4249
  832MPD2    H112237   1.922   0.108  17.324 -0.7804  0.6343 -1.0164
  832MPD2    H212238   2.211   0.266  17.581 -3.0486 -1.7874  1.7863
  832MPD2    H312239   2.096   0.082  17.493  0.0466  0.4342  0.4465
  832MPD2     N12240   1.866   0.331  17.194  0.9692 -0.1416  0.7524
  832MPD2    H512241   1.833   0.242  17.157 -1.5085  0.6991  0.8962
  832MPD2    N112242   2.238   0.508  17.465 -0.4077 -0.2796 -0.6269
  832MPD2    H712243   2.296   0.488  17.546  1.2847  1.3075 -1.4333
  833MPD2     C12244   4.383   2.033  12.807  0.3664 -0.6118  0.3016
  833MPD2    C112245   4.443   2.119  12.727  0.5150  0.0652 -0.5689
  833MPD2    C212246   4.503   2.073  12.604  0.0583  0.0501 -0.0486
  833MPD2    C312247   4.496   1.938  12.573  0.1101 -0.7634  0.0856
  833MPD2    C412248   4.435   1.853  12.667  0.0914 -0.0340  0.4382
  833MPD2    C512249   4.383   1.894  12.786 -0.5453 -0.5664  0.5515
  833MPD2     H12250   4.549   2.142  12.533 -0.6091  0.6297  0.0795
  833MPD2    H112251   4.433   1.747  12.646 -1.1265  0.4110 -1.7092
  833MPD2    H212252   4.346   2.071  12.902 -1.3261 -0.6324 -0.3607
  833MPD2    H312253   4.344   1.828  12.863  2.5907 -1.7927  1.0737
  833MPD2     N12254   4.552   1.871  12.465  0.1577  0.1804  0.0919
  833MPD2    H512255   4.547   1.770  12.458  1.7297  0.0865  0.4355
  833MPD2    N112256   4.458   2.249  12.776 -0.0831  0.5353  0.0841
  833MPD2    H712257   4.400   2.269  12.856  2.1585  2.8811  1.1424
  834MPD2     C12258   4.259   1.725  11.515 -0.0133 -0.5092 -0.2581
  834MPD2    C112259   4.393   1.695  11.498 -0.2820 -0.1993  0.3752
  834MPD2    C212260   4.484   1.701  11.600 -0.0696 -0.7472  0.0807
  834MPD2    C312261   4.433   1.719  11.728  0.5183 -0.3194 -0.6561
  834MPD2    C412262   4.302   1.740  11.753  0.1882 -0.6675 -0.4856
  834MPD2    C512263   4.220   1.752  11.639 -0.1326  0.4698 -0.9437
  834MPD2     H12264   4.589   1.683  11.581 -0.0084 -0.8945  0.5559
  834MPD2    H112265   4.255   1.753  11.850  1.2214  2.1587 -0.3821
  834MPD2    H212266   4.185   1.715  11.437  1.0901  1.2987 -1.5094
  834MPD2    H312267   4.112   1.751  11.654  0.2604 -2.9218  1.6268
  834MPD2     N12268   4.529   1.726  11.831  0.2295 -0.3646 -0.0875
  834MPD2    H512269   4.625   1.738  11.802  0.0226  1.3058 -0.1217
  834MPD2    N112270   4.433   1.670  11.369  0.1014 -0.7405  0.2472
  834MPD2    H712271   4.360   1.664  11.298 -0.2002 -0.5491  0.5391
  835MPD2     C12272   0.110   4.219  11.488 -0.6687 -0.3719  0.2019
  835MPD2    C112273   0.016   4.306  11.525  0.2912  0.6039 -0.1044
  835MPD2    C212274   0.027   4.369  11.650 -0.2186 -0.5577  1.0270
  835MPD2    C312275   0.127   4.334  11.742  0.4116 -0.7464 -0.3121
  835MPD2    C412276   0.232   4.255  11.696  0.3087 -0.0788 -0.2434
  835MPD2    C512277   0.221   4.198  11.569  0.0331  0.1079  0.7451
  835MPD2     H12278   4.668   4.440  11.667  0.2269  0.0846  0.3988
  835MPD2    H112279   0.319   4.232  11.756 -0.9216 -1.1721  1.1190
  835MPD2    H212280   0.109   4.176  11.388  1.8441 -0.6684  0.2900
  835MPD2    H312281   0.303   4.137  11.534  0.1235 -0.2596  1.5955
  835MPD2     N12282   0.136   4.381  11.869  0.0467 -0.0465  0.6989
  835MPD2    H512283   0.221   4.362  11.922  1.8640  0.7729 -1.9268
  835MPD2    N112284   4.648   4.348  11.425 -0.1742  0.4062 -0.6953
  835MPD2    H712285   4.590   4.429  11.444 -1.2542  0.1159 -2.8290
  836MPD2     C12286   4.315   0.130  12.254  0.2862 -0.0650  0.1691
  836MPD2    C112287   4.395   0.056  12.338 -0.1914 -0.1890 -0.0709
  836MPD2    C212288   4.363   0.046  12.469  0.0654  1.1330 -0.0957
  836MPD2    C312289   4.250   0.108  12.519  0.4964 -0.5895  0.2953
  836MPD2    C412290   4.169   0.185  12.435  0.1682  0.4828 -0.3847
  836MPD2    C512291   4.202   0.191  12.303  0.2164  0.0383  0.2050
  836MPD2     H12292   4.420   4.701  12.533 -1.4195  0.0688  0.1308
  836MPD2    H112293   4.075   0.227  12.469  0.0589  0.1264 -0.2554
  836MPD2    H212294   4.338   0.155  12.151 -0.0241 -1.2975 -0.1974
  836MPD2    H312295   4.148   0.242  12.224 -1.1380  0.3707  1.3474
  836MPD2     N12296   4.212   0.085  12.652  0.5379 -0.5904  0.3492
  836MPD2    H512297   4.113   0.101  12.669  0.2609 -1.1618 -0.7460
  836MPD2    N112298   4.512   4.716  12.277  0.2429 -0.3610 -0.0481
  836MPD2    H712299   4.526   0.011  12.178  0.0995  0.3994  0.0559
  837MPD2     C12300   1.570   3.716   9.894  0.3247  0.4867  0.0912
  837MPD2    C112301   1.701   3.676   9.920 -0.2827 -0.2093 -0.3355
  837MPD2    C212302   1.789   3.768   9.973 -0.2770 -0.0511  0.1130
  837MPD2    C312303   1.755   3.903   9.989  0.1904  0.9282  0.3968
  837MPD2    C412304   1.629   3.938   9.973 -0.7527 -1.2730 -0.2180
  837MPD2    C512305   1.541   3.850   9.918  0.1773  0.0081 -0.3079
  837MPD2     H12306   1.893   3.742   9.986 -0.1447  0.1411 -0.5530
  837MPD2    H112307   1.609   4.043   9.955  0.6406 -1.4406 -2.6923
  837MPD2    H212308   1.495   3.651   9.852 -1.1911  1.8960  0.5933
  837MPD2    H312309   1.444   3.887   9.886 -0.2771 -1.3604 -0.5332
  837MPD2     N12310   1.857   3.995  10.010 -0.1673  0.4230  0.1821
  837MPD2    H512311   1.940   3.954  10.051 -0.4752 -1.8322 -1.4266
  837MPD2    N112312   1.758   3.545   9.893  0.9860 -0.0297  0.0839
  837MPD2    H712313   1.845   3.522   9.940  2.3528  0.0960 -2.4193
  838MPD2     C12314   1.269   3.198  12.147  0.2562 -0.0914 -0.1198
  838MPD2    C112315   1.297   3.064  12.173  0.3922 -0.6254  0.2757
  838MPD2    C212316   1.229   3.000  12.273  0.3087 -0.6950  0.4409
  838MPD2    C312317   1.116   3.062  12.328  0.2851  0.7720 -0.0100
  838MPD2    C412318   1.090   3.195  12.305  0.0425  0.0319  0.3453
  838MPD2    C512319   1.167   3.262  12.214  0.0872  0.1381 -0.4441
  838MPD2     H12320   1.258   2.899  12.300  0.6244 -0.7699 -0.1909
  838MPD2    H112321   1.013   3.251  12.357 -0.6117 -1.8682  1.4316
  838MPD2    H212322   1.338   3.258  12.088  0.6379  1.7388  2.1806
  838MPD2    H312323   1.145   3.365  12.188  1.5017  0.7715  0.8369
  838MPD2     N12324   1.036   2.981  12.416 -0.3869  0.2677  0.2435
  838MPD2    H512325   1.076   2.910  12.477 -0.6256 -0.4504 -0.4336
  838MPD2    N112326   1.407   2.996  12.112 -0.3370  0.1869  0.8404
  838MPD2    H712327   1.431   2.905  12.151 -0.3098 -1.0792 -2.1206
  839MPD2     C12328   1.056   2.281  12.134  0.2481 -0.1464 -0.3015
  839MPD2    C112329   1.074   2.302  11.995  0.5367 -0.3884 -0.3354
  839MPD2    C212330   1.173   2.388  11.954 -0.3262  0.2057 -0.1187
  839MPD2    C312331   1.258   2.454  12.044 -0.3332 -0.3298  0.1516
  839MPD2    C412332   1.230   2.429  12.179  0.0192 -0.1007 -0.3294
  839MPD2    C512333   1.137   2.341  12.223  0.5773 -0.2129  0.7664
  839MPD2     H12334   1.193   2.386  11.847 -3.1271  0.7366 -0.6604
  839MPD2    H112335   1.279   2.472  12.266  1.3860 -2.6661  0.1778
  839MPD2    H212336   0.976   2.219  12.172 -0.7124  2.1404  1.3820
  839MPD2    H312337   1.125   2.312  12.326  0.7000 -0.3621  0.7400
  839MPD2     N12338   1.358   2.548  12.012 -0.3230  0.1844 -0.0896
  839MPD2    H512339   1.411   2.597  12.083  0.5208 -0.8563 -0.0051
  839MPD2    N112340   0.994   2.241  11.900 -0.6712 -0.6492  0.9531
  839MPD2    H712341   1.000   2.267  11.802  0.1083 -0.6223  1.0085
  840MPD2     C12342   0.952   0.030  10.730 -0.4263  0.2178  0.5647
  840MPD2    C112343   0.939   4.701  10.859  0.8100  0.6347  0.2500
  840MPD2    C212344   1.023   0.030  10.959  0.4126  0.6236 -0.0017
  840MPD2    C312345   1.128   0.111  10.927  0.0749 -0.3176  0.1947
  840MPD2    C412346   1.148   0.148  10.802  0.4452  1.0028  0.7348
  840MPD2    C512347   1.062   0.107  10.702  0.3197 -0.6682 -0.5488
  840MPD2     H12348   1.011   0.007  11.064  1.1962  2.6810  0.5204
  840MPD2    H112349   1.225   0.221  10.780  0.4218  0.9857  0.5957
  840MPD2    H212350   0.888   0.010  10.646 -0.5203  2.6209  0.0497
  840MPD2    H312351   1.066   0.148  10.601 -1.0486 -3.0091 -1.5547
  840MPD2     N12352   1.220   0.161  11.030  0.0759 -0.8462 -0.3249
  840MPD2    H512353   1.295   0.217  10.990 -0.4153  0.6206  0.7714
  840MPD2    N112354   0.837   4.606  10.877  0.1594  0.1810  0.6208
  840MPD2    H712355   0.779   4.583  10.797 -2.6041  2.6964  1.9218
  841MPD2     C12356   0.646   0.044  15.266 -0.3571 -0.2736 -0.0502
  841MPD2    C112357   0.658   0.010  15.134  0.0319 -0.1443  0.0761
  841MPD2    C212358   0.772   0.052  15.068 -0.4565 -0.3186 -0.1062
  841MPD2    C312359   0.870   0.121  15.132  0.3028 -0.3509 -0.2502
  841MPD2    C412360   0.849   0.157  15.264  0.8474  0.4041 -0.5077
  841MPD2    C512361   0.739   0.115  15.326  0.2050  0.4006  0.7544
  841MPD2     H12362   0.783   0.023  14.964 -4.7940  2.5609 -1.3667
  841MPD2    H112363   0.926   0.203  15.325 -0.2757  1.0500  0.4342
  841MPD2    H212364   0.557   0.023  15.324  0.2671  1.8617  1.6787
  841MPD2    H312365   0.727   0.126  15.433 -0.0639 -0.9752  0.8653
  841MPD2     N12366   0.980   0.170  15.060 -0.2910 -0.2784  0.5598
  841MPD2    H512367   1.058   0.205  15.116  1.9096 -2.2841 -1.2546
  841MPD2    N112368   0.557   4.662  15.062  0.3365  0.6162 -0.0598
  841MPD2    H712369   0.577   4.653  14.963 -0.9656  0.1539 -0.2759
  842MPD2     C12370   1.422   0.878  16.805 -0.9204  0.1766 -0.3382
  842MPD2    C112371   1.364   0.756  16.815  0.6518  0.4090  0.4966
  842MPD2    C212372   1.365   0.691  16.936  0.6008  0.3590  0.2961
  842MPD2    C312373   1.422   0.759  17.047  0.3732  0.1440 -0.0704
  842MPD2    C412374   1.481   0.886  17.037  0.4943 -0.1965 -0.3418
  842MPD2    C512375   1.490   0.942  16.909 -0.2574  0.3831  0.4930
  842MPD2     H12376   1.338   0.586  16.945  0.7732  0.2271 -0.7787
  842MPD2    H112377   1.532   0.930  17.121 -3.0619  2.2450  0.5249
  842MPD2    H212378   1.436   0.920  16.706 -0.3778  0.7174 -0.0265
  842MPD2    H312379   1.537   1.038  16.896 -0.7616  0.2154 -2.4398
  842MPD2     N12380   1.425   0.691  17.172  0.1971  0.3362  0.1701
  842MPD2    H512381   1.440   0.758  17.248 -1.4644 -1.4043  2.0424
  842MPD2    N112382   1.307   0.705  16.695 -0.2603 -0.2560 -0.0188
  842MPD2    H712383   1.306   0.768  16.615 -0.2550  2.4476  2.1054
  843MPD2     C12384   3.893   0.301   0.947  0.2139  0.5085  0.8148
  843MPD2    C112385   3.974   0.215   0.889 -0.6440 -0.0163 -0.4516
  843MPD2    C212386   4.069   0.269   0.804  0.3890 -0.6517 -0.0459
  843MPD2    C312387   4.055   0.400   0.770 -0.1747  0.1627 -0.3487
  843MPD2    C412388   3.960   0.480   0.823  1.0460 -0.0069  0.0011
  843MPD2    C512389   3.874   0.432   0.913  0.0807 -0.1088  0.2094
  843MPD2     H12390   4.133   0.207   0.743  0.9341  0.5837 -0.7279
  843MPD2    H112391   3.948   0.587   0.807 -1.1103 -0.5102 -1.6773
  843MPD2    H212392   3.831   0.265   1.029  0.9155  1.8292  1.9218
  843MPD2    H312393   3.805   0.496   0.967 -1.5036 -2.4439  0.9435
  843MPD2     N12394   4.130   0.462   0.666  0.5348  0.5339  0.2495
  843MPD2    H512395   4.102   0.559   0.650  4.8076  1.7319 -0.0471
  843MPD2    N112396   3.973   0.080   0.933  0.6333 -0.3192  0.5263
  843MPD2    H712397   3.906   0.049   1.002 -0.3113 -0.1084 -0.3051
  844MPD2     C12398   1.989   4.529  16.965  0.4555  0.1692  0.1697
  844MPD2    C112399   1.966   4.612  16.857  0.1787  0.7648  0.9027
  844MPD2    C212400   2.013   0.025  16.864  0.3751  0.4524 -0.3106
  844MPD2    C312401   2.081   0.075  16.977 -0.0719 -0.0445 -0.3144
  844MPD2    C412402   2.109   4.701  17.077  0.9982  0.8304  0.4764
  844MPD2    C512403   2.055   4.578  17.073 -0.3699  0.0636 -0.8339
  844MPD2     H12404   1.976   0.084  16.781  0.4891 -0.6500 -1.1355
  844MPD2    H112405   2.168   0.001  17.166  0.9920 -0.7549  0.8434
  844MPD2    H212406   1.951   4.428  16.979 -1.6021  0.9010 -0.1272
  844MPD2    H312407   2.062   4.509  17.156  2.1314  0.2580 -0.8947
  844MPD2     N12408   2.126   0.207  16.989  0.3569 -0.4347 -0.2571
  844MPD2    H512409   2.172   0.223  17.078  0.4314 -0.8566 -0.2181
  844MPD2    N112410   1.896   4.569  16.742  0.0715 -0.4770 -0.5170
  844MPD2    H712411   1.875   4.631  16.665 -1.9444  1.0995  1.3147
  845MPD2     C12412   1.796   1.089  17.307 -0.2054  0.0059  0.1208
  845MPD2    C112413   1.884   1.000  17.371 -0.2045 -0.2781 -0.3182
  845MPD2    C212414   1.975   0.916  17.306 -0.0622  0.1648 -0.3781
  845MPD2    C312415   1.954   0.909  17.168 -0.6808 -0.1197 -0.6981
  845MPD2    C412416   1.858   0.988  17.100 -0.4170  0.3465 -0.4580
  845MPD2    C512417   1.784   1.077  17.168 -0.0407 -0.9528  0.5465
  845MPD2     H12418   2.049   0.855  17.357 -1.6794  0.5481  2.4277
  845MPD2    H112419   1.841   0.982  16.993 -1.8854 -2.7944 -0.0329
  845MPD2    H212420   1.729   1.156  17.361 -3.0064 -1.1534 -1.9801
  845MPD2    H312421   1.717   1.142  17.112  2.1248  1.4438  0.7019
  845MPD2     N12422   2.036   0.816  17.106  0.2959  0.4198 -0.3616
  845MPD2    H512423   2.101   0.767  17.167 -2.2928 -2.5085 -0.0076
  845MPD2    N112424   1.875   1.010  17.510 -0.5128 -0.4675  0.4155
  845MPD2    H712425   1.802   1.071  17.545  0.1791  0.1410  0.8123
  846MPD2     C12426   3.870   1.526  13.546 -0.2826 -0.5625 -0.4229
  846MPD2    C112427   3.797   1.638  13.581 -0.4225  0.5841  0.5168
  846MPD2    C212428   3.764   1.656  13.717 -0.2951  0.4164  0.8792
  846MPD2    C312429   3.791   1.557  13.817 -0.2219 -0.1674 -0.8595
  846MPD2    C412430   3.868   1.451  13.774  0.5087  0.7621 -0.4664
  846MPD2    C512431   3.900   1.432  13.640 -0.7768 -0.0390  0.3521
  846MPD2     H12432   3.707   1.743  13.745 -1.0140  0.1720  0.1882
  846MPD2    H112433   3.900   1.368  13.835 -0.7921  0.5896 -0.0298
  846MPD2    H212434   3.893   1.501  13.443 -0.5702 -0.1009 -0.6022
  846MPD2    H312435   3.944   1.340  13.605  2.6624  1.0481  1.8568
  846MPD2     N12436   3.740   1.574  13.948  0.2424  0.2992 -0.0186
  846MPD2    H512437   3.678   1.649  13.975  0.3877  0.5876 -0.4857
  846MPD2    N112438   3.753   1.735  13.488 -0.6976 -0.5336 -0.0358
  846MPD2    H712439   3.714   1.820  13.524 -0.1690 -0.8993  1.3944
  847MPD2     C12440   3.984   2.449  14.457  0.1251  0.2882  0.1158
  847MPD2    C112441   4.042   2.505  14.569  0.6321 -0.1005 -0.5753
  847MPD2    C212442   4.057   2.428  14.689  0.4952  0.5059  0.9438
  847MPD2    C312443   4.009   2.297  14.693 -0.5429 -0.1604  0.2062
  847MPD2    C412444   3.950   2.243  14.579  0.1147 -0.1688 -0.1210
  847MPD2    C512445   3.944   2.317  14.462  0.0759 -0.1364 -0.2291
  847MPD2     H12446   4.117   2.473  14.768 -0.0335 -0.6197  1.9933
  847MPD2    H112447   3.907   2.143  14.584 -0.9309  0.3407  1.1834
  847MPD2    H212448   3.993   2.490  14.357  0.2511  0.1588  0.0730
  847MPD2    H312449   3.905   2.260  14.378  2.1681 -0.1887 -1.1763
  847MPD2     N12450   4.044   2.237  14.807 -0.5266 -0.3524  0.5664
  847MPD2    H512451   4.099   2.289  14.874 -1.6424  2.6383 -0.8666
  847MPD2    N112452   4.112   2.629  14.569  0.5174  0.1796  0.3247
  847MPD2    H712453   4.144   2.665  14.658  0.8698  0.4258  0.1001
  848MPD2     C12454   1.669   0.781  16.482 -0.4917  0.0252 -0.3053
  848MPD2    C112455   1.703   0.807  16.613 -0.0021 -0.3811  0.2379
  848MPD2    C212456   1.755   0.931  16.638 -0.1001  0.3001  0.1571
  848MPD2    C312457   1.730   1.039  16.551  0.5884  0.9351  0.0613
  848MPD2    C412458   1.678   1.013  16.426 -0.4378  0.2333  0.5869
  848MPD2    C512459   1.656   0.881  16.390 -0.1759  0.2632  0.1700
  848MPD2     H12460   1.789   0.947  16.740 -1.5058 -0.8366  0.8019
  848MPD2    H112461   1.644   1.087  16.355  0.5438 -0.6334 -0.7811
  848MPD2    H212462   1.635   0.686  16.443 -1.0763 -0.0800  0.4544
  848MPD2    H312463   1.640   0.845  16.289 -3.0858  2.2525 -0.0771
  848MPD2     N12464   1.738   1.170  16.592 -0.5012  0.1174 -0.3857
  848MPD2    H512465   1.690   1.243  16.541 -2.5372  0.6053  2.1977
  848MPD2    N112466   1.704   0.711  16.714 -0.6014  0.1759  0.2806
  848MPD2    H712467   1.728   0.751  16.804  2.4324 -1.1744  0.0573
  849MPD2     C12468   1.449   1.096  14.192  0.4798  0.2267  0.6200
  849MPD2    C112469   1.506   0.970  14.198  0.3630  0.0291  0.0333
  849MPD2    C212470   1.443   0.866  14.261  0.0550  0.5238 -0.1849
  849MPD2    C312471   1.325   0.884  14.327 -0.9142  0.2813  0.2545
  849MPD2    C412472   1.285   1.013  14.332  0.1335  0.1190  0.2811
  849MPD2    C512473   1.332   1.110  14.255 -0.0147  0.2271  0.4928
  849MPD2     H12474   1.498   0.774  14.275 -1.1195 -0.2120 -0.3547
  849MPD2    H112475   1.201   1.047  14.392 -0.2781  1.6875 -1.2041
  849MPD2    H212476   1.489   1.172  14.126  0.6786 -0.8809 -0.5545
  849MPD2    H312477   1.284   1.208  14.257 -0.6775 -0.0698 -0.7031
  849MPD2     N12478   1.265   0.784  14.406  0.2028 -0.5706  0.5494
  849MPD2    H512479   1.191   0.813  14.469  0.5907 -1.3543  1.3592
  849MPD2    N112480   1.629   0.939  14.142  0.7207 -0.6817  0.2999
  849MPD2    H712481   1.640   0.839  14.129 -0.2908 -0.5295 -1.6976
  850MPD2     C12482   3.798   3.097  15.021  0.0311 -0.5832 -0.5713
  850MPD2    C112483   3.827   3.214  15.087 -0.7145  0.8044  0.2025
  850MPD2    C212484   3.954   3.217  15.150  0.6022 -0.4552 -1.2027
  850MPD2    C312485   4.038   3.109  15.145  0.5395 -0.0491  0.0531
  850MPD2    C412486   3.998   2.992  15.088  0.3683 -0.1918 -0.0157
  850MPD2    C512487   3.880   2.992  15.025 -0.4543 -0.1018  0.2358
  850MPD2     H12488   3.997   3.311  15.184 -0.8130  0.9682 -3.4070
  850MPD2    H112489   4.061   2.905  15.073  0.1369 -0.0030 -2.1178
  850MPD2    H212490   3.700   3.081  14.978 -0.7308 -1.5350  1.5467
  850MPD2    H312491   3.855   2.891  14.993 -3.5639  0.2149  1.7035
  850MPD2     N12492   4.171   3.116  15.191  0.7548  0.0172  0.2160
  850MPD2    H512493   4.234   3.044  15.159  0.7780 -0.0391  0.3866
  850MPD2    N112494   3.730   3.316  15.091 -0.2632  0.1054 -0.2604
  850MPD2    H712495   3.653   3.307  15.026 -0.3339  0.7162 -0.2557
  851MPD2     C12496   4.288   3.337  15.758 -0.2184 -0.0166 -0.2081
  851MPD2    C112497   4.178   3.280  15.686  1.1666 -0.5374 -0.6430
  851MPD2    C212498   4.192   3.149  15.650 -0.1905 -0.4255 -1.0813
  851MPD2    C312499   4.296   3.070  15.693  0.6200  0.3705  0.4996
  851MPD2    C412500   4.396   3.124  15.773 -0.0176 -0.1594  0.7039
  851MPD2    C512501   4.387   3.257  15.806 -0.0590 -0.8383  0.5487
  851MPD2     H12502   4.116   3.097  15.593 -0.7052  0.2248 -0.9899
  851MPD2    H112503   4.484   3.065  15.796  1.7301  2.2431  0.2609
  851MPD2    H212504   4.295   3.445  15.764 -0.0559 -0.0105 -0.5260
  851MPD2    H312505   4.476   3.302  15.850  0.6885 -1.5280 -0.2380
  851MPD2     N12506   4.292   2.934  15.640 -0.0819 -0.0173  0.1477
  851MPD2    H512507   4.208   2.898  15.596 -0.2673  1.8327 -1.0041
  851MPD2    N112508   4.060   3.352  15.649  0.0065  0.0574 -0.3421
  851MPD2    H712509   4.066   3.453  15.657 -0.4292  0.2495 -2.2670
  852MPD2     C12510   3.102   0.659  10.374  0.4987 -0.4031  0.2239
  852MPD2    C112511   3.215   0.724  10.413  0.3031 -0.4364  0.2100
  852MPD2    C212512   3.243   0.845  10.358 -0.2963  0.0283 -0.4650
  852MPD2    C312513   3.150   0.915  10.282 -0.1408 -0.6056  0.0776
  852MPD2    C412514   3.038   0.854  10.238  0.1589 -0.4837  0.2519
  852MPD2    C512515   3.010   0.727  10.288  0.2197 -0.1993 -0.2615
  852MPD2     H12516   3.335   0.899  10.381 -0.7059  0.8566 -0.7413
  852MPD2    H112517   2.964   0.897  10.172 -0.4811 -0.5874  0.9076
  852MPD2    H212518   3.077   0.556  10.398  3.8680 -1.0088  1.0145
  852MPD2    H312519   2.920   0.676  10.257  0.4784  1.4081 -3.5782
  852MPD2     N12520   3.196   1.037  10.246 -0.4405  0.0567 -0.4194
  852MPD2    H512521   3.292   1.065  10.265  0.1188 -1.3501 -1.1121
  852MPD2    N112522   3.312   0.664  10.490 -0.1894  0.0679 -0.0779
  852MPD2    H712523   3.402   0.709  10.494  0.6157 -1.6370  0.8286
  853MPD2     C12524   0.877   1.266  12.862  1.3007 -0.1225 -0.3472
  853MPD2    C112525   0.769   1.294  12.788 -0.4667  0.0605  1.0501
  853MPD2    C212526   0.784   1.304  12.651  0.1945  0.0362  0.1882
  853MPD2    C312527   0.907   1.282  12.587 -0.1719  0.0332 -1.2079
  853MPD2    C412528   1.004   1.220  12.667 -0.0674 -0.6947 -0.2895
  853MPD2    C512529   0.989   1.218  12.803  0.1212  0.1154 -0.1498
  853MPD2     H12530   0.703   1.338  12.588 -0.2494 -1.2038  0.1078
  853MPD2    H112531   1.106   1.205  12.633  0.8994 -0.2173  2.3643
  853MPD2    H212532   0.865   1.264  12.970  0.3517 -2.5006 -0.4906
  853MPD2    H312533   1.074   1.183  12.860  0.7877 -1.7285 -2.2968
  853MPD2     N12534   0.932   1.314  12.451  0.1077 -0.4851  0.5594
  853MPD2    H512535   1.020   1.283  12.410  0.4586  0.4332  0.6278
  853MPD2    N112536   0.640   1.303  12.851 -0.1310 -1.1632  0.3611
  853MPD2    H712537   0.636   1.270  12.947  0.3475  0.6388  1.0139
  854MPD2     C12538   2.267   1.040  13.026 -0.3397 -0.1419  0.2995
  854MPD2    C112539   2.382   1.099  12.974 -0.7577  0.6361  0.0974
  854MPD2    C212540   2.505   1.049  13.015  0.1420  0.5977 -0.1720
  854MPD2    C312541   2.525   0.953  13.110  0.3679  1.0811  0.3984
  854MPD2    C412542   2.410   0.899  13.161  0.1664  0.9868  0.1757
  854MPD2    C512543   2.282   0.933  13.117  0.2377  0.3844 -0.6847
  854MPD2     H12544   2.591   1.098  12.970  0.7791  1.1447  1.6317
  854MPD2    H112545   2.420   0.825  13.240  2.7503  1.6536  0.4909
  854MPD2    H212546   2.167   1.080  13.012 -1.1278 -2.1780  0.0622
  854MPD2    H312547   2.200   0.884  13.169  0.0588 -1.2904 -2.5871
  854MPD2     N12548   2.644   0.913  13.174 -0.7075  0.3298  0.2282
  854MPD2    H512549   2.642   0.865  13.263  2.1243 -0.0395  0.1013
  854MPD2    N112550   2.365   1.225  12.907  0.0899 -0.4629  0.8743
  854MPD2    H712551   2.269   1.254  12.891  0.2260 -0.3723  0.2315
  855MPD2     C12552   2.680   0.828  13.931  1.1395  0.8809 -0.1784
  855MPD2    C112553   2.787   0.756  13.880  0.1925 -0.0955  0.0716
  855MPD2    C212554   2.846   0.802  13.767 -0.7941  0.0865  0.5762
  855MPD2    C312555   2.798   0.919  13.706  0.4333 -0.0414 -0.0903
  855MPD2    C412556   2.695   0.983  13.758  0.0657  0.0633  0.3312
  855MPD2    C512557   2.636   0.946  13.876 -0.0620  0.4481 -0.0703
  855MPD2     H12558   2.922   0.742  13.717 -0.5440  2.0695 -1.4106
  855MPD2    H112559   2.667   1.085  13.732  3.3572  0.5851 -1.2610
  855MPD2    H212560   2.641   0.797  14.027  2.2588 -0.3958 -0.1268
  855MPD2    H312561   2.562   1.007  13.926 -2.2975 -0.2076 -2.5731
  855MPD2     N12562   2.863   0.962  13.596 -0.3964 -0.2348  0.5008
  855MPD2    H512563   2.822   1.046  13.557  0.6709 -0.4851 -1.1826
  855MPD2    N112564   2.845   0.645  13.949 -0.0217 -0.0265 -0.5956
  855MPD2    H712565   2.911   0.583  13.903 -0.0919 -0.4665 -0.0952
  856MPD2     C12566   0.006   1.560  14.327 -0.0079 -0.1386  0.8206
  856MPD2    C112567   0.050   1.680  14.269 -0.2519 -0.0402  0.1129
  856MPD2    C212568   4.676   1.775  14.223 -0.1118  0.1475 -0.7106
  856MPD2    C312569   4.540   1.746  14.244  0.2116  0.1895 -0.4349
  856MPD2    C412570   4.499   1.624  14.296 -0.1861 -0.3712  0.9665
  856MPD2    C512571   4.590   1.530  14.336  0.4534  1.1062  0.0218
  856MPD2     H12572   4.717   1.859  14.168  0.9306  0.3872  0.4545
  856MPD2    H112573   4.393   1.601  14.300 -0.3269 -0.1634 -1.5132
  856MPD2    H212574   0.075   1.485  14.363  1.3252  0.0587 -1.3222
  856MPD2    H312575   4.551   1.436  14.373 -1.8801  1.8041 -0.6280
  856MPD2     N12576   4.436   1.837  14.212 -0.4581  0.2129 -0.1038
  856MPD2    H512577   4.349   1.825  14.263 -0.0176 -0.9222  0.3914
  856MPD2    N112578   0.183   1.709  14.255 -0.1563  0.5993  0.0290
  856MPD2    H712579   0.206   1.807  14.254 -0.3185  0.6408  0.6573
  857MPD2     C12580   1.846   3.929  13.516 -0.2565  0.0647 -0.0512
  857MPD2    C112581   1.936   3.958  13.412  0.5120 -0.4726  0.2860
  857MPD2    C212582   2.040   4.047  13.438  0.8584  0.5156  0.7616
  857MPD2    C312583   2.055   4.105  13.564  0.1035 -0.6856  0.9775
  857MPD2    C412584   1.979   4.068  13.668  0.6507 -0.1959 -0.2325
  857MPD2    C512585   1.875   3.977  13.643 -0.6312 -0.7982 -0.0743
  857MPD2     H12586   2.111   4.076  13.363 -1.6557  2.0350 -1.0235
  857MPD2    H112587   1.982   4.096  13.773 -1.4735  2.4589 -0.8567
  857MPD2    H212588   1.753   3.879  13.491 -0.3035 -1.5075  3.1930
  857MPD2    H312589   1.804   3.958  13.723 -1.0330  0.1644 -0.2051
  857MPD2     N12590   2.160   4.198  13.580  0.3304 -0.2706 -0.5737
  857MPD2    H512591   2.193   4.246  13.497 -0.2617  2.3958  0.7284
  857MPD2    N112592   1.920   3.893  13.290 -0.4419  0.2241 -0.0156
  857MPD2    H712593   1.849   3.820  13.289 -0.0861 -0.1066 -2.9146
  858MPD2     C12594   2.061   2.616  17.001 -0.0572 -0.3055 -0.3388
  858MPD2    C112595   2.198   2.624  17.012 -0.3357 -0.5272 -0.5651
  858MPD2    C212596   2.257   2.711  17.104  0.2863 -0.5283  0.5022
  858MPD2    C312597   2.169   2.786  17.185  0.3950 -0.3195  0.1098
  858MPD2    C412598   2.038   2.777  17.175  0.1053 -0.3220 -0.2781
  858MPD2    C512599   1.975   2.692  17.081 -0.4249  0.4821 -0.8702
  858MPD2     H12600   2.364   2.721  17.111  0.4145 -1.2143 -0.4130
  858MPD2    H112601   1.977   2.826  17.249  0.2627  0.6020 -0.7661
  858MPD2    H212602   2.012   2.567  16.917 -2.2143  1.2761 -0.0052
  858MPD2    H312603   1.868   2.675  17.074 -0.2111 -1.3498  0.5374
  858MPD2     N12604   2.207   2.874  17.287 -0.3607 -0.4883  0.0935
  858MPD2    H512605   2.133   2.904  17.350 -0.9882 -0.9257 -0.4475
  858MPD2    N112606   2.273   2.535  16.930  0.6336  0.4395 -0.0674
  858MPD2    H712607   2.223   2.471  16.869  2.0122 -1.4972  0.8453
  859MPD2     C12608   0.740   0.401  15.874 -0.2103 -0.3579  0.5781
  859MPD2    C112609   0.835   0.362  15.779 -0.8484 -0.2124 -0.5295
  859MPD2    C212610   0.833   0.232  15.727 -0.4773  0.1572 -0.6593
  859MPD2    C312611   0.735   0.139  15.777 -0.9094  0.7878  0.4350
  859MPD2    C412612   0.639   0.183  15.868 -0.0299  0.2761 -0.6369
  859MPD2    C512613   0.638   0.314  15.903 -0.0144  0.8599 -0.3294
  859MPD2     H12614   0.909   0.200  15.657  0.1977 -1.8434  0.9841
  859MPD2    H112615   0.576   0.104  15.907  1.9425 -1.4461 -0.9045
  859MPD2    H212616   0.735   0.500  15.920 -0.6384  0.5197 -1.3472
  859MPD2    H312617   0.558   0.339  15.971  0.3351  1.0272  0.0176
  859MPD2     N12618   0.712   0.012  15.722  0.3903  0.7633 -0.9997
  859MPD2    H512619   0.617   4.700  15.733  0.6909 -0.1432 -1.1093
  859MPD2    N112620   0.928   0.460  15.748 -0.2790  0.0768  0.0302
  859MPD2    H712621   0.895   0.551  15.778 -0.0820 -0.2067  1.1051
  860MPD2     C12622   3.723   0.638  11.793 -0.9650 -0.1738  0.1507
  860MPD2    C112623   3.675   0.753  11.844  0.7622 -0.1588  0.1174
  860MPD2    C212624   3.562   0.747  11.928 -0.5815 -0.3313  0.2007
  860MPD2    C312625   3.495   0.625  11.955 -0.7809 -0.3231 -1.3531
  860MPD2    C412626   3.539   0.511  11.892  0.6485  0.1520  0.5167
  860MPD2    C512627   3.655   0.520  11.819 -0.3697 -0.8330  0.6547
  860MPD2     H12628   3.529   0.837  11.978  2.1552 -0.5091  2.3658
  860MPD2    H112629   3.480   0.420  11.896  0.1042  0.6151  3.0551
  860MPD2    H212630   3.807   0.635  11.724 -0.3701 -3.5182  1.0303
  860MPD2    H312631   3.695   0.426  11.784  0.2814  0.2347 -1.4680
  860MPD2     N12632   3.385   0.635  12.045 -0.0501 -0.8609 -0.4082
  860MPD2    H512633   3.346   0.723  12.074  0.9154 -1.3040  2.2456
  860MPD2    N112634   3.728   0.879  11.814 -0.3051  0.4039 -0.4665
  860MPD2    H712635   3.664   0.955  11.833 -0.7426  0.6839 -3.0722
  861MPD2     C12636   2.086   4.169  11.431 -0.6813  0.3199 -0.3246
  861MPD2    C112637   1.965   4.126  11.483 -0.5391  0.0179  0.1685
  861MPD2    C212638   1.847   4.166  11.425  0.4426  0.6531  0.2211
  861MPD2    C312639   1.847   4.262  11.329 -0.2559 -0.2578  0.6892
  861MPD2    C412640   1.968   4.295  11.270  0.3590  0.0728  0.1574
  861MPD2    C512641   2.081   4.249  11.322  0.6453 -0.0258 -0.6441
  861MPD2     H12642   1.762   4.120  11.473 -1.5273  3.1062 -0.9519
  861MPD2    H112643   1.964   4.367  11.190 -0.2821 -2.4160 -2.0481
  861MPD2    H212644   2.181   4.142  11.477 -0.1982  1.5343 -0.6004
  861MPD2    H312645   2.176   4.277  11.279 -0.6474  1.3362 -2.6082
  861MPD2     N12646   1.735   4.326  11.277 -0.3902  0.0123  0.1549
  861MPD2    H512647   1.754   4.382  11.195  1.4086 -1.4398 -0.4027
  861MPD2    N112648   1.956   4.037  11.590 -0.2672 -0.1566 -0.3635
  861MPD2    H712649   1.865   4.020  11.632  0.8769 -0.6849  1.8914
  862MPD2     C12650   1.415   4.604  10.682 -0.9332 -0.4939 -0.4736
  862MPD2    C112651   1.500   4.509  10.741 -0.8510  0.5960  0.6607
  862MPD2    C212652   1.537   4.392  10.678 -0.1272  0.4125 -0.1265
  862MPD2    C312653   1.506   4.374  10.542 -0.2060 -0.4531 -0.3322
  862MPD2    C412654   1.425   4.464  10.484  0.4185 -0.1031  0.4919
  862MPD2    C512655   1.383   4.577  10.548 -0.5316 -0.8802 -0.0474
  862MPD2     H12656   1.591   4.320  10.740  0.6307  0.3958 -0.8069
  862MPD2    H112657   1.377   4.446  10.388  1.9576  0.2158 -0.3487
  862MPD2    H212658   1.398   4.702  10.724  1.6055 -0.6920  1.0199
  862MPD2    H312659   1.327   4.654  10.497 -1.6508 -1.4226  0.3578
  862MPD2     N12660   1.547   4.263  10.468  0.2702 -0.1229  0.7000
  862MPD2    H512661   1.498   4.245  10.381  0.8203 -1.0359  0.5744
  862MPD2    N112662   1.546   4.531  10.876 -0.4064 -0.2863  0.2622
  862MPD2    H712663   1.605   4.455  10.908  0.0878 -0.5006 -1.1386
  863MPD2     C12664   0.214   1.952  17.389 -0.8372 -0.1284  0.3420
  863MPD2    C112665   0.321   1.914  17.306  0.4060  0.4510 -1.1023
  863MPD2    C212666   0.423   1.833  17.361  0.0275 -0.1143  0.1955
  863MPD2    C312667   0.427   1.814  17.503 -0.1867  0.0416 -0.7336
  863MPD2    C412668   0.322   1.852  17.579 -0.9150 -0.7645 -0.1103
  863MPD2    C512669   0.218   1.920  17.520 -0.5366  0.3970 -0.3090
  863MPD2     H12670   0.514   1.800  17.312 -0.1251 -1.4651  0.8137
  863MPD2    H112671   0.311   1.831   0.000 -1.9966  0.1877 -0.0268
  863MPD2    H212672   0.138   2.023  17.358 -1.5231 -1.1368 -0.2483
  863MPD2    H312673   0.144   1.945  17.595 -1.3875 -1.0612 -0.6727
  863MPD2     N12674   0.535   1.757  17.570  0.2483 -0.3335  0.0894
  863MPD2    H512675   0.531   1.761  17.672 -0.2418  0.4235  0.0400
  863MPD2    N112676   0.327   1.942  17.168  0.0667  0.5007 -0.1583
  863MPD2    H712677   0.257   2.005  17.129 -3.0122 -2.0662  1.1812
  864MPD2     C12678   1.238   2.855  17.646 -0.4795  0.4950 -0.0569
  864MPD2    C112679   1.291   2.820  17.519 -0.8097  0.2254  0.2169
  864MPD2    C212680   1.345   2.915  17.432 -0.4085 -0.2780 -0.3765
  864MPD2    C312681   1.352   3.047  17.472 -0.6281 -0.3023  0.0875
  864MPD2    C412682   1.306   3.078  17.597 -0.1457  0.2484  0.4491
  864MPD2    C512683   1.250   2.981  17.683 -0.5983  0.6582 -0.0505
  864MPD2     H12684   1.370   2.880  17.332  1.1169  0.4367 -0.2510
  864MPD2    H112685   1.331   3.175  17.639 -1.8147  0.0293  1.9548
  864MPD2    H212686   1.188   2.774   0.014  1.4607 -1.6661 -1.5287
  864MPD2    H312687   1.216   3.009   0.097  3.1129 -0.7963  1.6541
  864MPD2     N12688   1.403   3.152  17.385 -0.4645 -0.0346  0.4570
  864MPD2    H512689   1.397   3.250  17.411 -0.1672  0.1785 -0.2790
  864MPD2    N112690   1.280   2.684  17.484  0.7739 -0.0963 -0.3693
  864MPD2    H712691   1.206   2.628  17.526  1.0764  0.0594  0.3587
  865MPD2     C12692   1.563   3.728  16.751  0.0959  0.0956 -0.0093
  865MPD2    C112693   1.517   3.605  16.791  0.7485  0.3729 -1.1162
  865MPD2    C212694   1.446   3.595  16.910  0.3209 -0.4069  0.6631
  865MPD2    C312695   1.436   3.709  16.992  0.4163  0.0372  0.8621
  865MPD2    C412696   1.472   3.835  16.942 -0.2088  0.4533 -0.0588
  865MPD2    C512697   1.526   3.849  16.814 -0.1641 -0.2394 -0.5158
  865MPD2     H12698   1.418   3.499  16.951  0.6395 -1.2603 -1.1327
  865MPD2    H112699   1.445   3.930  16.986 -0.1887  1.0068 -1.2268
  865MPD2    H212700   1.618   3.729  16.658 -3.1562  2.1202 -1.9202
  865MPD2    H312701   1.565   3.944  16.779  1.5724 -0.4379  0.8852
  865MPD2     N12702   1.385   3.712  17.118 -0.0366 -0.1289  0.5374
  865MPD2    H512703   1.342   3.801  17.142 -0.5090 -0.1574 -0.2080
  865MPD2    N112704   1.568   3.502  16.715 -0.8425 -0.0927  0.1750
  865MPD2    H712705   1.628   3.531  16.638  0.7775 -0.2721  1.3755
  866MPD2     C12706   2.847   4.440  11.671 -0.0166  0.7363  0.2210
  866MPD2    C112707   2.773   4.414  11.565 -0.1361 -0.4494 -1.3682
  866MPD2    C212708   2.647   4.462  11.554  0.1253 -0.4125 -0.0232
  866MPD2    C312709   2.600   4.554  11.642  0.9537  0.8204  0.1263
  866MPD2    C412710   2.678   4.578  11.753 -0.2680  0.1334 -0.1222
  866MPD2    C512711   2.799   4.519  11.770  0.0303  0.0823  0.3971
  866MPD2     H12712   2.580   4.439  11.472 -1.5543 -1.3701  1.6208
  866MPD2    H112713   2.645   4.655  11.822 -0.1397  2.0088 -2.1540
  866MPD2    H212714   2.944   4.397  11.691 -0.3344 -0.3613 -0.5908
  866MPD2    H312715   2.850   4.545  11.862  0.0610 -2.4872  1.0977
  866MPD2     N12716   2.477   4.623  11.625  0.1638  0.3470  0.6963
  866MPD2    H512717   2.447   4.688  11.697  0.0825 -1.7899  2.5657
  866MPD2    N112718   2.835   4.345  11.456 -0.0859  0.1926  0.0734
  866MPD2    H712719   2.935   4.335  11.466  0.2300  3.0713 -0.2543
  867MPD2     C12720   0.247   2.318  17.448 -0.1664  0.0865 -0.2666
  867MPD2    C112721   0.286   2.437  17.385 -0.1043  0.0609  0.4119
  867MPD2    C212722   0.374   2.523  17.448 -0.3869 -0.3206 -1.1283
  867MPD2    C312723   0.412   2.486  17.578  1.4819 -0.0440 -0.2451
  867MPD2    C412724   0.375   2.362  17.632  0.5698  0.3224  0.2338
  867MPD2    C512725   0.288   2.279  17.567 -0.6213  0.4729  0.0914
  867MPD2     H12726   0.408   2.605  17.386  1.2866 -0.0449  0.1554
  867MPD2    H112727   0.390   2.344   0.053  1.1589 -0.3546  0.0348
  867MPD2    H212728   0.169   2.255  17.408 -0.3195 -1.1993  2.0496
  867MPD2    H312729   0.234   2.199  17.615  1.7319 -1.5978 -0.7170
  867MPD2     N12730   0.496   2.567  17.657 -0.3765 -0.5502  0.5384
  867MPD2    H512731   0.527   2.528   0.061  0.9665 -1.2401 -0.2454
  867MPD2    N112732   0.252   2.460  17.251  0.7309 -0.0702  0.2114
  867MPD2    H712733   0.301   2.544  17.222  0.8033 -0.0551  0.3798
  868MPD2     C12734   2.003   2.712  13.373  0.4909 -0.3088  0.2490
  868MPD2    C112735   1.999   2.577  13.397 -0.2725  0.4147  0.3668
  868MPD2    C212736   1.951   2.538  13.524 -0.2749 -0.3541 -0.4450
  868MPD2    C312737   1.895   2.632  13.611  0.2319 -0.8755 -0.2113
  868MPD2    C412738   1.892   2.768  13.580 -0.0499  1.7696  1.5419
  868MPD2    C512739   1.954   2.812  13.463 -0.0119 -0.1298 -0.3470
  868MPD2     H12740   1.951   2.434  13.557  0.2170 -0.0651  0.4923
  868MPD2    H112741   1.836   2.835  13.644 -1.7710  1.3068  0.5139
  868MPD2    H212742   2.040   2.747  13.278 -2.9024  2.6455 -0.0033
  868MPD2    H312743   1.950   2.918  13.438 -0.0563 -0.0952 -0.1896
  868MPD2     N12744   1.827   2.584  13.725 -0.1117  0.3559 -0.3931
  868MPD2    H512745   1.841   2.486  13.743  1.1815  0.6036 -0.0370
  868MPD2    N112746   2.041   2.485  13.295 -0.0655 -0.0921  0.6440
  868MPD2    H712747   2.055   2.524  13.202 -1.6848  1.7947  1.1859
  869MPD2     C12748   3.081   0.047   2.570 -0.7859  0.3414 -0.6551
  869MPD2    C112749   3.203   4.707   2.561  0.3087 -0.0520 -0.6177
  869MPD2    C212750   3.268   4.701   2.443 -0.6993  0.0032 -0.4981
  869MPD2    C312751   3.197   0.012   2.331 -0.4318 -0.0207  0.8354
  869MPD2    C412752   3.069   0.060   2.333 -0.3574  0.5078 -0.2987
  869MPD2    C512753   3.012   0.078   2.455 -0.5494 -0.4813 -0.4421
  869MPD2     H12754   3.370   4.667   2.432 -0.5410  0.6213 -0.9072
  869MPD2    H112755   3.008   0.078   2.245 -0.6378  0.0769 -0.1920
  869MPD2    H212756   3.035   0.065   2.667  2.2582  3.7298  0.1796
  869MPD2    H312757   2.906   0.099   2.461  0.1129  2.1745  1.7839
  869MPD2     N12758   3.259   0.029   2.206 -0.0679  0.4350  0.1897
  869MPD2    H512759   3.200   0.064   2.130 -0.2290 -0.7608 -0.2371
  869MPD2    N112760   3.253   4.645   2.679 -0.1350  0.5061 -0.1577
  869MPD2    H712761   3.212   4.686   2.762 -0.7373  0.1310 -0.2664
  870MPD2     C12762   3.176   3.431   2.124  0.3308 -0.1827 -0.1051
  870MPD2    C112763   3.190   3.431   1.989 -0.6527  0.6068 -0.3403
  870MPD2    C212764   3.130   3.530   1.916 -0.7266  0.0191 -0.4357
  870MPD2    C312765   3.071   3.637   1.980  1.0920 -0.3188  0.8652
  870MPD2    C412766   3.048   3.631   2.117  0.2789 -0.3549 -0.2485
  870MPD2    C512767   3.104   3.531   2.188 -0.1829 -0.0962 -0.0950
  870MPD2     H12768   3.172   3.555   1.819  3.2754 -1.2372  0.9576
  870MPD2    H112769   3.019   3.714   2.180  0.0085 -0.2949 -0.4547
  870MPD2    H212770   3.219   3.357   2.191 -0.1362  0.5617  1.0140
  870MPD2    H312771   3.097   3.531   2.296 -3.7367 -0.8073 -0.3010
  870MPD2     N12772   3.037   3.752   1.900 -0.0056 -0.4447 -0.1017
  870MPD2    H512773   3.038   3.750   1.799 -2.9223  0.5438 -0.1517
  870MPD2    N112774   3.268   3.327   1.930 -0.1380 -0.2729  0.1834
  870MPD2    H712775   3.304   3.256   1.992 -1.8337  1.0654  2.6925
  871MPD2     C12776   3.650   3.073  16.521  0.2510  0.4422  0.1965
  871MPD2    C112777   3.695   3.039  16.639  0.1767 -0.2342  0.2199
  871MPD2    C212778   3.778   2.925  16.649  0.3938 -0.6044 -0.9598
  871MPD2    C312779   3.816   2.845  16.545  0.4066 -0.0039  0.3922
  871MPD2    C412780   3.759   2.872  16.421 -0.5525  0.4262 -0.6265
  871MPD2    C512781   3.674   2.983  16.415 -0.5749  0.6711 -0.1955
  871MPD2     H12782   3.821   2.897  16.745  2.4892  1.2267 -1.3708
  871MPD2    H112783   3.770   2.811  16.332  1.5357 -1.1323  0.6925
  871MPD2    H212784   3.574   3.150  16.520  0.8441  1.0341  0.9649
  871MPD2    H312785   3.633   2.996  16.315  0.2065 -0.1476 -0.6129
  871MPD2     N12786   3.901   2.740  16.571 -0.9082 -0.6252  0.2315
  871MPD2    H512787   3.957   2.735  16.655  0.1123 -2.6730 -0.5927
  871MPD2    N112788   3.665   3.118  16.755  0.0030 -0.0580 -0.2856
  871MPD2    H712789   3.607   3.200  16.739 -0.8194 -0.2341  1.9050
  872MPD2     C12790   4.338   1.308  13.576 -0.0974 -0.0071 -0.7872
  872MPD2    C112791   4.413   1.341  13.686 -0.3819  0.0052  0.6467
  872MPD2    C212792   4.366   1.293  13.811  0.1364  0.0986  0.4398
  872MPD2    C312793   4.246   1.225  13.829 -0.3583  0.1620 -0.5639
  872MPD2    C412794   4.179   1.202  13.712  0.4988 -0.1061  0.5984
  872MPD2    C512795   4.219   1.242  13.586 -0.4671 -0.2447 -0.2562
  872MPD2     H12796   4.433   1.300  13.896 -0.2235 -0.9534  0.8116
  872MPD2    H112797   4.083   1.151  13.715 -0.3324  1.5078  1.7333
  872MPD2    H212798   4.371   1.349  13.481 -0.2163  2.8191  0.3923
  872MPD2    H312799   4.165   1.214  13.496  1.1828 -2.2812 -0.6215
  872MPD2     N12800   4.191   1.172  13.955  0.1620 -0.6316 -0.0089
  872MPD2    H512801   4.102   1.124  13.950  0.7489 -1.6234 -0.9486
  872MPD2    N112802   4.527   1.422  13.673 -0.0978 -0.3929 -0.0962
  872MPD2    H712803   4.574   1.446  13.760 -1.9719 -1.0043  1.0686
  873MPD2     C12804   1.287   0.668   1.194  1.0276 -0.1993 -0.3844
  873MPD2    C112805   1.333   0.616   1.305  0.0839 -1.0950  0.0018
  873MPD2    C212806   1.320   0.475   1.323  0.1221 -0.1122  0.2077
  873MPD2    C312807   1.246   0.399   1.237  0.5687 -0.3142 -0.0164
  873MPD2    C412808   1.202   0.451   1.121 -0.2496  0.3659  0.7685
  873MPD2    C512809   1.227   0.587   1.095  0.1409 -0.0193  0.6963
  873MPD2     H12810   1.363   0.419   1.405 -0.5989 -1.1273 -0.1059
  873MPD2    H112811   1.133   0.399   1.056  0.4821  0.0767  0.2305
  873MPD2    H212812   1.301   0.772   1.166  4.2728  0.3403  3.1526
  873MPD2    H312813   1.191   0.620   0.998  1.4533 -1.3438 -0.2355
  873MPD2     N12814   1.208   0.268   1.255 -0.1072  0.2209  0.1457
  873MPD2    H512815   1.139   0.228   1.192 -1.2481  2.4785 -0.0417
  873MPD2    N112816   1.414   0.696   1.386  0.0670  0.1080  0.2080
  873MPD2    H712817   1.423   0.788   1.344  0.2041 -0.3351 -0.7168
  874MPD2     C12818   0.954   1.043  16.682 -0.6459 -0.1494 -0.4126
  874MPD2    C112819   1.057   1.022  16.602  0.2074 -0.9766 -0.1372
  874MPD2    C212820   1.187   1.085  16.621 -0.4451  0.0576 -0.8189
  874MPD2    C312821   1.198   1.180  16.721 -1.1197 -0.2031 -0.1165
  874MPD2    C412822   1.087   1.213  16.783  0.1150 -1.1355 -0.2350
  874MPD2    C512823   0.966   1.147  16.773 -0.5418 -0.1293  0.4635
  874MPD2     H12824   1.276   1.067  16.564  0.1669 -1.4694  0.6132
  874MPD2    H112825   1.087   1.288  16.862 -0.1288 -0.8846 -0.4734
  874MPD2    H212826   0.864   0.983  16.671 -1.9032  1.7330 -0.3305
  874MPD2    H312827   0.874   1.186  16.815 -1.3381 -0.9210 -0.5171
  874MPD2     N12828   1.330   1.229  16.744 -0.1426  0.1479 -0.2260
  874MPD2    H512829   1.403   1.212  16.675  2.3269  1.3167  2.0888
  874MPD2    N112830   1.038   0.925  16.503  0.8992 -0.3202  0.4335
  874MPD2    H712831   0.950   0.874  16.504  1.9302 -2.1302 -0.5621
  875MPD2     C12832   2.766   4.349  14.839  0.1715  0.1256 -0.7703
  875MPD2    C112833   2.641   4.380  14.889  0.0702  0.9228  0.6048
  875MPD2    C212834   2.637   4.438  15.020 -0.7811 -0.3324  0.3130
  875MPD2    C312835   2.751   4.450  15.093  0.0337 -0.0912 -0.6444
  875MPD2    C412836   2.879   4.434  15.029  0.0073  0.1478 -0.3605
  875MPD2    C512837   2.885   4.380  14.902 -0.1657  0.2982  0.1935
  875MPD2     H12838   2.540   4.453  15.065 -0.2277 -0.4411  1.5321
  875MPD2    H112839   2.972   4.439  15.083 -0.2359  2.0776 -0.1078
  875MPD2    H212840   2.778   4.313  14.738 -1.2547 -2.4957  0.0035
  875MPD2    H312841   2.975   4.353  14.848 -0.8493 -1.8080  0.1387
  875MPD2     N12842   2.742   4.479  15.226  0.4835  0.0304  0.8865
  875MPD2    H512843   2.652   4.482  15.272 -0.2469  3.6555 -0.7788
  875MPD2    N112844   2.518   4.356  14.824  0.7349 -0.1354 -0.0381
  875MPD2    H712845   2.435   4.385  14.875 -0.1390  2.2909 -2.8731
  876MPD2     C12846   0.993   0.514  16.126  1.1359 -0.3518 -0.3653
  876MPD2    C112847   1.124   0.537  16.122 -0.5228  0.0932  0.0352
  876MPD2    C212848   1.206   0.458  16.194  0.0745  0.4517  0.5674
  876MPD2    C312849   1.157   0.348  16.262 -0.4195  0.0169  0.2092
  876MPD2    C412850   1.024   0.316  16.257  0.5121 -0.1780 -0.1224
  876MPD2    C512851   0.948   0.400  16.184 -0.5016 -0.4577 -0.1757
  876MPD2     H12852   1.313   0.476  16.201  0.1746 -0.3611  1.1562
  876MPD2    H112853   0.980   0.223  16.293 -0.6959  0.5247  0.1944
  876MPD2    H212854   0.925   0.569  16.062 -1.3571 -2.0271  0.8491
  876MPD2    H312855   0.845   0.379  16.158 -0.6483  1.8831 -1.5171
  876MPD2     N12856   1.249   0.259  16.324  1.0645 -0.2801 -0.1174
  876MPD2    H512857   1.347   0.285  16.324  1.1075 -0.4367  1.1578
  876MPD2    N112858   1.174   0.648  16.056  0.7402  0.4424  0.6999
  876MPD2    H712859   1.110   0.684  15.986 -0.4093 -0.9897  0.9946
  877MPD2     C12860   1.043   1.144  15.496  0.3727  0.2166  0.0039
  877MPD2    C112861   1.178   1.150  15.522 -0.2122  0.2422  0.3563
  877MPD2    C212862   1.260   1.215  15.438 -0.1702 -0.3434 -0.0538
  877MPD2    C312863   1.211   1.264  15.316  0.0382 -0.0122 -0.5085
  877MPD2    C412864   1.084   1.224  15.275 -0.6597  0.3352 -0.4553
  877MPD2    C512865   0.998   1.172  15.373 -0.4419  0.7956  1.1005
  877MPD2     H12866   1.362   1.230  15.472 -0.7296 -0.7166  1.8050
  877MPD2    H112867   1.036   1.255  15.182 -2.8485 -0.0434  0.5480
  877MPD2    H212868   0.971   1.099  15.564  1.9544 -0.6972  1.0742
  877MPD2    H312869   0.897   1.141  15.350  0.7209 -2.3067  0.2034
  877MPD2     N12870   1.288   1.337  15.223  0.3957  0.0802 -0.2715
  877MPD2    H512871   1.251   1.359  15.131  1.4904  0.0390 -0.7147
  877MPD2    N112872   1.230   1.107  15.642  0.7947 -0.2528  0.6862
  877MPD2    H712873   1.331   1.113  15.651  0.7876 -0.6802  1.0650
  878MPD2     C12874   1.996   0.706  13.230  0.2113  0.5981 -0.5278
  878MPD2    C112875   1.904   0.791  13.285  0.3649 -0.5308  0.0953
  878MPD2    C212876   1.910   0.808  13.422 -0.4119 -0.7592 -0.2404
  878MPD2    C312877   2.008   0.748  13.505  0.1968 -0.5379 -0.3039
  878MPD2    C412878   2.104   0.673  13.443 -0.0322  0.4233 -0.7290
  878MPD2    C512879   2.095   0.652  13.306  0.2447  0.0105  0.4774
  878MPD2     H12880   1.835   0.870  13.471  0.2386  0.3207 -0.5961
  878MPD2    H112881   2.178   0.614  13.496  0.8321  1.2612 -1.0013
  878MPD2    H212882   1.992   0.685  13.124  0.6289  0.0671 -0.4418
  878MPD2    H312883   2.175   0.592  13.264 -0.6804  0.4053 -1.8679
  878MPD2     N12884   1.992   0.750  13.644  0.2180  0.3664  0.3726
  878MPD2    H512885   2.038   0.676  13.696  0.0268  0.9035  1.3170
  878MPD2    N112886   1.797   0.834  13.205 -0.2432  0.5134  0.2000
  878MPD2    H712887   1.777   0.788  13.117 -1.1000  1.0515  0.1098
  879MPD2     C12888   1.915   2.158   0.064  0.1356 -0.9287  0.2839
  879MPD2    C112889   1.886   2.038   0.129  0.2361 -0.2660  0.0627
  879MPD2    C212890   1.785   1.956   0.079  0.1590 -0.6904 -0.2924
  879MPD2    C312891   1.715   1.991  17.649  1.2351 -0.4538  0.5030
  879MPD2    C412892   1.745   2.108  17.588  0.9656 -0.5072  0.2539
  879MPD2    C512893   1.842   2.196  17.637  0.9934  0.5302 -0.2397
  879MPD2     H12894   1.762   1.858   0.119 -3.0193  0.0921 -0.1851
  879MPD2    H112895   1.691   2.136  17.498  1.0532  1.2964  0.7621
  879MPD2    H212896   1.993   2.225   0.101  0.2270 -1.0308  0.2774
  879MPD2    H312897   1.861   2.290  17.587 -0.1552  0.7390 -0.2951
  879MPD2     N12898   1.611   1.915  17.592 -0.1999  0.3688  0.0187
  879MPD2    H512899   1.566   1.957  17.511 -0.8185 -0.4485 -0.0655
  879MPD2    N112900   1.960   2.003   0.244 -0.2300  0.7483  0.5537
  879MPD2    H712901   2.029   2.068   0.280  1.1512  0.0702 -0.8263
  880MPD2     C12902   3.399   3.333   0.459 -0.2908  0.2066 -0.4553
  880MPD2    C112903   3.327   3.333   0.575  0.0853  0.7222 -0.2015
  880MPD2    C212904   3.301   3.220   0.641 -0.4393  0.7433 -0.6521
  880MPD2    C312905   3.353   3.107   0.586 -0.0050 -0.0988 -0.6683
  880MPD2    C412906   3.439   3.108   0.478  0.4180 -0.1287  0.2196
  880MPD2    C512907   3.472   3.226   0.418  0.0704 -0.3042 -0.3119
  880MPD2     H12908   3.223   3.214   0.717 -0.6089 -1.1389 -0.9726
  880MPD2    H112909   3.482   3.020   0.432  0.8773  0.7507 -1.0217
  880MPD2    H212910   3.420   3.429   0.413  1.0944 -0.8227 -1.9611
  880MPD2    H312911   3.528   3.231   0.325 -0.5621 -0.5143 -0.7020
  880MPD2     N12912   3.301   2.990   0.646  0.4456  0.6946  0.1608
  880MPD2    H512913   3.221   3.005   0.706 -0.0123  1.7270 -0.6999
  880MPD2    N112914   3.271   3.461   0.605 -0.4003  0.9387  0.0540
  880MPD2    H712915   3.290   3.541   0.545  0.9768  0.2085 -0.4925
  881MPD2     C12916   2.971   4.284   0.167  0.3770 -0.6936 -0.3208
  881MPD2    C112917   2.977   4.147   0.137  0.5935  0.5133 -0.6290
  881MPD2    C212918   2.991   4.053   0.240  0.4472  0.1877 -0.0095
  881MPD2    C312919   2.986   4.095   0.375 -0.5166 -0.2843  0.0978
  881MPD2    C412920   2.973   4.228   0.416  0.4667 -0.5526 -0.3535
  881MPD2    C512921   2.966   4.317   0.305  0.1778 -0.5094 -0.0087
  881MPD2     H12922   2.976   3.951   0.208 -1.1370  0.4904 -0.2072
  881MPD2    H112923   2.976   4.257   0.521 -0.4382 -0.2284 -0.4230
  881MPD2    H212924   2.983   4.365   0.096 -1.0444 -1.3858 -1.3561
  881MPD2    H312925   2.970   4.425   0.319  0.8921 -0.2660 -2.0148
  881MPD2     N12926   2.996   4.000   0.480  0.0913  0.4102  0.0783
  881MPD2    H512927   3.019   4.042   0.569 -1.1075 -0.3355  0.7498
  881MPD2    N112928   3.003   4.110   0.003 -0.5756  0.6023  0.5967
  881MPD2    H712929   3.001   4.184  17.618  1.0960  0.8056  0.7585
  882MPD2     C12930   1.411   1.476  14.412  0.8824  0.1395 -0.8999
  882MPD2    C112931   1.347   1.469  14.537  0.5202  0.1641 -0.2067
  882MPD2    C212932   1.206   1.469  14.535  1.2722  0.0870  0.0489
  882MPD2    C312933   1.126   1.464  14.423  0.5718 -0.5252  0.8807
  882MPD2    C412934   1.190   1.466  14.301 -0.6868 -0.3789  0.6063
  882MPD2    C512935   1.331   1.482  14.301  0.3890  0.0522  0.5845
  882MPD2     H12936   1.160   1.470  14.634 -0.1268  1.0740 -0.6183
  882MPD2    H112937   1.135   1.454  14.208 -2.3092 -2.1296  1.8016
  882MPD2    H212938   1.520   1.477  14.411  0.8553  2.3589 -0.8185
  882MPD2    H312939   1.376   1.487  14.202 -1.1080 -1.8794 -0.2018
  882MPD2     N12940   0.986   1.452  14.432  0.2703 -0.5732  0.1351
  882MPD2    H512941   0.938   1.459  14.343  2.8932 -0.0546 -1.2031
  882MPD2    N112942   1.424   1.460  14.653 -0.0105  0.3981 -0.3444
  882MPD2    H712943   1.524   1.452  14.634 -0.1642 -1.3975 -0.4686
  883MPD2     C12944   3.231   1.066  16.747 -0.2279  0.7700 -0.0970
  883MPD2    C112945   3.332   1.090  16.649 -0.6313 -1.0560  0.4768
  883MPD2    C212946   3.436   1.172  16.688 -0.3182  0.4391 -0.8881
  883MPD2    C312947   3.451   1.213  16.818 -0.4020 -0.4945  0.0640
  883MPD2    C412948   3.349   1.182  16.908  0.1699 -0.3785 -0.4877
  883MPD2    C512949   3.242   1.108  16.871  0.3099 -1.1384 -0.2982
  883MPD2     H12950   3.503   1.216  16.615  0.1440 -0.5270 -1.0376
  883MPD2    H112951   3.363   1.194  17.014  3.0828 -0.9137 -0.8052
  883MPD2    H212952   3.148   1.007  16.710 -1.3246  1.1924  1.6995
  883MPD2    H312953   3.164   1.087  16.943  1.3864 -0.5141  1.0424
  883MPD2     N12954   3.566   1.285  16.855 -1.0014  0.6730 -0.3131
  883MPD2    H512955   3.635   1.298  16.782  0.7835  0.3637  1.2875
  883MPD2    N112956   3.301   1.040  16.521  0.3826  0.1017  0.1181
  883MPD2    H712957   3.219   0.981  16.511  0.6099  0.1027 -1.8161
  884MPD2     C12958   0.568   1.675  15.695 -0.3735  0.2861 -0.3729
  884MPD2    C112959   0.556   1.807  15.646 -1.2573  0.0613  0.8643
  884MPD2    C212960   0.429   1.850  15.621 -0.2045 -0.0816 -0.2531
  884MPD2    C312961   0.318   1.766  15.642 -0.1459  0.0795  0.6764
  884MPD2    C412962   0.341   1.638  15.692  0.2333 -0.4353  0.0682
  884MPD2    C512963   0.461   1.596  15.727 -0.5316  0.2505 -0.4802
  884MPD2     H12964   0.404   1.947  15.581  0.0788  0.3011  0.4930
  884MPD2    H112965   0.254   1.577  15.710  0.2362  0.3174  2.6713
  884MPD2    H212966   0.666   1.629  15.705 -1.3165 -1.6448  0.0821
  884MPD2    H312967   0.477   1.495  15.762  0.4764  0.8880  0.9365
  884MPD2     N12968   0.189   1.816  15.629  0.6016  0.7954 -0.2244
  884MPD2    H512969   0.188   1.913  15.601  0.6459  1.4002  1.8838
  884MPD2    N112970   0.665   1.896  15.624 -0.5628  0.0227 -0.4781
  884MPD2    H712971   0.641   1.988  15.588 -0.0430  1.1904  2.1454
  885MPD2     C12972   3.249   2.030   0.306 -0.3280 -0.0028  0.3137
  885MPD2    C112973   3.372   1.992   0.253  0.6259  0.3508  0.0143
  885MPD2    C212974   3.397   2.036   0.119 -0.6040  0.3025 -0.0185
  885MPD2    C312975   3.301   2.116   0.054  0.2635  0.0188  0.4233
  885MPD2    C412976   3.183   2.153   0.114 -0.8815  0.0342 -0.0604
  885MPD2    C512977   3.160   2.110   0.244 -0.0052 -0.0002 -0.2796
  885MPD2     H12978   3.488   2.001   0.071 -0.5956  0.8710 -0.4124
  885MPD2    H112979   3.109   2.211   0.061 -0.4107 -0.9409 -1.7578
  885MPD2    H212980   3.217   2.016   0.409  1.0048 -0.1106  0.7086
  885MPD2    H312981   3.071   2.140   0.297  0.7991  0.0695  1.0309
  885MPD2     N12982   3.314   2.139  17.599 -0.3263 -0.5159  0.1184
  885MPD2    H512983   3.399   2.093  17.567  0.6007  2.1573 -1.2546
  885MPD2    N112984   3.461   1.908   0.328 -0.7195 -0.5966 -1.0253
  885MPD2    H712985   3.429   1.884   0.422 -2.2632  1.4372 -1.0216
  886MPD2     C12986   4.612   0.699  15.970  0.1902  0.4290  0.6691
  886MPD2    C112987   4.608   0.661  15.839 -0.1537 -0.1200  0.2568
  886MPD2    C212988   4.644   0.750  15.737  0.5180  0.4842  0.2419
  886MPD2    C312989   4.701   0.872  15.772 -0.6970  0.5459  0.1184
  886MPD2    C412990   0.014   0.896  15.905 -0.6519  0.7220  0.2431
  886MPD2    C512991   4.690   0.812  16.000  0.2436  0.2519  0.1023
  886MPD2     H12992   4.637   0.717  15.634  1.0479  0.4697  0.2088
  886MPD2    H112993   0.073   0.982  15.931  1.5445 -0.8470  0.4311
  886MPD2    H212994   4.585   0.637  16.054 -1.8010 -0.0594 -0.3165
  886MPD2    H312995   4.712   0.836  16.103  1.0805  1.2417 -0.3116
  886MPD2     N12996   0.041   0.956  15.670  0.2267  0.0639 -0.6573
  886MPD2    H512997   0.104   1.026  15.706 -0.1560  0.7193 -1.2497
  886MPD2    N112998   4.551   0.542  15.794  0.0573  0.2520 -0.5124
  886MPD2    H712999   4.572   0.529  15.695  0.8414 -1.5372 -0.1219
  887MPD2     C13000   0.301   0.385  15.640  0.0530 -0.0932 -0.6360
  887MPD2    C113001   0.225   0.406  15.756  0.1914 -1.3300 -0.1158
  887MPD2    C213002   0.246   0.524  15.833  0.1879  0.1355 -0.6875
  887MPD2    C313003   0.355   0.605  15.801 -0.2706  0.7849 -0.1534
  887MPD2    C413004   0.445   0.567  15.704  0.0275  0.0845 -0.1288
  887MPD2    C513005   0.409   0.469  15.618  0.1486  0.6929  0.2636
  887MPD2     H13006   0.189   0.534  15.924 -1.6764 -0.5397 -1.7865
  887MPD2    H113007   0.535   0.623  15.677  1.6106 -0.5032  3.8265
  887MPD2    H213008   0.283   0.302  15.573 -1.6441 -0.8483  0.7523
  887MPD2    H313009   0.477   0.451  15.536  1.3869 -1.0329  1.6665
  887MPD2     N13010   0.376   0.709  15.895  0.5033 -0.1566 -0.6245
  887MPD2    H513011   0.296   0.731  15.953 -0.9607  0.4598 -2.8723
  887MPD2    N113012   0.123   0.318  15.798  0.2398 -0.4003  0.0758
  887MPD2    H713013   0.059   0.346  15.872 -1.1166  0.3444 -1.3673
  888MPD2     C13014   2.499   0.783  15.067 -0.4792 -0.5597 -0.5228
  888MPD2    C113015   2.535   0.826  15.188  0.0634  0.2461 -0.5192
  888MPD2    C213016   2.610   0.945  15.185 -0.3216 -0.1772  0.3205
  888MPD2    C313017   2.636   1.019  15.063 -0.1251  0.4698  0.1518
  888MPD2    C413018   2.598   0.968  14.943 -0.4496 -0.3052 -0.3588
  888MPD2    C513019   2.528   0.852  14.947 -0.4227  0.2406  0.0917
  888MPD2     H13020   2.649   0.983  15.279  0.0429 -1.7811  0.8078
  888MPD2    H113021   2.603   1.016  14.847  1.6136  1.0904  0.4549
  888MPD2    H213022   2.443   0.690  15.063  1.3586 -1.5808 -2.2830
  888MPD2    H313023   2.493   0.814  14.852 -0.4330 -0.4532  0.3677
  888MPD2     N13024   2.704   1.145  15.077  0.5802 -0.2195  0.6318
  888MPD2    H513025   2.718   1.189  15.167 -0.0058  0.8842  0.1832
  888MPD2    N113026   2.507   0.765  15.308  0.3502  0.1381  0.7209
  888MPD2    H713027   2.554   0.804  15.389  0.1125  0.2343  0.8126
  889MPD2     C13028   2.462   0.161  14.006 -0.2345  0.1461 -0.0530
  889MPD2    C113029   2.448   0.187  13.874  0.1450  0.4126 -0.3311
  889MPD2    C213030   2.509   0.297  13.818  0.1326  0.6572  0.5764
  889MPD2    C313031   2.532   0.403  13.901  0.1639 -1.3011  0.7403
  889MPD2    C413032   2.533   0.380  14.040  0.3536  0.3906 -0.1356
  889MPD2    C513033   2.502   0.261  14.089  0.1058 -0.5876  0.2970
  889MPD2     H13034   2.484   0.306  13.713 -1.3084 -2.0198  0.7010
  889MPD2    H113035   2.565   0.459  14.107  0.7247 -0.7994  1.0891
  889MPD2    H213036   2.433   0.065  14.047 -1.9466  1.7659  2.5324
  889MPD2    H313037   2.523   0.242  14.194 -0.1738 -4.5335 -0.3349
  889MPD2     N13038   2.524   0.537  13.852  0.0328 -0.0695  0.1438
  889MPD2    H513039   2.508   0.616  13.914 -1.7006  0.3681 -0.8472
  889MPD2    N113040   2.430   0.077  13.788  0.2355 -0.4366  0.2624
  889MPD2    H713041   2.451   0.094  13.690 -1.5353  0.1579 -0.0115
  890MPD2     C13042   1.023   1.982  15.176  0.1195 -0.1789 -0.4672
  890MPD2    C113043   1.140   2.025  15.233 -0.1371  0.2765  0.1471
  890MPD2    C213044   1.208   1.938  15.317  0.4376  0.3499  0.1060
  890MPD2    C313045   1.162   1.809  15.345  0.4786  0.0833  0.7035
  890MPD2    C413046   1.036   1.782  15.302 -0.0222 -0.0952 -0.4923
  890MPD2    C513047   0.966   1.868  15.224  0.6584 -0.2784 -0.4621
  890MPD2     H13048   1.305   1.964  15.360 -0.2506  0.5008  1.5467
  890MPD2    H113049   0.978   1.697  15.336 -2.5082  0.3767 -3.6434
  890MPD2    H213050   0.971   2.047  15.106 -0.2373  2.1555  1.9307
  890MPD2    H313051   0.863   1.845  15.200  0.3497  0.8162 -0.1937
  890MPD2     N13052   1.236   1.725  15.423 -0.3108 -0.0099  0.7511
  890MPD2    H513053   1.320   1.769  15.458  0.5191 -0.9829  0.0056
  890MPD2    N113054   1.179   2.157  15.203 -0.3372  0.5349 -0.3640
  890MPD2    H713055   1.119   2.209  15.139 -1.0889  0.4681  0.2882
  891MPD2     C13056   4.155   0.476  16.734  0.2876  0.5859  0.1557
  891MPD2    C113057   4.096   0.534  16.842 -0.5856 -0.9086 -0.3327
  891MPD2    C213058   4.142   0.500  16.974 -1.1321 -0.6264 -0.3106
  891MPD2    C313059   4.246   0.410  16.991  0.2416 -0.2202  0.7664
  891MPD2    C413060   4.300   0.351  16.883  0.0557  1.1939 -0.4845
  891MPD2    C513061   4.260   0.388  16.761  0.0487 -0.0574 -0.2590
  891MPD2     H13062   4.085   0.527  17.063  0.7831  1.7938  0.1639
  891MPD2    H113063   4.380   0.279  16.885 -0.2557  0.9496  3.2316
  891MPD2    H213064   4.141   0.511  16.632  0.9311  2.1640  0.5933
  891MPD2    H313065   4.307   0.324  16.686  1.7226 -0.2874  0.9824
  891MPD2     N13066   4.280   0.380  17.126  0.0276 -0.0841 -0.7260
  891MPD2    H513067   4.227   0.411  17.207  0.8098 -0.9117  0.1029
  891MPD2    N113068   3.990   0.625  16.811 -0.3864 -0.0584  0.2604
  891MPD2    H713069   3.958   0.635  16.715 -0.7623  0.8343  0.4775
  892MPD2     C13070   0.440   1.410  15.247  0.0894  0.9709 -0.1768
  892MPD2    C113071   0.339   1.438  15.159  0.3890  0.1558 -0.2811
  892MPD2    C213072   0.381   1.448  15.026 -0.0045  0.0183  0.4907
  892MPD2    C313073   0.515   1.429  14.991 -0.7011  0.3122  0.8297
  892MPD2    C413074   0.602   1.387  15.085  0.2440  0.0230 -0.4609
  892MPD2    C513075   0.571   1.383  15.213  0.3716  0.4297 -0.1932
  892MPD2     H13076   0.306   1.474  14.953 -0.6497 -0.8119  0.8629
  892MPD2    H113077   0.704   1.369  15.053  0.2775 -0.4553 -0.0858
  892MPD2    H213078   0.416   1.403  15.352 -0.5963 -2.2837 -0.5428
  892MPD2    H313079   0.645   1.358  15.288 -2.7201 -0.0357  2.7474
  892MPD2     N13080   0.563   1.439  14.857  0.1657 -0.3885 -0.0778
  892MPD2    H513081   0.660   1.411  14.848  0.1569 -0.4476  0.0143
  892MPD2    N113082   0.204   1.469  15.189 -0.2039  0.4979 -0.4075
  892MPD2    H713083   0.157   1.504  15.106 -0.0623 -1.4457 -1.3181
  893MPD2     C13084   3.870   3.481   1.969  0.0024  0.2854 -0.2787
  893MPD2    C113085   3.759   3.427   2.030 -0.3751 -0.7818 -0.3954
  893MPD2    C213086   3.749   3.292   2.043 -0.3332 -0.7319 -0.7074
  893MPD2    C313087   3.845   3.201   2.007 -0.4434 -0.2095 -0.0073
  893MPD2    C413088   3.954   3.256   1.948 -0.1542 -0.7832 -0.6436
  893MPD2    C513089   3.967   3.394   1.933  0.3884  0.6809 -0.1810
  893MPD2     H13090   3.657   3.247   2.079 -0.4843  0.1661  0.0218
  893MPD2    H113091   4.034   3.186   1.926  0.9518 -0.7736  3.3753
  893MPD2    H213092   3.874   3.586   1.944  0.2925  0.0082 -1.3971
  893MPD2    H313093   4.055   3.427   1.879  0.0365  1.2075 -0.4301
  893MPD2     N13094   3.829   3.062   2.009  0.2589 -0.3870 -0.4283
  893MPD2    H513095   3.905   3.012   1.964  1.0228  0.0825  0.3309
  893MPD2    N113096   3.652   3.520   2.060 -0.1790  0.1089  0.0951
  893MPD2    H713097   3.668   3.612   2.020 -0.6953  0.1374 -0.0468
  894MPD2     C13098   0.495   1.684   1.721 -0.5080  0.3892  1.1842
  894MPD2    C113099   0.413   1.783   1.763  0.3717 -0.7861  0.2998
  894MPD2    C213100   0.470   1.898   1.818 -0.1878  0.6928 -0.0389
  894MPD2    C313101   0.605   1.919   1.838  0.1804  0.3367  0.7680
  894MPD2    C413102   0.679   1.809   1.808 -0.3711 -0.4209 -0.6962
  894MPD2    C513103   0.625   1.696   1.760 -0.6541 -0.3058 -0.9586
  894MPD2     H13104   0.401   1.975   1.850  0.5847  1.3911 -0.0428
  894MPD2    H113105   0.788   1.806   1.810 -0.2707  1.3029 -2.3856
  894MPD2    H213106   0.452   1.607   1.657 -1.0315  0.7456  1.1030
  894MPD2    H313107   0.689   1.623   1.710  0.6301 -0.1085  0.3919
  894MPD2     N13108   0.657   2.042   1.893 -0.1998 -0.7299  0.2328
  894MPD2    H513109   0.595   2.123   1.895 -0.2162 -0.7486  0.4511
  894MPD2    N113110   0.270   1.791   1.740  0.7777  0.4790  0.1108
  894MPD2    H713111   0.212   1.867   1.774  0.8462  0.3449  0.5285
  895MPD2     C13112   3.881   0.757  14.012 -0.7640  0.4517  0.1962
  895MPD2    C113113   3.933   0.796  13.892 -0.1808 -0.3234 -0.3685
  895MPD2    C213114   4.064   0.819  13.870  0.2759 -0.2987 -0.8676
  895MPD2    C313115   4.152   0.790  13.970  0.2198  0.4139  0.0060
  895MPD2    C413116   4.099   0.756  14.096  0.6199 -0.1869 -0.0862
  895MPD2    C513117   3.966   0.746  14.116  0.2109  0.3155  0.9827
  895MPD2     H13118   4.097   0.825  13.767  0.7996 -0.8043 -0.7316
  895MPD2    H113119   4.170   0.719  14.170  0.0796 -1.4990 -0.2276
  895MPD2    H213120   3.779   0.722  14.022 -1.5724  2.1756 -2.3254
  895MPD2    H313121   3.925   0.721  14.213 -0.1147  0.3313  0.8492
  895MPD2     N13122   4.289   0.802  13.946  0.3790 -0.5625 -0.4747
  895MPD2    H513123   4.315   0.790  13.848  0.7712 -1.7131 -0.2311
  895MPD2    N113124   3.837   0.810  13.785  0.3616 -0.6062 -0.3624
  895MPD2    H713125   3.868   0.814  13.689 -0.6308 -0.0509 -0.6521
  896MPD2     C13126   2.147   2.545   2.155 -0.2317 -0.9158 -0.2014
  896MPD2    C113127   2.107   2.575   2.024 -0.0980  0.4302 -0.6512
  896MPD2    C213128   1.971   2.596   1.997  0.0937 -1.0622 -0.0568
  896MPD2    C313129   1.873   2.583   2.094  0.5551  0.2708 -0.1633
  896MPD2    C413130   1.915   2.564   2.225  0.5306  0.3217 -0.3085
  896MPD2    C513131   2.049   2.544   2.250 -0.3165 -0.2527  0.7047
  896MPD2     H13132   1.929   2.602   1.897  0.7535  0.3460 -0.2558
  896MPD2    H113133   1.845   2.555   2.307  1.8233  1.2084  0.8840
  896MPD2    H213134   2.246   2.510   2.181  0.4111  1.1588  0.1359
  896MPD2    H313135   2.073   2.516   2.352 -0.6313 -1.3144  0.4881
  896MPD2     N13136   1.738   2.600   2.056  0.2298  0.4516  0.0019
  896MPD2    H513137   1.712   2.589   1.958  0.4225 -0.1658  0.0173
  896MPD2    N113138   2.207   2.593   1.925 -0.1181  0.1873  0.2884
  896MPD2    H713139   2.298   2.559   1.953 -0.2679 -1.2849 -1.0386
  897MPD2     C13140   2.855   4.700  10.333 -0.1917 -0.1512 -0.4932
  897MPD2    C113141   2.918   0.023  10.448  0.0890  0.2767 -0.4256
  897MPD2    C213142   2.840   0.080  10.545  0.1084  0.3749  0.4679
  897MPD2    C313143   2.709   0.094  10.534  0.1626  0.0643  0.1677
  897MPD2    C413144   2.647   0.066  10.417 -0.2035  0.1475  0.8451
  897MPD2    C513145   2.725   0.012  10.318 -0.3391  0.1483 -0.2724
  897MPD2     H13146   2.893   0.094  10.639 -0.3111 -0.9387  0.8838
  897MPD2    H113147   2.544   0.090  10.393  0.2038  2.3329  1.3359
  897MPD2    H213148   2.910   4.649  10.254 -0.3542 -0.2142 -0.5655
  897MPD2    H313149   2.666   4.714  10.228  0.0730  1.0972 -0.7334
  897MPD2     N13150   2.629   0.141  10.647  0.0014 -0.3425 -0.1639
  897MPD2    H513151   2.678   0.180  10.727 -1.2962  2.5208 -0.7606
  897MPD2    N113152   3.058   4.718  10.464 -0.3814  0.0659  0.6551
  897MPD2    H713153   3.100   4.658  10.394  0.2997  1.1478  0.1228
  898MPD2     C13154   0.408   0.954   0.199  0.3088  0.2069  0.1865
  898MPD2    C113155   0.408   0.849   0.103 -1.0823  0.3008 -0.5681
  898MPD2    C213156   0.324   0.863  17.683 -0.5168  0.3306 -0.2592
  898MPD2    C313157   0.242   0.965  17.655  1.0766 -0.9284  0.1681
  898MPD2    C413158   0.244   1.066   0.054 -0.7675  0.0007  0.4447
  898MPD2    C513159   0.330   1.067   0.164 -0.0073  0.5328  0.1638
  898MPD2     H13160   0.330   0.781  17.611  0.9839  0.8578 -0.7450
  898MPD2    H113161   0.180   1.154   0.057 -1.7824 -0.6667 -1.8305
  898MPD2    H213162   0.457   0.951   0.295 -0.1849  1.2351  0.4682
  898MPD2    H313163   0.325   1.149   0.235  2.2445 -0.3263  1.3239
  898MPD2     N13164   0.162   0.962  17.540 -0.0919  0.0879  0.3981
  898MPD2    H513165   0.165   0.896  17.463 -0.6544 -0.9458  1.2483
  898MPD2    N113166   0.468   0.723   0.129  0.3731  0.0366  0.6886
  898MPD2    H713167   0.462   0.647   0.063  0.1770 -0.4096  1.2248
  899MPD2     C13168   0.429   1.450   0.371  1.1086 -0.7791 -0.0989
  899MPD2    C113169   0.539   1.521   0.397  0.9527 -0.5928  0.6375
  899MPD2    C213170   0.555   1.561   0.528  0.1115  0.1728  0.2416
  899MPD2    C313171   0.464   1.531   0.625  0.2166 -0.0903  0.4418
  899MPD2    C413172   0.354   1.465   0.588 -0.3115 -0.2113 -0.4598
  899MPD2    C513173   0.338   1.423   0.459 -0.2670 -0.1702 -0.0043
  899MPD2     H13174   0.637   1.621   0.568 -0.9885  1.2646  0.8725
  899MPD2    H113175   0.285   1.429   0.663  0.1899 -0.4815 -0.1233
  899MPD2    H213176   0.426   1.419   0.267  0.7479 -2.0045  0.2776
  899MPD2    H313177   0.246   1.373   0.429  0.3615 -0.0462 -2.1079
  899MPD2     N13178   0.468   1.578   0.755 -0.0846  0.6660  0.1714
  899MPD2    H513179   0.385   1.561   0.812  0.4880  1.2467  1.1814
  899MPD2    N113180   0.624   1.551   0.287 -0.6018  0.8845 -0.7021
  899MPD2    H713181   0.584   1.516   0.201 -2.1403 -0.4944  0.5604
  900MPD2     C13182   0.917   3.653  12.747 -0.3967  0.3504 -0.4003
  900MPD2    C113183   0.874   3.537  12.688  0.0340  0.3029  0.4814
  900MPD2    C213184   0.763   3.534  12.608  0.2488  0.0124 -0.2636
  900MPD2    C313185   0.702   3.652  12.575 -0.9384  0.0287 -0.4226
  900MPD2    C413186   0.748   3.769  12.634 -0.7548  0.5692 -0.0778
  900MPD2    C513187   0.859   3.771  12.720 -0.1241 -0.1462  0.1812
  900MPD2     H13188   0.728   3.449  12.552 -0.4282  1.1835 -1.6209
  900MPD2    H113189   0.720   3.869  12.604 -0.4375  0.8909  0.6704
  900MPD2    H213190   1.009   3.656  12.805  0.5477 -0.2269 -1.8750
  900MPD2    H313191   0.899   3.854  12.777 -0.0270 -1.1320  1.5501
  900MPD2     N13192   0.604   3.648  12.479 -0.1372 -0.1775 -0.0962
  900MPD2    H513193   0.579   3.553  12.453  0.6623 -0.5920  0.6580
  900MPD2    N113194   0.948   3.425  12.718  0.2818  0.4773 -0.2826
  900MPD2    H713195   1.036   3.435  12.768 -0.1586  1.4989  0.2956
  901MPD2     C13196   1.079   2.446  13.150  0.0643 -0.3064  0.7070
  901MPD2    C113197   1.123   2.427  13.018 -0.0070 -0.9386 -0.5023
  901MPD2    C213198   1.148   2.539  12.936  0.2541 -0.6174 -0.6098
  901MPD2    C313199   1.100   2.667  12.976  0.5636 -0.2786  0.3656
  901MPD2    C413200   1.039   2.675  13.106  0.4302 -0.2213  0.3088
  901MPD2    C513201   1.031   2.567  13.187 -0.0225  0.8333  0.1267
  901MPD2     H13202   1.196   2.529  12.840  2.0096 -1.8187  0.4007
  901MPD2    H113203   1.004   2.769  13.147  0.3369 -0.4640  0.7933
  901MPD2    H213204   1.078   2.364  13.222 -0.4846  0.5211  1.6477
  901MPD2    H313205   0.987   2.576  13.286  0.2785 -2.2168  0.5368
  901MPD2     N13206   1.103   2.778  12.888 -0.1718 -0.4119  0.1593
  901MPD2    H513207   1.168   2.784  12.810 -0.5917 -0.2024 -0.1720
  901MPD2    N113208   1.156   2.295  12.977 -0.2294  0.1137  0.8377
  901MPD2    H713209   1.170   2.234  13.057 -0.5986 -0.5028  0.4305
  902MPD2     C13210   4.221   0.986  12.928  0.4831 -0.1539 -0.0465
  902MPD2    C113211   4.212   1.084  12.838 -0.0145  0.1753 -0.3435
  902MPD2    C213212   4.308   1.105  12.741 -0.0199 -0.0921 -0.3371
  902MPD2    C313213   4.411   1.010  12.718  0.5971  0.5108  0.0867
  902MPD2    C413214   4.416   0.911  12.817  0.0169  0.5963 -0.3013
  902MPD2    C513215   4.325   0.899  12.919 -0.7146 -0.3738  0.3162
  902MPD2     H13216   4.298   1.191  12.675 -1.2766 -1.7223 -2.2860
  902MPD2    H113217   4.502   0.845  12.817 -1.0381 -0.7916 -2.8035
  902MPD2    H213218   4.147   0.967  13.004 -0.1867  2.1463 -0.1378
  902MPD2    H313219   4.339   0.812  12.983  1.0582  0.2856  0.8259
  902MPD2     N13220   4.517   1.010  12.616  0.2916  0.0093 -1.2357
  902MPD2    H513221   4.582   0.933  12.611  0.3064 -0.0298 -0.4361
  902MPD2    N113222   4.101   1.175  12.835 -0.7289 -0.0704 -0.1857
  902MPD2    H713223   4.095   1.238  12.756 -0.7388  0.8525  0.5393
  903MPD2     C13224   4.663   1.368  11.803  0.3900  0.2337 -0.0474
  903MPD2    C113225   4.602   1.338  11.926  0.5786  0.1253 -0.6129
  903MPD2    C213226   4.467   1.327  11.928 -0.0489 -0.6401  0.7002
  903MPD2    C313227   4.389   1.347  11.813  0.1842 -0.7870  0.1586
  903MPD2    C413228   4.449   1.376  11.691 -0.1717 -1.0586  0.2927
  903MPD2    C513229   4.586   1.386  11.690  0.6276 -0.3883  0.1975
  903MPD2     H13230   4.399   1.313  12.011 -0.8461 -1.6796 -0.1232
  903MPD2    H113231   4.400   1.384  11.595 -1.0636 -0.1610  0.8195
  903MPD2    H213232   0.051   1.367  11.799  0.4752  0.7530  2.0386
  903MPD2    H313233   4.630   1.405  11.593 -0.1830  1.2463  0.1384
  903MPD2     N13234   4.250   1.321  11.826 -0.1959 -0.3256  0.0093
  903MPD2    H513235   4.214   1.317  11.921 -0.2793  2.4730  0.1048
  903MPD2    N113236   4.687   1.306  12.035  0.2806 -0.2001 -0.4068
  903MPD2    H713237   0.064   1.289  12.011  0.8937  0.3536  1.7208
  904MPD2     C13238   4.253   4.601  14.245  0.1906  0.5149  0.3143
  904MPD2    C113239   4.267   0.020  14.248  0.6336 -0.2340  0.0255
  904MPD2    C213240   4.362   0.083  14.324 -0.1771  0.3711  0.1034
  904MPD2    C313241   4.452   0.002  14.395  0.5325  0.0978 -0.5524
  904MPD2    C413242   4.440   4.585  14.387  0.3047 -0.2920 -0.7874
  904MPD2    C513243   4.338   4.528  14.315 -0.1829  0.3930 -0.6086
  904MPD2     H13244   4.360   0.190  14.338 -2.2001  0.2933  0.3870
  904MPD2    H113245   4.499   4.525  14.456  0.6546 -1.3046 -1.9440
  904MPD2    H213246   4.176   4.550  14.189  1.5375 -1.4952  0.3050
  904MPD2    H313247   4.329   4.420  14.311 -0.8052  0.4669 -1.2318
  904MPD2     N13248   4.560   0.050  14.469  0.2946 -0.7163 -0.0572
  904MPD2    H513249   4.607   4.704  14.529 -1.7160 -0.8163  1.4322
  904MPD2    N113250   4.164   0.099  14.182  0.3890 -0.3510  0.2970
  904MPD2    H713251   4.170   0.196  14.209  0.3621 -0.3755  0.3907
  905MPD2     C13252   4.006   0.548  13.583  0.1770  0.6913 -0.5075
  905MPD2    C113253   4.081   0.486  13.684  0.6095 -0.3831 -0.7908
  905MPD2    C213254   4.209   0.531  13.702 -0.1317 -0.1466  0.7331
  905MPD2    C313255   4.269   0.630  13.624 -0.1948 -0.3234  0.5150
  905MPD2    C413256   4.191   0.692  13.525 -0.1208  0.8809  0.3201
  905MPD2    C513257   4.060   0.656  13.507 -0.2545 -0.2786 -0.4065
  905MPD2     H13258   4.269   0.484  13.779  1.9391  2.4574  0.7125
  905MPD2    H113259   4.225   0.772  13.460 -1.0030  2.3358  1.6514
  905MPD2    H213260   3.906   0.511  13.563 -0.4117  1.9977 -0.0091
  905MPD2    H313261   3.995   0.702  13.434 -0.7587  0.4518  0.4945
  905MPD2     N13262   4.398   0.679  13.650 -0.0231 -0.0130  0.8289
  905MPD2    H513263   4.421   0.766  13.603 -2.2574  0.2221  0.1847
  905MPD2    N113264   4.032   0.385  13.770  0.5098 -0.4061 -0.4990
  905MPD2    H713265   4.100   0.333  13.823  2.2100  2.2000 -0.1330
  906MPD2     C13266   1.395   0.273  11.871  0.2903 -0.8798  0.0284
  906MPD2    C113267   1.316   0.202  11.779  0.0433  0.0590 -0.6924
  906MPD2    C213268   1.230   0.109  11.825 -0.5044 -0.0849 -0.9162
  906MPD2    C313269   1.211   0.089  11.959 -0.1636 -0.4587 -0.6592
  906MPD2    C413270   1.278   0.167  12.050  0.4026  0.1849  0.0865
  906MPD2    C513271   1.371   0.260  12.004 -0.4964  0.0499  0.7567
  906MPD2     H13272   1.178   0.044  11.755 -0.0791 -0.4759 -0.8726
  906MPD2    H113273   1.252   0.155  12.155 -0.1027  3.1152  0.3037
  906MPD2    H213274   1.443   0.362  11.831 -2.7946  0.5261 -0.5921
  906MPD2    H313275   1.417   0.337  12.065 -1.2798 -0.3163  1.8063
  906MPD2     N13276   1.114   0.002  12.012 -0.4945 -0.4150 -0.5586
  906MPD2    H513277   1.113   4.715  12.113  1.9398  0.0813 -0.5065
  906MPD2    N113278   1.338   0.211  11.637  0.1039 -0.2441  0.4152
  906MPD2    H713279   1.299   0.141  11.574  0.5150  0.7290 -0.9179
  907MPD2     C13280   0.169   3.842  15.895  0.5315 -0.4205  0.3842
  907MPD2    C113281   0.254   3.730  15.872 -0.3876  0.0575  0.1691
  907MPD2    C213282   0.326   3.680  15.974  0.5259  0.4984 -0.1994
  907MPD2    C313283   0.328   3.738  16.102  0.0505 -1.1077  0.0933
  907MPD2    C413284   0.246   3.850  16.129  0.4568 -0.6194  0.1268
  907MPD2    C513285   0.170   3.902  16.020 -0.9997 -0.2036 -0.4372
  907MPD2     H13286   0.373   3.583  15.968 -0.0632  0.1317  1.1383
  907MPD2    H113287   0.228   3.903  16.221  1.5240  1.7851 -1.0474
  907MPD2    H213288   0.095   3.873  15.821 -0.3738 -1.7445  0.7406
  907MPD2    H313289   0.114   3.992  16.044 -2.0653 -1.0659  0.3011
  907MPD2     N13290   0.402   3.664  16.203 -0.0804 -0.4592 -0.0204
  907MPD2    H513291   0.441   3.577  16.168 -1.1836 -2.0373  2.6369
  907MPD2    N113292   0.237   3.654  15.754  0.4725  0.5343  0.5279
  907MPD2    H713293   0.291   3.568  15.750 -0.9100 -0.2520 -1.1525
  908MPD2     C13294   3.264   3.934  10.313 -0.1573 -0.2883  0.2888
  908MPD2    C113295   3.166   4.029  10.281 -0.7163 -0.0241  0.3877
  908MPD2    C213296   3.194   4.160  10.295  0.0582 -0.0703  1.1210
  908MPD2    C313297   3.315   4.195  10.348 -0.4060 -0.1807 -0.3862
  908MPD2    C413298   3.415   4.105  10.377 -0.6273 -0.1485  0.0772
  908MPD2    C513299   3.392   3.970  10.350  0.0706  0.0935  0.4957
  908MPD2     H13300   3.128   4.241  10.266  1.9698  0.6689 -1.1029
  908MPD2    H113301   3.513   4.131  10.414 -1.1667  0.2813  1.2228
  908MPD2    H213302   3.247   3.829  10.288  0.8590  0.0887 -2.0178
  908MPD2    H313303   3.462   3.888  10.360  1.0840  1.0687  1.2994
  908MPD2     N13304   3.330   4.331  10.388  0.5212 -0.1745  0.2295
  908MPD2    H513305   3.255   4.398  10.376 -0.0979 -0.4471  2.5617
  908MPD2    N113306   3.041   3.983  10.228 -0.0263  0.5777 -0.0694
  908MPD2    H713307   3.028   3.884  10.213 -0.3184  0.4761  0.8532
  909MPD2     C13308   3.290   2.771  12.139  0.0261 -0.0934  0.5643
  909MPD2    C113309   3.254   2.860  12.041  1.1663  0.5557  0.6193
  909MPD2    C213310   3.173   2.963  12.081  0.2910 -0.4407  0.3374
  909MPD2    C313311   3.135   2.982  12.207 -0.1469 -0.8061  0.6308
  909MPD2    C413312   3.183   2.902  12.311 -0.6466  0.0632  0.1949
  909MPD2    C513313   3.253   2.792  12.269  0.1092  0.2517 -0.4331
  909MPD2     H13314   3.133   3.033  12.008 -0.3016  0.1938  1.2775
  909MPD2    H113315   3.178   2.923  12.417  0.5275  1.2491  0.0149
  909MPD2    H213316   3.350   2.683  12.120  0.0834  0.1569 -0.4129
  909MPD2    H313317   3.287   2.722  12.345 -0.2768  0.8292  0.2690
  909MPD2     N13318   3.058   3.098  12.231  0.2881  0.3868  0.3582
  909MPD2    H513319   3.034   3.160  12.154  0.0995  0.8603  0.8000
  909MPD2    N113320   3.295   2.845  11.906 -0.2444 -0.2499  0.4762
  909MPD2    H713321   3.263   2.919  11.845  2.5636  1.4422  1.0500
  910MPD2     C13322   4.501   4.293  16.160 -0.0112 -0.0481  0.5959
  910MPD2    C113323   4.631   4.291  16.102  0.4487  0.1515 -0.5466
  910MPD2    C213324   4.648   4.347  15.976  0.1323  0.2442  0.3403
  910MPD2    C313325   4.534   4.396  15.911 -0.0733 -0.0570 -0.3163
  910MPD2    C413326   4.406   4.382  15.967 -0.2533 -0.5150  0.7035
  910MPD2    C513327   4.393   4.342  16.098  0.1300  0.1651 -0.2657
  910MPD2     H13328   0.029   4.334  15.940 -0.0530  2.5869 -0.9974
  910MPD2    H113329   4.312   4.398  15.915 -0.1320 -0.3905  0.5230
  910MPD2    H213330   4.485   4.248  16.257  0.9099  2.1748  1.7731
  910MPD2    H313331   4.300   4.345  16.155  0.9538  2.2373  0.9802
  910MPD2     N13332   4.538   4.459  15.785 -0.4439 -0.2148 -0.2423
  910MPD2    H513333   4.446   4.495  15.757 -0.8037  0.1737  1.4711
  910MPD2    N113334   0.027   4.246  16.164  0.1642 -0.2627  0.2226
  910MPD2    H713335   0.116   4.258  16.117  1.6312 -1.4640  2.7134
  911MPD2     C13336   2.545   0.785  16.788 -0.2405 -0.6289  0.1956
  911MPD2    C113337   2.511   0.682  16.705  0.1747  0.1574 -0.2242
  911MPD2    C213338   2.390   0.680  16.642  0.4851  0.6792  0.3797
  911MPD2    C313339   2.310   0.790  16.660  0.7389  0.3113  0.3039
  911MPD2    C413340   2.347   0.904  16.734 -0.6168 -0.3789  0.2601
  911MPD2    C513341   2.460   0.892  16.802  0.1153 -0.2558 -0.1040
  911MPD2     H13342   2.363   0.590  16.587  0.0510  1.4596 -0.6889
  911MPD2    H113343   2.289   0.993  16.756 -1.0892 -0.3322 -1.1784
  911MPD2    H213344   2.628   0.768  16.856  0.6334 -2.0336 -1.2397
  911MPD2    H313345   2.493   0.977  16.861 -1.1169  0.9822 -1.1891
  911MPD2     N13346   2.188   0.789  16.591 -0.9579  0.4279  0.0541
  911MPD2    H513347   2.154   0.883  16.574 -2.3052  0.0454  0.6879
  911MPD2    N113348   2.611   0.584  16.686  0.0156  0.3980  0.3442
  911MPD2    H713349   2.699   0.592  16.736  1.3681 -0.5943 -1.8852
  912MPD2     C13350   1.976   0.220  16.004  0.5289  0.0004  0.4347
  912MPD2    C113351   1.927   0.259  16.123 -0.5683 -0.1010 -0.0462
  912MPD2    C213352   1.885   0.161  16.208  0.0927  0.2312  0.3063
  912MPD2    C313353   1.890   0.023  16.173  0.1398 -0.1365 -0.1054
  912MPD2    C413354   1.931   4.715  16.047 -0.2380 -0.2485 -0.5045
  912MPD2    C513355   1.981   0.088  15.962 -0.3229  0.3290 -0.3361
  912MPD2     H13356   1.858   0.178  16.311  1.5059  3.2321  0.1858
  912MPD2    H113357   1.954   4.613  16.017 -0.0868 -0.9539  1.9858
  912MPD2    H213358   2.019   0.294  15.936 -0.7860 -0.3472 -0.7631
  912MPD2    H313359   2.019   0.063  15.863 -0.4791 -1.1514 -0.0199
  912MPD2     N13360   1.863   4.651  16.275  0.1688 -0.0231 -0.0820
  912MPD2    H513361   1.816   4.697  16.353 -1.8337  1.3443 -2.0850
  912MPD2    N113362   1.935   0.395  16.155  0.3152  0.0294 -0.1208
  912MPD2    H713363   1.999   0.454  16.103  0.4840 -1.9837 -2.2073
  913MPD2     C13364   2.563   1.080  10.757 -0.0700 -0.3686 -0.4441
  913MPD2    C113365   2.656   1.182  10.762 -0.4219 -0.8689 -0.4055
  913MPD2    C213366   2.637   1.288  10.670 -0.3720  0.4717  0.1428
  913MPD2    C313367   2.548   1.282  10.566  0.2091  0.2421  0.6343
  913MPD2    C413368   2.448   1.182  10.571  0.4577  0.3954 -0.5922
  913MPD2    C513369   2.456   1.080  10.668 -0.3741  0.2365 -0.4273
  913MPD2     H13370   2.702   1.374  10.685 -0.2763  0.4162  0.0463
  913MPD2    H113371   2.371   1.172  10.496 -0.4835  0.5880  0.3378
  913MPD2    H213372   2.570   0.998  10.827 -3.3312 -0.7612 -0.5883
  913MPD2    H313373   2.375   1.008  10.672 -1.3167  1.3284  0.1783
  913MPD2     N13374   2.532   1.382  10.467  0.7119 -0.1731  0.0194
  913MPD2    H513375   2.467   1.357  10.394  0.4598  1.6399 -0.3700
  913MPD2    N113376   2.767   1.169  10.858 -0.2979 -0.1146 -0.4686
  913MPD2    H713377   2.761   1.089  10.920  0.5220  0.2121  0.0334
  914MPD2     C13378   0.656   2.280  12.396  0.0587  0.5411 -0.1510
  914MPD2    C113379   0.750   2.355  12.461 -0.3959  0.3409  0.5960
  914MPD2    C213380   0.856   2.283  12.521 -0.0429 -1.0690  0.0106
  914MPD2    C313381   0.894   2.161  12.479  0.4031  0.1431  0.0899
  914MPD2    C413382   0.804   2.088  12.398 -0.0192 -0.1796 -0.6149
  914MPD2    C513383   0.684   2.145  12.372 -0.1752  1.2689 -0.1908
  914MPD2     H13384   0.931   2.327  12.585  0.1814  1.2962 -1.8613
  914MPD2    H113385   0.838   1.989  12.368 -0.4009 -0.9875  1.6421
  914MPD2    H213386   0.569   2.327  12.352 -0.0623  0.5555  0.1053
  914MPD2    H313387   0.613   2.096  12.307 -1.2325 -0.2320  2.0894
  914MPD2     N13388   1.011   2.109  12.534  0.1532  0.1803 -0.0662
  914MPD2    H513389   1.059   2.173  12.596  0.4062  1.0818 -1.2112
  914MPD2    N113390   0.733   2.495  12.476 -0.1526 -0.2875 -0.4846
  914MPD2    H713391   0.647   2.537  12.443  0.0216  0.7699  0.3917
  915MPD2     C13392   3.229   1.395  15.971  0.4957  0.0587 -0.1382
  915MPD2    C113393   3.214   1.499  15.878  0.5471 -0.7957 -0.3759
  915MPD2    C213394   3.177   1.624  15.928 -0.1180  0.2026 -0.5434
  915MPD2    C313395   3.156   1.639  16.059 -0.0448 -0.4453  0.2589
  915MPD2    C413396   3.170   1.534  16.145  0.2487  0.2910 -0.3836
  915MPD2    C513397   3.218   1.413  16.103  0.6284 -0.0691  0.0039
  915MPD2     H13398   3.174   1.714  15.869 -2.3451 -1.0541 -2.3391
  915MPD2    H113399   3.148   1.532  16.251 -0.1019  0.2753 -0.4568
  915MPD2    H213400   3.254   1.296  15.936  0.0741 -0.8030  2.0020
  915MPD2    H313401   3.227   1.328  16.170 -1.2723  0.5431  1.0371
  915MPD2     N13402   3.130   1.773  16.107 -0.0825 -0.3189 -0.1082
  915MPD2    H513403   3.112   1.845  16.038  1.2519  0.5281  0.4048
  915MPD2    N113404   3.239   1.465  15.740 -0.3647 -0.3264  0.5447
  915MPD2    H713405   3.263   1.370  15.717  1.1194  0.5419 -1.5129
  916MPD2     C13406   1.412   4.679  15.824  0.5902 -0.9141  0.0234
  916MPD2    C113407   1.487   4.617  15.922  0.0558  0.4339  0.3896
  916MPD2    C213408   1.606   4.553  15.893  0.0447  0.9999 -0.0442
  916MPD2    C313409   1.641   4.533  15.754 -0.3785 -0.6092  0.4683
  916MPD2    C413410   1.557   4.591  15.655 -0.5939  0.2538 -0.3086
  916MPD2    C513411   1.448   4.661  15.693  0.2373 -0.6909 -0.5863
  916MPD2     H13412   1.667   4.518  15.976  0.8494  2.8954  0.1551
  916MPD2    H113413   1.579   4.585  15.549  1.8437  0.9723  0.1611
  916MPD2    H213414   1.320   0.012  15.846  0.8944  0.3033 -1.6618
  916MPD2    H313415   1.392   4.710  15.613  1.0603 -0.1687 -0.8462
  916MPD2     N13416   1.771   4.485  15.720  0.6390  0.1194  0.0580
  916MPD2    H513417   1.827   4.475  15.804 -0.5489 -0.8611  0.7254
  916MPD2    N113418   1.442   4.640  16.058  0.3708 -0.0453  0.5285
  916MPD2    H713419   1.360   4.699  16.069  0.4893 -0.0269  1.3182
  917MPD2     C13420   2.166   2.468  11.150 -0.8267 -0.5223 -0.0054
  917MPD2    C113421   2.161   2.590  11.206  0.4539  0.1263  0.4006
  917MPD2    C213422   2.177   2.704  11.120  0.7301  0.6571 -0.6195
  917MPD2    C313423   2.225   2.688  10.992 -0.3419 -0.0376  0.4861
  917MPD2    C413424   2.228   2.561  10.936  0.1756 -1.4006  1.1438
  917MPD2    C513425   2.211   2.453  11.016  0.1404  0.5630 -0.0464
  917MPD2     H13426   2.162   2.806  11.151  1.6630  0.4903  0.3913
  917MPD2    H113427   2.266   2.544  10.836  0.8406 -1.1910  1.3620
  917MPD2    H213428   2.138   2.385  11.214 -0.7630  0.3770  1.2003
  917MPD2    H313429   2.220   2.355  10.971 -0.5265  0.5772 -0.2034
  917MPD2     N13430   2.244   2.791  10.900  0.5124 -0.0401  0.5780
  917MPD2    H513431   2.281   2.764  10.809 -0.0498  0.3665  0.2257
  917MPD2    N113432   2.133   2.595  11.342 -0.1141  0.0977 -0.1200
  917MPD2    H713433   2.110   2.510  11.393 -2.2165  1.0580  0.5037
  918MPD2     C13434   2.300   3.077  12.254  0.0570  0.3182 -0.7728
  918MPD2    C113435   2.327   2.945  12.253 -0.2344  0.2328 -0.0517
  918MPD2    C213436   2.252   2.863  12.170 -0.6202  0.2425  0.3603
  918MPD2    C313437   2.158   2.911  12.079  0.8027  0.7703  0.4715
  918MPD2    C413438   2.124   3.043  12.089 -0.6464 -0.1437  0.3627
  918MPD2    C513439   2.196   3.124  12.175 -0.0566  0.0866  0.5715
  918MPD2     H13440   2.267   2.757  12.181 -0.2769  0.3586  1.0155
  918MPD2    H113441   2.048   3.088  12.026  0.2318 -0.6647 -1.0877
  918MPD2    H213442   2.352   3.146  12.320 -1.7193 -0.8730  1.8994
  918MPD2    H313443   2.175   3.230  12.179 -1.2380 -0.1510  0.7802
  918MPD2     N13444   2.108   2.822  11.987  0.5312 -0.8135  0.0503
  918MPD2    H513445   2.127   2.723  11.998  1.0485 -0.8163 -0.8403
  918MPD2    N113446   2.436   2.885  12.325 -0.1929 -0.4416  0.3762
  918MPD2    H713447   2.438   2.783  12.327  1.1890 -0.4553 -1.2756
  919MPD2     C13448   2.907   1.515  11.540 -0.3347  0.1442  0.3733
  919MPD2    C113449   2.843   1.393  11.545  0.0681 -0.4751 -0.2339
  919MPD2    C213450   2.793   1.345  11.430 -0.6994 -0.3800 -0.0686
  919MPD2    C313451   2.805   1.424  11.312  0.2438  0.3525 -0.0216
  919MPD2    C413452   2.876   1.541  11.302  0.0035  0.5342  0.2570
  919MPD2    C513453   2.940   1.578  11.417 -0.5031  0.6828  0.3971
  919MPD2     H13454   2.756   1.244  11.425 -0.6449 -0.4464  0.9715
  919MPD2    H113455   2.892   1.587  11.205 -0.4918 -0.7922 -0.4423
  919MPD2    H213456   2.955   1.559  11.627  2.9465 -3.3396  0.2789
  919MPD2    H313457   2.991   1.673  11.426  0.0478  0.6252 -2.3567
  919MPD2     N13458   2.733   1.405  11.192  0.2590 -0.1852 -0.0916
  919MPD2    H513459   2.744   1.483  11.127  1.0912 -0.5375 -0.3790
  919MPD2    N113460   2.842   1.309  11.659  0.3362  0.8218  0.2045
  919MPD2    H713461   2.807   1.214  11.647  1.4850  0.3720  0.4441
  920MPD2     C13462   2.325   1.927  10.448 -0.6372 -0.3647  0.3655
  920MPD2    C113463   2.232   1.829  10.465 -0.1823  1.1963 -0.9973
  920MPD2    C213464   2.253   1.718  10.538  0.0169  0.0469 -0.6003
  920MPD2    C313465   2.365   1.708  10.612 -0.7586 -0.3718  0.5439
  920MPD2    C413466   2.457   1.806  10.602 -0.2096  0.4484  0.5912
  920MPD2    C513467   2.439   1.916  10.524 -0.5966  0.3598  0.2551
  920MPD2     H13468   2.179   1.640  10.548  0.4095 -0.1047  1.1305
  920MPD2    H113469   2.554   1.803  10.650 -0.1664  2.7901  0.6868
  920MPD2    H213470   2.312   2.016  10.388  3.5265  1.1167  1.6549
  920MPD2    H313471   2.516   1.992  10.521  0.9313 -1.1468  1.4782
  920MPD2     N13472   2.376   1.599  10.705 -0.1061 -0.5562  0.4110
  920MPD2    H513473   2.315   1.521  10.685 -0.4930 -0.3726  0.8891
  920MPD2    N113474   2.101   1.842  10.397  0.5092  0.4586 -0.3039
  920MPD2    H713475   2.039   1.762  10.408  0.0161  1.2013  2.2923
  921MPD2     C13476   3.273   0.655  17.133 -0.2391  0.1794  0.2052
  921MPD2    C113477   3.289   0.652  16.996 -0.0948 -0.3125  0.2025
  921MPD2    C213478   3.216   0.576  16.915  0.5888 -0.4603  0.2012
  921MPD2    C313479   3.106   0.520  16.967  0.1063  0.8935  0.5479
  921MPD2    C413480   3.067   0.537  17.100  0.2324  0.6391 -0.0516
  921MPD2    C513481   3.148   0.614  17.182 -1.0463  0.5325 -0.1168
  921MPD2     H13482   3.249   0.547  16.816 -0.4664 -2.9163  0.5953
  921MPD2    H113483   2.974   0.497  17.139  0.2656 -0.8183 -1.4899
  921MPD2    H213484   3.337   0.723  17.188  1.2408  0.4101 -1.7821
  921MPD2    H313485   3.124   0.625  17.287  0.2403  0.8578  0.1416
  921MPD2     N13486   3.023   0.435  16.888 -0.2679 -0.1318 -0.4088
  921MPD2    H513487   2.933   0.424  16.935  0.1285  1.5501  0.7207
  921MPD2    N113488   3.406   0.706  16.942  0.8198 -0.3805 -0.0873
  921MPD2    H713489   3.463   0.757  17.009 -0.1749  0.8860 -0.2013
  922MPD2     C13490   4.526   2.906  17.513  0.4157 -0.5002  0.4184
  922MPD2    C113491   4.491   2.888  17.650  0.5942  0.6159 -0.0920
  922MPD2    C213492   4.377   2.813  17.680 -0.7433 -0.6026 -0.7922
  922MPD2    C313493   4.299   2.756  17.579 -0.3347  0.4676 -0.7303
  922MPD2    C413494   4.337   2.782  17.450 -0.2731  0.2016  0.0497
  922MPD2    C513495   4.445   2.851  17.421 -0.0098 -0.4560  0.3477
  922MPD2     H13496   4.351   2.793   0.099  1.9382  0.7970  0.1392
  922MPD2    H113497   4.279   2.744  17.366  1.4360  0.6036 -1.2969
  922MPD2    H213498   4.607   2.971  17.481 -0.8328  0.6303 -0.4251
  922MPD2    H313499   4.480   2.865  17.319  0.5755 -2.5980  0.2570
  922MPD2     N13500   4.193   2.670  17.614 -0.2961 -0.2779  0.0698
  922MPD2    H513501   4.172   2.661   0.028  1.8452  1.3224  0.6561
  922MPD2    N113502   4.573   2.932   0.075 -0.2496  0.1235 -0.1375
  922MPD2    H713503   4.533   2.923   0.168 -0.0586  0.4078 -0.0287
  923MPD2     C13504   0.096   0.487   9.919  0.0997  0.3097 -0.0003
  923MPD2    C113505   0.017   0.377   9.908  0.8370 -0.4202 -0.4430
  923MPD2    C213506   0.084   0.256   9.915 -0.6690  0.2809 -0.0179
  923MPD2    C313507   0.225   0.245   9.915 -0.0041  1.0872  0.8634
  923MPD2    C413508   0.298   0.362   9.921  0.4862 -0.0364 -0.3745
  923MPD2    C513509   0.235   0.484   9.924  0.5573 -0.5596 -0.3562
  923MPD2     H13510   0.029   0.163   9.922  0.9821 -0.5084  2.4460
  923MPD2    H113511   0.405   0.350   9.931  0.3558 -0.5937  0.3995
  923MPD2    H213512   0.052   0.586   9.915  0.9929  0.6843 -0.7859
  923MPD2    H313513   0.295   0.575   9.930  1.3227 -1.1043  0.2344
  923MPD2     N13514   0.308   0.132   9.920 -0.0582 -0.2394  0.6842
  923MPD2    H513515   0.408   0.150   9.922  0.4163 -2.7845 -0.9087
  923MPD2    N113516   4.599   0.396   9.901 -0.1887  0.1113 -0.9844
  923MPD2    H713517   4.561   0.489   9.918  3.9521  2.1349 -2.7751
  924MPD2     C13518   0.438   3.515  17.187 -0.6453  0.5289  0.1126
  924MPD2    C113519   0.557   3.554  17.140  0.0064 -0.3078  0.0495
  924MPD2    C213520   0.583   3.526  17.002 -0.0596 -0.2515 -0.4827
  924MPD2    C313521   0.491   3.454  16.914  0.2319  0.0199 -0.7733
  924MPD2    C413522   0.367   3.425  16.963  0.3902 -0.2426 -0.4997
  924MPD2    C513523   0.346   3.451  17.102  0.0883  0.1908  0.1671
  924MPD2     H13524   0.663   3.581  16.954  2.4868 -3.3537  0.2370
  924MPD2    H113525   0.289   3.382  16.901 -0.1042 -0.4688  0.2801
  924MPD2    H213526   0.400   3.535  17.287 -0.7979  2.7731 -0.3930
  924MPD2    H313527   0.253   3.412  17.144  0.7064 -1.7220 -0.2289
  924MPD2     N13528   0.512   3.440  16.776 -0.2902  0.1195  0.6161
  924MPD2    H513529   0.427   3.430  16.722 -0.0582  0.3504  0.2088
  924MPD2    N113530   0.639   3.641  17.211  0.3097 -0.4363 -0.4373
  924MPD2    H713531   0.612   3.673  17.303 -0.0064  1.3489 -1.1507
  925MPD2     C13532   4.397   0.991  14.779  0.3149  1.1926 -0.6507
  925MPD2    C113533   4.263   0.957  14.752 -0.7520 -1.0178 -0.6095
  925MPD2    C213534   4.184   0.924  14.862  0.4126 -0.3275  0.2845
  925MPD2    C313535   4.236   0.923  14.990 -0.1215 -0.0040 -0.3769
  925MPD2    C413536   4.371   0.953  15.009  0.3574  0.6819  0.4849
  925MPD2    C513537   4.449   0.993  14.904 -0.0558  0.2524 -0.8522
  925MPD2     H13538   4.077   0.910  14.846  0.6089 -0.9382 -0.4600
  925MPD2    H113539   4.417   0.945  15.107 -2.8745 -1.0421  1.8566
  925MPD2    H213540   4.473   1.019  14.706  0.7296  2.0728  0.1251
  925MPD2    H313541   4.547   1.029  14.931  0.4012 -0.4659 -1.5429
  925MPD2     N13542   4.162   0.886  15.100 -0.0475 -0.4505 -0.6958
  925MPD2    H513543   4.210   0.899  15.189 -0.1916 -1.9846 -0.3895
  925MPD2    N113544   4.202   0.984  14.627  0.0614  0.2422  0.0718
  925MPD2    H713545   4.102   1.000  14.629 -0.0824 -0.4930 -1.0148
  926MPD2     C13546   3.521   4.122  13.117  1.3680  0.6965 -0.4533
  926MPD2    C113547   3.481   4.236  13.187 -0.0413 -0.2606 -0.3355
  926MPD2    C213548   3.479   4.354  13.129  0.9195  0.0791  0.2638
  926MPD2    C313549   3.507   4.368  12.989  0.7606  0.1272  0.2574
  926MPD2    C413550   3.555   4.260  12.929  0.2726  0.3220 -0.6217
  926MPD2    C513551   3.558   4.138  12.993 -0.2615  0.1822  0.2805
  926MPD2     H13552   3.442   4.435  13.190 -1.2802 -0.8209  0.1571
  926MPD2    H113553   3.563   4.262  12.821  2.1103 -0.2580 -0.4959
  926MPD2    H213554   3.526   4.029  13.172 -0.7677 -0.9168 -3.0346
  926MPD2    H313555   3.604   4.050  12.951  1.9213  0.7171  1.5271
  926MPD2     N13556   3.482   4.486  12.917  0.0006 -0.3468 -0.5118
  926MPD2    H513557   3.529   4.500  12.828 -0.0781  1.0700 -0.3299
  926MPD2    N113558   3.464   4.244  13.324 -0.1350 -0.8177  0.5133
  926MPD2    H713559   3.447   4.332  13.370 -1.3798 -0.9520  0.2950
  927MPD2     C13560   2.343   1.665   0.646 -0.0136 -0.4127  0.1148
  927MPD2    C113561   2.338   1.571   0.544  0.9582  0.6012  0.4967
  927MPD2    C213562   2.347   1.619   0.418  0.3258 -0.3947 -0.3417
  927MPD2    C313563   2.362   1.748   0.378  0.4041  0.5117 -0.5313
  927MPD2    C413564   2.362   1.839   0.479  0.5173 -0.6420 -0.4887
  927MPD2    C513565   2.352   1.798   0.612 -0.0740 -0.3201  0.5094
  927MPD2     H13566   2.342   1.549   0.335  2.7936  0.8065 -1.5012
  927MPD2    H113567   2.371   1.946   0.464  0.5965 -0.4294  1.1157
  927MPD2    H213568   2.339   1.630   0.749 -2.0603  3.5074  1.3312
  927MPD2    H313569   2.332   1.868   0.692 -2.4661 -0.9051  0.4242
  927MPD2     N13570   2.369   1.789   0.244 -0.3546  0.3710  0.6748
  927MPD2    H513571   2.355   1.714   0.177  0.3633  0.4922  0.3871
  927MPD2    N113572   2.313   1.439   0.581  0.2178  0.6476  0.0102
  927MPD2    H713573   2.295   1.428   0.680 -3.7662 -1.1057 -0.9055
  928MPD2     C13574   0.643   4.612   1.286  0.1713  0.3100  0.2081
  928MPD2    C113575   0.532   4.698   1.267 -0.9353 -0.9318 -0.8257
  928MPD2    C213576   0.537   0.059   1.153  0.1538 -0.6559 -0.5604
  928MPD2    C313577   0.630   0.039   1.050  0.2845  0.3720  0.4847
  928MPD2    C413578   0.729   4.658   1.067 -0.1729  0.0824  0.7728
  928MPD2    C513579   0.734   4.589   1.187 -0.0506  0.2056 -0.5057
  928MPD2     H13580   0.454   0.125   1.130 -1.1585 -2.5945 -1.3856
  928MPD2    H113581   0.803   4.649   0.989 -2.3935  0.0325 -1.3490
  928MPD2    H213582   0.657   4.554   1.376 -0.2229  0.4150  0.3360
  928MPD2    H313583   0.818   4.522   1.200 -0.0712 -0.2645 -2.7751
  928MPD2     N13584   0.639   0.118   0.937 -0.5629  0.5014 -0.5944
  928MPD2    H513585   0.713   0.094   0.871 -0.3261  0.3749 -0.2848
  928MPD2    N113586   0.426   4.693   1.359 -0.5382 -0.3566 -0.0825
  928MPD2    H713587   0.437   4.644   1.447  0.6044  1.0002  0.5432
  929MPD2     C13588   0.854   0.378  10.770 -0.1527  0.7528  0.0530
  929MPD2    C113589   0.716   0.356  10.793  0.0748  0.0070 -0.0877
  929MPD2    C213590   0.620   0.424  10.713  0.1309  0.2860 -0.2979
  929MPD2    C313591   0.666   0.487  10.600 -1.0087  0.7931 -0.8522
  929MPD2    C413592   0.801   0.510  10.580 -0.9253 -0.3182  0.2554
  929MPD2    C513593   0.897   0.441  10.654  1.1980  0.1418 -0.4379
  929MPD2     H13594   0.513   0.412  10.723  0.1627 -2.4131 -3.3413
  929MPD2    H113595   0.832   0.571  10.496 -0.7960 -0.6101  0.0900
  929MPD2    H213596   0.930   0.336  10.834  0.2353  2.4234  0.6962
  929MPD2    H313597   1.002   0.453  10.632  1.0098  0.3082 -1.2538
  929MPD2     N13598   0.563   0.542  10.516  0.7400  0.2229 -0.3002
  929MPD2    H513599   0.465   0.518  10.526  0.4547  1.4535 -0.1017
  929MPD2    N113600   0.683   0.285  10.915  0.0480 -0.1573 -0.1044
  929MPD2    H713601   0.761   0.275  10.979 -0.8273 -0.8014  0.8538
  930MPD2     C13602   2.628   2.449  14.289  0.3343 -0.5395  0.8232
  930MPD2    C113603   2.590   2.526  14.183 -0.2864 -0.1424 -0.3215
  930MPD2    C213604   2.537   2.459  14.073 -0.4601  0.3207  0.4695
  930MPD2    C313605   2.518   2.321  14.065 -0.2946  0.0340 -0.9481
  930MPD2    C413606   2.558   2.248  14.180  0.7116 -0.3276 -0.4194
  930MPD2    C513607   2.613   2.316  14.286  0.5827  0.4456 -0.2186
  930MPD2     H13608   2.510   2.511  13.982  0.3157 -0.0488  0.0193
  930MPD2    H113609   2.555   2.141  14.196 -1.6185 -0.5939 -2.6381
  930MPD2    H213610   2.678   2.480  14.380 -0.0643  0.2121  0.7927
  930MPD2    H313611   2.640   2.260  14.374  3.2979  0.0791 -1.2682
  930MPD2     N13612   2.461   2.248  13.955 -0.1372  0.0096 -0.3119
  930MPD2    H513613   2.476   2.148  13.950 -0.3045 -0.2510  3.7729
  930MPD2    N113614   2.604   2.665  14.193  0.0626  0.2845 -0.2167
  930MPD2    H713615   2.640   2.697  14.282 -0.9741  2.1667 -0.4652
  931MPD2     C13616   2.620   0.661   0.727 -0.4345  1.0444 -0.2709
  931MPD2    C113617   2.533   0.725   0.805  0.4762  1.2333  0.2246
  931MPD2    C213618   2.523   0.696   0.938  0.4392  0.3360 -0.0345
  931MPD2    C313619   2.604   0.596   0.985 -1.2206  0.2122 -0.0344
  931MPD2    C413620   2.709   0.542   0.907  0.2969  0.2106  0.0678
  931MPD2    C513621   2.707   0.573   0.775 -0.4128 -0.2677  0.1869
  931MPD2     H13622   2.464   0.764   0.999 -1.0318  2.0041 -3.3056
  931MPD2    H113623   2.788   0.482   0.950  0.1805  0.4255  0.5944
  931MPD2    H213624   2.631   0.676   0.621  3.7827  0.7723  0.1269
  931MPD2    H313625   2.780   0.532   0.706  0.4441  1.7199 -0.1042
  931MPD2     N13626   2.605   0.564   1.118  0.3875  0.4778  0.3000
  931MPD2    H513627   2.687   0.520   1.158  1.3508 -0.0241 -2.2023
  931MPD2    N113628   2.453   0.829   0.762 -0.0530 -0.0962 -0.5748
  931MPD2    H713629   2.402   0.879   0.834 -2.5651 -0.7780 -1.8715
  932MPD2     C13630   4.175   1.102  11.017  0.4327 -0.0900  0.1288
  932MPD2    C113631   4.292   1.121  11.088  0.3931  0.1315 -0.6175
  932MPD2    C213632   4.352   1.021  11.164 -0.0127  0.1302  0.2089
  932MPD2    C313633   4.305   0.891  11.152  0.3781 -0.1459 -0.4686
  932MPD2    C413634   4.193   0.867  11.083  0.2558 -0.1761  0.3225
  932MPD2    C513635   4.129   0.969  11.014 -0.1765  0.6915 -0.9911
  932MPD2     H13636   4.449   1.030  11.211 -0.3919  1.3666  0.7373
  932MPD2    H113637   4.152   0.768  11.073  1.2450 -0.6187  0.6727
  932MPD2    H213638   4.131   1.180  10.957  0.6392 -0.3888 -0.4097
  932MPD2    H313639   4.039   0.948  10.958 -1.2367  5.0042 -0.8911
  932MPD2     N13640   4.377   0.789  11.225  0.0380 -0.0720  0.0983
  932MPD2    H513641   4.454   0.815  11.285  1.4146 -0.7983 -1.3514
  932MPD2    N113642   4.349   1.244  11.099  0.5937 -0.8233 -0.5713
  932MPD2    H713643   4.429   1.244  11.162  1.4171  0.6979 -1.6054
  933MPD2     C13644   4.394   0.004   1.890  0.3664 -0.0467 -0.0801
  933MPD2    C113645   4.440   0.045   1.766  0.1251 -0.0346  0.9618
  933MPD2    C213646   4.375   0.154   1.698 -0.3597  0.0306 -0.7705
  933MPD2    C313647   4.269   0.219   1.754  0.1897 -0.7458 -0.5727
  933MPD2    C413648   4.229   0.172   1.878  0.1736  0.2674  0.0075
  933MPD2    C513649   4.290   0.074   1.948  0.0929  0.7748  0.1151
  933MPD2     H13650   4.428   0.206   1.620  0.2821  1.7351  0.7849
  933MPD2    H113651   4.145   0.220   1.927  1.3541  2.4081 -0.0971
  933MPD2    H213652   4.432   4.642   1.949 -1.6580 -1.4016 -0.6687
  933MPD2    H313653   4.252   0.057   2.049 -1.5600 -2.3566 -1.0364
  933MPD2     N13654   4.216   0.337   1.698 -0.1792  0.2090  0.6623
  933MPD2    H513655   4.261   0.364   1.612 -0.3199 -1.9464 -0.0870
  933MPD2    N113656   4.557   4.706   1.716  0.1090  0.6620 -0.2500
  933MPD2    H713657   4.608   4.651   1.784 -1.5880  0.0633  0.5257
  934MPD2     C13658   2.461   2.322   2.445  0.1557  0.6240 -0.2848
  934MPD2    C113659   2.478   2.278   2.313  0.2109  0.0861 -0.1162
  934MPD2    C213660   2.368   2.237   2.238  0.7805 -0.2396 -0.3053
  934MPD2    C313661   2.239   2.237   2.291  0.8308 -0.1925 -0.5975
  934MPD2    C413662   2.220   2.266   2.424  0.6318  0.2282 -0.4166
  934MPD2    C513663   2.329   2.318   2.497 -0.2111  0.0714  0.0164
  934MPD2     H13664   2.386   2.213   2.133  0.7165  0.9606 -0.5937
  934MPD2    H113665   2.124   2.264   2.474  1.5281 -1.0497  1.2519
  934MPD2    H213666   2.540   2.346   2.515 -1.3809  2.3238  0.8769
  934MPD2    H313667   2.322   2.333   2.604 -1.2798  1.7399 -0.3010
  934MPD2     N13668   2.112   2.216   2.215  0.0126  0.9342 -0.2492
  934MPD2    H513669   2.028   2.244   2.265  0.5940  0.0366  1.2244
  934MPD2    N113670   2.603   2.277   2.243  0.0241 -0.5986 -1.0279
  934MPD2    H713671   2.607   2.236   2.150  0.2303  0.0451 -1.3055
  935MPD2     C13672   1.926   1.411   1.634  0.0021 -0.2005 -0.0921
  935MPD2    C113673   1.806   1.482   1.627  0.3410  0.1673 -0.5543
  935MPD2    C213674   1.800   1.609   1.680  0.1404  0.3586 -0.5286
  935MPD2    C313675   1.914   1.665   1.741  0.6080  0.8394  0.6717
  935MPD2    C413676   2.032   1.591   1.734  0.2204 -0.7082  0.0828
  935MPD2    C513677   2.040   1.465   1.685 -0.2891 -0.6101  0.5009
  935MPD2     H13678   1.706   1.665   1.681  0.9602  1.7478 -1.2553
  935MPD2    H113679   2.116   1.636   1.787  0.8368 -2.0264  0.2325
  935MPD2    H213680   1.931   1.308   1.602  2.0414  0.9643 -3.4864
  935MPD2    H313681   2.130   1.405   1.683  0.8791  1.2339 -2.0155
  935MPD2     N13682   1.917   1.791   1.800  0.3750  0.2233 -0.3995
  935MPD2    H513683   2.004   1.804   1.852  0.2378  1.8219 -0.5750
  935MPD2    N113684   1.692   1.445   1.563  0.4462  0.1184  0.2390
  935MPD2    H713685   1.631   1.525   1.549  0.9062  0.4499  0.1233
  936MPD2     C13686   0.653   4.102  12.831  0.2081 -0.2403  0.7529
  936MPD2    C113687   0.578   4.136  12.937 -0.1246  0.2288  0.1507
  936MPD2    C213688   0.465   4.220  12.928  0.2431  0.2542  0.0431
  936MPD2    C313689   0.417   4.255  12.804  0.2798 -0.2227 -0.4361
  936MPD2    C413690   0.485   4.216  12.695  0.3193 -0.0494  0.2849
  936MPD2    C513691   0.607   4.153  12.709 -0.0115  0.7307 -0.0160
  936MPD2     H13692   0.418   4.241  13.023  1.6398  0.8167  0.6034
  936MPD2    H113693   0.455   4.247  12.596  0.4731  0.9511  0.5557
  936MPD2    H213694   0.735   4.031  12.826  0.3227 -0.2365  2.7299
  936MPD2    H313695   0.663   4.126  12.620  1.8067 -1.2792  1.7727
  936MPD2     N13696   0.293   4.330  12.786 -0.4397  0.0680  0.4005
  936MPD2    H513697   0.260   4.346  12.692 -2.4685 -1.3254  0.8648
  936MPD2    N113698   0.581   4.081  13.066  0.3574 -0.6273 -0.3612
  936MPD2    H713699   0.508   4.107  13.131 -0.5806  0.2829 -1.7758
  937MPD2     C13700   2.950   0.623  11.892 -0.1190 -0.0390  0.0507
  937MPD2    C113701   3.012   0.740  11.854  0.3232  0.7562  0.8303
  937MPD2    C213702   3.127   0.743  11.774  0.8909 -0.2193  0.0721
  937MPD2    C313703   3.181   0.625  11.720  0.1783  0.9614  1.0087
  937MPD2    C413704   3.115   0.509  11.747  0.6677  0.4198  0.1289
  937MPD2    C513705   3.003   0.506  11.832  1.0256 -0.1032  0.1830
  937MPD2     H13706   3.177   0.835  11.743 -1.0946  0.9562  0.3390
  937MPD2    H113707   3.147   0.412  11.708  0.8826  0.5327  0.0206
  937MPD2    H213708   2.860   0.624  11.952  0.0685 -0.0827  0.3368
  937MPD2    H313709   2.950   0.414  11.855 -0.5991  0.6603 -0.5471
  937MPD2     N13710   3.299   0.628  11.645 -0.5709 -0.3882  0.4150
  937MPD2    H513711   3.336   0.723  11.644  2.2657 -1.4745  1.1861
  937MPD2    N113712   2.955   0.866  11.871  0.1166  0.0880  0.0762
  937MPD2    H713713   2.989   0.940  11.811  1.2212 -0.4722  0.0165
  938MPD2     C13714   0.613   1.602   1.342  0.2590 -0.1993  0.4226
  938MPD2    C113715   0.493   1.672   1.350 -0.6308  0.8435 -0.2596
  938MPD2    C213716   0.373   1.610   1.321  0.0215  0.8367 -0.5793
  938MPD2    C313717   0.376   1.483   1.269 -0.4060 -0.0495 -0.3454
  938MPD2    C413718   0.497   1.418   1.243  1.0353 -0.3839 -0.2737
  938MPD2    C513719   0.607   1.478   1.284 -0.5778 -0.4120  0.2708
  938MPD2     H13720   0.279   1.663   1.337 -0.7115 -0.2676 -1.2127
  938MPD2    H113721   0.506   1.321   1.196  0.3834  0.3086 -1.8262
  938MPD2    H213722   0.709   1.644   1.368 -0.4266  0.9855  1.0181
  938MPD2    H313723   0.703   1.427   1.274 -0.5391 -0.3554  0.3613
  938MPD2     N13724   0.257   1.413   1.245  0.4722 -0.5045  0.5662
  938MPD2    H513725   0.268   1.313   1.232  0.3917  0.0714 -4.1339
  938MPD2    N113726   0.494   1.809   1.388  0.7923  0.1538 -0.6710
  938MPD2    H713727   0.405   1.851   1.363 -0.5636 -4.0352 -3.0275
  939MPD2     C13728   1.931   2.608   1.511 -1.0303  0.1709 -0.4324
  939MPD2    C113729   1.882   2.735   1.493  0.1521  0.1686 -0.7072
  939MPD2    C213730   1.919   2.806   1.383 -0.1352 -0.2055 -0.6975
  939MPD2    C313731   2.012   2.752   1.290 -0.4051 -0.1766 -0.5912
  939MPD2    C413732   2.056   2.624   1.307 -0.1544  0.3231  0.2420
  939MPD2    C513733   2.019   2.552   1.420 -0.0821 -0.3105  0.3443
  939MPD2     H13734   1.875   2.903   1.364  0.5497  0.6455  2.1483
  939MPD2    H113735   2.121   2.577   1.235  0.9584 -0.0151  1.4798
  939MPD2    H213736   1.912   2.540   1.594  1.8397 -2.1032 -1.6192
  939MPD2    H313737   2.048   2.448   1.428 -1.5549 -0.7070  0.5974
  939MPD2     N13738   2.034   2.821   1.171 -0.7352  0.0565  0.3009
  939MPD2    H513739   1.963   2.889   1.147  0.0535  0.2384 -1.5316
  939MPD2    N113740   1.805   2.787   1.595 -0.4737  0.5660 -0.5137
  939MPD2    H713741   1.786   2.735   1.680 -0.0289 -0.3719 -0.9856
  940MPD2     C13742   0.723   4.469  13.357 -0.7157 -0.0190 -0.0294
  940MPD2    C113743   0.825   4.428  13.451 -0.2652 -0.2291 -0.2997
  940MPD2    C213744   0.939   4.358  13.403  0.0107  0.8500 -0.1232
  940MPD2    C313745   0.953   4.330  13.271  0.5967 -0.4921  0.8001
  940MPD2    C413746   0.858   4.365  13.183  0.4717 -0.2382  0.1594
  940MPD2    C513747   0.754   4.444  13.223  0.2867 -0.2592 -0.4933
  940MPD2     H13748   1.018   4.338  13.474 -1.6167  0.4222  1.5586
  940MPD2    H113749   0.865   4.338  13.078 -0.7303 -2.7224  0.7168
  940MPD2    H213750   0.637   4.523  13.394  1.1283  1.8012  1.5959
  940MPD2    H313751   0.683   4.481  13.150  2.1044  1.0716 -1.5608
  940MPD2     N13752   1.058   4.255  13.211 -0.4143  0.3231  0.2217
  940MPD2    H513753   1.026   4.212  13.124 -1.5303  0.6733  0.4692
  940MPD2    N113754   0.805   4.450  13.588 -0.1070 -0.0496 -0.0962
  940MPD2    H713755   0.853   4.391  13.655  0.1010 -0.8147 -0.9167
  941MPD2     C13756   4.264   3.073   9.856 -0.5662  0.0152 -0.1177
  941MPD2    C113757   4.321   3.045   9.981 -0.6986 -0.3399 -0.1727
  941MPD2    C213758   4.293   2.921  10.047 -0.4857 -0.1806  0.3648
  941MPD2    C313759   4.216   2.823   9.987 -0.2406 -0.0700 -0.7613
  941MPD2    C413760   4.176   2.843   9.855 -0.1002 -0.0284  0.6762
  941MPD2    C513761   4.195   2.968   9.794  0.4563 -0.1653  0.1826
  941MPD2     H13762   4.318   2.907  10.151 -1.9125 -0.3420  0.6814
  941MPD2    H113763   4.114   2.770   9.802  0.6955  1.1253 -1.8214
  941MPD2    H213764   4.284   3.167   9.806 -2.2121  1.5185  2.0088
  941MPD2    H313765   4.157   2.985   9.694  0.5018 -1.3561 -0.0350
  941MPD2     N13766   4.184   2.699  10.043  0.5018 -0.2115 -0.0739
  941MPD2    H513767   4.133   2.634   9.983  1.3092 -0.8963 -0.0112
  941MPD2    N113768   4.405   3.129  10.058  0.0166 -0.3349  0.2647
  941MPD2    H713769   4.430   3.095  10.151 -0.1381 -0.2520  0.3361
  942MPD2     C13770   3.351   0.375   9.781  0.6884 -0.1984 -0.4266
  942MPD2    C113771   3.459   0.455   9.795 -0.6368 -0.7908  0.5716
  942MPD2    C213772   3.566   0.418   9.873 -0.1382 -0.2721  0.8327
  942MPD2    C313773   3.571   0.292   9.928 -1.0703 -0.4485  0.5902
  942MPD2    C413774   3.461   0.209   9.910  0.2491  0.0737 -0.2432
  942MPD2    C513775   3.347   0.254   9.846 -0.1184  0.0872 -0.4941
  942MPD2     H13776   3.650   0.485   9.875 -0.8276  0.6775 -1.8380
  942MPD2    H113777   3.467   0.112   9.959 -0.0823  0.0260 -0.2989
  942MPD2    H213778   3.264   0.413   9.730  0.8564 -2.0924 -2.1027
  942MPD2    H313779   3.265   0.186   9.827  0.0363 -0.3717  0.4666
  942MPD2     N13780   3.685   0.232   9.981 -0.3615 -0.0459 -0.0290
  942MPD2    H513781   3.678   0.134  10.004  0.7665  0.0026  0.5124
  942MPD2    N113782   3.474   0.577   9.733 -0.2745  0.1687 -0.0347
  942MPD2    H713783   3.558   0.630   9.752 -0.4281 -0.0386  1.2368
  943MPD2     C13784   3.337   2.689   9.472  0.3142  0.4478 -0.7230
  943MPD2    C113785   3.251   2.587   9.516 -0.2463  0.0215  0.4250
  943MPD2    C213786   3.166   2.522   9.426  0.0350  0.1371 -0.5956
  943MPD2    C313787   3.158   2.570   9.289  0.6831 -0.1956 -0.3389
  943MPD2    C413788   3.245   2.675   9.250  0.0613  0.0506 -0.3060
  943MPD2    C513789   3.334   2.732   9.344  0.0737  0.1831  0.2324
  943MPD2     H13790   3.107   2.435   9.452  2.2726 -1.3180 -0.4194
  943MPD2    H113791   3.253   2.713   9.149  2.0647 -0.3396 -0.2854
  943MPD2    H213792   3.404   2.742   9.539 -1.5264 -3.3309  4.0949
  943MPD2    H313793   3.400   2.814   9.318  0.5919 -0.1278  0.5759
  943MPD2     N13794   3.072   2.510   9.190 -0.4555  0.2219 -0.5614
  943MPD2    H513795   3.068   2.556   9.100 -2.5270  0.9159 -0.1361
  943MPD2    N113796   3.254   2.553   9.654  0.0109  0.4273  0.6602
  943MPD2    H713797   3.303   2.610   9.722 -1.9281  0.9617  1.5832
  944MPD2     C13798   3.378   2.441  10.772 -0.0710 -0.3648  0.3625
  944MPD2    C113799   3.313   2.321  10.809 -0.3642  0.1813 -0.1255
  944MPD2    C213800   3.295   2.285  10.943  0.4719  0.8147  0.0553
  944MPD2    C313801   3.331   2.371  11.044 -0.7302  0.0671 -0.1849
  944MPD2    C413802   3.403   2.477  11.010  0.0506  0.5842  0.3714
  944MPD2    C513803   3.425   2.515  10.881 -0.3251  0.2341  0.0216
  944MPD2     H13804   3.254   2.188  10.968  1.2641  0.3265 -0.5648
  944MPD2    H113805   3.450   2.536  11.088 -0.5920 -0.0382  1.2321
  944MPD2    H213806   3.389   2.480  10.671 -1.9386 -1.1848 -0.1701
  944MPD2    H313807   3.469   2.609  10.850 -0.5756 -0.2722 -1.8765
  944MPD2     N13808   3.299   2.336  11.172 -0.7933 -0.0918 -0.6314
  944MPD2    H513809   3.249   2.249  11.184 -1.3313  0.5221  1.6359
  944MPD2    N113810   3.282   2.233  10.699  0.2139  0.8321  0.1618
  944MPD2    H713811   3.306   2.257  10.603 -0.2567 -1.5425 -0.5251
    1TCq1    O113812   1.973   2.968  14.370 -0.1923  0.0079 -0.3361
    1TCq1    C113813   1.925   2.851  14.415 -0.3857 -0.0422  0.3746
    1TCq1    O213814   1.907   2.754  14.346 -0.0009  0.2849 -0.0169
    1TCq1    C213815   1.934   2.854  14.565  0.2268  0.0472 -0.7997
    1TCq1    C313816   1.890   2.748  14.635 -0.1821 -0.2052 -0.3734
    1TCq1    C413817   1.920   2.739  14.772 -0.4192  0.2851  0.3700
    1TCq1    C513818   1.956   2.851  14.837  0.2077  0.1100  0.1539
    1TCq1    C613819   1.988   2.959  14.768  0.8626  0.0615 -0.5764
    1TCq1    C713820   1.997   2.960  14.628 -0.3514 -0.1288 -0.6881
    1TCq1    C813821   2.008   3.075  14.842 -0.4565  0.1809  0.0477
    1TCq1    O413822   2.074   3.067  14.948  0.1476 -0.1713  0.6065
    1TCq1    C913823   1.863   2.628  14.850 -0.5722  0.0209  0.5997
    1TCq1    O513824   1.818   2.650  14.967 -0.1699 -0.4662  0.0165
    1TCq1    O613825   1.864   2.522  14.785  0.5706  0.1006 -0.0496
    1TCq1    H113826   1.942   3.050  14.414 -2.6513 -1.4833  0.6969
    1TCq1    H213827   1.848   2.657  14.593 -3.3335  0.7936  0.6075
    1TCq1    H313828   1.962   2.860  14.945  2.3708  0.8686 -0.0326
    1TCq1    H413829   2.050   3.040  14.578 -0.0564 -0.1658 -0.4340
    2MPD2     C13830   1.893   3.554  14.998 -0.1654 -0.5657 -0.6599
    2MPD2    C113831   1.819   3.516  14.889 -0.4701 -0.4479  0.7963
    2MPD2    C213832   1.832   3.395  14.830 -0.1277 -0.3140  0.0513
    2MPD2    C313833   1.926   3.302  14.868  0.6131 -1.2565 -0.1172
    2MPD2    C413834   2.009   3.346  14.968  0.2383  0.1940  0.3851
    2MPD2    C513835   1.990   3.462  15.042 -0.2463 -0.0166 -0.4094
    2MPD2     H13836   1.769   3.373  14.745 -0.3485 -0.8300  0.3421
    2MPD2    H113837   2.093   3.284  14.996  2.5228  2.6405 -1.1157
    2MPD2    H213838   1.879   3.647  15.051 -0.3458 -1.0290  0.1128
    2MPD2    H313839   2.056   3.487  15.124 -0.3569 -0.4258 -0.1972
    2MPD2     N13840   1.931   3.180  14.796 -0.6903 -0.0490 -0.0208
    2MPD2    H513841   1.874   3.159  14.715  0.3811 -1.6151 -0.3649
    2MPD2    N113842   1.718   3.615  14.854 -0.3436 -0.3324  0.3017
    2MPD2    H713843   1.717   3.709  14.892 -1.4006  1.3768 -3.9171
    3TMC2    C113844   1.531   3.711  14.749 -0.3972 -0.1530  0.4762
    3TMC2    C213845   1.399   3.683  14.750 -0.0436  0.7315  0.2621
    3TMC2    C313846   1.310   3.782  14.721  0.4399  0.1312  0.5684
    3TMC2    C413847   1.579   3.837  14.720  0.0065  0.0272  0.0376
    3TMC2    C513848   1.487   3.928  14.687  1.0262 -0.2371 -0.6727
    3TMC2    C613849   1.349   3.911  14.689  0.0273 -0.2762  0.1151
    3TMC2     C13850   1.617   3.590  14.770  0.0462  0.2131 -0.3163
    3TMC2     O13851   1.586   3.479  14.727  0.0115  0.3487 -0.3480
    3TMC2     H13852   1.366   3.581  14.763  1.7254  0.2046  0.6045
    3TMC2    H113853   1.683   3.863  14.710 -0.1457  0.2414 -0.9825
    3TMC2    H213854   1.275   3.990  14.683  1.4307  1.2668  3.3580
    3TMC2    C713855   1.541   4.057  14.651  0.3394  0.0783 -0.2273
    3TMC2    C813856   1.175   3.742  14.707 -0.1241  0.3234  0.3102
    3TMC2    O113857   1.653   4.076  14.691 -0.1784 -0.5683 -0.0834
    3TMC2    O213858   1.126   3.640  14.749  0.3073 -0.0073  0.1520
    3TMC2    O513859   1.127   3.812  14.603 -0.3404 -0.1885  0.1455
    3TMC2    H513860   1.174   3.895  14.579  1.3929 -0.6525  1.9616
    4MPD2     C13861   0.344   0.166  14.150  0.4111  0.1534  0.0351
    4MPD2    C113862   0.449   0.160  14.059  0.4920  0.1262  0.3218
    4MPD2    C213863   0.583   0.154  14.101  0.0275  0.6738 -0.0132
    4MPD2    C313864   0.611   0.135  14.231 -0.3388  0.5931 -0.6511
    4MPD2    C413865   0.505   0.131  14.324  0.7887  0.2693  0.2243
    4MPD2    C513866   0.370   0.155  14.279 -0.2379 -0.0331  0.8144
    4MPD2     H13867   0.658   0.146  14.023  0.5488 -0.7193  0.6336
    4MPD2    H113868   0.527   0.125  14.430 -1.9034  1.8385  0.8854
    4MPD2    H213869   0.243   0.173  14.112 -0.2431 -1.4350  1.4551
    4MPD2    H313870   0.303   0.161  14.364 -0.1825 -0.1986  0.8691
    4MPD2     N13871   0.744   0.126  14.269  0.3054 -0.5721 -0.3654
    4MPD2    H513872   0.809   0.136  14.191  0.7828 -0.6311  0.0309
    4MPD2    N113873   0.418   0.173  13.919 -0.6357  0.4213 -0.0643
    4MPD2    H713874   0.323   0.151  13.891 -0.5172  0.1579 -0.2549
    5TCq2    C113875   0.793   0.096  14.393 -0.1151  0.4082  0.7040
    5TCq2    O213876   0.736   0.050  14.493 -0.6380 -1.7405 -0.0950
    5TCq2    C213877   0.934   0.109  14.396  0.8585  0.0547 -0.1863
    5TCq2    C313878   0.997   0.191  14.300  0.2694  0.3495  1.0455
    5TCq2    C413879   1.128   0.168  14.263  0.1573  0.0042  0.4562
    5TCq2    C513880   1.200   0.064  14.319 -0.1223 -1.0425 -0.7318
    5TCq2    C613881   1.131   4.711  14.413 -0.7404 -0.6490 -0.7990
    5TCq2    C713882   0.999   0.008  14.450  0.0133  0.3176 -0.2289
    5TCq2    C813883   1.196   4.606  14.483 -0.1010 -0.7759  1.3090
    5TCq2    O413884   1.126   4.535  14.555 -0.6020 -0.5816  0.5332
    5TCq2    C913885   1.176   0.245  14.148 -0.3735  0.2026  0.2371
    5TCq2    O513886   1.088   0.315  14.095 -0.3500  0.6542 -0.4805
    5TCq2    O613887   1.281   0.208  14.093  0.0500  0.7038 -0.1189
    5TCq2    H213888   0.944   0.272  14.250  0.2804  1.3436  2.6490
    5TCq2    H313889   1.300   0.040  14.285  1.5003  0.9902  2.5857
    5TCq2    H413890   0.947   4.662  14.518  0.2409  1.5296  1.1418
    6MPD1     C13891   0.287   1.397  12.434 -0.4637 -0.2365  0.1420
    6MPD1    C113892   0.204   1.420  12.542 -0.4070  0.4927  0.3724
    6MPD1    C213893   0.181   1.317  12.630 -0.0308 -0.0613  0.1651
    6MPD1    C313894   0.237   1.193  12.616  0.1213  0.1172 -0.2514
    6MPD1    C413895   0.319   1.167  12.504  0.3097  0.3720 -0.6156
    6MPD1    C513896   0.346   1.271  12.421 -0.1276 -0.4423  0.0044
    6MPD1     H13897   0.110   1.330  12.711 -1.4916  1.7457 -1.3748
    6MPD1    H113898   0.371   1.073  12.492  1.0566  0.9820 -2.1289
    6MPD1    H213899   0.311   1.472  12.360 -0.5185 -0.8229 -0.4683
    6MPD1    H313900   0.414   1.252  12.339  1.0509 -0.1355  0.9044
    6MPD1     N13901   0.220   1.086  12.712 -0.0248  0.1142 -0.2013
    6MPD1    H513902   0.279   1.004  12.701 -1.5192 -0.8533 -1.1318
    6MPD1    N113903   0.138   1.542  12.569  0.1286 -0.0840 -0.2864
    6MPD1    H613904   0.093   1.547  12.660 -0.8643  0.9112 -0.8376
    6MPD1    H713905   0.212   1.611  12.563 -0.4358  0.3711 -1.9080
    7MPD2     C13906   4.507   0.586  13.284 -0.0698 -0.2789  0.3614
    7MPD2    C113907   4.631   0.626  13.322 -0.7662  0.0887 -0.5317
    7MPD2    C213908   4.699   0.547  13.409 -0.1244 -0.4306 -1.0667
    7MPD2    C313909   4.641   0.429  13.458  0.3900 -0.4033 -0.4918
    7MPD2    C413910   4.514   0.402  13.423 -0.2492 -0.1318  0.2015
    7MPD2    C513911   4.445   0.482  13.343 -0.7099  0.2855 -0.1284
    7MPD2     H13912   0.080   0.578  13.431 -0.9963  2.4816 -1.1657
    7MPD2    H113913   4.468   0.319  13.475  2.4753 -3.6451 -2.9514
    7MPD2    H213914   4.446   0.656  13.229 -0.9948 -0.3008  1.3569
    7MPD2    H313915   4.338   0.469  13.330 -0.9229 -0.5420  2.3649
    7MPD2     N13916   4.720   0.334  13.529  0.0913  0.0691  0.2011
    7MPD2    H513917   4.689   0.238  13.536 -1.1208  0.2740 -2.5512
    7MPD2    N113918   4.708   0.731  13.264  0.2083  0.2181 -0.4978
    7MPD2    H713919   0.086   0.745  13.285  0.0467  0.2952  0.2256
    8TMC3    C113920   0.200   0.244  13.615 -0.0647 -0.3227 -0.3470
    8TMC3    C213921   0.298   0.260  13.709  0.0386 -0.3838  0.3241
    8TMC3    C313922   0.429   0.215  13.685  0.4588  0.4755 -0.2695
    8TMC3    C413923   0.242   0.174  13.505  0.6333 -0.2571 -0.3574
    8TMC3    C513924   0.374   0.148  13.477  0.4436  0.1107 -0.1415
    8TMC3    C613925   0.470   0.159  13.571 -0.3508  0.5556 -0.2080
    8TMC3     C13926   0.126   0.361  13.587  0.4764 -0.2019 -0.3360
    8TMC3     O13927   0.193   0.462  13.589 -0.0020 -0.2410  0.0895
    8TMC3     H13928   0.281   0.320  13.798 -2.1023  0.4549 -0.6479
    8TMC3    H113929   0.173   0.164  13.422 -0.1093 -0.9581  0.3437
    8TMC3    H213930   0.567   0.115  13.549 -0.5402 -0.4267  0.8929
    8TMC3    C713931   0.414   0.193  13.347 -0.0840  0.0845  0.8322
    8TMC3    C813932   0.505   0.194  13.811 -1.1533  0.2298  0.6345
    8TMC3    O113933   0.329   0.207  13.264  0.2720  0.5700  0.3353
    8TMC3    O213934   0.628   0.187  13.809 -0.0053  0.0140 -0.5694
    9TMC3    C113935   0.157   0.976  12.908 -0.0784 -0.0334  0.3625
    9TMC3    C213936   0.283   0.920  12.917 -0.2051 -0.1805 -0.3782
    9TMC3    C313937   0.292   0.829  13.016 -0.1531 -0.0613  0.3065
    9TMC3    C413938   0.051   0.945  12.990  0.3175 -0.6263 -0.1564
    9TMC3    C513939   0.075   0.862  13.096  0.3520 -0.5481 -0.1449
    9TMC3    C613940   0.194   0.807  13.109 -1.1753 -0.2093  0.0555
    9TMC3     C13941   0.128   1.077  12.815  0.0170  0.2548 -0.3821
    9TMC3     O13942   0.044   1.163  12.847 -1.0238 -0.3507 -0.3354
    9TMC3     H13943   0.365   0.947  12.851 -0.4660 -0.0152 -0.6356
    9TMC3    H113944   4.675   0.990  12.969  0.8101  0.3907 -0.2782
    9TMC3    H213945   0.221   0.747  13.195 -1.9311 -1.2940 -0.4575
    9TMC3    C713946   4.677   0.802  13.153  0.2867 -0.2020 -0.1120
    9TMC3    C813947   0.420   0.764  13.036 -0.1914  0.7344 -0.3174
    9TMC3    O113948   4.574   0.804  13.085  0.4918 -0.6192  0.3165
    9TMC3    O213949   0.518   0.827  13.015  0.0909 -0.0475 -0.7447
   10MPD2     C13950   0.709   0.388  13.240 -0.0032 -0.0267  0.3536
   10MPD2    C113951   0.581   0.348  13.252 -0.2576  0.2890 -0.1432
   10MPD2    C213952   0.484   0.430  13.192  0.5197 -0.1985 -0.0702
   10MPD2    C313953   0.516   0.555  13.137 -0.2053  1.0179 -0.0445
   10MPD2    C413954   0.650   0.587  13.132 -0.4489 -0.5431 -0.4371
   10MPD2    C513955   0.742   0.501  13.178 -0.0929 -0.3682  0.0981
   10MPD2     H13956   0.378   0.409  13.200  0.7512 -0.3438  2.6078
   10MPD2    H113957   0.682   0.675  13.077  1.4071 -1.8186 -1.4217
   10MPD2    H213958   0.792   0.321  13.258 -1.3240 -1.9533 -0.8311
   10MPD2    H313959   0.850   0.512  13.169 -0.1665 -1.7044 -2.4337
   10MPD2     N13960   0.406   0.637  13.088 -0.6550 -0.2935  0.0946
   10MPD2    H513961   0.311   0.606  13.105 -1.9245  3.2863 -0.5912
   10MPD2    N113962   0.546   0.243  13.340 -0.3038 -0.2926  0.2880
   10MPD2    H713963   0.615   0.217  13.410  0.3182 -0.7803 -0.5002
   11MPD2     C13964   1.627   4.306  14.531 -0.4223 -0.1454 -0.7541
   11MPD2    C113965   1.491   4.276  14.546  0.0220  0.2022  0.2253
   11MPD2    C213966   1.393   4.374  14.522 -0.6769  0.0374 -0.7467
   11MPD2    C313967   1.426   4.503  14.488  0.4733 -0.4396 -0.0536
   11MPD2    C413968   1.561   4.537  14.486  0.1824 -0.0500  0.0302
   11MPD2    C513969   1.657   4.439  14.506  0.3988  0.1204 -0.1645
   11MPD2     H13970   1.288   4.351  14.526 -0.1810 -2.0541  0.2764
   11MPD2    H113971   1.596   4.633  14.449  0.3051  0.1476  0.6592
   11MPD2    H213972   1.715   4.244  14.531  1.0131  1.8884  1.6180
   11MPD2    H313973   1.761   4.470  14.495  0.5034  0.2474  1.1676
   11MPD2     N13974   1.335   4.604  14.462 -0.5279 -0.0088  0.9836
   11MPD2    H513975   1.377   4.686  14.421 -0.7116 -1.0399 -1.2288
   11MPD2    N113976   1.451   4.150  14.600  0.1019  0.3386 -0.0642
   11MPD2    H713977   1.353   4.123  14.598 -0.0193  0.7506  0.2019
    1MPD1     C13978   3.360   1.005   0.585 -0.0020 -0.3530 -0.0291
    1MPD1    C113979   3.444   0.899   0.574  0.0489 -0.1056 -0.0721
    1MPD1    C213980   3.453   0.843   0.449 -0.5875 -0.5383  0.5523
    1MPD1    C313981   3.387   0.900   0.338  0.1892  0.2654 -0.4910
    1MPD1    C413982   3.320   1.016   0.353  0.0802 -0.1532  0.1079
    1MPD1    C513983   3.301   1.066   0.475  0.0125  0.7792 -0.3485
    1MPD1     H13984   3.514   0.754   0.435  1.6974  1.7647 -3.8862
    1MPD1    H113985   3.270   1.076   0.277  0.8474 -0.5523 -0.7065
    1MPD1    H213986   3.339   1.049   0.682 -0.9619 -2.9627  0.9506
    1MPD1    H313987   3.254   1.163   0.487  0.8391  1.1441  0.0018
    1MPD1     N13988   3.388   0.851   0.202  0.3234 -0.2017 -0.4158
    1MPD1    H513989   3.329   0.905   0.139 -1.1788 -2.8335 -1.2778
    1MPD1    N113990   3.505   0.846   0.693  1.1987  0.4787  0.4539
    1MPD1    H613991   3.511   0.917   0.766 -1.3243  1.9832 -0.7901
    1MPD1    H713992   3.595   0.799   0.682  1.2796  0.8906 -0.6767
    2MPD1     C13993   4.209   0.799  17.346 -0.4202  0.1007 -0.1580
    2MPD1    C113994   4.181   0.841  17.471  0.2092 -0.2557  0.7092
    2MPD1    C213995   4.052   0.853  17.517 -0.0891 -0.2200  0.3803
    2MPD1    C313996   3.946   0.810  17.444 -0.9779 -0.4699  0.4652
    2MPD1    C413997   3.977   0.758  17.321 -0.2994 -0.1646 -0.2231
    2MPD1    C513998   4.105   0.756  17.270  0.5578 -0.4850  0.1353
    2MPD1     H13999   4.039   0.882  17.620  1.5440  1.0655  0.2223
    2MPD1    H114000   3.903   0.719  17.252 -1.4742 -0.2203  1.0752
    2MPD1    H214001   4.311   0.810  17.311 -0.3861 -1.5439 -0.5756
    2MPD1    H314002   4.123   0.718  17.170 -1.0077  1.8223 -1.0111
    2MPD1     N14003   3.807   0.805  17.496  0.1790 -0.0960  0.3831
    2MPD1    H514004   3.793   0.847  17.588 -0.9372  0.0859  0.1400
    2MPD1    N114005   4.288   0.906  17.533 -0.2030 -0.4179 -0.1788
    2MPD1    H614006   4.281   0.917  17.634  1.1690  0.4031 -0.1665
    2MPD1    H714007   4.372   0.849  17.526  0.2764  0.2907 -0.2519
    3TMC3    C114008   3.582   0.773  17.502 -0.6595  0.4231  0.2874
    3TMC3    C214009   3.473   0.801  17.426  0.3236 -0.9392 -0.6073
    3TMC3    C314010   3.353   0.794  17.494 -0.3325  0.0980  0.2114
    3TMC3    C414011   3.582   0.736  17.635 -0.3494 -0.3642  0.1824
    3TMC3    C514012   3.458   0.736   0.011  0.4796  0.0257 -0.2937
    3TMC3    C614013   3.341   0.763  17.623  0.3259 -0.2007 -0.7291
    3TMC3     C14014   3.706   0.746  17.430 -0.3790 -0.3516  0.3758
    3TMC3     O14015   3.695   0.695  17.320  0.3573 -0.8235 -0.4901
    3TMC3     H14016   3.480   0.831  17.322 -0.9953 -0.7498 -0.6397
    3TMC3    H114017   3.676   0.721   0.001  0.3173  1.1911 -0.5895
    3TMC3    H214018   3.245   0.778  17.672  0.7308  1.0359 -0.3085
    3TMC3    C714019   3.460   0.744   0.156  0.7327  0.4044 -0.9003
    3TMC3    C814020   3.232   0.862  17.437  0.2892 -0.4595 -0.0588
    3TMC3    O114021   3.551   0.691   0.218 -0.5856 -0.1447  0.0581
    3TMC3    O214022   3.125   0.816  17.479  0.3463 -0.4484  0.5474
    4MPD1     C14023   2.997   1.281  17.255 -0.1036  0.5276 -0.6189
    4MPD1    C114024   3.110   1.257  17.178  0.4242  0.4766  0.1311
    4MPD1    C214025   3.193   1.152  17.221 -0.3394 -0.1702 -0.4118
    4MPD1    C314026   3.161   1.065  17.322 -0.5824  0.2106  0.1271
    4MPD1    C414027   3.041   1.089  17.390 -0.6896 -0.1535 -0.8722
    4MPD1    C514028   2.967   1.190  17.355  0.0558 -0.1825  0.0907
    4MPD1     H14029   3.283   1.121  17.171  0.4960  2.6344 -0.6387
    4MPD1    H114030   3.002   1.043  17.480 -3.3839 -0.9212 -2.4417
    4MPD1    H214031   2.927   1.361  17.238 -1.6916 -0.9390 -0.9412
    4MPD1    H314032   2.874   1.205  17.409 -0.3788  1.7635 -1.1885
    4MPD1     N14033   3.260   0.969  17.360  0.0873 -0.0405 -0.2856
    4MPD1    H514034   3.358   0.980  17.335 -0.1936 -0.0048 -1.3813
    4MPD1    N114035   3.145   1.349  17.076  0.0523  0.3966  0.2652
    4MPD1    H614036   3.061   1.397  17.046  0.7995  1.3990 -0.2322
    4MPD1    H714037   3.205   1.313  17.002 -1.8200 -1.1497 -0.4818
    1TCq1    O114038   0.327   0.973  11.800 -0.0159  0.1752  0.4472
    1TCq1    C114039   0.212   0.917  11.752  0.3869 -0.1191  0.1711
    1TCq1    O214040   0.099   0.970  11.746 -0.8984  0.4856 -0.7417
    1TCq1    C214041   0.257   0.810  11.666 -0.2186  0.1904 -0.0491
    1TCq1    C314042   0.338   0.705  11.713 -0.0273 -0.5162  0.0068
    1TCq1    C414043   0.361   0.600  11.628 -0.2054  0.3212 -0.0685
    1TCq1    C514044   0.297   0.596  11.506 -0.5232  0.3854 -0.2812
    1TCq1    C614045   0.219   0.698  11.458  0.3027 -0.8142  1.2696
    1TCq1    C714046   0.200   0.806  11.540  0.1832  0.3418 -0.2436
    1TCq1    C814047   0.163   0.689  11.329 -0.1485 -0.6796  0.0753
    1TCq1    O414048   0.089   0.781  11.301 -0.3711  0.4925  0.7184
    1TCq1    C914049   0.368   0.474  11.684  0.1732 -0.2007 -0.1863
    1TCq1    O514050   0.419   0.455  11.795  0.5042  0.3847  0.1646
    1TCq1    O614051   0.315   0.378  11.621 -0.1018 -0.0243  0.5059
    1TCq1    H114052   0.407   0.924  11.771  0.7013  1.3778  0.3528
    1TCq1    H214053   0.351   0.701  11.821  0.6822 -1.8945 -0.1321
    1TCq1    H314054   0.320   0.504  11.453  2.1302  0.4416  0.7496
    1TCq1    H414055   0.138   0.890  11.514 -0.5979  0.3501  1.6368
    2MPD1     C14056   0.028   0.455  10.892 -0.6139 -0.0561  0.3671
    2MPD1    C114057   0.135   0.388  10.945 -0.3864 -0.1548  0.0319
    2MPD1    C214058   0.188   0.427  11.073 -0.3487 -0.6501 -0.4909
    2MPD1    C314059   0.133   0.535  11.132  0.2501 -0.4155  0.2755
    2MPD1    C414060   0.031   0.611  11.070 -1.0860  0.2778 -0.7092
    2MPD1    C514061   4.700   0.569  10.950  0.0690 -1.1391  0.8240
    2MPD1     H14062   0.277   0.386  11.118 -0.4447 -1.0049 -0.6233
    2MPD1    H114063   4.712   0.700  11.118  3.2223  2.2646 -0.8405
    2MPD1    H214064   4.707   0.429  10.796  0.6385  0.9426 -0.4412
    2MPD1    H314065   4.619   0.629  10.910  0.6724 -1.4236 -0.8225
    2MPD1     N14066   0.198   0.579  11.252  0.9417 -0.3339 -0.3785
    2MPD1    H514067   0.276   0.524  11.287  0.7283  1.0053  2.1878
    2MPD1    N114068   0.170   0.267  10.885 -0.2967 -0.2756 -0.2481
    2MPD1    H614069   0.271   0.253  10.877 -0.3345 -0.6518 -0.0625
    2MPD1    H714070   0.139   0.282  10.789 -0.5135 -0.6540 -0.2354
    1TCq1    O114071   3.629   2.467   9.389  0.0946  0.7632 -0.2807
    1TCq1    C114072   3.682   2.589   9.401 -0.2367  0.3287 -0.0501
    1TCq1    O214073   3.668   2.675   9.316 -0.3448 -0.4304 -0.9718
    1TCq1    C214074   3.708   2.617   9.538  0.3273  0.0209 -0.0763
    1TCq1    C314075   3.709   2.750   9.569  0.0345  0.0061  0.4316
    1TCq1    C414076   3.771   2.787   9.683  0.1308  0.1522  0.3590
    1TCq1    C514077   3.862   2.708   9.742  0.5916  0.2198  0.2326
    1TCq1    C614078   3.872   2.578   9.702  0.2383 -0.1367  0.1719
    1TCq1    C714079   3.793   2.528   9.600 -0.1072 -0.4363 -0.3476
    1TCq1    C814080   3.935   2.483   9.790  0.0003 -0.5999  0.1048
    1TCq1    O414081   4.037   2.516   9.854 -0.6578  0.3115  0.3660
    1TCq1    C914082   3.783   2.928   9.711 -0.0437 -0.2955 -0.3451
    1TCq1    O514083   3.795   2.965   9.830  0.3752  0.0520  0.5415
    1TCq1    O614084   3.756   3.004   9.615  0.6470 -0.4228  0.2723
    1TCq1    H114085   3.619   2.424   9.477  0.4434 -2.1406 -1.6475
    1TCq1    H214086   3.638   2.816   9.522 -1.5270 -2.4810 -0.7123
    1TCq1    H314087   3.923   2.736   9.827  1.3168 -1.5365  0.2798
    1TCq1    H414088   3.814   2.432   9.555 -0.9518 -0.4805 -0.6422
    2MPD1     C14089   3.919   2.011  10.002  0.0348 -0.5171 -0.6465
    2MPD1    C114090   3.799   2.046   9.958  0.2228  0.1107 -0.0402
    2MPD1    C214091   3.784   2.168   9.892 -0.2543 -0.0379 -0.1546
    2MPD1    C314092   3.891   2.250   9.868  0.1075 -0.0602 -0.0418
    2MPD1    C414093   4.012   2.216   9.917 -0.6295  0.4593 -0.0877
    2MPD1    C514094   4.027   2.098   9.984  0.3474  0.7993 -0.0657
    2MPD1     H14095   3.685   2.203   9.864 -0.6887 -0.5317  0.7744
    2MPD1    H114096   4.099   2.281   9.917 -0.2795 -0.0109  0.1849
    2MPD1    H214097   3.919   1.921  10.062  1.7460  0.3783  0.7232
    2MPD1    H314098   4.123   2.075  10.028 -1.0881  1.1497  3.2033
    2MPD1     N14099   3.862   2.365   9.794  0.1472 -0.0519 -0.0345
    2MPD1    H514100   3.767   2.375   9.759 -0.1747 -0.3784  0.7412
    2MPD1    N114101   3.686   1.969   9.992 -0.7774 -0.0992 -0.4069
    2MPD1    H614102   3.704   1.871  10.014 -0.5376  0.3349  1.3296
    2MPD1    H714103   3.606   1.974   9.928 -1.0703  0.5036  0.0080
    1MPD1     C14104   1.378   0.667  11.906  0.4030  0.1473  0.5225
    1MPD1    C114105   1.335   0.782  11.963 -0.1872 -0.1232  0.1671
    1MPD1    C214106   1.431   0.867  12.017  0.2864 -0.4189  0.1344
    1MPD1    C314107   1.562   0.835  12.027  0.4919 -0.1804 -0.3627
    1MPD1    C414108   1.597   0.715  11.977  0.1425  0.0245 -0.6478
    1MPD1    C514109   1.509   0.636  11.911  0.5236 -0.0376 -0.2395
    1MPD1     H14110   1.402   0.961  12.063  0.6909  0.2195 -0.9178
    1MPD1    H114111   1.700   0.687  11.959  0.6629  1.9918 -0.7605
    1MPD1    H214112   1.306   0.606  11.853  0.0228  0.6164  0.5020
    1MPD1    H314113   1.558   0.548  11.870 -1.2881 -1.6070  0.9270
    1MPD1     N14114   1.655   0.914  12.098 -0.5696  0.4210 -1.0940
    1MPD1    H514115   1.622   0.988  12.159  1.1932 -0.4528  0.8922
    1MPD1    N114116   1.209   0.840  11.933  0.3719  0.7726 -0.5786
    1MPD1    H614117   1.184   0.925  11.983  2.6698  1.0766  0.0531
    1MPD1    H714118   1.136   0.769  11.936  0.0688  1.0793 -0.6726
    2MPD1     C14119   1.213   1.455  11.962  1.3362  0.1976  0.3316
    2MPD1    C114120   1.189   1.441  11.828  0.2372  0.8519 -0.1396
    2MPD1    C214121   1.237   1.335  11.759  0.5680  0.5540 -0.2897
    2MPD1    C314122   1.276   1.228  11.835  0.3397  0.8635 -0.6081
    2MPD1    C414123   1.278   1.236  11.976  0.1788  0.2446  0.0339
    2MPD1    C514124   1.257   1.354  12.035  0.7991  0.2493  0.1485
    2MPD1     H14125   1.244   1.342  11.651  0.4588  1.7944 -0.2147
    2MPD1    H114126   1.322   1.157  12.036  0.1403  0.3712  0.2281
    2MPD1    H214127   1.203   1.553  12.008  0.7430  1.1808 -1.8522
    2MPD1    H314128   1.252   1.370  12.142  0.4403  1.0192  0.0146
    2MPD1     N14129   1.318   1.106  11.774  0.3866  0.3488  0.2603
    2MPD1    H514130   1.344   1.027  11.831  0.0027  0.4878  0.6279
    2MPD1    N114131   1.185   1.564  11.759  0.5311 -0.1433 -0.3114
    2MPD1    H614132   1.108   1.619  11.796  1.3240 -0.2788  1.5453
    2MPD1    H714133   1.145   1.554  11.666  0.8142 -0.9197 -0.3522
    3MPD1     C14134   1.139   0.476  11.002  0.1223 -0.3890  0.0230
    3MPD1    C114135   1.090   0.454  11.127 -0.1163  0.3402  0.3126
    3MPD1    C214136   1.142   0.514  11.237 -0.3719 -0.3409  0.1578
    3MPD1    C314137   1.261   0.582  11.220 -0.1606  0.2122 -0.2504
    3MPD1    C414138   1.327   0.589  11.093 -0.1128  0.1019  0.1963
    3MPD1    C514139   1.258   0.541  10.986  0.2496 -0.1675  0.1764
    3MPD1     H14140   1.112   0.500  11.340  0.3809  1.5912  0.6316
    3MPD1    H114141   1.425   0.634  11.086  0.7759 -1.8542  0.2257
    3MPD1    H214142   1.087   0.442  10.912 -0.9769  0.5276  0.3074
    3MPD1    H314143   1.308   0.552  10.891 -0.9786 -1.8173 -0.6479
    3MPD1     N14144   1.310   0.652  11.333  0.1025  0.2331 -0.1186
    3MPD1    H514145   1.248   0.647  11.413 -1.2099  1.3936 -1.0690
    3MPD1    N114146   0.973   0.374  11.141 -0.0519  0.1783  0.0474
    3MPD1    H614147   0.969   0.335  11.235 -1.4094 -0.4524 -0.2812
    3MPD1    H714148   0.993   0.304  11.071  0.0835  1.4198 -1.1673
    4MPD2     C14149   1.831   1.520  11.906  0.9461  0.2945  0.5832
    4MPD2    C114150   1.932   1.432  11.940  0.1770 -0.2895  0.3247
    4MPD2    C214151   2.042   1.413  11.859 -0.4790 -0.1634  0.2502
    4MPD2    C314152   2.043   1.470  11.736 -0.4694 -0.6022 -0.3931
    4MPD2    C414153   1.943   1.564  11.701 -0.1944 -0.1826  0.5268
    4MPD2    C514154   1.836   1.586  11.789 -0.5692  0.5625 -0.4530
    4MPD2     H14155   2.117   1.337  11.880 -1.2940 -0.4436  2.1480
    4MPD2    H114156   1.938   1.621  11.609 -1.3068 -0.8199  0.1824
    4MPD2    H214157   1.741   1.536  11.964  0.8957  1.3062  0.2225
    4MPD2    H314158   1.756   1.655  11.763 -0.6360 -0.1891 -2.2659
    4MPD2     N14159   2.159   1.429  11.657  0.3137  0.5490  0.0251
    4MPD2    H514160   2.222   1.359  11.694  0.0151  1.1488  1.6305
    4MPD2    N114161   1.938   1.374  12.068 -0.3087  0.2113  0.0889
    4MPD2    H714162   2.027   1.336  12.098 -0.0498  1.1631  0.5381
    5TMC3    C114163   1.870   1.230  12.233  0.1715 -0.3004  0.2570
    5TMC3    C214164   1.793   1.115  12.202 -0.0826 -0.1853 -0.4053
    5TMC3    C314165   1.862   1.003  12.177  0.6155  0.1626 -0.4901
    5TMC3    C414166   2.007   1.218  12.255  0.2022  0.2842  0.5595
    5TMC3    C514167   2.077   1.104  12.228  0.1278  0.8028  1.3969
    5TMC3    C614168   2.004   0.998  12.180 -0.5370  0.0845  0.2705
    5TMC3     C14169   1.830   1.340  12.142  0.0254 -0.7045  0.1514
    5TMC3     O14170   1.717   1.349  12.106  0.1135  0.1663 -0.4949
    5TMC3     H14171   1.685   1.123  12.204 -0.1199 -0.3967 -1.3597
    5TMC3    H114172   2.065   1.308  12.271  1.3562 -0.1762 -1.0031
    5TMC3    H214173   2.055   0.916  12.131  0.2719  0.8250 -0.1181
    5TMC3    C714174   2.190   1.121  12.141  0.4256 -0.7106  0.4177
    5TMC3    C814175   1.793   0.898  12.101  0.2314 -0.4791 -0.2747
    5TMC3    O114176   2.198   1.225  12.075  0.2328 -0.0947  0.4720
    5TMC3    O214177   1.867   0.807  12.065  0.3558  0.1452  0.2184
    6TMC3    C114178   1.394   0.947  11.625 -0.6587 -0.5895 -0.0057
    6TMC3    C214179   1.357   0.868  11.523 -0.2683  0.3835 -0.6514
    6TMC3    C314180   1.443   0.765  11.483  0.5719 -0.6318 -0.1013
    6TMC3    C414181   1.515   0.937  11.678 -0.0159 -0.1471  0.1770
    6TMC3    C514182   1.600   0.833  11.645 -0.5687  0.0075 -0.3240
    6TMC3    C614183   1.568   0.746  11.545 -0.0804 -0.2068 -0.4232
    6TMC3     C14184   1.322   1.073  11.642 -0.1880 -0.4297  0.3703
    6TMC3     O14185   1.294   1.139  11.544 -0.2707  0.6265  0.1293
    6TMC3     H14186   1.266   0.882  11.466 -0.5399  2.9178  0.4040
    6TMC3    H114187   1.559   1.018  11.735  0.7856  0.4610 -1.3397
    6TMC3    H214188   1.633   0.669  11.504 -0.4575 -0.3523 -0.7438
    6TMC3    C714189   1.743   0.862  11.659 -0.1318 -0.3993 -0.5739
    6TMC3    C814190   1.430   0.717  11.342 -0.3335  0.3793  0.0654
    6TMC3    O114191   1.776   0.972  11.700 -0.0126 -0.2816  0.0535
    6TMC3    O214192   1.533   0.707  11.280  0.5754 -0.8267 -0.3160
    7MPD2     C14193   2.560   0.899  11.856 -0.6409 -0.1269 -0.1822
    7MPD2    C114194   2.499   1.020  11.835  0.9943 -0.2978  0.7634
    7MPD2    C214195   2.391   1.051  11.927 -0.9614 -0.3120  0.2406
    7MPD2    C314196   2.368   0.979  12.040  0.6086  0.6098  0.3064
    7MPD2    C414197   2.446   0.871  12.067 -0.2396 -0.0185 -0.5610
    7MPD2    C514198   2.535   0.829  11.970 -0.3589 -0.7494  0.5170
    7MPD2     H14199   2.318   1.131  11.917  0.1814  0.6399 -0.5748
    7MPD2    H114200   2.437   0.824  12.164  0.3432  3.3251  1.1251
    7MPD2    H214201   2.637   0.868  11.787  0.4834  0.0340  0.9886
    7MPD2    H314202   2.584   0.733  11.982  0.6193 -0.0340  2.1649
    7MPD2     N14203   2.270   1.009  12.137  0.8967 -0.2637  0.5702
    7MPD2    H514204   2.254   0.939  12.209  2.3443 -0.3482  0.8164
    7MPD2    N114205   2.530   1.101  11.721  0.0854 -0.2111 -0.3439
    7MPD2    H714206   2.614   1.067  11.676  1.2323 -0.2548  1.8460
    8TMC3    C114207   2.473   1.265  11.547  0.1043  0.2883 -1.3846
    8TMC3    C214208   2.459   1.167  11.453  0.0478 -0.0778 -0.1437
    8TMC3    C314209   2.337   1.173  11.385 -0.1469 -0.0768 -0.5316
    8TMC3    C414210   2.403   1.382  11.538  0.0791  0.6404  0.0771
    8TMC3    C514211   2.285   1.380  11.474 -0.1001  0.4258  0.4590
    8TMC3    C614212   2.247   1.275  11.394 -0.2627  0.9568 -0.2610
    8TMC3     C14213   2.458   1.216  11.690 -0.0328 -0.0083  0.2108
    8TMC3     O14214   2.387   1.294  11.757 -0.3850  0.0818  0.3556
    8TMC3     H14215   2.498   1.067  11.466 -1.7864 -0.6706  0.7734
    8TMC3    H114216   2.433   1.459  11.608 -0.0455  0.1959  0.6188
    8TMC3    H214217   2.146   1.261  11.359  0.2187  1.2762 -1.8022
    8TMC3    C714218   2.176   1.468  11.527 -0.5844  0.2047  0.3158
    8TMC3    C814219   2.289   1.033  11.369 -0.8351 -0.1229 -0.6883
    8TMC3    O114220   2.105   1.523  11.447 -0.5078  0.3579 -0.2406
    8TMC3    O214221   2.358   0.948  11.319  0.3709  0.3910 -0.0261
    9MPD2     C14222   2.171   0.764  11.405 -0.3407 -0.2736  0.0341
    9MPD2    C114223   2.121   0.881  11.457  0.1383 -0.2037 -0.3289
    9MPD2    C214224   2.010   0.874  11.537  0.0745  0.5038  0.1423
    9MPD2    C314225   1.952   0.758  11.576 -0.0275 -0.2489  0.1198
    9MPD2    C414226   2.008   0.640  11.530  0.1197 -0.3630  1.1537
    9MPD2    C514227   2.119   0.642  11.451 -0.2333  0.1113 -0.1513
    9MPD2     H14228   1.964   0.965  11.572 -0.9941  0.3577 -0.8894
    9MPD2    H114229   1.960   0.545  11.553  0.1535 -0.2632  1.6451
    9MPD2    H214230   2.245   0.764  11.325 -2.6788 -2.2094 -2.1032
    9MPD2    H314231   2.159   0.559  11.394 -0.2350  0.7232 -1.0538
    9MPD2     N14232   1.823   0.756  11.640 -0.3539 -0.3633 -0.0862
    9MPD2    H514233   1.789   0.661  11.648 -0.3564 -0.2497  1.2893
    9MPD2    N114234   2.179   1.010  11.442  0.8722 -0.3205 -0.8556
    9MPD2    H714235   2.130   1.090  11.480 -0.2448 -1.1486 -0.5241
    1MPD1     C14236   3.064   0.091  16.961 -0.1680 -0.3363  0.2470
    1MPD1    C114237   3.094   0.049  17.090  0.3888 -0.4826  0.0448
    1MPD1    C214238   3.019   4.666  17.139  0.5017 -0.5611 -0.0290
    1MPD1    C314239   2.919   4.605  17.065 -0.0026 -0.2457  0.4386
    1MPD1    C414240   2.902   4.637  16.933 -0.1958 -0.1147  0.4656
    1MPD1    C514241   2.974   0.022  16.888 -0.5750 -0.2329  0.7506
    1MPD1     H14242   3.041   4.643  17.243  0.5587  0.5989  0.2151
    1MPD1    H114243   2.838   4.576  16.870 -0.1132 -1.0530  1.2851
    1MPD1    H214244   3.116   0.177  16.920  1.8574 -1.7905 -0.2280
    1MPD1    H314245   2.967   0.049  16.784 -1.5147 -2.1890  0.2965
    1MPD1     N14246   2.845   4.494  17.116  0.1866  0.1311 -0.0047
    1MPD1    H514247   2.772   4.450  17.060  0.2501 -0.5814  0.4705
    1MPD1    N114248   3.186   0.120  17.169 -0.0138  0.0466  0.0753
    1MPD1    H614249   3.258   0.168  17.117 -1.0520  0.5180 -0.9416
    1MPD1    H714250   3.240   0.063  17.234  1.6766  0.9762 -0.5269
    2MPD1     C14251   2.614   3.798   0.227 -0.1958  0.1801  0.2184
    2MPD1    C114252   2.566   3.741   0.116  0.2620 -0.5248 -0.2681
    2MPD1    C214253   2.579   3.816  17.683  0.0208 -0.0815  0.6128
    2MPD1    C314254   2.623   3.946   0.003 -0.5294 -0.9506  0.1240
    2MPD1    C414255   2.674   3.999   0.121 -0.9494  0.0550 -0.0053
    2MPD1    C514256   2.672   3.921   0.230 -0.1237 -0.0692  0.5729
    2MPD1     H14257   2.547   3.779  17.586  0.3589 -1.0730  0.8814
    2MPD1    H114258   2.725   4.095   0.126  1.2951 -1.0740 -1.2682
    2MPD1    H214259   2.611   3.752   0.326  0.7113  2.4378  1.2815
    2MPD1    H314260   2.722   3.958   0.319  2.1454 -0.4336 -0.5457
    2MPD1     N14261   2.623   4.021  17.564  0.1066 -0.4652 -0.3947
    2MPD1    H514262   2.609   3.957  17.487  2.0516 -1.8670  0.4026
    2MPD1    N114263   2.503   3.614   0.121  0.1375  0.2536  0.1807
    2MPD1    H614264   2.527   3.562   0.037 -2.0390  0.8104 -0.7907
    2MPD1    H714265   2.524   3.557   0.203  1.2430 -1.7561 -1.4837
    3TCq2    C114266   2.664   4.147  17.550 -0.2636 -0.0097  0.1629
    3TCq2    O214267   2.676   4.231  17.634  0.1218 -0.2773  0.2743
    3TCq2    C214268   2.690   4.170  17.407  0.5907  0.3919  0.2792
    3TCq2    C314269   2.712   4.070  17.321  0.3827 -0.1888  0.4084
    3TCq2    C414270   2.758   4.101  17.196 -0.6630 -0.0128 -0.5221
    3TCq2    C514271   2.793   4.225  17.152 -0.5455 -1.0226  0.0122
    3TCq2    C614272   2.772   4.327  17.250 -0.4180 -0.3530  1.0641
    3TCq2    C714273   2.715   4.299  17.373  0.3124  0.3701 -0.0729
    3TCq2    C814274   2.856   4.446  17.246  0.1699 -0.0022 -0.7709
    3TCq2    O414275   2.887   4.507  17.349 -0.2513  0.7538  0.4562
    3TCq2    C914276   2.780   3.994  17.101 -0.3110 -0.0466 -0.5479
    3TCq2    O514277   2.799   4.017  16.982 -0.0855 -0.3603  0.1856
    3TCq2    O614278   2.764   3.879  17.146 -0.2397  0.2043  0.0696
    3TCq2    H214279   2.694   3.966  17.345 -1.5489  0.0207 -0.1184
    3TCq2    H314280   2.823   4.244  17.050  1.0566 -1.9402  0.2974
    3TCq2    H414281   2.713   4.378  17.447  2.7268 -1.0459  1.5145
    1TCq1    O114282   3.921   3.447  12.703 -0.6080  0.0018 -0.0376
    1TCq1    C114283   4.033   3.382  12.670 -0.5417 -0.2910  0.1586
    1TCq1    O214284   4.089   3.379  12.561  0.1798  0.1765  0.0375
    1TCq1    C214285   4.094   3.354  12.802  0.0498  0.3708 -0.1315
    1TCq1    C314286   4.012   3.301  12.897 -0.3375 -0.2858  0.4576
    1TCq1    C414287   4.070   3.232  13.003 -0.4850  0.0922 -0.1086
    1TCq1    C514288   4.207   3.221  13.015  0.0755 -0.2008 -0.2701
    1TCq1    C614289   4.286   3.275  12.915  0.4395 -0.7351  0.6003
    1TCq1    C714290   4.231   3.344  12.809  0.5508 -0.0505  0.2738
    1TCq1    C814291   4.428   3.281  12.928 -0.7150  0.3625  0.1656
    1TCq1    O414292   4.488   3.323  12.830 -0.0650 -0.0595 -0.8036
    1TCq1    C914293   3.981   3.152  13.089  0.3993  0.0868 -0.2254
    1TCq1    O514294   3.864   3.150  13.055  0.0535 -0.2067  0.2816
    1TCq1    O614295   4.029   3.122  13.202 -0.2209  0.2966  0.6069
    1TCq1    H114296   3.905   3.459  12.799 -1.6912  4.2846 -0.7691
    1TCq1    H214297   3.906   3.291  12.874 -0.3334  1.5356 -0.3296
    1TCq1    H314298   4.250   3.150  13.084  0.3534  3.3462  3.1804
    1TCq1    H414299   4.296   3.376  12.729  1.1194 -1.0807  0.3225
    2MPD2     C14300   4.712   3.279  13.026  0.1890  0.1570  0.2408
    2MPD2    C114301   4.604   3.260  13.105 -0.1194 -0.5409 -0.2569
    2MPD2    C214302   4.632   3.245  13.242 -0.4280  0.0720 -0.2705
    2MPD2    C314303   0.039   3.240  13.289 -0.1958  0.3004  0.1106
    2MPD2    C414304   0.152   3.251  13.205  0.4167  0.5946  0.2333
    2MPD2    C514305   0.124   3.272  13.072  0.2375 -0.0983 -0.3645
    2MPD2     H14306   4.549   3.254  13.311 -1.0553 -0.7883 -0.8964
    2MPD2    H114307   0.251   3.240  13.248  0.4917 -0.8331 -0.3008
    2MPD2    H214308   4.698   3.278  12.919 -1.8081  1.7012  0.4999
    2MPD2    H314309   0.207   3.281  13.003 -0.2975  0.5358 -0.9288
    2MPD2     N14310   0.055   3.230  13.428  0.3785 -0.4141 -0.5118
    2MPD2    H514311   4.691   3.245  13.483  0.4586  1.3128 -0.8794
    2MPD2    N114312   4.473   3.259  13.058 -0.6455  0.5059  0.2439
    2MPD2    H714313   4.399   3.242  13.124 -0.4268  0.3869  0.4570
    3TCq1    O114314   4.557   3.390  13.805 -0.5543 -0.0719  0.2895
    3TCq1    C114315   4.650   3.365  13.888  0.1520 -0.3467  0.3031
    3TCq1    O214316   4.635   3.369  14.007  0.1982  0.7183  0.4241
    3TCq1    C214317   0.028   3.273  13.823 -0.3429  1.2036 -0.2418
    3TCq1    C314318   0.088   3.185  13.903  0.1748 -0.4546  1.0142
    3TCq1    C414319   0.186   3.104  13.853  0.0111 -0.3964  0.4351
    3TCq1    C514320   0.226   3.122  13.719  0.2043 -0.2864 -0.1951
    3TCq1    C614321   0.157   3.209  13.644  0.0303  0.3781  0.2162
    3TCq1    C714322   0.059   3.288  13.692  0.1182 -1.2231 -0.3777
    3TCq1    C814323   0.166   3.187  13.500 -0.2187  0.3337  0.1814
    3TCq1    O414324   0.280   3.150  13.465  0.3669 -0.7425 -0.1397
    3TCq1    C914325   0.261   3.004  13.935  0.3856  0.8731 -0.4341
    3TCq1    O514326   0.265   3.019  14.060  0.5224 -0.7105 -0.2808
    3TCq1    O614327   0.332   2.919  13.871  0.2794 -0.2505  0.2161
    3TCq1    H114328   4.552   3.342  13.719  3.9103  0.6943 -0.4155
    3TCq1    H214329   0.059   3.163  14.005  1.9437  1.9009  2.0432
    3TCq1    H314330   0.312   3.072  13.674  0.8666 -0.7646  1.5966
    3TCq1    H414331   0.019   3.361  13.621 -3.9664 -2.3222  0.7648
    1MPD2     C14332   3.855   4.095  15.146 -0.6355  0.8803  0.1666
    1MPD2    C114333   3.866   3.993  15.051  0.1386 -0.1249 -0.8456
    1MPD2    C214334   3.946   3.891  15.092 -0.1276  0.3721 -0.4100
    1MPD2    C314335   4.016   3.890  15.207 -0.1523 -0.0067 -0.0090
    1MPD2    C414336   4.011   4.000  15.295  0.2278 -0.0636  0.3647
    1MPD2    C514337   3.927   4.103  15.262 -0.0737  1.3186 -0.0637
    1MPD2     H14338   3.972   3.807  15.029 -0.0964  1.1498 -1.4439
    1MPD2    H114339   4.066   4.011  15.388 -2.6142  3.3390  1.6600
    1MPD2    H214340   3.786   4.176  15.123 -2.3538 -0.8665 -0.8411
    1MPD2    H314341   3.917   4.183  15.334 -1.4227  0.3947  0.7734
    1MPD2     N14342   4.109   3.788  15.226  0.0317  0.3745 -0.1798
    1MPD2    H514343   4.116   3.719  15.152  0.0967  0.1991 -0.0080
    1MPD2    N114344   3.801   3.997  14.920  0.3896  0.4184 -0.1058
    1MPD2    H714345   3.733   4.070  14.904 -1.9161 -1.3403  1.5845
    2TMC3    C114346   3.753   3.933  14.694 -0.5921  0.1494  0.3533
    2TMC3    C214347   3.838   3.886  14.596 -0.2106  0.4639 -0.1912
    2TMC3    C314348   3.798   3.795  14.504 -0.4584 -0.2415 -0.0586
    2TMC3    C414349   3.617   3.903  14.682 -0.3862 -0.5530  0.5049
    2TMC3    C514350   3.582   3.813  14.587  0.2645 -1.0465  0.5565
    2TMC3    C614351   3.670   3.747  14.506  0.5452  0.1188 -0.0370
    2TMC3     C14352   3.816   3.898  14.823  0.0367 -0.3366 -0.7547
    2TMC3     O14353   3.898   3.805  14.820  0.0069  0.6167 -1.3424
    2TMC3     H14354   3.940   3.922  14.601 -0.1371  0.3069 -0.5924
    2TMC3    H114355   3.546   3.933  14.757 -0.7126 -0.3514  0.1163
    2TMC3    H214356   3.631   3.670  14.441  0.2556  0.5316 -0.3506
    2TMC3    C714357   3.445   3.807  14.540 -0.1381  0.0134  0.2754
    2TMC3    C814358   3.886   3.682  14.474  0.0885 -0.5465  0.1152
    2TMC3    O114359   3.405   3.727  14.459 -0.1377  0.1986 -0.5427
    2TMC3    O214360   3.873   3.617  14.375  0.6883 -0.5047 -0.2351
    3TCq1    O114361   2.831   0.069  14.908 -0.1240 -0.2096  0.4107
    3TCq1    C114362   2.837   0.058  14.775  0.3633  0.3040  0.4615
    3TCq1    O214363   2.743   0.059  14.697 -0.4448 -0.3639 -0.4498
    3TCq1    C214364   2.948   4.696  14.752 -0.4550  0.2754  0.0655
    3TCq1    C314365   3.075   0.013  14.798 -0.0771 -0.1164  0.8152
    3TCq1    C414366   3.182   4.655  14.760  0.2118 -0.3034  0.6435
    3TCq1    C514367   3.165   4.551  14.673 -0.2593  0.2822 -0.6277
    3TCq1    C614368   3.037   4.521  14.620  0.0529 -0.6304  0.0085
    3TCq1    C714369   2.933   4.596  14.659  0.0890 -0.4760  0.8971
    3TCq1    C814370   3.010   4.404  14.536  0.3543  0.1752 -0.2562
    3TCq1    O414371   2.912   4.405  14.464  0.2380 -0.0520  0.1020
    3TCq1    C914372   3.318   4.709  14.800  0.3028  0.6556  0.1608
    3TCq1    O514373   3.414   4.636  14.774 -0.1001 -0.0491 -0.2811
    3TCq1    O614374   3.315   0.079  14.886 -0.8741  0.5668 -0.4105
    3TCq1    H114375   2.906   0.042  14.965 -0.2714  0.1625  0.7753
    3TCq1    H214376   3.091   0.107  14.850  1.7257 -0.4365  0.8295
    3TCq1    H314377   3.253   4.505  14.629  1.1276 -0.5465  3.0862
    3TCq1    H414378   2.834   4.570  14.622 -0.1271  0.9278  0.4445
    4MPD2     C14379   3.045   4.114  14.418 -0.0580 -0.8523  0.4854
    4MPD2    C114380   3.122   4.174  14.515 -0.1432 -1.0771 -0.6928
    4MPD2    C214381   3.238   4.109  14.561  0.2605  0.3332  0.3628
    4MPD2    C314382   3.270   3.982  14.511 -0.8652  1.1820 -0.4684
    4MPD2    C414383   3.190   3.924  14.413 -0.0784  0.1509  0.1848
    4MPD2    C514384   3.072   3.990  14.368  0.4654 -0.0311 -0.1041
    4MPD2     H14385   3.312   4.167  14.615  0.2415  1.1848 -0.5224
    4MPD2    H114386   3.201   3.820  14.386  0.1914 -0.0246  0.9629
    4MPD2    H214387   2.973   4.178  14.369  0.3842 -1.8131 -1.3972
    4MPD2    H314388   3.010   3.947  14.290 -1.2075  0.5922  0.9091
    4MPD2     N14389   3.387   3.925  14.571 -0.1923 -0.4969  0.7173
    4MPD2    H514390   3.439   3.976  14.642  0.1019  1.5741 -0.9886
    4MPD2    N114391   3.114   4.308  14.560  0.3807  0.6644 -0.4684
    4MPD2    H714392   3.178   4.342  14.631  0.1270  0.3727 -0.1044
    5TMC2    C114393   4.299   3.488  15.137  0.5960  1.0847  0.0600
    5TMC2    C214394   4.429   3.523  15.126 -1.2605 -0.5856  0.1259
    5TMC2    C314395   4.483   3.619  15.201  0.8600  0.4952 -0.0333
    5TMC2    C414396   4.222   3.550  15.234 -0.1031 -0.7276 -0.4807
    5TMC2    C514397   4.280   3.648  15.310  0.3279  0.0541 -0.1191
    5TMC2    C614398   4.409   3.681  15.293  0.1344  0.2157 -0.5168
    5TMC2     C14399   4.223   3.505  15.012  0.5024  0.1654 -0.4184
    5TMC2     O14400   4.127   3.580  15.022  0.3791 -0.3310  0.4004
    5TMC2     H14401   4.497   3.476  15.056 -1.7471 -0.6132 -0.3265
    5TMC2    H114402   4.116   3.526  15.244 -0.3806 -0.1811 -2.1496
    5TMC2    H214403   4.462   3.762  15.342  0.2093 -0.0273 -0.2016
    5TMC2    C714404   4.195   3.762  15.331  0.2940  0.5118 -0.5323
    5TMC2    C814405   4.621   3.608  15.208 -0.3148  0.5502  0.0768
    5TMC2    O114406   4.217   3.843  15.424  0.1021  0.4249 -0.5159
    5TMC2    O214407   4.682   3.505  15.194  0.4285  0.0802 -0.0444
    5TMC2    O514408   4.667   3.736  15.223  0.6477  0.0523  0.3023
    5TMC2    H514409   4.597   3.805  15.215 -0.0445 -0.5720  1.0315
    6MPD2     C14410   4.118   3.497  14.491  0.4197  0.7603  0.3574
    6MPD2    C114411   4.062   3.564  14.604 -0.2005  0.0930  0.2692
    6MPD2    C214412   4.110   3.549  14.730 -0.2383  0.3608  0.1807
    6MPD2    C314413   4.214   3.458  14.761  0.3251  0.9601 -0.4093
    6MPD2    C414414   4.278   3.408  14.651 -0.0376  0.4988 -0.5094
    6MPD2    C514415   4.232   3.429  14.518 -0.4193 -0.2687 -0.3833
    6MPD2     H14416   4.069   3.609  14.811  0.7802 -1.2485  1.8940
    6MPD2    H114417   4.366   3.347  14.664  1.6521  3.0391 -0.0877
    6MPD2    H214418   4.081   3.490  14.389 -1.1333 -0.7443  1.0100
    6MPD2    H314419   4.270   3.367  14.438 -1.3215  2.3615 -2.8617
    6MPD2     N14420   4.270   3.443  14.895  0.2349  0.7773  0.3648
    6MPD2    H514421   4.360   3.395  14.898  1.0622  2.2461 -1.2683
    6MPD2    N114422   3.957   3.653  14.587 -0.0351 -0.0748  0.1816
    6MPD2    H714423   3.940   3.707  14.671  0.7461  1.3213 -0.5566
  945NH4     N114424   3.469   3.766   8.375 -0.5654  0.3717  0.6244
  945NH4     H214425   3.544   3.740   8.443 -0.3602  0.8587  0.5828
  945NH4     H314426   3.417   3.850   8.406 -1.3654  0.0104  0.2662
  945NH4     H414427   3.392   3.697   8.379  0.9585 -1.2937  1.4690
  945NH4     H514428   3.505   3.783   8.279 -0.0396  0.6787  0.8726
  946SOD     NA14429   4.036   4.214   7.688  0.0669 -0.5265 -0.0592
  947SOD     NA14430   1.851   2.574  15.180 -0.1728 -0.0713 -0.8911
  948SOD     NA14431   3.425   4.019  11.513  0.1422  0.1554  0.4023
  949SOD     NA14432   3.207   0.934   1.617 -0.2089  0.4885  0.0106
  950SOD     NA14433   3.690   2.684  10.187  0.1471  0.0260 -0.1635
  951SOD     NA14434   3.668   2.073  10.193  0.4239 -0.3112 -0.0801
  952SOD     NA14435   0.080   3.589  11.495 -0.5947 -0.2361  0.0865
  953SOD     NA14436   0.177   3.535  11.853 -0.0035 -1.0390 -0.5921
  954SOD     NA14437   3.717   3.235  13.203  0.3352 -0.4627  0.1937
  955SOD     NA14438   3.475   2.348   2.314 -0.2260  0.3512 -0.2971
  956SOD     NA14439   2.128   2.450  14.274 -0.1036 -0.2617  0.0751
  957SOD     NA14440   4.175   2.273   3.865  0.0936 -1.0258 -0.2110
  958SOD     NA14441   3.953   1.036  16.315 -0.0807 -0.4530 -0.0192
  959SOD     NA14442   4.130   4.211   2.149  0.0547 -0.4218 -0.4151
  960SOD     NA14443   1.247   3.086  13.595  0.1186 -0.0163  0.3392
  961SOD     NA14444   0.478   3.034  12.971 -0.2974  0.0308  0.0095
  962SOD     NA14445   2.308   3.028   9.916  0.3179 -0.3815 -0.3032
  963SOD     NA14446   2.586   2.731  17.126 -0.4081  0.0750 -0.1973
  964SOD     NA14447   3.284   3.254  12.780  0.3080 -0.3966 -0.1559
  965SOD     NA14448   0.518   3.039  11.320  0.2630 -0.4018 -0.1956
  966SOD     NA14449   4.411   2.466  10.628 -0.3816  0.5497  0.4613
  967SOD     NA14450   2.650   3.540   1.814 -1.0307  0.4000 -0.2193
  968SOD     NA14451   4.451   3.423  11.394  0.3378  0.0423  0.5347
  969SOD     NA14452   3.202   3.699  13.738  0.0310 -0.1410  0.2079
  970SOD     NA14453   3.562   2.827  10.487 -0.2262  0.1337  0.1282
  971SOD     NA14454   1.880   4.009  15.377  0.6489  0.4468  0.1008
  972SOD     NA14455   0.124   4.203  15.287  0.1120 -0.1234 -0.7078
  973SOD     NA14456   2.220   0.662   9.429 -0.6374 -0.3376 -0.0568
  974SOD     NA14457   2.987   2.699   2.686 -0.0008 -0.1512 -0.3683
  975SOD     NA14458   0.279   0.166  11.648  0.4084 -0.3646  0.1330
  976SOD     NA14459   3.759   2.990  12.950 -0.6502 -0.7182 -0.0990
  977SOD     NA14460   3.108   3.889  11.559 -0.2273  0.0788  0.8358
  978SOD     NA14461   0.125   1.812   2.831 -0.5900 -0.2369 -0.2012
  979SOD     NA14462   1.746   2.167   0.903 -0.0371 -0.4286 -0.6875
  980SOD     NA14463   0.683   2.736  11.797  0.1695  0.2812  0.1544
  981SOD     NA14464   1.345   1.585   2.634  0.0606 -0.8274 -0.1023
  982SOD     NA14465   3.550   2.367  10.253 -0.3346 -0.3332 -0.1195
  983SOD     NA14466   0.827   1.539  17.045  0.6280 -0.8624  0.0213
  984SOD     NA14467   2.672   3.865  16.868  0.0130 -0.0109  0.0191
  985SOD     NA14468   0.032   0.134  11.024  0.2399  0.1928 -0.4866
  986SOD     NA14469   2.388   4.565   0.084 -0.5583 -0.3102 -0.7831
  987SOD     NA14470   4.532   4.482  15.021 -0.1399  0.5556  0.3888
  988SOD     NA14471   0.969   1.920  16.924  0.0327  0.1940  0.1760
  989SOD     NA14472   4.318   0.831  11.691  0.0098 -0.0651 -0.6695
  990SOD     NA14473   2.390   3.244   7.285  0.2184 -0.1478 -0.0474
  991SOD     NA14474   3.554   0.036  14.888  0.1664  0.4738  0.0468
  992SOD     NA14475   3.289   2.440  15.115 -0.1519  0.0383 -0.3200
  993SOD     NA14476   4.238   2.346   2.086  0.0077  0.2837 -0.0035
  994SOD     NA14477   2.506   1.818  11.719 -0.3806  0.2507  0.0729
  995SOD     NA14478   1.119   0.228   4.112  0.3265 -0.1801  0.1265
  996SOD     NA14479   3.886   2.235  12.746 -0.5274  0.4779  0.0276
  997SOD     NA14480   3.743   3.275   9.955  0.2687  0.7496 -0.6518
  998SOD     NA14481   3.512   0.567   8.333 -0.3138 -0.4348 -0.1919
  999SOD     NA14482   0.264   2.642   3.506  0.4402  0.1576 -0.0156
 1000SOD     NA14483   0.139   3.805  11.730 -0.0841 -0.0488  0.1720
 1001SOD     NA14484   0.840   0.237  13.805 -0.1913  0.2601 -0.0625
 1002SOD     NA14485   1.188   2.631   0.367  0.2388 -0.0779 -0.5928
 1003SOD     NA14486   3.705   3.135  10.562 -0.5907 -0.5151 -0.5318
 1004SOD     NA14487   4.327   3.976  15.606 -0.3965 -0.1932  0.0816
 1005SOD     NA14488   4.652   3.412  14.242  0.3732 -0.1995 -0.2810
 1006SOD     NA14489   1.811   4.097  14.854  0.1945  0.4050  0.2658
 1007SOD     NA14490   4.365   2.804  10.440  0.6019  0.1920 -0.7136
 1008SOD     NA14491   3.344   2.613   2.272  0.2346  0.0653 -0.2255
 1009SOD     NA14492   1.031   4.586  11.252 -0.6566  0.0807  0.2347
 1010SOD     NA14493   4.167   4.269   0.620  0.4223  0.4056  0.1545
 1011SOL     OW14494   4.067   3.759   4.289 -0.5577  0.0511  0.1360
 1011SOL    HW114495   4.013   3.803   4.355 -2.9611 -2.7055  0.0164
 1011SOL    HW214496   4.017   3.678   4.290  1.1012 -0.9611  0.5532
 1012SOL     OW14497   1.056   4.156   6.501  0.1752 -0.5209  0.6835
 1012SOL    HW114498   1.103   4.111   6.430 -0.8950 -0.5105 -0.0276
 1012SOL    HW214499   0.972   4.173   6.457  0.5307  1.8907  0.9405
 1013SOL     OW14500   3.356   4.626   8.027  0.6373  0.3530  0.2295
 1013SOL    HW114501   3.274   4.597   7.987  1.7952  0.1733 -1.9987
 1013SOL    HW214502   3.312   4.662   8.104 -1.8337  0.6822 -1.3262
 1014SOL     OW14503   3.102   0.130   5.463  0.0053 -0.0720 -0.1069
 1014SOL    HW114504   3.076   0.219   5.440  0.6328  0.0838 -0.1907
 1014SOL    HW214505   3.020   0.082   5.447 -0.0607  0.1453 -0.4076
 1015SOL     OW14506   4.006   4.033   5.536  0.4793 -0.0578  0.1377
 1015SOL    HW114507   3.921   4.077   5.532 -0.4766 -1.8032  1.7910
 1015SOL    HW214508   4.062   4.110   5.522  1.6051 -1.0156 -0.5746
 1016SOL     OW14509   2.982   2.070  14.120  0.0528 -0.1241 -0.1610
 1016SOL    HW114510   2.906   2.126  14.139 -0.7159 -1.5673  0.9862
 1016SOL    HW214511   2.949   1.986  14.149  0.9019 -0.7905 -1.1260
 1017SOL     OW14512   3.859   0.300   3.204  0.3910  0.1083 -0.4547
 1017SOL    HW114513   3.832   0.390   3.222 -0.8902  0.2662 -3.1309
 1017SOL    HW214514   3.824   0.258   3.283  1.7035 -0.5267 -0.2120
 1018SOL     OW14515   3.510   4.079  15.120 -0.6129 -0.3807  0.0427
 1018SOL    HW114516   3.565   4.005  15.095 -0.1601 -0.2537  0.6618
 1018SOL    HW214517   3.441   4.034  15.168 -0.4996 -0.7089 -0.1085
 1019SOL     OW14518   4.366   3.807   7.931  0.2970 -0.9528 -0.0653
 1019SOL    HW114519   4.433   3.740   7.944  1.2176 -0.2533 -1.2193
 1019SOL    HW214520   4.347   3.800   7.837 -2.4453 -2.1854  0.5828
 1020SOL     OW14521   2.348   1.425   5.421  0.1236 -0.2230 -0.2570
 1020SOL    HW114522   2.328   1.351   5.363  0.4875 -1.4287  1.1378
 1020SOL    HW214523   2.426   1.457   5.376  1.2978 -3.4210 -0.5145
 1021SOL     OW14524   0.990   3.863   7.209 -0.1727  0.6270 -0.4784
 1021SOL    HW114525   0.962   3.928   7.144 -1.0419  1.1918  0.4647
 1021SOL    HW214526   1.018   3.799   7.144 -2.3996  0.9746 -1.7988
 1022SOL     OW14527   2.936   2.233   1.274  0.4135  0.8646  0.1175
 1022SOL    HW114528   3.007   2.180   1.310 -0.3000  1.1264  1.9283
 1022SOL    HW214529   2.977   2.267   1.195 -1.5040  1.3760 -0.6738
 1023SOL     OW14530   1.658   2.801   6.157  0.0974  0.5188 -0.2836
 1023SOL    HW114531   1.671   2.869   6.223  1.3870 -0.4137  0.4248
 1023SOL    HW214532   1.594   2.838   6.096 -0.3145  1.3896  0.6761
 1024SOL     OW14533   2.362   4.615   1.527  0.2081  0.3729 -0.7964
 1024SOL    HW114534   2.433   4.586   1.583 -1.8190 -0.5729  1.3100
 1024SOL    HW214535   2.331   4.688   1.583 -0.0106  0.7407 -1.3956
 1025SOL     OW14536   0.358   3.025   9.014  0.2088 -0.3559  0.7798
 1025SOL    HW114537   0.288   2.991   8.958  1.3021  0.3217 -1.0142
 1025SOL    HW214538   0.359   3.118   8.993 -1.5461 -0.7569 -1.1013
 1026SOL     OW14539   4.253   2.193   1.916 -0.3254  0.5010 -0.1516
 1026SOL    HW114540   4.190   2.145   1.863 -2.3259  1.8543  0.9979
 1026SOL    HW214541   4.313   2.207   1.843 -0.4142 -0.8912 -0.4837
 1027SOL     OW14542   4.136   0.281   9.300 -0.5173  0.4816  0.0489
 1027SOL    HW114543   4.181   0.254   9.380 -0.8445  1.3302  0.5261
 1027SOL    HW214544   4.045   0.295   9.327  0.0894  1.5198  1.5927
 1028SOL     OW14545   2.644   1.523  17.310 -0.4149  0.2361  0.5280
 1028SOL    HW114546   2.633   1.448  17.368  1.4068  0.3026  0.9538
 1028SOL    HW214547   2.714   1.568  17.359  1.5589 -1.4176 -0.7572
 1029SOL     OW14548   3.402   1.557  16.667 -0.4950  0.4053  0.2847
 1029SOL    HW114549   3.405   1.648  16.638  0.9188  0.4636  0.6049
 1029SOL    HW214550   3.412   1.570  16.761 -0.0711  1.1957  0.1295
 1030SOL     OW14551   1.509   3.992  10.743  0.1346 -0.1757  0.0514
 1030SOL    HW114552   1.431   3.966  10.695  0.2633 -1.9803  0.8044
 1030SOL    HW214553   1.483   4.070  10.792 -0.4743 -0.3051 -0.0714
 1031SOL     OW14554   4.292   1.993   6.329  0.1047  0.2343 -0.1688
 1031SOL    HW114555   4.244   2.051   6.388 -1.6401 -1.3513 -0.0159
 1031SOL    HW214556   4.369   1.978   6.383 -0.2346  3.4090  1.1956
 1032SOL     OW14557   2.484   2.521   4.535 -0.0651  0.3986  0.4039
 1032SOL    HW114558   2.553   2.515   4.601  2.8566 -1.7188 -2.8610
 1032SOL    HW214559   2.416   2.472   4.581 -1.3408  1.1763 -0.6615
 1033SOL     OW14560   3.646   4.583   0.738 -0.4361  0.1991 -0.0497
 1033SOL    HW114561   3.619   4.612   0.651 -3.0595  0.3229  0.8096
 1033SOL    HW214562   3.577   4.522   0.762 -0.2091  0.0769  0.2907
 1034SOL     OW14563   4.094   1.889   0.256 -0.3261  0.1067  0.2283
 1034SOL    HW114564   4.020   1.919   0.204 -1.9478 -0.1135  2.4279
 1034SOL    HW214565   4.168   1.908   0.197 -0.4783 -1.1086 -0.3733
 1035SOL     OW14566   2.519   1.321  13.984 -0.2041 -0.0438  0.7043
 1035SOL    HW114567   2.592   1.260  13.995  0.4169  0.7833  1.1555
 1035SOL    HW214568   2.575   1.394  13.959 -0.7056  0.3645  0.7786
 1036SOL     OW14569   1.473   4.141  16.687 -0.1432  0.5413 -0.2376
 1036SOL    HW114570   1.434   4.228  16.679  0.4926  0.6969 -1.6234
 1036SOL    HW214571   1.459   4.110  16.598 -1.7975 -1.5419  0.7713
 1037SOL     OW14572   2.070   0.837   7.632 -0.3707  0.5604 -0.0338
 1037SOL    HW114573   2.102   0.781   7.702 -0.4195 -0.5340 -0.8681
 1037SOL    HW214574   1.981   0.869   7.650 -1.2742 -1.5083 -0.7139
 1038SOL     OW14575   0.824   2.939   9.663  0.3081  0.2422 -0.2494
 1038SOL    HW114576   0.860   2.968   9.578 -1.1602  0.0809 -0.9244
 1038SOL    HW214577   0.756   2.874   9.647  1.1146 -0.3243 -1.4384
 1039SOL     OW14578   2.978   2.042   6.172 -0.1568 -0.7194  0.0074
 1039SOL    HW114579   2.942   2.069   6.088 -0.0195 -0.0331  0.1693
 1039SOL    HW214580   3.019   2.123   6.203 -1.6539 -0.8362  2.3060
 1040SOL     OW14581   0.389   3.828   2.443  0.2154 -0.6478  0.2573
 1040SOL    HW114582   0.313   3.826   2.384  0.0753 -0.0236  0.4162
 1040SOL    HW214583   0.450   3.886   2.398 -0.2460 -0.8593 -0.6475
 1041SOL     OW14584   4.288   4.216   0.057  0.1409 -0.0922 -0.1457
 1041SOL    HW114585   4.211   4.191   0.108  0.5681  2.6638  1.8801
 1041SOL    HW214586   4.311   4.302   0.091 -1.1926 -0.7368  2.4219
 1042SOL     OW14587   1.685   1.448   7.557 -0.1329  0.3805 -0.4476
 1042SOL    HW114588   1.717   1.370   7.603 -1.7189  0.1035  0.2013
 1042SOL    HW214589   1.602   1.411   7.525  1.6533 -2.2363 -2.0307
 1043SOL     OW14590   1.052   2.655   3.551 -0.0648  0.3626 -0.5060
 1043SOL    HW114591   1.011   2.735   3.582 -0.8631 -0.6092  0.9206
 1043SOL    HW214592   1.062   2.610   3.635 -1.6364  1.4357  0.2517
 1044SOL     OW14593   3.515   0.413   8.613 -0.3596  0.6533 -0.0806
 1044SOL    HW114594   3.469   0.397   8.695 -2.7789  0.6855 -1.4397
 1044SOL    HW214595   3.459   0.361   8.556  0.4057 -1.2763  0.9525
 1045SOL     OW14596   1.460   1.250  17.293  0.3162  0.0354 -0.2358
 1045SOL    HW114597   1.475   1.159  17.315  0.6571 -0.7036 -3.5020
 1045SOL    HW214598   1.370   1.230  17.265 -0.4334  2.0110  0.7212
 1046SOL     OW14599   3.332   4.670   6.671 -0.5566 -0.1703 -0.4300
 1046SOL    HW114600   3.427   4.676   6.662 -0.3686 -0.4994  1.2696
 1046SOL    HW214601   3.326   4.711   6.757 -0.9749 -0.3289 -0.3815
 1047SOL     OW14602   3.499   3.715   9.497 -0.1670 -0.0708 -0.3458
 1047SOL    HW114603   3.534   3.784   9.552 -0.3932 -0.0106 -0.2779
 1047SOL    HW214604   3.501   3.636   9.551 -2.0268  0.6475  0.7865
 1048SOL     OW14605   0.473   2.599   2.878 -0.0450 -0.2226 -0.2026
 1048SOL    HW114606   0.556   2.634   2.845 -0.1453 -0.2042 -0.4381
 1048SOL    HW214607   0.423   2.680   2.892 -1.6788 -0.7770 -2.8772
 1049SOL     OW14608   3.715   3.504   6.259 -0.4139 -0.5087 -0.0188
 1049SOL    HW114609   3.623   3.489   6.279 -0.7420  0.7861 -0.5066
 1049SOL    HW214610   3.749   3.516   6.347  1.4595 -2.0584 -0.5490
 1050SOL     OW14611   3.374   2.214   9.681 -0.0445  0.9488 -0.2090
 1050SOL    HW114612   3.377   2.151   9.754 -0.3787 -0.3073 -1.2840
 1050SOL    HW214613   3.322   2.170   9.614 -0.1889 -1.7811  1.6985
 1051SOL     OW14614   1.195   1.758   2.589 -0.3447  0.0016  0.4867
 1051SOL    HW114615   1.133   1.747   2.517  0.7603  1.2354 -0.6445
 1051SOL    HW214616   1.228   1.846   2.576 -0.1272 -0.1656 -0.0914
 1052SOL     OW14617   1.441   0.737   4.002  0.0154  0.3539 -0.3498
 1052SOL    HW114618   1.395   0.819   3.984 -1.1948  0.2294  2.1448
 1052SOL    HW214619   1.516   0.765   4.053  0.3504  0.3362 -0.8307
 1053SOL     OW14620   2.882   3.911   6.160 -0.1146 -0.4946 -0.3769
 1053SOL    HW114621   2.814   3.976   6.178 -0.3846 -0.6123 -0.9701
 1053SOL    HW214622   2.836   3.831   6.185 -0.1637 -0.0757  0.8560
 1054SOL     OW14623   4.016   3.321   0.247 -0.3108 -0.1292 -0.1283
 1054SOL    HW114624   4.084   3.347   0.185 -0.3614 -1.9623 -0.9762
 1054SOL    HW214625   4.024   3.228   0.225  0.1330 -0.0070 -0.4808
 1055SOL     OW14626   3.560   0.913   7.544 -0.3617  0.1640 -0.5794
 1055SOL    HW114627   3.478   0.864   7.548  0.0177 -0.4022  0.3514
 1055SOL    HW214628   3.537   0.995   7.587 -0.4765 -0.2437  0.1469
 1056SOL     OW14629   2.579   4.117   6.099 -0.3106 -0.0740 -0.3788
 1056SOL    HW114630   2.504   4.173   6.081 -0.7089 -0.7157 -0.7160
 1056SOL    HW214631   2.594   4.123   6.193  1.2375 -0.7162 -0.5935
 1057SOL     OW14632   4.650   1.755   8.142 -0.1367  0.4080 -0.2901
 1057SOL    HW114633   4.693   1.736   8.226 -0.8531  4.0924  0.9363
 1057SOL    HW214634   4.559   1.739   8.164  0.3754 -0.0289  1.5676
 1058SOL     OW14635   1.728   0.007   3.784  0.0419 -0.0410  0.9743
 1058SOL    HW114636   1.814   4.686   3.795  0.4008  0.5102  0.2108
 1058SOL    HW214637   1.746   0.100   3.776  0.5498  0.0302  3.0830
 1059SOL     OW14638   0.212   2.119  15.505 -0.0984  0.3247  0.4725
 1059SOL    HW114639   0.157   2.196  15.523 -0.1978  0.1938  0.7358
 1059SOL    HW214640   0.156   2.070  15.445 -0.4511  0.5350  0.6268
 1060SOL     OW14641   0.128   0.640   6.767  0.0402  0.7934 -0.3924
 1060SOL    HW114642   0.211   0.592   6.772 -1.3159 -1.3699  1.2914
 1060SOL    HW214643   0.075   0.609   6.841  3.2029  0.2357  1.6265
 1061SOL     OW14644   3.798   2.029   6.290  0.3462 -0.0527  0.0864
 1061SOL    HW114645   3.796   1.944   6.246  1.8756 -0.0613  0.0229
 1061SOL    HW214646   3.743   2.083   6.233 -0.9584 -0.3589  1.0497
 1062SOL     OW14647   3.988   2.689   6.010 -0.5341  0.0173 -0.7537
 1062SOL    HW114648   3.922   2.636   5.965 -0.6779 -0.1496 -0.3448
 1062SOL    HW214649   4.045   2.701   5.934 -1.5167 -2.5198 -1.8960
 1063SOL     OW14650   1.073   0.884  11.687 -0.9184  0.0770 -0.0128
 1063SOL    HW114651   1.006   0.921  11.744 -1.1359  0.0490 -0.2505
 1063SOL    HW214652   1.147   0.873  11.746  0.4199  2.1420 -1.3047
 1064SOL     OW14653   2.691   3.737   7.218 -0.4377 -0.2013  0.1595
 1064SOL    HW114654   2.744   3.670   7.174  0.6029 -0.7945  2.3155
 1064SOL    HW214655   2.706   3.724   7.312 -2.2587 -1.1508  0.3273
 1065SOL     OW14656   1.199   1.551   0.250 -0.3187  0.0464 -0.1446
 1065SOL    HW114657   1.172   1.524   0.163 -0.3752  2.1074 -0.7790
 1065SOL    HW214658   1.286   1.512   0.259 -0.7215 -0.5421  1.1935
 1066SOL     OW14659   2.438   4.549  17.118 -0.4456 -0.1353 -0.7978
 1066SOL    HW114660   2.415   4.462  17.150  1.6230 -0.4057 -0.0048
 1066SOL    HW214661   2.443   4.537  17.023 -0.1219  1.6112 -1.0134
 1067SOL     OW14662   0.542   2.631   7.091 -0.3343  0.5638 -0.3383
 1067SOL    HW114663   0.446   2.632   7.091 -0.3506 -1.5134  0.1709
 1067SOL    HW214664   0.554   2.650   6.998  1.7579 -1.2029 -0.4207
 1068SOL     OW14665   2.978   1.842   4.954 -0.2592  0.1311  0.3499
 1068SOL    HW114666   2.889   1.853   4.989 -0.1454 -0.6425  0.8739
 1068SOL    HW214667   2.955   1.811   4.867  0.2101  2.9700 -0.7991
 1069SOL     OW14668   0.721   2.065   3.528 -0.3369 -1.4948 -0.3254
 1069SOL    HW114669   0.815   2.081   3.515 -1.0127  1.8181 -1.0742
 1069SOL    HW214670   0.719   1.998   3.460  1.4974 -0.7020 -1.1798
 1070SOL     OW14671   0.582   3.749   1.129 -0.8817 -0.7132  0.5588
 1070SOL    HW114672   0.642   3.816   1.163 -1.2374 -0.1484  0.0840
 1070SOL    HW214673   0.655   3.689   1.118 -0.3092  0.0825 -0.0590
 1071SOL     OW14674   1.253   4.206   8.269  0.4904 -0.0100 -0.3914
 1071SOL    HW114675   1.314   4.274   8.242  2.6704 -1.8972 -0.2426
 1071SOL    HW214676   1.182   4.265   8.293 -0.5508 -0.9052 -1.2644
 1072SOL     OW14677   1.324   4.622   5.267 -0.7809  0.4498 -0.7183
 1072SOL    HW114678   1.281   4.622   5.182 -0.3897  3.0436 -0.9267
 1072SOL    HW214679   1.277   4.549   5.308 -0.3500  0.0862 -0.8733
 1073SOL     OW14680   2.271   4.630   8.939  0.0213  0.5288 -0.4886
 1073SOL    HW114681   2.326   4.560   8.904 -0.2078 -0.1350  0.4611
 1073SOL    HW214682   2.224   4.660   8.861  0.9259  0.9083 -0.8779
 1074SOL     OW14683   1.028   0.050   8.229 -0.4548  0.0313  0.1967
 1074SOL    HW114684   0.985   0.133   8.250 -0.1790  0.6949 -1.8859
 1074SOL    HW214685   1.024   0.054   8.134 -0.7655 -0.8620  0.1775
 1075SOL     OW14686   3.770   4.547   4.948  0.0448  0.2156  0.2059
 1075SOL    HW114687   3.698   4.488   4.971 -0.6963  0.7774 -0.6746
 1075SOL    HW214688   3.776   4.591   5.032  2.0883 -2.9825  1.7312
 1076SOL     OW14689   0.133   4.466   8.552 -0.0213 -0.1158 -0.4104
 1076SOL    HW114690   0.147   4.549   8.506 -0.8153  0.5707  0.5607
 1076SOL    HW214691   0.221   4.430   8.543 -0.4587 -1.5560  1.0804
 1077SOL     OW14692   2.888   2.851  10.624 -0.1002  0.3876 -0.1955
 1077SOL    HW114693   2.924   2.834  10.537  0.3268 -0.8283  0.2168
 1077SOL    HW214694   2.796   2.829  10.610 -0.2854  0.6872  0.5912
 1078SOL     OW14695   1.078   2.806   6.644  0.4087  0.2324  0.1221
 1078SOL    HW114696   1.037   2.890   6.622 -2.2734 -0.3065  2.9813
 1078SOL    HW214697   1.165   2.842   6.661  0.4397  0.5608 -0.7762
 1079SOL     OW14698   3.841   3.684   9.230  0.3815  0.1367 -0.5754
 1079SOL    HW114699   3.913   3.663   9.170  1.7215  1.5793  0.5171
 1079SOL    HW214700   3.775   3.618   9.209  2.6790 -2.6239  0.8219
 1080SOL     OW14701   1.919   0.749   6.449 -0.4121 -0.2584  0.4308
 1080SOL    HW114702   1.965   0.749   6.533 -0.3301 -3.3877  0.3693
 1080SOL    HW214703   1.985   0.784   6.389 -0.7203 -1.8621 -0.8487
 1081SOL     OW14704   2.617   4.281   3.115 -0.5792 -0.0324  0.3776
 1081SOL    HW114705   2.631   4.224   3.039  1.2196  0.2316  0.5192
 1081SOL    HW214706   2.582   4.363   3.078  1.9130  0.3235 -1.2377
 1082SOL     OW14707   2.794   3.322  15.700 -0.4693 -0.5148 -0.7016
 1082SOL    HW114708   2.725   3.381  15.670 -1.1321  0.6123  3.0340
 1082SOL    HW214709   2.748   3.242  15.726  0.1346 -0.6329  0.0126
 1083SOL     OW14710   3.094   1.789  13.946 -0.0599  0.1687  0.1281
 1083SOL    HW114711   3.129   1.731  14.014 -0.0818  0.3388  0.2863
 1083SOL    HW214712   3.159   1.858  13.932  1.4340 -0.9548  1.4407
 1084SOL     OW14713   0.929   3.231  16.712 -0.6036 -0.6606  0.0580
 1084SOL    HW114714   0.913   3.308  16.768  1.8226  1.9224 -2.8124
 1084SOL    HW214715   0.998   3.189  16.764  0.5286  0.4172 -0.5729
 1085SOL     OW14716   4.053   3.189   8.565 -0.0097 -0.4059  0.2950
 1085SOL    HW114717   4.140   3.221   8.540  0.0392  1.0803  2.3537
 1085SOL    HW214718   4.064   3.102   8.528 -0.5265  1.0174 -3.2251
 1086SOL     OW14719   3.948   2.150   5.643  0.2835 -0.2599 -0.4325
 1086SOL    HW114720   4.042   2.133   5.641  0.3681  0.2467 -0.6669
 1086SOL    HW214721   3.914   2.062   5.663  1.3952 -0.3902  0.9243
 1087SOL     OW14722   2.879   0.200   7.173  0.7985 -0.2616  0.0474
 1087SOL    HW114723   2.938   0.150   7.117  1.7951 -0.8431  1.6345
 1087SOL    HW214724   2.797   0.155   7.151  0.6854  0.1235 -0.3317
 1088SOL     OW14725   4.702   3.954   7.572  0.5517 -0.0642 -0.1916
 1088SOL    HW114726   4.708   3.859   7.583  0.6548 -0.0894 -0.4559
 1088SOL    HW214727   0.012   3.984   7.658  0.0430  1.9261 -0.7097
 1089SOL     OW14728   0.128   4.187  15.733 -0.5728 -0.1451 -0.7463
 1089SOL    HW114729   0.210   4.196  15.685  1.3342  0.2431  2.5380
 1089SOL    HW214730   0.098   4.277  15.722  2.2931  0.6804 -1.7891
 1090SOL     OW14731   2.672   3.778  16.266 -0.3648  0.0726 -0.3410
 1090SOL    HW114732   2.615   3.839  16.313 -1.2078 -0.4900 -0.6302
 1090SOL    HW214733   2.616   3.715  16.222  1.2710 -1.3220 -0.4474
 1091SOL     OW14734   3.297   1.290   4.547  0.6262 -0.1218  0.0579
 1091SOL    HW114735   3.313   1.267   4.639 -2.7078  1.2329  0.9962
 1091SOL    HW214736   3.204   1.270   4.541  0.7684 -0.2545 -1.5255
 1092SOL     OW14737   3.630   2.480   3.858 -0.2566  0.3208 -0.1278
 1092SOL    HW114738   3.632   2.386   3.841 -0.5451  0.2279  0.3319
 1092SOL    HW214739   3.660   2.483   3.949  0.0769 -3.1443 -0.1305
 1093SOL     OW14740   2.473   0.625   8.626 -0.3076  0.1242  0.0356
 1093SOL    HW114741   2.537   0.696   8.633  0.2711 -0.3163 -0.8204
 1093SOL    HW214742   2.411   0.672   8.571 -0.1297 -0.9254 -1.0550
 1094SOL     OW14743   2.803   1.653   6.380  0.7314 -0.1613 -0.8096
 1094SOL    HW114744   2.767   1.620   6.462 -1.2241  2.1185 -0.7382
 1094SOL    HW214745   2.887   1.682   6.416 -0.0434  3.2315 -1.7644
 1095SOL     OW14746   0.462   3.398   2.326 -0.2102  0.3983 -0.5876
 1095SOL    HW114747   0.476   3.361   2.413 -1.9961  2.3627  0.5429
 1095SOL    HW214748   0.472   3.493   2.337 -1.7791  0.8022 -2.5472
 1096SOL     OW14749   3.241   1.422  10.765 -0.2803 -0.1990 -0.3316
 1096SOL    HW114750   3.332   1.419  10.795  0.2844  0.9442 -1.9303
 1096SOL    HW214751   3.265   1.415  10.672  3.0606 -2.5885  0.7091
 1097SOL     OW14752   3.925   0.186   7.847 -0.5290 -0.5512  0.5078
 1097SOL    HW114753   3.934   0.223   7.934  0.8095 -2.3299  1.1522
 1097SOL    HW214754   3.833   0.162   7.850 -0.8969  1.0676  1.4701
 1098SOL     OW14755   0.694   1.579   5.878  0.2313  0.1630  0.2044
 1098SOL    HW114756   0.777   1.533   5.866 -0.7290 -1.0664 -1.7473
 1098SOL    HW214757   0.710   1.672   5.892  2.3923 -0.1144 -0.4435
 1099SOL     OW14758   0.796   4.678   5.009  0.0668 -0.6491  0.5819
 1099SOL    HW114759   0.823   0.028   5.068 -1.2483 -1.3491  2.0090
 1099SOL    HW214760   0.772   0.001   4.927  2.0903  1.7041  1.2269
 1100SOL     OW14761   0.217   1.579   5.077  0.4102 -0.3062  0.1616
 1100SOL    HW114762   0.286   1.593   5.143  0.2323  0.4234  0.1865
 1100SOL    HW214763   0.198   1.669   5.051 -0.6382 -0.4836  0.3454
 1101SOL     OW14764   1.354   0.054   4.482  0.0813  0.2064  0.2502
 1101SOL    HW114765   1.260   0.072   4.476  0.0478  0.3261  1.0728
 1101SOL    HW214766   1.391   0.130   4.436 -1.3238  0.5517 -0.3086
 1102SOL     OW14767   4.485   1.769   9.053 -0.2623 -0.3171 -0.1838
 1102SOL    HW114768   4.461   1.714   8.978  0.1485  0.5033 -0.9154
 1102SOL    HW214769   4.402   1.792   9.093 -0.0469  0.2063 -0.0380
 1103SOL     OW14770   0.753   4.698   6.900 -0.1294 -0.0507 -0.1485
 1103SOL    HW114771   0.753   4.681   6.806  1.3689  1.3248 -0.4067
 1103SOL    HW214772   0.802   4.623   6.934 -0.3940 -0.0102  0.3167
 1104SOL     OW14773   1.559   0.190  17.326 -0.3111  0.4318  0.1554
 1104SOL    HW114774   1.483   0.141  17.359 -0.2594  0.7767  0.8039
 1104SOL    HW214775   1.572   0.147  17.242 -2.8684  0.1344 -0.1001
 1105SOL     OW14776   0.797   1.159   2.844 -0.4943  0.4093  0.3081
 1105SOL    HW114777   0.770   1.216   2.771 -1.5350  2.7494  2.5010
 1105SOL    HW214778   0.753   1.077   2.822  1.5239 -0.2756 -1.1042
 1106SOL     OW14779   1.924   1.832   8.276 -0.1928 -0.1055  0.0035
 1106SOL    HW114780   1.960   1.891   8.211 -1.3740 -0.3570 -0.8923
 1106SOL    HW214781   1.939   1.878   8.358 -0.1672  1.0582 -0.6527
 1107SOL     OW14782   0.754   3.250  14.944 -0.1688 -0.1359 -0.3383
 1107SOL    HW114783   0.736   3.329  14.996  0.5749  1.5294 -2.6130
 1107SOL    HW214784   0.771   3.284  14.857  0.3436 -1.7512 -0.8737
 1108SOL     OW14785   1.197   0.270   7.040 -0.1945  0.0240  0.4013
 1108SOL    HW114786   1.138   0.201   7.010  0.4600  0.0063 -0.8615
 1108SOL    HW214787   1.153   0.300   7.119 -3.6752  1.2622 -1.9988
 1109SOL     OW14788   2.667   0.125   5.685 -0.6436  0.1778 -0.3490
 1109SOL    HW114789   2.654   0.082   5.769 -0.9128 -2.9249 -1.9631
 1109SOL    HW214790   2.679   0.046   5.633  1.2820  0.4789 -0.3671
 1110SOL     OW14791   1.255   1.180   8.173 -0.5746  0.1259 -0.2590
 1110SOL    HW114792   1.178   1.237   8.173 -1.1090 -0.5956  1.4912
 1110SOL    HW214793   1.216   1.098   8.143 -1.8914  1.5135 -2.3457
 1111SOL     OW14794   2.862   4.127   9.405 -0.0780 -0.2759  0.6882
 1111SOL    HW114795   2.789   4.186   9.384 -0.4395 -0.8497  0.3425
 1111SOL    HW214796   2.812   4.046   9.408 -0.5171 -0.0677 -0.8128
 1112SOL     OW14797   2.533   1.305   8.497 -0.0898 -0.9962  0.2903
 1112SOL    HW114798   2.578   1.226   8.469 -0.3750 -0.9244 -0.3681
 1112SOL    HW214799   2.552   1.308   8.591  1.0898  0.6978 -0.0022
 1113SOL     OW14800   3.654   2.160  10.789 -0.5849  0.2085  0.7750
 1113SOL    HW114801   3.671   2.165  10.695 -0.7969  0.5111  0.7534
 1113SOL    HW214802   3.566   2.121  10.793 -0.6356  0.1368 -0.7968
 1114SOL     OW14803   0.705   3.539   2.445 -0.4708 -0.3571 -0.5373
 1114SOL    HW114804   0.747   3.458   2.474 -1.8455 -1.7183 -2.3467
 1114SOL    HW214805   0.640   3.549   2.514 -0.8580 -0.0600 -0.9450
 1115SOL     OW14806   1.029   3.122  11.807 -0.2471 -0.0997 -0.7696
 1115SOL    HW114807   1.003   3.191  11.868  1.3869 -0.2857  0.1406
 1115SOL    HW214808   1.114   3.161  11.788 -0.6739  1.7703  1.1347
 1116SOL     OW14809   4.128   1.089   9.391  0.2584 -0.0714  0.2021
 1116SOL    HW114810   4.127   1.150   9.465  2.3507  1.6434 -1.1755
 1116SOL    HW214811   4.167   1.140   9.320 -0.0099  1.9289  1.4902
 1117SOL     OW14812   0.809   2.127   6.960 -0.2213 -0.6717  0.2992
 1117SOL    HW114813   0.725   2.170   6.947 -0.2753 -0.2819  1.8914
 1117SOL    HW214814   0.856   2.179   6.894  0.1650 -0.9618  0.3404
 1118SOL     OW14815   2.156   3.537   3.321 -0.5779 -0.2933 -0.3179
 1118SOL    HW114816   2.162   3.502   3.410 -1.6673 -1.6427 -0.7717
 1118SOL    HW214817   2.229   3.497   3.273 -0.3482 -0.3743  0.0934
 1119SOL     OW14818   3.585   1.899  12.121  0.2480 -0.3177 -0.0027
 1119SOL    HW114819   3.645   1.948  12.065 -0.5034  1.6766  0.9245
 1119SOL    HW214820   3.597   1.817  12.074  0.4080 -0.0581 -0.4132
 1120SOL     OW14821   3.438   0.920   2.088  0.1281  0.2182  0.0068
 1120SOL    HW114822   3.490   0.868   2.150 -1.4539 -0.2145  0.9560
 1120SOL    HW214823   3.487   0.889   2.011  1.3851  1.1181  0.4416
 1121SOL     OW14824   0.549   0.991   2.372  0.0916 -0.5401 -0.2672
 1121SOL    HW114825   0.489   1.027   2.307 -0.4176 -1.1089 -0.1022
 1121SOL    HW214826   0.605   0.937   2.316 -1.3797 -1.1366 -1.1594
 1122SOL     OW14827   4.466   1.452   8.587 -0.7849  0.6687 -0.2054
 1122SOL    HW114828   4.489   1.373   8.538  0.7593  1.6904 -1.1318
 1122SOL    HW214829   4.521   1.440   8.665 -0.4442  1.5236 -0.3152
 1123SOL     OW14830   4.687   1.887  14.534 -0.3718 -0.4414  0.4336
 1123SOL    HW114831   4.649   1.799  14.530 -0.7355 -0.1259 -2.8370
 1123SOL    HW214832   4.657   1.917  14.620 -1.5340  1.5599 -0.6803
 1124SOL     OW14833   4.654   4.271   6.946  0.9080  0.4773 -0.2253
 1124SOL    HW114834   4.672   4.330   6.873  0.6449 -1.3293 -1.7449
 1124SOL    HW214835   4.564   4.244   6.926  1.3532 -0.0703 -1.5029
 1125SOL     OW14836   4.026   1.700   7.392 -0.0740 -0.0584 -0.1600
 1125SOL    HW114837   4.114   1.738   7.395  0.0773 -0.4224  0.0000
 1125SOL    HW214838   4.021   1.673   7.484 -0.3132 -1.5301 -0.5913
 1126SOL     OW14839   0.531   2.993   0.652  0.4841  0.2489 -0.2920
 1126SOL    HW114840   0.590   2.997   0.728  1.6941  0.2399 -1.2403
 1126SOL    HW214841   0.453   3.041   0.680 -1.4541 -3.3814  0.5975
 1127SOL     OW14842   0.010   1.696   6.953  0.4105 -0.2533 -0.4964
 1127SOL    HW114843   4.636   1.686   6.947  0.1926  0.1931  2.1327
 1127SOL    HW214844   0.006   1.791   6.967  0.9141 -0.3405  0.2257
 1128SOL     OW14845   2.728   0.725   4.704  0.1433  0.1881  0.0565
 1128SOL    HW114846   2.703   0.653   4.646 -0.0417 -0.4154  0.8995
 1128SOL    HW214847   2.819   0.731   4.677 -0.3935  1.0676 -1.5983
 1129SOL     OW14848   2.032   0.276   8.587 -0.4369  0.3302 -0.1741
 1129SOL    HW114849   2.091   0.308   8.519  0.5487 -1.2405 -0.0752
 1129SOL    HW214850   1.946   0.304   8.557 -0.5671 -1.5163 -1.5505
 1130SOL     OW14851   0.698   4.368   7.251 -0.6131  0.1645 -0.4401
 1130SOL    HW114852   0.627   4.408   7.300  1.0221  1.1990  1.0760
 1130SOL    HW214853   0.690   4.273   7.251 -2.2117  0.3107  0.9715
 1131SOL     OW14854   3.894   0.632   4.790  0.3295 -0.5178 -0.1936
 1131SOL    HW114855   3.870   0.649   4.881 -0.8505 -2.3560 -0.1536
 1131SOL    HW214856   3.809   0.601   4.757 -0.7615  1.7271  0.4769
 1132SOL     OW14857   2.912   1.882  11.729  0.2349  0.4470 -0.6738
 1132SOL    HW114858   2.931   1.962  11.779 -0.5655 -1.0235  1.9682
 1132SOL    HW214859   2.984   1.882  11.666  1.7833  0.4059  1.0870
 1133SOL     OW14860   3.619   4.143   5.070  0.1556  0.0229  0.5308
 1133SOL    HW114861   3.644   4.060   5.111 -0.7286  0.3893  1.8093
 1133SOL    HW214862   3.566   4.101   5.001 -0.2557  0.2137  0.7310
 1134SOL     OW14863   4.314   1.523  14.013  0.1308  0.0934  0.0022
 1134SOL    HW114864   4.406   1.527  13.988  0.9301  2.2004  3.2625
 1134SOL    HW214865   4.285   1.432  14.020 -3.5019  1.2262 -0.2832
 1135SOL     OW14866   2.190   0.737   2.322  0.0982  0.6344 -0.5461
 1135SOL    HW114867   2.279   0.711   2.296 -0.9162 -3.3641 -0.0458
 1135SOL    HW214868   2.212   0.812   2.377 -1.0276 -0.0905  0.8927
 1136SOL     OW14869   2.730   4.359   7.878 -0.5886  0.1351 -0.1828
 1136SOL    HW114870   2.737   4.295   7.807 -0.0073 -0.6858  0.6177
 1136SOL    HW214871   2.786   4.430   7.847 -0.7475  0.1555 -0.4246
 1137SOL     OW14872   0.334   3.263  16.661  0.0552 -0.7173  0.1053
 1137SOL    HW114873   0.378   3.182  16.688 -1.9534 -1.8779 -0.1150
 1137SOL    HW214874   0.242   3.247  16.682 -0.3073  0.1000 -0.8106
 1138SOL     OW14875   3.626   2.394  16.589 -0.5392  0.2550 -0.4719
 1138SOL    HW114876   3.559   2.392  16.657  1.1724  2.0239  1.3022
 1138SOL    HW214877   3.625   2.490  16.593 -0.9157  0.1822  1.4724
 1139SOL     OW14878   2.401   0.572   6.080  0.1686  0.1603 -0.2292
 1139SOL    HW114879   2.373   0.623   6.156  0.9746  1.4043 -0.7656
 1139SOL    HW214880   2.393   0.481   6.110 -1.6801  1.1455  2.2458
 1140SOL     OW14881   1.117   0.810   4.130 -0.2072 -0.4486  0.6796
 1140SOL    HW114882   1.110   0.767   4.045  0.5574  3.0478 -1.1750
 1140SOL    HW214883   1.082   0.894   4.101 -1.0399 -1.1051 -0.2010
 1141SOL     OW14884   0.826   3.712  15.544 -0.7482 -0.1816  0.1750
 1141SOL    HW114885   0.773   3.783  15.507 -2.3454 -0.4054  2.0521
 1141SOL    HW214886   0.761   3.644  15.561 -3.0085  1.5846 -1.3758
 1142SOL     OW14887   0.252   4.051  10.392  0.6094  0.3659  0.6286
 1142SOL    HW114888   0.217   4.024  10.477 -0.4892 -1.2756 -0.3548
 1142SOL    HW214889   0.278   3.965  10.359  0.3036  0.3283  0.4825
 1143SOL     OW14890   2.027   4.235  17.105  0.1704 -0.2510  0.2020
 1143SOL    HW114891   2.000   4.148  17.076  2.8705 -0.9168 -0.2882
 1143SOL    HW214892   1.951   4.272  17.151  0.3631 -0.1829  0.4647
 1144SOL     OW14893   4.280   0.960   7.246  0.3198  0.2360  0.1257
 1144SOL    HW114894   4.371   0.937   7.228  0.5323 -0.4768  2.0986
 1144SOL    HW214895   4.270   0.928   7.336 -0.6316 -3.4068 -1.2562
 1145SOL     OW14896   4.550   3.094   1.950  0.0148  0.2119 -0.0250
 1145SOL    HW114897   4.639   3.129   1.950  1.1780 -2.7697  0.1341
 1145SOL    HW214898   4.533   3.073   2.042  1.0284 -2.6918 -0.4985
 1146SOL     OW14899   4.157   4.138   7.271 -0.4522  0.1990 -0.0160
 1146SOL    HW114900   4.111   4.201   7.215  1.6663 -1.2926 -3.4434
 1146SOL    HW214901   4.130   4.058   7.226 -1.3621  0.3324  0.2887
 1147SOL     OW14902   3.926   1.438   5.471  0.0208  0.4085  0.3679
 1147SOL    HW114903   3.844   1.416   5.426  0.4422  0.4573 -0.4269
 1147SOL    HW214904   3.970   1.488   5.402 -0.0579  2.3347  1.7123
 1148SOL     OW14905   0.546   3.796   4.699 -0.4701 -0.7415  0.1058
 1148SOL    HW114906   0.520   3.809   4.790 -0.3967  0.3775 -0.0278
 1148SOL    HW214907   0.506   3.866   4.647 -1.2392 -2.8969 -2.1524
 1149SOL     OW14908   0.671   4.576   4.086  0.4203  0.1773  0.3993
 1149SOL    HW114909   0.732   4.576   4.012  1.4137  1.2964  1.2236
 1149SOL    HW214910   0.628   4.660   4.072 -1.0265 -0.9918 -2.2664
 1150SOL     OW14911   1.222   0.060  12.684  0.7211  0.0445 -1.2146
 1150SOL    HW114912   1.172   0.138  12.706  0.4659 -0.1938 -0.9370
 1150SOL    HW214913   1.265   0.057  12.770 -1.3912  1.6407 -0.1153
 1151SOL     OW14914   0.874   0.229   6.166 -0.3314  0.4580 -0.2635
 1151SOL    HW114915   0.812   0.156   6.158 -0.0741  0.3429 -1.2437
 1151SOL    HW214916   0.923   0.198   6.242 -1.5619 -2.4375 -0.6476
 1152SOL     OW14917   0.001   3.445   7.044 -0.1258 -0.0320  0.3028
 1152SOL    HW114918   0.074   3.388   7.065  1.3393  1.7767  0.0889
 1152SOL    HW214919   0.009   3.516   7.109  1.1798  0.4024 -0.3451
 1153SOL     OW14920   4.578   3.633   4.091 -0.7143  0.8881 -0.3865
 1153SOL    HW114921   4.509   3.696   4.072 -2.0998 -0.2150  1.0132
 1153SOL    HW214922   4.590   3.601   4.001  1.0448  1.4872 -0.3664
 1154SOL     OW14923   4.241   3.064   2.034 -0.2354 -0.6713  0.2507
 1154SOL    HW114924   4.297   3.130   1.993 -1.4091 -1.6288 -2.8694
 1154SOL    HW214925   4.254   3.079   2.128  2.6952  1.5157 -0.4989
 1155SOL     OW14926   3.492   3.490   4.215  0.4110  0.0265 -0.1210
 1155SOL    HW114927   3.479   3.540   4.134  0.1683  1.4004  0.7802
 1155SOL    HW214928   3.551   3.548   4.263  1.7068 -1.2822 -0.1059
 1156SOL     OW14929   0.491   2.826  11.867  0.3412 -0.9102  0.2401
 1156SOL    HW114930   0.405   2.787  11.850  0.2487  0.1116 -1.6734
 1156SOL    HW214931   0.466   2.911  11.902  1.9865 -0.1019 -0.5215
 1157SOL     OW14932   3.119   0.601   4.402 -0.1373  0.8714  0.1486
 1157SOL    HW114933   3.091   0.581   4.313  0.5556 -1.0761  0.3591
 1157SOL    HW214934   3.196   0.544   4.406 -1.0565 -0.3370  0.6461
 1158SOL     OW14935   4.657   0.878   2.333  0.1367  0.1995  0.2241
 1158SOL    HW114936   4.629   0.801   2.381 -2.2878  0.1700 -1.2356
 1158SOL    HW214937   4.642   0.846   2.244  1.7355 -2.3336  0.8681
 1159SOL     OW14938   2.640   3.988  12.708  0.2377  0.3045  0.2879
 1159SOL    HW114939   2.734   4.000  12.702 -0.1565  2.8706 -0.6302
 1159SOL    HW214940   2.620   3.981  12.615  0.5878 -4.3132  0.5350
 1160SOL     OW14941   3.016   2.948   9.046 -0.6145 -0.6706  0.4442
 1160SOL    HW114942   2.949   2.957   9.114  0.3607 -0.3682  1.3593
 1160SOL    HW214943   3.023   3.038   9.013 -0.3801 -1.4034 -1.5128
 1161SOL     OW14944   4.616   2.855  11.852 -0.4106  0.2516  0.9017
 1161SOL    HW114945   4.578   2.832  11.767 -1.1282 -0.8132  1.5050
 1161SOL    HW214946   4.707   2.866  11.823 -0.9544  1.7729 -0.2301
 1162SOL     OW14947   1.732   0.080   0.776  0.7255 -0.2692 -0.1090
 1162SOL    HW114948   1.752   4.709   0.794  0.9038 -0.2859 -0.4022
 1162SOL    HW214949   1.819   0.119   0.770  1.2069 -1.5293 -1.2869
 1163SOL     OW14950   2.110   1.519  13.814 -0.1453 -0.1315  0.7961
 1163SOL    HW114951   2.053   1.591  13.842 -1.6835 -0.8456 -0.5282
 1163SOL    HW214952   2.045   1.451  13.800  2.1749 -2.4462  1.2558
 1164SOL     OW14953   2.490   0.683   3.875 -0.7351  0.2788 -0.3217
 1164SOL    HW114954   2.523   0.722   3.794  0.9719 -0.4090  0.0449
 1164SOL    HW214955   2.499   0.591   3.851 -0.9120  0.1958 -0.0668
 1165SOL     OW14956   1.824   1.175   4.865 -0.4806 -0.3375 -0.2904
 1165SOL    HW114957   1.876   1.140   4.937  0.1723 -0.0930 -0.6435
 1165SOL    HW214958   1.807   1.089   4.827  2.2114 -0.8693 -0.2900
 1166SOL     OW14959   1.720   0.891   1.339  0.1735  0.3868  0.8226
 1166SOL    HW114960   1.632   0.914   1.310  0.0807  0.7131  1.3579
 1166SOL    HW214961   1.771   0.871   1.261 -0.5354 -1.3993  0.8095
 1167SOL     OW14962   1.138   1.785   5.043  0.0849 -0.4302  0.4860
 1167SOL    HW114963   1.222   1.776   5.088 -0.1654 -1.5627  0.7454
 1167SOL    HW214964   1.088   1.708   5.070 -0.3098 -0.3987 -0.1565
 1168SOL     OW14965   4.615   2.941   8.304 -0.3669  0.1559  0.7500
 1168SOL    HW114966   4.679   2.876   8.275  2.0239  2.2865  1.1884
 1168SOL    HW214967   4.650   3.018   8.259 -2.2503  0.2086 -0.5864
 1169SOL     OW14968   4.005   3.671   0.207 -0.0050 -0.0973  0.2664
 1169SOL    HW114969   3.982   3.627   0.125 -1.3176  0.6114  0.2628
 1169SOL    HW214970   4.075   3.730   0.181  2.2803 -2.4122  1.1376
 1170SOL     OW14971   4.184   2.329   7.355  0.4076  0.8524  0.1549
 1170SOL    HW114972   4.169   2.244   7.397  0.5543  0.5154 -0.4759
 1170SOL    HW214973   4.203   2.392   7.425 -1.7263 -0.0701  1.5605
 1171SOL     OW14974   0.006   0.060   4.898  0.2088 -0.2766  0.0457
 1171SOL    HW114975   0.070   0.008   4.849 -1.0158 -1.3916 -0.3812
 1171SOL    HW214976   4.653   0.056   4.836  0.1379  0.7667  0.0760
 1172SOL     OW14977   1.674   2.069   0.700  0.0449 -0.2949  0.0556
 1172SOL    HW114978   1.639   1.980   0.694  4.0142 -1.7485 -1.4689
 1172SOL    HW214979   1.641   2.102   0.617 -0.1440  1.6847  0.8995
 1173SOL     OW14980   4.161   0.572   3.395 -0.3592 -0.5750 -0.6719
 1173SOL    HW114981   4.095   0.640   3.392  1.4501  1.1431 -1.2522
 1173SOL    HW214982   4.245   0.611   3.372 -0.8230  0.2372 -0.9771
 1174SOL     OW14983   1.732   4.028  13.057 -0.2965 -0.1186  0.4559
 1174SOL    HW114984   1.645   4.069  13.054 -0.3332 -0.2736 -0.7409
 1174SOL    HW214985   1.770   4.076  13.130 -0.2902 -1.6169  1.4211
 1175SOL     OW14986   4.181   0.658   5.939  0.1315 -0.2859  0.4102
 1175SOL    HW114987   4.192   0.744   5.899 -2.3083  1.1304  2.8107
 1175SOL    HW214988   4.260   0.647   5.993  1.2905 -1.7237 -1.5528
 1176SOL     OW14989   1.845   0.594  17.522 -0.4695  0.1519  0.2492
 1176SOL    HW114990   1.916   0.658  17.519 -1.3110  1.1799  2.1897
 1176SOL    HW214991   1.802   0.618  17.440  1.4258  0.8089 -0.5358
 1177SOL     OW14992   1.087   1.032   7.419  0.3656 -0.5705  0.1033
 1177SOL    HW114993   1.102   1.096   7.488  1.6292 -0.1449 -0.5532
 1177SOL    HW214994   1.022   1.079   7.366 -1.1091 -0.8354  1.6963
 1178SOL     OW14995   0.850   1.775   8.389 -0.6515  0.2354  0.1841
 1178SOL    HW114996   0.761   1.809   8.383 -0.7956 -0.1989 -0.1086
 1178SOL    HW214997   0.897   1.809   8.313 -1.1555 -2.1795 -1.2006
 1179SOL     OW14998   1.805   3.865   4.431  0.5219 -0.0629 -0.1427
 1179SOL    HW114999   1.740   3.824   4.489  0.5263 -0.6236 -0.5289
 1179SOL    HW215000   1.810   3.792   4.369 -0.2787 -0.6199  0.4431
 1180SOL     OW15001   1.081   0.659  13.923  0.2258  0.1479 -0.0374
 1180SOL    HW115002   1.076   0.752  13.898  1.9344  0.5123  0.9169
 1180SOL    HW215003   1.169   0.650  13.961  0.3567 -0.3084 -0.4494
 1181SOL     OW15004   0.228   3.583   5.036 -0.1610  0.2103 -0.2897
 1181SOL    HW115005   0.201   3.626   4.954 -1.2391 -0.2551 -0.1807
 1181SOL    HW215006   0.322   3.563   5.027 -0.1072  0.3648 -0.0487
 1182SOL     OW15007   1.705   4.051   2.381  0.0727 -0.1332 -0.1342
 1182SOL    HW115008   1.763   4.060   2.457 -1.4764  1.9292  0.8123
 1182SOL    HW215009   1.622   4.098   2.395 -1.5780 -3.5411  1.4377
 1183SOL     OW15010   3.690   0.690   9.320 -0.1766 -0.7000 -0.4802
 1183SOL    HW115011   3.626   0.625   9.291  0.7536 -2.1123  0.6462
 1183SOL    HW215012   3.686   0.690   9.415  2.4889  2.9270 -0.3413
 1184SOL     OW15013   0.542   1.682   3.101  0.6660  0.1692 -0.0915
 1184SOL    HW115014   0.541   1.590   3.128 -2.2521 -0.3188 -1.9861
 1184SOL    HW215015   0.561   1.662   3.010  0.1383 -0.6192 -0.0291
 1185SOL     OW15016   4.712   1.939   2.690 -0.2742  0.5423 -0.4530
 1185SOL    HW115017   4.635   1.949   2.746 -1.4986  0.2228 -2.0836
 1185SOL    HW215018   4.702   2.019   2.638  1.9459  1.2473  0.2002
 1186SOL     OW15019   2.749   3.916  11.041 -0.1531 -0.0385  0.1228
 1186SOL    HW115020   2.679   3.854  11.020 -0.2234 -0.2532  0.9806
 1186SOL    HW215021   2.706   3.995  11.076  0.7039 -0.2413  1.6194
 1187SOL     OW15022   2.795   3.562   4.986 -0.3026 -0.2389 -0.6358
 1187SOL    HW115023   2.854   3.512   5.043 -1.1681  1.6295  1.9047
 1187SOL    HW215024   2.715   3.511   5.001 -0.2795  0.0944  0.6122
 1188SOL     OW15025   1.640   0.209   3.235  0.0587  0.2225 -0.7414
 1188SOL    HW115026   1.629   0.137   3.173 -2.2668  0.2502 -0.3821
 1188SOL    HW215027   1.684   0.280   3.189  1.0779  1.7197  2.4972
 1189SOL     OW15028   4.300   2.962   5.873  0.2505  0.4397  0.0675
 1189SOL    HW115029   4.302   3.054   5.845 -1.3265  0.3899 -0.2075
 1189SOL    HW215030   4.312   2.975   5.967 -1.0624  0.2995  0.2554
 1190SOL     OW15031   0.103   2.407   1.848 -0.0628  0.5793  0.0956
 1190SOL    HW115032   0.167   2.457   1.898  0.0596  0.4250  0.0938
 1190SOL    HW215033   0.158   2.345   1.799 -0.7837  0.0421 -0.0301
 1191SOL     OW15034   4.048   1.093   8.518  0.1992  0.2774 -0.4328
 1191SOL    HW115035   3.958   1.099   8.487  0.2724  2.4531 -0.2199
 1191SOL    HW215036   4.089   1.158   8.461 -1.3921  1.6137 -0.0587
 1192SOL     OW15037   2.857   2.319   9.564 -0.4564  0.0118 -0.5569
 1192SOL    HW115038   2.872   2.373   9.486  2.6804  1.6417  1.1457
 1192SOL    HW215039   2.944   2.320   9.604 -0.1340 -0.3514 -1.2543
 1193SOL     OW15040   0.753   2.180   6.349  0.3273  0.0379  0.0732
 1193SOL    HW115041   0.768   2.118   6.278  0.3009 -0.7131  0.7240
 1193SOL    HW215042   0.680   2.147   6.400 -1.0845  1.8158 -0.8034
 1194SOL     OW15043   1.233   3.575   0.886 -0.3354  0.9566  0.4417
 1194SOL    HW115044   1.273   3.662   0.879 -1.8015  1.5656 -0.3904
 1194SOL    HW215045   1.286   3.530   0.820  0.5016  1.5465  0.7197
 1195SOL     OW15046   1.872   4.679   1.092 -0.3983  0.0815 -0.9101
 1195SOL    HW115047   1.792   4.638   1.059 -1.6794  1.1940  0.7940
 1195SOL    HW215048   1.900   4.614   1.156 -1.1642  1.0026  0.3637
 1196SOL     OW15049   1.575   4.420   6.397 -0.1267  0.4406  0.2105
 1196SOL    HW115050   1.494   4.445   6.442  0.6702  1.6870  0.9660
 1196SOL    HW215051   1.536   4.411   6.310 -0.5209  0.2718  0.4091
 1197SOL     OW15052   0.388   3.411   3.991 -0.0675 -0.6292  0.1302
 1197SOL    HW115053   0.464   3.401   4.049  1.3358  0.1844 -1.5895
 1197SOL    HW215054   0.329   3.466   4.043 -0.1345  1.0415 -1.7128
 1198SOL     OW15055   2.325   1.582   6.612 -0.0193 -0.0200 -0.7155
 1198SOL    HW115056   2.309   1.652   6.675 -0.3868 -0.4695 -0.2998
 1198SOL    HW215057   2.249   1.528   6.637  0.0579  0.1230 -0.1743
 1199SOL     OW15058   2.313   0.815  10.088 -0.2147  0.1999 -0.1936
 1199SOL    HW115059   2.350   0.831  10.175 -1.3613 -0.3942  0.4019
 1199SOL    HW215060   2.228   0.789  10.123 -1.2789  1.9701 -1.4218
 1200SOL     OW15061   3.731   0.000   3.304  0.7009 -0.2859 -0.4760
 1200SOL    HW115062   3.764   0.074   3.355 -0.3289 -0.1292 -0.0406
 1200SOL    HW215063   3.681   0.048   3.237 -0.1772 -0.9334 -0.2745
 1201SOL     OW15064   4.222   3.542   8.006 -0.1991  0.2277 -0.1258
 1201SOL    HW115065   4.167   3.606   7.961 -0.7928  0.8101  1.4207
 1201SOL    HW215066   4.221   3.480   7.933 -1.6997 -1.2636  1.1628
 1202SOL     OW15067   4.631   1.138   9.561  0.2064 -0.0001 -1.1523
 1202SOL    HW115068   4.580   1.057   9.568  1.1497 -0.6648 -1.9531
 1202SOL    HW215069   4.665   1.159   9.649 -2.5835  1.2293 -0.3676
 1203SOL     OW15070   3.893   3.061   9.402 -0.1877 -0.5665 -0.2070
 1203SOL    HW115071   3.843   3.047   9.482  0.3392 -0.4436  0.1464
 1203SOL    HW215072   3.976   3.025   9.434  0.3726 -0.5524 -1.6622
 1204SOL     OW15073   0.897   3.820   8.103  0.0093 -0.0426 -0.1524
 1204SOL    HW115074   0.886   3.908   8.066 -2.0583  0.3235  1.3729
 1204SOL    HW215075   0.877   3.839   8.194  0.1750 -1.4081  0.1729
 1205SOL     OW15076   0.960   0.857   6.541  0.2972 -0.2003  0.3503
 1205SOL    HW115077   1.026   0.798   6.504 -2.0221 -2.6482  0.1178
 1205SOL    HW215078   0.998   0.882   6.625  1.7748 -0.1223 -0.3427
 1206SOL     OW15079   1.984   3.224   6.091  0.5440 -0.3634 -0.1052
 1206SOL    HW115080   2.063   3.193   6.135 -0.3939 -1.2934  0.9431
 1206SOL    HW215081   1.911   3.199   6.148  1.4152 -0.3525  1.0214
 1207SOL     OW15082   2.998   1.191   3.936 -0.1874  0.3029  0.1102
 1207SOL    HW115083   2.951   1.259   3.887  0.1309  1.4245  1.3478
 1207SOL    HW215084   2.925   1.136   3.964  0.2984  0.1120  1.0147
 1208SOL     OW15085   4.416   4.328   6.766 -0.5300  0.0592  0.0474
 1208SOL    HW115086   4.502   4.362   6.743  1.7928 -3.9490  2.7598
 1208SOL    HW215087   4.377   4.327   6.679 -1.7749  1.6273  0.5926
 1209SOL     OW15088   3.842   1.554   8.650 -0.3004 -0.7026  0.5157
 1209SOL    HW115089   3.752   1.586   8.648  0.5870  1.6960 -0.2400
 1209SOL    HW215090   3.831   1.467   8.690  1.1472 -1.6255 -1.1121
 1210SOL     OW15091   1.655   3.984   6.785  0.8433  0.1344 -0.7618
 1210SOL    HW115092   1.574   4.032   6.770  1.6489  1.8517  0.3185
 1210SOL    HW215093   1.614   3.915   6.838  1.4007 -0.0717 -0.5978
 1211SOL     OW15094   1.045   2.032   4.973 -0.9632  0.0944 -0.1015
 1211SOL    HW115095   1.092   1.949   4.972  1.3083  1.3713 -1.8061
 1211SOL    HW215096   0.960   2.005   4.938 -1.0718 -2.7899  2.4146
 1212SOL     OW15097   1.113   4.717   5.117  0.0464 -0.1243  0.2650
 1212SOL    HW115098   1.029   4.675   5.099 -0.6476  1.2353  0.3023
 1212SOL    HW215099   1.092   0.065   5.180  0.0155 -0.1413  0.2727
 1213SOL     OW15100   3.351   0.508   4.994  0.0972  0.5817 -0.0289
 1213SOL    HW115101   3.422   0.452   4.964 -0.2330  0.0987  0.0829
 1213SOL    HW215102   3.359   0.499   5.089  0.0690 -2.2424 -0.2982
 1214SOL     OW15103   0.604   1.173   7.559 -0.3273 -0.0194 -0.2529
 1214SOL    HW115104   0.678   1.207   7.508  1.6374  0.0331  2.5800
 1214SOL    HW215105   0.657   1.137   7.631 -1.4065  1.1856  1.1511
 1215SOL     OW15106   1.492   2.567   0.807 -0.3326 -0.0018  0.2534
 1215SOL    HW115107   1.454   2.652   0.830 -1.3022 -0.6640  1.0817
 1215SOL    HW215108   1.507   2.577   0.713  2.9827  1.3518  0.9204
 1216SOL     OW15109   1.617   1.306  13.408 -0.0279  0.4408  0.5792
 1216SOL    HW115110   1.557   1.232  13.418  0.9159 -0.5097 -0.6081
 1216SOL    HW215111   1.671   1.309  13.487 -1.4787 -0.3593  1.5931
 1217SOL     OW15112   0.559   4.112   7.543  0.0555 -0.3727 -0.6382
 1217SOL    HW115113   0.582   4.026   7.508 -2.5417 -0.9833 -0.8304
 1217SOL    HW215114   0.479   4.129   7.494 -1.7319 -3.3277  1.2334
 1218SOL     OW15115   0.204   0.797  15.144 -0.3776 -0.0849 -0.2504
 1218SOL    HW115116   0.201   0.761  15.233  2.5824  1.8901  0.6397
 1218SOL    HW215117   0.285   0.765  15.106 -0.1965  0.5648 -0.4036
 1219SOL     OW15118   1.531   2.515   1.382 -0.1887  0.6823 -0.1200
 1219SOL    HW115119   1.594   2.454   1.421 -0.4198  1.2188  1.1030
 1219SOL    HW215120   1.583   2.552   1.311  0.1255  0.2249 -0.1293
 1220SOL     OW15121   3.952   2.639   7.278  0.1481 -0.2821  0.0956
 1220SOL    HW115122   3.959   2.722   7.324 -0.2022  0.3180 -0.9233
 1220SOL    HW215123   3.964   2.580   7.352  2.3695  0.3692  0.2622
 1221SOL     OW15124   4.065   4.446  15.205  0.0525 -0.0434 -0.1711
 1221SOL    HW115125   4.109   4.369  15.239  1.7993  0.8552 -0.3722
 1221SOL    HW215126   4.122   4.515  15.240 -1.5410  1.4292 -0.4995
 1222SOL     OW15127   0.638   2.123   8.554  0.2974 -0.1070 -1.0302
 1222SOL    HW115128   0.641   2.189   8.485 -1.0219 -0.3273 -1.2986
 1222SOL    HW215129   0.726   2.145   8.586 -1.2433 -0.4239  3.4657
 1223SOL     OW15130   1.134   3.299  11.533 -0.1234 -0.2438 -0.0656
 1223SOL    HW115131   1.159   3.276  11.622  0.6763  0.7714 -0.0329
 1223SOL    HW215132   1.173   3.385  11.519  1.7189 -1.4883 -2.4956
 1224SOL     OW15133   4.523   2.672  11.655  0.5875  0.1037  0.5642
 1224SOL    HW115134   4.585   2.606  11.624 -1.2405 -1.0348 -0.7424
 1224SOL    HW215135   4.460   2.622  11.707  0.5880 -2.8271 -2.2430
 1225SOL     OW15136   2.108   2.286   1.656  0.3924  0.4156 -0.1829
 1225SOL    HW115137   2.109   2.207   1.602  1.3197  0.6285 -0.4787
 1225SOL    HW215138   2.171   2.346   1.618 -1.5138  0.7804 -2.8033
 1226SOL     OW15139   3.281   4.332  15.117 -0.9934  0.2562 -0.1292
 1226SOL    HW115140   3.238   4.372  15.192 -0.7123  0.4032 -0.0458
 1226SOL    HW215141   3.369   4.345  15.151 -0.5285 -3.1686  0.0260
 1227SOL     OW15142   2.798   3.465   2.477  0.5081 -0.1209  0.4687
 1227SOL    HW115143   2.736   3.466   2.405  0.3001  1.7384  0.6974
 1227SOL    HW215144   2.852   3.541   2.454 -2.3944  2.0686  1.0093
 1228SOL     OW15145   1.463   0.588   6.202 -0.2353  0.4174 -0.0853
 1228SOL    HW115146   1.509   0.536   6.136 -1.8322 -2.6439  1.2265
 1228SOL    HW215147   1.419   0.515   6.244  2.2755  0.6678  2.9650
 1229SOL     OW15148   2.814   0.069  17.425 -0.1394 -0.0218 -0.1630
 1229SOL    HW115149   2.851   4.718  17.373 -0.1434  1.2920 -1.9797
 1229SOL    HW215150   2.725   0.062  17.388 -0.5867 -0.8203  1.0578
 1230SOL     OW15151   0.024   0.990   2.791  0.3712  0.1535 -0.4483
 1230SOL    HW115152   0.034   0.905   2.833 -1.5056 -0.2285 -0.7896
 1230SOL    HW215153   4.687   0.970   2.718  1.2348 -0.4550 -0.9628
 1231SOL     OW15154   1.839   2.688   5.669 -0.0414  0.9351  0.2137
 1231SOL    HW115155   1.798   2.604   5.690  1.2016  0.6935  1.6569
 1231SOL    HW215156   1.844   2.715   5.761 -2.1313  0.8266  0.3583
 1232SOL     OW15157   0.228   3.787  10.409 -0.6965 -0.3614  0.2355
 1232SOL    HW115158   0.138   3.812  10.431 -0.2373  1.8058 -0.3479
 1232SOL    HW215159   0.209   3.717  10.346 -2.1165 -0.6132  0.9375
 1233SOL     OW15160   0.193   4.474   2.396 -0.1729 -0.2483 -0.1402
 1233SOL    HW115161   0.131   4.401   2.393 -3.9128  2.8922  0.8878
 1233SOL    HW215162   0.153   4.535   2.333 -0.2073 -0.6063 -0.4645
 1234SOL     OW15163   1.465   1.988   6.696 -0.3416 -0.1297  0.1862
 1234SOL    HW115164   1.481   2.058   6.633 -0.7852  0.2328  0.4729
 1234SOL    HW215165   1.433   1.925   6.631  0.2401  0.4157 -0.6222
 1235SOL     OW15166   0.500   2.028   2.859  0.1790  0.1229 -0.3302
 1235SOL    HW115167   0.418   1.991   2.892 -1.0071  0.9057 -2.3570
 1235SOL    HW215168   0.564   1.968   2.897 -0.2544  0.2747  0.6341
 1236SOL     OW15169   2.331   2.115  14.521 -1.0063 -0.4112  0.3964
 1236SOL    HW115170   2.269   2.124  14.594  0.2498  0.6965  1.3193
 1236SOL    HW215171   2.388   2.179  14.564 -0.4510  0.3976 -1.5430
 1237SOL     OW15172   0.973   0.285   3.353  0.2895 -0.2881  0.6515
 1237SOL    HW115173   0.910   0.214   3.340 -1.4007  1.3489 -0.2004
 1237SOL    HW215174   1.053   0.233   3.357  1.5411  1.8113  2.9104
 1238SOL     OW15175   1.028   3.139  17.371 -0.6826  0.2861 -0.0472
 1238SOL    HW115176   0.989   3.094  17.445 -1.9184 -0.6699 -1.2839
 1238SOL    HW215177   1.027   3.233  17.392  1.1765  0.4793 -0.8204
 1239SOL     OW15178   1.157   0.889   4.947 -0.3598  0.6440 -0.4123
 1239SOL    HW115179   1.220   0.961   4.937  2.7619 -2.3493 -2.4537
 1239SOL    HW215180   1.218   0.818   4.925  1.1961  1.9093 -0.2048
 1240SOL     OW15181   1.420   1.847   8.335 -0.1200 -0.1126 -0.1493
 1240SOL    HW115182   1.381   1.759   8.336 -0.2149 -0.0802 -0.7981
 1240SOL    HW215183   1.505   1.823   8.374 -1.0827 -2.6425  0.4192
 1241SOL     OW15184   3.528   1.333  15.586  0.0215 -0.2344  0.1440
 1241SOL    HW115185   3.543   1.425  15.608 -0.4775 -0.1191 -0.0070
 1241SOL    HW215186   3.607   1.313  15.535 -0.4652 -0.3001 -0.5766
 1242SOL     OW15187   2.913   2.704   3.586 -0.0096 -0.2407 -0.1059
 1242SOL    HW115188   2.841   2.647   3.614  0.8856 -0.7889  1.0795
 1242SOL    HW215189   2.878   2.776   3.533 -0.0892 -1.7917 -2.1662
 1243SOL     OW15190   1.799   4.676   6.389  0.3052 -0.2368 -0.0884
 1243SOL    HW115191   1.716   4.631   6.407 -0.7142  1.6828 -0.0426
 1243SOL    HW215192   1.775   0.015   6.318 -1.3196 -0.8597 -0.0766
 1244SOL     OW15193   3.043   3.601   3.569 -0.0354 -0.3890 -0.1142
 1244SOL    HW115194   3.062   3.642   3.485 -2.1231 -1.1969 -0.9860
 1244SOL    HW215195   3.053   3.510   3.544 -2.0141 -0.9466  1.0623
 1245SOL     OW15196   2.057   1.994   8.106 -0.6842 -0.4266  0.2334
 1245SOL    HW115197   2.123   1.947   8.056  1.6405  2.3249  0.7416
 1245SOL    HW215198   2.003   2.043   8.044  0.2108 -1.7076 -1.5352
 1246SOL     OW15199   1.640   3.364   3.919 -0.2223 -0.0199 -0.5932
 1246SOL    HW115200   1.596   3.382   4.002  2.5209  1.5210  0.5014
 1246SOL    HW215201   1.574   3.305   3.883  0.4146 -0.3257 -1.2480
 1247SOL     OW15202   1.762   1.467   3.420  0.4877  0.8819 -0.0827
 1247SOL    HW115203   1.844   1.462   3.469 -0.6949  1.9807  1.9928
 1247SOL    HW215204   1.801   1.475   3.332  0.8254 -3.1758 -0.3055
 1248SOL     OW15205   2.159   0.303  13.515  0.3713  0.2454 -0.3942
 1248SOL    HW115206   2.091   0.343  13.461 -0.6484 -0.6844  0.1813
 1248SOL    HW215207   2.237   0.349  13.485 -0.6687  0.3386 -2.9769
 1249SOL     OW15208   4.033   3.001  17.621  0.7321  0.5224  0.3418
 1249SOL    HW115209   4.011   2.962  17.536 -2.1058  1.7961  0.4839
 1249SOL    HW215210   4.124   3.029  17.626  1.2954 -0.9170 -2.1800
 1250SOL     OW15211   3.751   4.690   7.267 -0.8270 -0.0326  0.5842
 1250SOL    HW115212   3.747   0.065   7.265  0.1827 -0.0306 -1.2651
 1250SOL    HW215213   3.804   4.661   7.193  0.7968 -1.0742  2.1529
 1251SOL     OW15214   0.165   0.222   4.226 -0.1631 -0.0864  0.2460
 1251SOL    HW115215   0.171   0.251   4.317  1.1647 -0.0518  0.1571
 1251SOL    HW215216   0.211   0.138   4.226 -1.1846 -0.6370  0.4845
 1252SOL     OW15217   1.406   3.456   0.726  0.3710  0.0615 -0.7185
 1252SOL    HW115218   1.375   3.371   0.759  0.9021 -0.3781 -1.3530
 1252SOL    HW215219   1.485   3.459   0.779 -1.3375 -3.7706  2.0907
 1253SOL     OW15220   3.830   3.751   9.490 -0.0620  0.1308  0.1616
 1253SOL    HW115221   3.793   3.729   9.405  0.2287 -1.3758  0.4200
 1253SOL    HW215222   3.789   3.836   9.509 -3.5684 -1.7610  1.0765
 1254SOL     OW15223   2.998   0.712   2.646 -0.4858  0.4703 -0.1507
 1254SOL    HW115224   3.066   0.722   2.580 -0.9530 -1.0960 -0.8517
 1254SOL    HW215225   3.025   0.776   2.713 -0.9451  0.7498 -0.2351
 1255SOL     OW15226   1.275   1.931   1.933 -0.1655 -0.1642 -0.2327
 1255SOL    HW115227   1.329   2.010   1.942 -0.6704  0.0982  0.5740
 1255SOL    HW215228   1.215   1.962   1.865  1.2677  1.6762 -0.6472
 1256SOL     OW15229   2.238   2.997   9.203  0.4813 -0.6244  0.3119
 1256SOL    HW115230   2.323   2.976   9.165  0.2283 -0.0901 -0.5592
 1256SOL    HW215231   2.263   3.059   9.271  2.9250 -0.7336 -0.4987
 1257SOL     OW15232   0.918   0.301   3.704  0.7091 -0.3057  0.4376
 1257SOL    HW115233   0.996   0.253   3.734  0.8663 -1.1234 -1.2846
 1257SOL    HW215234   0.949   0.387   3.677  0.1474 -0.4912 -0.8318
 1258SOL     OW15235   2.702   3.005   2.983  0.0418  0.3831 -0.5699
 1258SOL    HW115236   2.690   3.076   2.921 -0.4489  1.0608  0.3091
 1258SOL    HW215237   2.643   3.030   3.054  0.7047  1.2961 -0.3444
 1259SOL     OW15238   1.839   0.604  12.627  0.4374 -0.4593 -0.0845
 1259SOL    HW115239   1.759   0.626  12.674  0.8575 -1.0795  0.9394
 1259SOL    HW215240   1.834   0.510  12.647 -0.0496 -0.3031  0.5117
 1260SOL     OW15241   2.876   4.473   8.232 -0.3019 -0.0899  0.3123
 1260SOL    HW115242   2.910   4.454   8.144  0.8536  1.3567  0.4451
 1260SOL    HW215243   2.956   4.465   8.285 -0.6506  1.6138  1.0959
 1261SOL     OW15244   4.201   0.383  14.171 -0.3345 -0.7578  0.6617
 1261SOL    HW115245   4.291   0.415  14.182 -1.8821  4.0537 -0.8379
 1261SOL    HW215246   4.191   0.372  14.077  2.7305 -0.6394  0.3251
 1262SOL     OW15247   2.926   2.000  11.300 -0.0432  0.4451  0.1806
 1262SOL    HW115248   2.981   1.985  11.377 -0.7202  0.3141  0.6379
 1262SOL    HW215249   2.996   2.001  11.234 -0.2140  0.5071 -0.0013
 1263SOL     OW15250   4.188   1.203  15.817 -0.4082 -0.0285 -0.8913
 1263SOL    HW115251   4.256   1.146  15.783  0.6490  0.1188  0.9202
 1263SOL    HW215252   4.208   1.288  15.776 -0.6629 -0.5872 -2.1573
 1264SOL     OW15253   1.595   2.569   9.217 -0.4301  0.0836 -0.4028
 1264SOL    HW115254   1.575   2.529   9.132  0.7899  0.4311 -0.8610
 1264SOL    HW215255   1.642   2.645   9.183  0.2628  0.4625  1.4199
 1265SOL     OW15256   3.840   0.454   2.801  0.5635  0.1094 -0.2579
 1265SOL    HW115257   3.853   0.500   2.884  5.0752 -0.8976 -0.4262
 1265SOL    HW215258   3.745   0.443   2.798  0.6830 -0.8262 -0.6699
 1266SOL     OW15259   3.383   2.513   2.786 -0.6732 -0.1751  0.5401
 1266SOL    HW115260   3.472   2.512   2.822 -0.4395  1.3829  0.0283
 1266SOL    HW215261   3.339   2.457   2.850 -1.2834  1.0001  1.1419
 1267SOL     OW15262   1.436   0.411   5.896  0.2312  0.1688 -0.3587
 1267SOL    HW115263   1.413   0.472   5.826 -0.0405 -0.3441 -0.7091
 1267SOL    HW215264   1.530   0.400   5.881  0.1872  2.2786 -2.1926
 1268SOL     OW15265   0.250   1.863   8.223 -0.3273  0.0082 -0.2728
 1268SOL    HW115266   0.319   1.929   8.219 -0.6477  0.3068 -0.7588
 1268SOL    HW215267   0.219   1.876   8.313  0.2019  0.4569 -0.1519
 1269SOL     OW15268   4.668   4.441   7.269 -0.1081 -0.6798  0.2065
 1269SOL    HW115269   0.017   4.424   7.332 -0.0653 -2.4605 -0.3256
 1269SOL    HW215270   4.625   4.356   7.281  1.1118 -1.2308  0.6408
 1270SOL     OW15271   3.794   1.802   8.423 -0.0681 -0.3351  0.3951
 1270SOL    HW115272   3.767   1.886   8.387 -0.2261 -0.9783 -0.9699
 1270SOL    HW215273   3.778   1.739   8.353  0.4736 -1.2879  1.1135
 1271SOL     OW15274   3.394   4.316   3.417  0.0844  0.6561 -0.3309
 1271SOL    HW115275   3.302   4.328   3.441 -0.2649 -0.0793 -1.2933
 1271SOL    HW215276   3.417   4.400   3.377 -0.8187  0.3525 -1.4806
 1272SOL     OW15277   2.362   2.592   3.623 -0.5092 -0.4751 -0.2394
 1272SOL    HW115278   2.343   2.667   3.567  0.3319 -0.4369 -0.4861
 1272SOL    HW215279   2.454   2.569   3.607 -0.2572  0.9141 -0.8255
 1273SOL     OW15280   1.705   2.850  17.379  0.0012 -0.6166  0.2525
 1273SOL    HW115281   1.651   2.925  17.355  2.6647  1.1452 -0.2879
 1273SOL    HW215282   1.644   2.777  17.370 -0.9983  0.2942 -0.3081
 1274SOL     OW15283   1.723   2.555  16.105 -0.5310 -0.3574  0.4556
 1274SOL    HW115284   1.800   2.498  16.107  0.8699  1.4669 -1.2863
 1274SOL    HW215285   1.764   2.635  16.072  0.5056 -0.8730  0.4651
 1275SOL     OW15286   3.892   0.253   8.577 -0.3778  0.1196  0.2677
 1275SOL    HW115287   3.894   0.158   8.578  1.1445  0.1490  0.4120
 1275SOL    HW215288   3.969   0.279   8.628  0.7211 -1.3918 -0.6423
 1276SOL     OW15289   3.700   0.058   4.823  0.1387  0.2064  0.0327
 1276SOL    HW115290   3.784   0.086   4.787  0.6607 -2.3743 -0.7978
 1276SOL    HW215291   3.715   4.685   4.840  1.6054  0.5708  0.7148
 1277SOL     OW15292   4.014   0.933  12.626 -0.4176 -0.7064  0.2360
 1277SOL    HW115293   3.927   0.932  12.585 -0.4607 -1.8210  0.3494
 1277SOL    HW215294   4.009   0.997  12.696  1.0408  0.9848 -1.2237
 1278SOL     OW15295   3.219   3.921   8.316  0.2252 -0.2240 -0.5375
 1278SOL    HW115296   3.174   3.919   8.232 -2.0356 -2.2082  0.7193
 1278SOL    HW215297   3.150   3.893   8.377  1.0954  0.0866  0.5980
 1279SOL     OW15298   3.873   2.829   3.849 -0.1990  0.5085 -0.4757
 1279SOL    HW115299   3.800   2.890   3.856 -1.9457 -1.4514 -1.5585
 1279SOL    HW215300   3.855   2.772   3.923 -0.0203  2.0608  0.7562
 1280SOL     OW15301   1.354   3.335   4.405 -0.3271  0.0249  0.0376
 1280SOL    HW115302   1.277   3.325   4.349 -0.2754  1.5841 -0.3095
 1280SOL    HW215303   1.318   3.277   4.472  0.3377 -0.3279  0.0835
 1281SOL     OW15304   1.540   0.073  12.512  0.6286 -0.4706  0.5175
 1281SOL    HW115305   1.608   0.113  12.458 -0.6802  1.7217  0.5182
 1281SOL    HW215306   1.547   0.120  12.595  0.3919 -0.9600  0.8140
 1282SOL     OW15307   2.724   0.571   7.282 -0.0551 -0.2848 -0.1051
 1282SOL    HW115308   2.804   0.617   7.254  0.2814 -1.7705 -1.5475
 1282SOL    HW215309   2.724   0.591   7.376 -0.2139  0.4746 -0.2668
 1283SOL     OW15310   0.691   2.552   3.698  0.0457  0.2592 -0.3457
 1283SOL    HW115311   0.729   2.637   3.720 -1.2412  0.3624  1.4687
 1283SOL    HW215312   0.743   2.520   3.624  0.9777 -1.3265  0.9937
 1284SOL     OW15313   4.177   2.307   9.115 -0.2800 -0.3164 -0.4490
 1284SOL    HW115314   4.211   2.244   9.052  0.2612 -0.3305 -0.1431
 1284SOL    HW215315   4.244   2.374   9.100  0.1757 -0.6301  0.2219
 1285SOL     OW15316   1.339   0.799   8.427 -0.3562 -0.5784 -0.7857
 1285SOL    HW115317   1.320   0.893   8.424  0.6130 -0.3067  1.3187
 1285SOL    HW215318   1.249   0.773   8.447 -1.0955  2.5512 -0.0159
 1286SOL     OW15319   2.679   1.659   9.732  0.7037  0.0666 -0.3103
 1286SOL    HW115320   2.592   1.638   9.768  1.7763 -1.6075  1.3079
 1286SOL    HW215321   2.654   1.735   9.681 -1.3674  0.6140  1.5103
 1287SOL     OW15322   3.363   1.234   2.676  0.4227  0.3577 -0.6875
 1287SOL    HW115323   3.373   1.185   2.594  0.1293 -1.0186  0.0855
 1287SOL    HW215324   3.450   1.270   2.685  1.4702 -2.4258  0.4545
 1288SOL     OW15325   1.439   2.595  12.555  0.3378 -0.0183 -0.2995
 1288SOL    HW115326   1.370   2.531  12.537 -0.5491  0.4354  1.4924
 1288SOL    HW215327   1.482   2.540  12.621  0.2815 -0.7156 -0.8415
 1289SOL     OW15328   1.532   0.403   8.151  0.0180  0.1168  0.0469
 1289SOL    HW115329   1.573   0.366   8.072  0.5537  1.9314 -0.5161
 1289SOL    HW215330   1.456   0.446   8.111 -0.4377 -0.0837  0.7080
 1290SOL     OW15331   4.687   3.945   7.289 -0.2010  0.4382 -0.0263
 1290SOL    HW115332   4.707   3.964   7.380  2.0034 -1.1113 -0.1866
 1290SOL    HW215333   4.598   3.973   7.269  0.0988  0.4572 -1.3932
 1291SOL     OW15334   1.598   2.523   7.599 -0.8524  0.1848 -0.2230
 1291SOL    HW115335   1.510   2.514   7.637 -0.8545  0.2961 -0.2020
 1291SOL    HW215336   1.644   2.496   7.678 -1.2262  0.5614  0.1180
 1292SOL     OW15337   0.981   4.289  14.398  0.2324 -0.1028  0.2648
 1292SOL    HW115338   0.935   4.349  14.339  1.8827 -0.0718 -1.0039
 1292SOL    HW215339   1.036   4.239  14.337  0.2096 -1.4094  1.3096
 1293SOL     OW15340   4.228   2.861   7.539 -0.1173 -0.2175  0.6879
 1293SOL    HW115341   4.294   2.871   7.470 -2.1703 -0.7596 -1.3560
 1293SOL    HW215342   4.200   2.771   7.528 -0.7359  0.0983 -0.3532
 1294SOL     OW15343   1.795   3.183   0.116 -0.3887  0.1220  0.1276
 1294SOL    HW115344   1.732   3.234   0.065 -0.5736  0.1828  0.4191
 1294SOL    HW215345   1.783   3.098   0.073 -0.3589 -1.1267  2.6041
 1295SOL     OW15346   2.879   3.651   1.370 -0.0416 -0.6660  0.6698
 1295SOL    HW115347   2.961   3.656   1.320 -1.7970 -2.8196 -2.4407
 1295SOL    HW215348   2.888   3.740   1.403  1.5944 -0.6074  0.0824
 1296SOL     OW15349   2.373   1.347   2.326  0.0891  0.4656  0.3357
 1296SOL    HW115350   2.437   1.350   2.255 -0.5798  2.0929 -0.2225
 1296SOL    HW215351   2.428   1.372   2.400 -0.0317 -1.9989  1.2284
 1297SOL     OW15352   0.515   1.853  13.527  0.0370 -0.0026  0.3049
 1297SOL    HW115353   0.557   1.902  13.598 -2.3509  2.2172  0.1999
 1297SOL    HW215354   0.546   1.898  13.448 -1.4056  1.9612  0.8710
 1298SOL     OW15355   0.042   3.111   9.086 -0.1193  0.0647  0.1802
 1298SOL    HW115356   0.054   3.017   9.094 -0.9046 -0.2069 -1.7677
 1298SOL    HW215357   4.685   3.120   9.142 -0.8639 -0.5585 -0.7583
 1299SOL     OW15358   0.078   2.326   6.114 -0.8719  0.3849  0.2923
 1299SOL    HW115359   4.716   2.308   6.159 -0.8926  0.0925  0.1348
 1299SOL    HW215360   0.072   2.263   6.042 -0.0508  0.9117 -0.2277
 1300SOL     OW15361   3.097   2.738  10.971  0.1674 -0.4734 -0.1918
 1300SOL    HW115362   3.036   2.695  11.031 -0.3187 -2.3763 -2.0438
 1300SOL    HW215363   3.166   2.767  11.030  1.3606 -2.2155 -0.7483
 1301SOL     OW15364   0.307   4.236   0.807 -0.3290 -0.2257 -0.2819
 1301SOL    HW115365   0.347   4.155   0.838  0.9629 -0.1559 -1.7657
 1301SOL    HW215366   0.384   4.291   0.819  0.1652 -1.3323  1.5354
 1302SOL     OW15367   0.985   0.004   7.256  0.1358 -0.3935  0.1519
 1302SOL    HW115368   0.945   4.646   7.219  1.0089 -1.0109  0.5003
 1302SOL    HW215369   1.078   4.703   7.254 -0.2647 -2.1028 -0.3064
 1303SOL     OW15370   1.511   0.161   4.916  0.6539  0.3603  0.0100
 1303SOL    HW115371   1.452   0.166   4.991 -1.0477  0.6381 -1.3477
 1303SOL    HW215372   1.567   0.235   4.940  2.2171 -0.9955  0.5317
 1304SOL     OW15373   1.196   3.930   0.694 -0.0560  0.0747 -0.1855
 1304SOL    HW115374   1.201   3.876   0.615  1.5170  0.4223 -0.3314
 1304SOL    HW215375   1.274   3.904   0.743  0.0573  0.9846  0.1181
 1305SOL     OW15376   0.866   0.002   4.261  0.0450 -0.4189 -0.3534
 1305SOL    HW115377   0.828   4.655   4.204  1.7344 -0.8247 -1.0158
 1305SOL    HW215378   0.795   0.013   4.323  1.3277 -0.9089  1.2098
 1306SOL     OW15379   1.014   2.933   4.325  0.1114  0.7705 -0.0121
 1306SOL    HW115380   0.991   2.845   4.354 -1.1400  1.6241  1.6171
 1306SOL    HW215381   0.972   2.986   4.392 -3.2237  0.0406 -1.4746
 1307SOL     OW15382   2.036   1.125  13.261 -0.0744  0.1830  0.3157
 1307SOL    HW115383   2.048   1.145  13.354  1.3217  1.4140 -0.1202
 1307SOL    HW215384   2.033   1.031  13.273 -0.4248  0.2670  0.8828
 1308SOL     OW15385   4.306   2.231   1.599 -0.4857 -0.4595  0.2207
 1308SOL    HW115386   4.286   2.151   1.550 -0.3190 -0.9478  0.9505
 1308SOL    HW215387   4.396   2.251   1.573  0.6778 -0.9482  3.8360
 1309SOL     OW15388   3.168   0.442  11.353 -0.1485  0.2376  0.1913
 1309SOL    HW115389   3.076   0.425  11.334 -1.4918  1.5044  5.8088
 1309SOL    HW215390   3.180   0.423  11.445 -0.4802 -1.9349 -0.2215
 1310SOL     OW15391   3.063   1.776   8.561  0.4009 -0.3158  0.0632
 1310SOL    HW115392   3.157   1.759   8.569 -0.0185 -2.0756  1.4466
 1310SOL    HW215393   3.026   1.695   8.597  0.2093 -0.1338  0.2678
 1311SOL     OW15394   3.588   1.585  15.663 -0.2375  0.4653  0.5716
 1311SOL    HW115395   3.577   1.541  15.747  2.1807  0.3336  0.8408
 1311SOL    HW215396   3.619   1.673  15.684 -3.1154  2.0175 -1.7723
 1312SOL     OW15397   2.141   2.448   6.036 -0.2095 -0.1983 -0.3000
 1312SOL    HW115398   2.101   2.434   5.950 -1.5622  2.2281 -0.0650
 1312SOL    HW215399   2.132   2.543   6.036  0.7733 -0.1106  2.0949
 1313SOL     OW15400   3.410   3.985   7.139 -0.2480 -0.2537 -0.7313
 1313SOL    HW115401   3.490   3.971   7.190 -0.9416 -0.5542  0.2920
 1313SOL    HW215402   3.430   3.940   7.057  0.2293 -0.4628 -0.5025
 1314SOL     OW15403   2.145   3.458   3.028 -0.0728  0.7217 -0.0801
 1314SOL    HW115404   2.228   3.460   3.076  0.3468  0.8390 -0.8201
 1314SOL    HW215405   2.097   3.398   3.085 -0.0550  0.9737  0.2029
 1315SOL     OW15406   4.584   3.446   4.340 -0.2192  0.2891 -0.6197
 1315SOL    HW115407   4.587   3.488   4.254 -1.3142 -2.0158 -1.7914
 1315SOL    HW215408   4.492   3.437   4.363 -0.8666  0.0059 -3.3321
 1316SOL     OW15409   1.508   1.899  15.479 -0.2701  0.0675 -0.4639
 1316SOL    HW115410   1.491   1.971  15.541  0.9351 -0.1414  0.1242
 1316SOL    HW215411   1.592   1.865  15.512 -0.8530 -0.0223  0.9375
 1317SOL     OW15412   2.822   1.440   8.438 -0.0028  0.1046  1.0229
 1317SOL    HW115413   2.754   1.492   8.395  1.1383  2.1606  1.7299
 1317SOL    HW215414   2.799   1.449   8.531 -0.4803  1.1297  0.8003
 1318SOL     OW15415   4.255   2.460  17.040 -0.2375 -0.1946  0.2018
 1318SOL    HW115416   4.167   2.491  17.062 -1.2356 -3.0240  0.1748
 1318SOL    HW215417   4.283   2.416  17.120 -0.3669  1.5333  1.1978
 1319SOL     OW15418   0.692   2.567  15.202 -0.0128 -0.3059  0.4259
 1319SOL    HW115419   0.612   2.556  15.150 -0.9434 -0.2212  1.8427
 1319SOL    HW215420   0.654   2.536  15.284 -0.1899 -0.0993  0.4211
 1320SOL     OW15421   2.983   1.158   8.599  0.1352 -0.5175  0.2604
 1320SOL    HW115422   2.974   1.063   8.613 -2.2458 -0.5402 -1.3720
 1320SOL    HW215423   2.978   1.163   8.503  0.3334 -0.9052  0.2262
 1321SOL     OW15424   3.064   0.250  13.081  0.3630 -0.1713 -0.6446
 1321SOL    HW115425   3.064   0.258  12.985 -0.7732  0.2057 -0.6234
 1321SOL    HW215426   3.148   0.211  13.100  0.9378  0.1415 -2.5329
 1322SOL     OW15427   2.613   2.280   9.442  0.0260 -0.3938  0.2826
 1322SOL    HW115428   2.624   2.194   9.402 -1.3675 -1.7794  2.9174
 1322SOL    HW215429   2.693   2.278   9.494 -0.2195  1.1475  0.7291
 1323SOL     OW15430   3.115   1.065   4.193  0.5985 -0.3175  0.0434
 1323SOL    HW115431   3.171   1.020   4.256  1.0615 -2.5171 -1.9128
 1323SOL    HW215432   3.163   1.058   4.111  0.4025  2.5046 -0.3200
 1324SOL     OW15433   3.591   3.807   6.981  0.7521  0.3283 -0.3835
 1324SOL    HW115434   3.593   3.726   7.033 -2.4866 -0.8855 -2.1924
 1324SOL    HW215435   3.685   3.823   6.973  0.8806 -0.7357 -0.9800
 1325SOL     OW15436   0.560   3.980   0.549 -0.4675  0.1279 -0.2303
 1325SOL    HW115437   0.584   3.907   0.606  0.4181 -0.9055 -1.9131
 1325SOL    HW215438   0.483   3.941   0.507 -0.0398 -0.0651 -0.8312
 1326SOL     OW15439   2.357   0.388   1.666 -0.5377 -0.4426  0.1062
 1326SOL    HW115440   2.283   0.417   1.613  0.6415  1.2370 -0.6326
 1326SOL    HW215441   2.307   0.356   1.741 -1.1903  1.0053  0.2904
 1327SOL     OW15442   1.371   3.093   2.862 -0.0629 -0.0538  0.1908
 1327SOL    HW115443   1.392   3.159   2.927  0.1152  0.2083 -0.1342
 1327SOL    HW215444   1.451   3.079   2.811  0.2410  0.6557  0.4876
 1328SOL     OW15445   2.616   3.753  17.350  0.4150 -0.2773 -1.1071
 1328SOL    HW115446   2.652   3.665  17.352 -1.0195 -0.8634 -0.8582
 1328SOL    HW215447   2.672   3.789  17.281  0.8682  1.5317  0.2170
 1329SOL     OW15448   1.648   2.985  17.611 -0.2513 -0.5172 -0.1812
 1329SOL    HW115449   1.690   2.949  17.533  1.4022  1.9097 -0.4031
 1329SOL    HW215450   1.591   3.049  17.569 -1.2085 -1.1761  0.0818
 1330SOL     OW15451   2.593   0.300   5.372  0.2596  0.0262 -0.6082
 1330SOL    HW115452   2.677   0.280   5.413 -0.3420  0.5468  0.8655
 1330SOL    HW215453   2.614   0.329   5.284  0.3963  0.5395 -0.4036
 1331SOL     OW15454   1.081   4.022  10.266  0.0794 -0.5416  0.0096
 1331SOL    HW115455   1.027   3.943  10.272 -0.5882 -0.1438 -0.6970
 1331SOL    HW215456   1.158   3.980  10.303 -0.4088  0.0120  1.6324
 1332SOL     OW15457   2.524   1.668   2.573  0.0909 -0.2189 -0.0539
 1332SOL    HW115458   2.511   1.703   2.485  0.2750  0.2721  0.1140
 1332SOL    HW215459   2.538   1.577   2.547 -2.7738 -1.0881  1.4507
 1333SOL     OW15460   1.433   1.481  13.285 -0.3273  0.7052 -0.1216
 1333SOL    HW115461   1.486   1.406  13.311  0.0790  0.7100 -0.9418
 1333SOL    HW215462   1.355   1.438  13.251  0.0000  0.1365 -0.1436
 1334SOL     OW15463   0.290   2.561  12.338 -0.1938 -0.0784  0.5970
 1334SOL    HW115464   0.267   2.513  12.418  0.8621  0.0782  0.9857
 1334SOL    HW215465   0.242   2.643  12.347 -1.6883 -0.8125 -0.6051
 1335SOL     OW15466   3.903   0.500  14.929 -0.3165  0.1226  0.1678
 1335SOL    HW115467   3.821   0.541  14.899 -0.5344 -0.7074 -0.3807
 1335SOL    HW215468   3.947   0.566  14.983 -0.5283  0.5647 -0.1954
 1336SOL     OW15469   2.450   3.099   2.332  0.0611 -0.1938 -0.1005
 1336SOL    HW115470   2.516   3.143   2.385  1.1058 -1.5293 -0.3058
 1336SOL    HW215471   2.386   3.167   2.311 -0.5363 -1.1158 -1.2516
 1337SOL     OW15472   1.829   0.111   9.482  0.0221 -0.0015 -0.2709
 1337SOL    HW115473   1.832   0.205   9.465  0.6563  0.4421  2.2980
 1337SOL    HW215474   1.770   0.101   9.558  1.7720  0.7507  1.1814
 1338SOL     OW15475   3.764   3.262  14.098 -0.1270  0.4137  0.1569
 1338SOL    HW115476   3.772   3.355  14.118  0.4734  0.5972 -0.9801
 1338SOL    HW215477   3.770   3.208  14.177  1.6397 -1.4384 -1.2804
 1339SOL     OW15478   2.234   1.134   4.124 -0.0709  0.1826  0.2296
 1339SOL    HW115479   2.292   1.185   4.066  1.0788 -1.1880  0.1905
 1339SOL    HW215480   2.195   1.196   4.185  1.6952  2.5362 -1.0223
 1340SOL     OW15481   1.807   2.773   0.805 -0.3983 -0.1985 -0.0920
 1340SOL    HW115482   1.773   2.862   0.811  2.0809  0.7179  0.7616
 1340SOL    HW215483   1.887   2.787   0.754  1.6133  0.8284  3.3418
 1341SOL     OW15484   2.638   1.365   7.596  0.4870 -0.1080 -0.5252
 1341SOL    HW115485   2.597   1.325   7.519 -0.0346  2.2889 -1.5106
 1341SOL    HW215486   2.617   1.299   7.662 -2.8043 -0.5543 -2.0100
 1342SOL     OW15487   2.978   3.161  16.523  0.4220  0.0224 -0.4903
 1342SOL    HW115488   2.929   3.217  16.583  3.1730  0.4571  1.3406
 1342SOL    HW215489   3.065   3.201  16.514  0.4647  0.1191  0.3227
 1343SOL     OW15490   1.611   3.745  10.864  0.6392 -0.0736  0.0665
 1343SOL    HW115491   1.702   3.756  10.836  0.4295  0.0999 -0.5309
 1343SOL    HW215492   1.581   3.832  10.841  0.5844 -0.0764  0.1257
 1344SOL     OW15493   0.364   1.484  10.865 -0.2622  0.5532  0.3134
 1344SOL    HW115494   0.269   1.475  10.870 -0.1178 -0.1947  1.8929
 1344SOL    HW215495   0.383   1.541  10.940 -0.3900  2.1641 -0.8709
 1345SOL     OW15496   2.260   3.276   8.585  0.0676  0.1556  0.0246
 1345SOL    HW115497   2.328   3.217   8.618  0.9425  0.8120 -0.6218
 1345SOL    HW215498   2.182   3.221   8.579  0.6058 -0.7896  1.8341
 1346SOL     OW15499   3.379   1.761   5.954 -0.2895  0.5851  0.8195
 1346SOL    HW115500   3.394   1.854   5.936  0.0758  0.0735 -1.4096
 1346SOL    HW215501   3.380   1.757   6.050  0.3139 -2.5855  0.6600
 1347SOL     OW15502   0.024   4.670  11.397  0.0963  0.0813  0.1456
 1347SOL    HW115503   0.087   4.656  11.326  1.1558 -1.7897  1.4552
 1347SOL    HW215504   0.005   0.042  11.378  1.4924  0.5969  1.3189
 1348SOL     OW15505   4.473   1.958   3.833  0.7614 -0.2297  0.5282
 1348SOL    HW115506   4.484   1.868   3.864 -0.6539 -1.5074 -2.6666
 1348SOL    HW215507   4.429   1.946   3.749  2.2968 -2.9163  0.0743
 1349SOL     OW15508   4.075   1.674   6.410  0.2585  0.0336 -0.0756
 1349SOL    HW115509   4.039   1.730   6.480 -2.5822 -1.3437 -0.4521
 1349SOL    HW215510   4.043   1.721   6.333  0.1245  0.3437  0.1677
 1350SOL     OW15511   3.944   3.308   4.020 -0.5090 -0.0657 -0.6448
 1350SOL    HW115512   3.876   3.252   4.057 -1.0316 -0.4218 -2.1462
 1350SOL    HW215513   3.900   3.392   4.012 -0.7317 -0.0940  0.2377
 1351SOL     OW15514   2.861   0.971   2.468  0.0632  0.1515 -0.1392
 1351SOL    HW115515   2.790   0.908   2.456  0.2594 -0.2301  0.7062
 1351SOL    HW215516   2.834   0.993   2.557  0.0698  1.0987 -0.3754
 1352SOL     OW15517   3.154   1.752  16.595 -0.1207 -0.1786  0.2166
 1352SOL    HW115518   3.152   1.742  16.500  1.3696 -0.5870  0.2179
 1352SOL    HW215519   3.241   1.790  16.610 -0.8874  2.0589 -1.0942
 1353SOL     OW15520   2.558   2.049  14.938 -0.4813  0.0394  0.2309
 1353SOL    HW115521   2.474   2.004  14.949 -1.1820  1.5058  0.9611
 1353SOL    HW215522   2.552   2.099  14.856 -0.7994 -0.8637 -0.3032
 1354SOL     OW15523   2.459   3.765   4.203 -0.0882  0.4181 -0.1267
 1354SOL    HW115524   2.372   3.790   4.234 -1.0147 -2.6338 -0.1714
 1354SOL    HW215525   2.497   3.849   4.179  0.6078 -0.5080 -2.2939
 1355SOL     OW15526   2.909   2.861   2.824 -0.1887  0.0148 -0.2273
 1355SOL    HW115527   2.821   2.894   2.806 -0.3489  0.6502  1.6598
 1355SOL    HW215528   2.953   2.944   2.841 -2.4282  0.9160  1.1221
 1356SOL     OW15529   0.127   2.553   0.429  0.9301 -0.1099 -0.0676
 1356SOL    HW115530   0.078   2.634   0.442  0.3497 -0.6267  0.8973
 1356SOL    HW215531   0.137   2.556   0.333 -0.1821 -0.7657 -0.2051
 1357SOL     OW15532   2.747   2.574   7.800  0.5154 -0.5521  0.6301
 1357SOL    HW115533   2.806   2.509   7.838  0.7267  0.2761  1.7174
 1357SOL    HW215534   2.706   2.608   7.880  0.2331  0.9688 -0.1536
 1358SOL     OW15535   0.686   4.285   3.339 -0.4808 -0.0076  0.4611
 1358SOL    HW115536   0.634   4.318   3.266  0.7012 -1.6657 -1.1262
 1358SOL    HW215537   0.757   4.349   3.345 -0.9470  0.6542 -1.0525
 1359SOL     OW15538   4.143   3.436   5.731  0.0617  0.0456 -0.4603
 1359SOL    HW115539   4.058   3.481   5.730  1.5538  2.9225  0.5276
 1359SOL    HW215540   4.207   3.503   5.754 -0.2561 -0.0040  0.6025
 1360SOL     OW15541   0.088   0.119   2.029 -0.2971 -0.0533  0.3547
 1360SOL    HW115542   0.075   0.133   1.936  0.2562  0.6927  0.3846
 1360SOL    HW215543   0.106   0.208   2.061  3.4812 -1.4100  2.1331
 1361SOL     OW15544   1.366   1.491   6.418  0.1409 -0.4453 -0.2163
 1361SOL    HW115545   1.352   1.452   6.332  0.9435 -0.7581 -0.2110
 1361SOL    HW215546   1.302   1.439   6.467  0.6839 -1.0017 -0.0896
 1362SOL     OW15547   1.753   2.925  17.028  0.4179  0.0968 -0.3841
 1362SOL    HW115548   1.795   2.900  16.946 -0.7900 -1.2269 -0.5853
 1362SOL    HW215549   1.819   2.956  17.090  0.7323  1.3003 -1.3329
 1363SOL     OW15550   2.104   2.254   3.524  0.0973 -0.2323 -0.4069
 1363SOL    HW115551   2.123   2.238   3.431 -1.8767  3.0533 -1.3824
 1363SOL    HW215552   2.137   2.171   3.558  0.2030 -0.5475 -1.2832
 1364SOL     OW15553   4.588   0.910  11.360  0.1728  0.7043  0.1023
 1364SOL    HW115554   4.680   0.904  11.333  0.4346  2.1092  0.6632
 1364SOL    HW215555   4.600   0.944  11.448  1.9450  1.3157 -0.3709
 1365SOL     OW15556   2.828   1.991  14.934  0.1694 -0.2846  0.3533
 1365SOL    HW115557   2.735   2.005  14.917  0.7076  0.0866 -2.3192
 1365SOL    HW215558   2.822   1.996  15.029 -1.1514 -1.2474  0.3240
 1366SOL     OW15559   0.671   4.521  14.470  0.4127 -0.0132 -0.1161
 1366SOL    HW115560   0.601   4.531  14.535  1.0390  1.0513  0.3965
 1366SOL    HW215561   0.698   4.612  14.482 -1.8706  0.3180  2.6161
 1367SOL     OW15562   1.553   1.010   6.069 -0.7980 -0.4546  0.0945
 1367SOL    HW115563   1.593   0.924   6.067  0.7228  0.2682 -0.8133
 1367SOL    HW215564   1.624   1.064   6.104 -1.0004  0.2452 -0.5587
 1368SOL     OW15565   2.485   2.465   6.975  0.5131  0.3932  0.3197
 1368SOL    HW115566   2.479   2.465   7.071  0.9241  2.3170  0.3351
 1368SOL    HW215567   2.538   2.393   6.941 -2.1038 -1.0507 -0.6889
 1369SOL     OW15568   4.695   2.840   3.107  0.2000 -0.6004 -0.4250
 1369SOL    HW115569   4.693   2.840   3.203 -2.2968 -2.7688 -0.4901
 1369SOL    HW215570   4.607   2.832   3.073 -0.5357  0.9398  1.1299
 1370SOL     OW15571   2.198   2.734   3.190 -0.2988  0.2089  0.9813
 1370SOL    HW115572   2.225   2.726   3.281  1.7166 -0.1231  0.3572
 1370SOL    HW215573   2.109   2.766   3.199 -1.0328 -0.9959 -1.8997
 1371SOL     OW15574   0.189   3.621   7.810 -0.5208 -0.4017  0.1275
 1371SOL    HW115575   0.174   3.570   7.890 -1.8280  0.2971  0.3276
 1371SOL    HW215576   0.275   3.658   7.829  0.0475 -0.6012 -2.0674
 1372SOL     OW15577   1.938   1.631   4.092  0.2248  0.3893  0.1008
 1372SOL    HW115578   1.980   1.716   4.101  1.2610 -0.0540 -0.5684
 1372SOL    HW215579   1.911   1.650   4.002 -0.7394 -0.9886  0.0937
 1373SOL     OW15580   4.429   3.065   4.410  0.4987 -0.1250 -0.3485
 1373SOL    HW115581   4.407   2.999   4.476 -1.0740 -1.2026 -1.9709
 1373SOL    HW215582   4.411   3.142   4.464  2.5266 -0.5328  0.9341
 1374SOL     OW15583   2.811   2.880   1.511  0.2715  0.1350  0.2881
 1374SOL    HW115584   2.810   2.934   1.590  0.0644  0.3026  0.1721
 1374SOL    HW215585   2.730   2.907   1.468 -0.0830 -0.6053  0.5024
 1375SOL     OW15586   2.723   2.586   9.503  0.3655 -0.0276  0.4476
 1375SOL    HW115587   2.768   2.660   9.543 -0.8949 -0.4321  2.6394
 1375SOL    HW215588   2.750   2.517   9.563 -0.9203 -2.9780 -2.3608
 1376SOL     OW15589   1.910   2.099   3.915 -0.3041 -0.4273 -0.5175
 1376SOL    HW115590   1.905   2.038   3.842  2.8383 -3.5984  1.8910
 1376SOL    HW215591   1.864   2.173   3.876 -1.0190  0.0139  1.1621
 1377SOL     OW15592   0.994   2.772   2.903  0.0932 -0.3816  0.2432
 1377SOL    HW115593   1.084   2.788   2.932  0.9739 -0.3915 -2.4583
 1377SOL    HW215594   1.014   2.686   2.865  3.7157 -0.9755  3.4736
 1378SOL     OW15595   1.496   1.921   9.825 -0.8877  0.3718 -0.3643
 1378SOL    HW115596   1.427   1.983   9.802 -1.6467  0.4835  2.1799
 1378SOL    HW215597   1.568   1.937   9.765 -2.8912  2.4221 -2.2084
 1379SOL     OW15598   4.287   3.502  12.110  0.3545  0.4634 -0.0722
 1379SOL    HW115599   4.338   3.439  12.060 -1.8362 -0.2282 -1.4449
 1379SOL    HW215600   4.252   3.446  12.180 -0.6594  0.4976 -0.5531
 1380SOL     OW15601   4.719   0.958   9.897 -0.1770 -0.2252 -0.3979
 1380SOL    HW115602   0.039   1.042   9.874 -0.4643  0.3073  0.9947
 1380SOL    HW215603   0.053   0.941   9.975 -0.5508  2.1989  0.4042
 1381SOL     OW15604   0.326   4.050  17.192  0.4182 -0.0479  0.1042
 1381SOL    HW115605   0.351   3.961  17.167 -3.4420 -0.8202 -0.9667
 1381SOL    HW215606   0.401   4.099  17.158 -0.5926  0.1658 -1.8103
 1382SOL     OW15607   0.639   3.889   9.224  0.3810  0.5240 -0.7097
 1382SOL    HW115608   0.568   3.827   9.211  0.3313  0.7354 -1.4571
 1382SOL    HW215609   0.667   3.887   9.132 -0.6311 -0.1641 -1.0041
 1383SOL     OW15610   4.703   4.194   0.082 -0.0837  0.2192 -0.1935
 1383SOL    HW115611   4.612   4.168   0.065 -0.4537  1.8125 -0.6224
 1383SOL    HW215612   0.030   4.150   0.012  0.6255  0.1234  0.3546
 1384SOL     OW15613   2.332   2.131   5.096 -0.1917  0.7550  0.0133
 1384SOL    HW115614   2.333   2.036   5.084  1.6739  0.8100 -0.3247
 1384SOL    HW215615   2.321   2.132   5.191 -1.4539 -0.1274 -0.1253
 1385SOL     OW15616   1.814   0.742   9.730  0.1504  0.0538 -0.0317
 1385SOL    HW115617   1.896   0.782   9.758  0.1450  0.0793 -0.0522
 1385SOL    HW215618   1.755   0.780   9.795  1.8028  0.9190  0.9613
 1386SOL     OW15619   0.968   3.226   1.193 -0.4837  0.5459  0.2425
 1386SOL    HW115620   0.990   3.157   1.256 -2.2842  1.3861  1.8122
 1386SOL    HW215621   0.940   3.165   1.125  0.6068 -0.5648  0.8048
 1387SOL     OW15622   2.595   2.109   3.628  0.6853  0.3173  0.3991
 1387SOL    HW115623   2.654   2.141   3.696  0.3361  0.4087  0.6592
 1387SOL    HW215624   2.606   2.189   3.575  0.9956  1.2428  1.8539
 1388SOL     OW15625   2.570   3.129   6.076  0.4459  0.0677 -0.3154
 1388SOL    HW115626   2.569   3.215   6.119  0.7497  0.1263 -0.4252
 1388SOL    HW215627   2.544   3.063   6.140  0.4646 -0.6890 -1.1039
 1389SOL     OW15628   1.142   3.373  14.686 -0.1338 -0.6900  0.1242
 1389SOL    HW115629   1.210   3.378  14.618 -0.9632 -1.1905 -0.7480
 1389SOL    HW215630   1.134   3.466  14.707 -1.1674 -1.1753  1.7892
 1390SOL     OW15631   4.555   3.978   8.443 -0.1778  0.0206  0.5539
 1390SOL    HW115632   4.490   3.954   8.509  1.3820  1.2013  2.5196
 1390SOL    HW215633   4.577   4.064   8.478  0.2142  0.2547 -0.2771
 1391SOL     OW15634   4.464   0.724  12.364 -0.4668 -0.1405  0.9505
 1391SOL    HW115635   4.435   0.723  12.272  2.4431  1.1729  0.0172
 1391SOL    HW215636   4.555   0.699  12.350  0.1689  2.1555  0.9200
 1392SOL     OW15637   2.165   3.325   3.518  0.5151  0.1102  0.5188
 1392SOL    HW115638   2.137   3.351   3.606  0.0079  1.1915  0.0325
 1392SOL    HW215639   2.157   3.230   3.527 -1.1749  0.3825  1.8044
 1393SOL     OW15640   3.552   4.384   4.973  0.0512 -0.0526  0.0951
 1393SOL    HW115641   3.501   4.335   4.908  0.3461 -1.0042  0.5845
 1393SOL    HW215642   3.605   4.312   5.006  0.2741  0.7912  1.5743
 1394SOL     OW15643   3.507   4.196   3.970  1.0549 -0.1145  0.1043
 1394SOL    HW115644   3.513   4.190   4.065  2.8687 -0.4058 -0.0211
 1394SOL    HW215645   3.528   4.108   3.941  0.9216  0.5810 -2.1404
 1395SOL     OW15646   1.867   4.151   5.962 -0.1178 -0.1685  0.4239
 1395SOL    HW115647   1.868   4.171   6.056 -0.8206  2.9005 -0.2204
 1395SOL    HW215648   1.834   4.061   5.957 -0.3181 -0.0924  0.3700
 1396SOL     OW15649   2.101   2.944   1.612  0.0735  0.0605  0.1179
 1396SOL    HW115650   2.076   2.864   1.658  1.5239 -0.1130  0.6001
 1396SOL    HW215651   2.073   3.012   1.674  0.9923  0.0664  0.5346
 1397SOL     OW15652   2.895   3.136   2.254  0.2913  1.2559  0.0614
 1397SOL    HW115653   2.845   3.054   2.249  0.1787  1.1888  1.9635
 1397SOL    HW215654   2.851   3.205   2.205 -0.6385 -0.4275 -1.4962
 1398SOL     OW15655   2.810   1.762  10.620  0.0846  0.0726 -0.3460
 1398SOL    HW115656   2.889   1.750  10.568  0.6473 -0.0763  0.5424
 1398SOL    HW215657   2.780   1.671  10.617 -1.8112  0.7065 -0.9549
 1399SOL     OW15658   3.550   0.545  13.813  0.0832  0.2976  0.7030
 1399SOL    HW115659   3.622   0.490  13.781  2.0568  2.9812  0.5024
 1399SOL    HW215660   3.512   0.586  13.736 -0.8255 -1.0404  0.4494
 1400SOL     OW15661   2.612   3.386   1.618  0.1492  0.0143 -0.0359
 1400SOL    HW115662   2.617   3.436   1.537  1.8318  1.2864  0.8534
 1400SOL    HW215663   2.518   3.391   1.635  0.2925  0.5186  0.6404
 1401SOL     OW15664   2.117   3.468   5.279 -0.1943  0.4076 -0.0803
 1401SOL    HW115665   2.049   3.527   5.248  0.5880  0.2795 -2.0135
 1401SOL    HW215666   2.067   3.387   5.268  1.1266 -0.3419 -0.7056
 1402SOL     OW15667   2.323   3.576   4.482  0.1457  0.4746 -0.0576
 1402SOL    HW115668   2.415   3.601   4.475  0.8433 -2.1009  0.0448
 1402SOL    HW215669   2.282   3.657   4.451  0.3145  0.1342 -1.1588
 1403SOL     OW15670   1.564   1.118   6.963 -0.4667 -0.0024 -0.1592
 1403SOL    HW115671   1.628   1.160   7.020 -0.6974  0.3657 -0.1737
 1403SOL    HW215672   1.605   1.128   6.877  0.9642 -2.3097  0.2602
 1404SOL     OW15673   3.510   1.948  16.211  0.0745 -0.0744  0.3893
 1404SOL    HW115674   3.501   1.858  16.243 -0.1168 -1.1696 -2.7708
 1404SOL    HW215675   3.489   1.991  16.293 -2.2565  1.9175 -1.2707
 1405SOL     OW15676   0.465   1.466  10.599 -0.4129  0.3061 -0.1716
 1405SOL    HW115677   0.513   1.549  10.597 -1.4917  0.9476  0.3604
 1405SOL    HW215678   0.406   1.478  10.674  0.2276  2.3917 -0.0042
 1406SOL     OW15679   1.124   3.338   6.930  0.0126 -0.5103  0.0174
 1406SOL    HW115680   1.080   3.254   6.916 -0.4948  0.3894 -3.7203
 1406SOL    HW215681   1.088   3.347   7.018 -1.0943  1.9142 -0.7017
 1407SOL     OW15682   2.742   0.653  12.234  0.0249 -0.3409 -0.6352
 1407SOL    HW115683   2.789   0.721  12.186 -0.0547  0.4660  0.4295
 1407SOL    HW215684   2.715   0.595  12.162 -2.5800  1.5867 -1.1995
 1408SOL     OW15685   1.140   1.715   5.904 -0.5733 -0.0465  0.4284
 1408SOL    HW115686   1.078   1.717   5.977  0.1251 -2.8081  1.1089
 1408SOL    HW215687   1.135   1.623   5.880 -1.5831  0.1240 -0.0236
 1409SOL     OW15688   3.930   4.157   7.911  0.4966 -0.5889  0.2517
 1409SOL    HW115689   3.988   4.142   7.987 -0.8842 -0.8591  1.2539
 1409SOL    HW215690   3.854   4.108   7.943  0.2434 -1.9961 -2.5047
 1410SOL     OW15691   0.036   3.417   7.686 -0.4397  0.5245 -0.5034
 1410SOL    HW115692   0.074   3.483   7.745  0.7783 -1.4851  0.9464
 1410SOL    HW215693   4.681   3.402   7.742  0.3934  2.6137  1.1861
 1411SOL     OW15694   3.698   2.983   8.637 -0.5158  0.9238 -0.2722
 1411SOL    HW115695   3.742   2.923   8.576 -1.1329 -0.6743  0.8560
 1411SOL    HW215696   3.662   2.920   8.699  0.6771 -0.2308 -0.7451
 1412SOL     OW15697   3.791   1.926  10.317  0.0567  0.2191 -0.2986
 1412SOL    HW115698   3.877   1.968  10.327  0.0360  0.0069  0.8381
 1412SOL    HW215699   3.825   1.848  10.274  0.1825  0.2662 -0.2849
 1413SOL     OW15700   4.324   0.065   7.731  0.5252  0.5087  0.2322
 1413SOL    HW115701   4.307   4.694   7.708  0.1706 -0.2215  3.3701
 1413SOL    HW215702   4.355   0.041   7.819  2.2534 -1.3203 -0.8703
 1414SOL     OW15703   3.314   0.405   4.455 -0.0022  0.0850  0.3312
 1414SOL    HW115704   3.354   0.363   4.380  0.8454  0.6184  0.4849
 1414SOL    HW215705   3.290   0.335   4.515  2.6102 -0.8630  0.2449
 1415SOL     OW15706   1.612   1.866   5.719  0.7370 -0.0501 -0.8198
 1415SOL    HW115707   1.676   1.909   5.663  2.2096  0.9555  1.6083
 1415SOL    HW215708   1.672   1.860   5.794  0.8471  1.4303 -0.7806
 1416SOL     OW15709   0.477   0.810   2.584  0.0115  0.4000 -0.2466
 1416SOL    HW115710   0.414   0.758   2.534 -0.2866 -0.8388  1.4227
 1416SOL    HW215711   0.515   0.862   2.513  2.0710 -2.1230 -0.9917
 1417SOL     OW15712   3.995   2.968   6.385  0.0669  0.1611 -0.4285
 1417SOL    HW115713   3.983   2.876   6.360 -2.8206  0.8826 -1.7986
 1417SOL    HW215714   4.051   3.006   6.318  1.9841 -3.1408 -0.7011
 1418SOL     OW15715   1.368   0.664   2.881  0.6091 -0.2393 -0.1765
 1418SOL    HW115716   1.286   0.616   2.871 -0.0518  0.4980  1.5686
 1418SOL    HW215717   1.437   0.607   2.848  0.0414  0.2840 -2.2191
 1419SOL     OW15718   1.141   1.321   6.255  0.2408  0.0344 -0.1291
 1419SOL    HW115719   1.104   1.238   6.224  0.1411  0.5558 -1.3992
 1419SOL    HW215720   1.224   1.335   6.210 -1.8062  2.9726 -2.9930
 1420SOL     OW15721   0.975   3.179  15.897 -0.1852  0.5643 -0.3002
 1420SOL    HW115722   0.925   3.107  15.936 -0.2117 -0.3616 -2.0664
 1420SOL    HW215723   1.034   3.188  15.972 -0.9314  2.3811  0.0538
 1421SOL     OW15724   4.554   0.145   3.514 -0.1228  0.6846  0.4678
 1421SOL    HW115725   4.518   0.234   3.514  0.4014  0.8979  0.0737
 1421SOL    HW215726   4.489   0.101   3.461 -0.8717 -0.1003  2.0419
 1422SOL     OW15727   1.224   2.070   5.646 -0.0625  0.1469 -0.1243
 1422SOL    HW115728   1.180   2.155   5.641 -1.5390 -0.5654  0.8322
 1422SOL    HW215729   1.291   2.072   5.579  0.5630 -0.1867  0.4926
 1423SOL     OW15730   1.010   4.267  15.599 -0.1617 -0.2231 -0.2332
 1423SOL    HW115731   1.058   4.253  15.681  0.4792 -4.0498 -1.2890
 1423SOL    HW215732   0.931   4.301  15.642 -0.1884 -0.3979 -0.1420
 1424SOL     OW15733   1.303   1.262  10.810 -0.2515  0.2044 -0.0198
 1424SOL    HW115734   1.329   1.353  10.825 -0.3197  0.5806 -2.1304
 1424SOL    HW215735   1.327   1.243  10.901 -3.1049 -2.2238  0.2348
 1425SOL     OW15736   4.624   0.681  15.330  0.1542 -0.0645 -0.1522
 1425SOL    HW115737   4.711   0.669  15.291 -0.3798 -0.5814 -1.1767
 1425SOL    HW215738   4.629   0.769  15.367 -0.9051 -0.7896  1.7367
 1426SOL     OW15739   4.601   0.953   7.620 -0.1965 -0.4778  0.1269
 1426SOL    HW115740   4.660   1.025   7.644 -1.2904 -0.3867  2.5657
 1426SOL    HW215741   4.602   0.900   7.699 -0.6628 -0.2296  0.2993
 1427SOL     OW15742   0.164   2.419   7.587  0.6269 -0.0313  0.3309
 1427SOL    HW115743   0.116   2.337   7.574  1.8002 -0.7793  0.7350
 1427SOL    HW215744   0.110   2.480   7.536  0.9719 -0.3682 -0.4476
 1428SOL     OW15745   4.561   0.625   6.614 -0.1353  0.4927 -0.0269
 1428SOL    HW115746   4.652   0.643   6.641  0.3207 -1.4190 -0.2677
 1428SOL    HW215747   4.568   0.530   6.601 -1.1552  0.5639 -1.0686
 1429SOL     OW15748   0.882   0.345   1.461  0.3676  0.1482 -0.8219
 1429SOL    HW115749   0.895   0.255   1.493  0.4275 -0.4300 -2.4675
 1429SOL    HW215750   0.813   0.336   1.396  1.8204 -1.1329 -2.1823
 1430SOL     OW15751   2.131   2.955  10.060  0.5419 -0.5715 -0.3972
 1430SOL    HW115752   2.173   2.963  10.145 -3.2358  1.7452  1.2801
 1430SOL    HW215753   2.082   2.876  10.083  0.7897 -0.7723 -0.5627
 1431SOL     OW15754   0.384   0.629  17.057  0.7811  0.3304  0.1013
 1431SOL    HW115755   0.311   0.586  17.013  1.3360  0.0016 -0.5066
 1431SOL    HW215756   0.453   0.581  17.012  0.9520 -0.3466  1.0708
 1432SOL     OW15757   0.063   2.571  14.405 -0.3626 -0.0889 -0.2313
 1432SOL    HW115758   4.706   2.624  14.388 -0.4028  0.5531  1.9661
 1432SOL    HW215759   0.108   2.573  14.321 -0.1310 -2.5130 -0.1741
 1433SOL     OW15760   2.805   2.152  11.621  0.2998 -0.3832 -0.2966
 1433SOL    HW115761   2.732   2.091  11.611  0.1441 -0.1763 -0.4388
 1433SOL    HW215762   2.832   2.140  11.712 -1.3617 -0.4495  0.1830
 1434SOL     OW15763   3.149   1.641   7.248 -0.1754  0.1836 -0.2214
 1434SOL    HW115764   3.190   1.621   7.333 -0.4418  4.6823  0.9525
 1434SOL    HW215765   3.230   1.670   7.206 -0.8805  1.4385 -0.6989
 1435SOL     OW15766   3.194   1.808   5.114 -0.2505  0.2008  0.0916
 1435SOL    HW115767   3.173   1.715   5.099  0.9761 -0.1965  0.8246
 1435SOL    HW215768   3.126   1.845   5.058  0.4428  1.6711  0.2210
 1436SOL     OW15769   3.478   0.356   8.290  0.1551 -0.0623  0.1324
 1436SOL    HW115770   3.414   0.315   8.349  0.4270  1.8611  1.7581
 1436SOL    HW215771   3.554   0.307   8.321 -0.2460 -1.3675 -0.9403
 1437SOL     OW15772   1.459   2.579   5.871 -0.4856 -0.2674  0.6859
 1437SOL    HW115773   1.379   2.595   5.922 -0.8626  1.6920 -0.4921
 1437SOL    HW215774   1.529   2.589   5.935 -1.2808 -0.0149  1.5133
 1438SOL     OW15775   0.140   1.651  14.964  0.4504 -0.5323  0.0966
 1438SOL    HW115776   0.157   1.656  14.870 -1.4221  2.1584 -0.0925
 1438SOL    HW215777   0.198   1.721  14.994 -0.7347  1.2220 -1.7040
 1439SOL     OW15778   3.130   0.410   2.431 -0.0865 -0.5897  0.0477
 1439SOL    HW115779   3.061   0.412   2.365  1.4161 -0.1373 -1.4969
 1439SOL    HW215780   3.069   0.419   2.504  0.0322 -1.8674  0.3159
 1440SOL     OW15781   4.078   2.377   5.282  0.1968 -0.4087  0.3251
 1440SOL    HW115782   4.011   2.398   5.347  1.7657 -0.9897  2.0949
 1440SOL    HW215783   4.106   2.291   5.311 -0.0776 -1.1275 -1.4890
 1441SOL     OW15784   2.566   2.698   0.790 -0.2215 -0.0064  0.6845
 1441SOL    HW115785   2.576   2.684   0.884  0.1211 -0.5493  0.5666
 1441SOL    HW215786   2.558   2.793   0.796 -0.8206  0.1140 -1.9873
 1442SOL     OW15787   2.239   1.323   4.773  0.1788  0.1093  0.7278
 1442SOL    HW115788   2.301   1.302   4.704  0.7686 -1.1674  1.6431
 1442SOL    HW215789   2.173   1.255   4.760  1.4121 -0.7752 -0.7884
 1443SOL     OW15790   3.891   3.235   3.054  0.0926 -0.2494 -0.1816
 1443SOL    HW115791   3.928   3.148   3.036 -0.2773 -0.3558 -0.4129
 1443SOL    HW215792   3.825   3.247   2.986  0.4808 -2.1065 -0.8767
 1444SOL     OW15793   1.528   1.501  11.759 -0.0447 -0.4488 -0.2101
 1444SOL    HW115794   1.566   1.580  11.720  0.8659 -0.6858  0.1952
 1444SOL    HW215795   1.434   1.519  11.764  0.1605  0.4179  0.4913
 1445SOL     OW15796   1.247   4.247  15.015 -0.1294 -0.1440  0.2950
 1445SOL    HW115797   1.204   4.333  15.011  2.1019  1.1179  3.8566
 1445SOL    HW215798   1.186   4.199  14.958 -0.1797  0.4414 -0.1476
 1446SOL     OW15799   3.906   0.662  10.188  0.4771  0.0277 -0.9894
 1446SOL    HW115800   3.998   0.649  10.211  0.1323 -2.8456 -1.3263
 1446SOL    HW215801   3.884   0.570  10.174 -0.2005 -0.1293  1.0558
 1447SOL     OW15802   2.431   0.871   0.252 -0.6389 -0.4406  0.1842
 1447SOL    HW115803   2.426   0.785   0.295 -2.2221 -0.9175 -0.9508
 1447SOL    HW215804   2.361   0.862   0.186 -1.3194 -0.2736  0.8828
 1448SOL     OW15805   1.114   0.951  17.046  0.6613  0.1075  0.9302
 1448SOL    HW115806   1.196   0.950  16.996 -0.6774  0.3144 -1.2337
 1448SOL    HW215807   1.105   0.866  17.089 -0.2444  0.8893  2.2853
 1449SOL     OW15808   3.614   0.417   4.937  0.1084 -0.2064 -0.1104
 1449SOL    HW115809   3.675   0.485   4.964  1.3175 -1.2614 -0.1531
 1449SOL    HW215810   3.650   0.377   4.858  1.6539 -0.5967  0.7921
 1450SOL     OW15811   0.904   2.726   8.687 -0.4356 -0.1365 -0.1585
 1450SOL    HW115812   0.976   2.678   8.728  0.3826  1.0139 -0.2329
 1450SOL    HW215813   0.848   2.660   8.647 -1.4708  0.0402  0.9929
 1451SOL     OW15814   2.495   0.744   9.575  0.0567  0.6628  0.2216
 1451SOL    HW115815   2.437   0.815   9.546  0.7578 -0.3623 -3.6816
 1451SOL    HW215816   2.487   0.748   9.670  1.3415 -1.0224  0.3863
 1452SOL     OW15817   1.982   2.230  10.538 -0.4475  0.2596 -0.4464
 1452SOL    HW115818   1.961   2.276  10.620 -0.2704 -0.7039  0.1470
 1452SOL    HW215819   1.926   2.154  10.553 -0.3398  0.1974 -0.3651
 1453SOL     OW15820   3.877   3.355   8.687  0.2192 -0.0386 -0.6059
 1453SOL    HW115821   3.914   3.277   8.648 -2.4740 -1.2471 -0.7514
 1453SOL    HW215822   3.937   3.425   8.661 -1.0245  1.6475  0.9988
 1454SOL     OW15823   0.979   4.019  17.660  0.2720 -0.4770 -0.4533
 1454SOL    HW115824   0.959   3.927  17.677 -1.0061  0.2391  1.9133
 1454SOL    HW215825   0.914   4.065   0.029  1.5049  1.4969 -0.6440
 1455SOL     OW15826   2.727   3.081  10.046 -0.1732 -0.1602 -0.3765
 1455SOL    HW115827   2.737   3.004  10.103  0.1475  0.4155  0.3519
 1455SOL    HW215828   2.713   3.160  10.099 -1.3415 -0.7498  0.1957
 1456SOL     OW15829   3.942   1.015   5.741 -0.5549 -0.4273  0.0201
 1456SOL    HW115830   3.855   1.033   5.705  0.9086 -0.4028 -3.6047
 1456SOL    HW215831   3.969   1.104   5.719 -0.7624 -0.6323 -1.0661
 1457SOL     OW15832   0.882   3.400   9.068 -0.2766 -0.1499  0.5616
 1457SOL    HW115833   0.829   3.429   8.993  1.7231 -0.6566 -1.0630
 1457SOL    HW215834   0.972   3.417   9.038  1.0914 -2.5954  3.2648
 1458SOL     OW15835   1.863   4.178   4.039  0.5216 -0.1877  0.1396
 1458SOL    HW115836   1.929   4.135   3.984 -0.4502 -0.4094 -0.8479
 1458SOL    HW215837   1.904   4.186   4.125  2.1483 -0.0965 -0.6447
 1459SOL     OW15838   0.747   0.058   2.974  0.3615  0.1920 -0.1465
 1459SOL    HW115839   0.715   4.703   2.925  0.5543 -0.0982  0.1729
 1459SOL    HW215840   0.679   0.070   3.040  0.3758 -0.9849  0.0874
 1460SOL     OW15841   0.655   3.091  10.209 -0.1593  1.3838  0.1496
 1460SOL    HW115842   0.655   3.070  10.302 -1.5012 -0.4166 -0.2497
 1460SOL    HW215843   0.720   3.161  10.212  1.3929 -0.0839  0.5670
 1461SOL     OW15844   3.582   4.712   4.481  0.1719  0.6856  0.2951
 1461SOL    HW115845   3.494   0.021   4.458 -0.5885 -0.6332  1.5262
 1461SOL    HW215846   3.562   4.624   4.513 -0.5597  0.6328 -0.3098
 1462SOL     OW15847   4.528   3.344   4.957  0.0946  0.1160 -0.1600
 1462SOL    HW115848   4.592   3.275   4.942  0.8864  1.1684 -1.6599
 1462SOL    HW215849   4.589   3.414   4.981 -0.7177  1.5636 -2.2514
 1463SOL     OW15850   2.799   3.049  17.464 -0.4619 -0.3747 -0.5001
 1463SOL    HW115851   2.734   3.007  17.521 -0.3920  0.6973  0.3805
 1463SOL    HW215852   2.827   3.123  17.519 -0.5862  0.5501 -1.6836
 1464SOL     OW15853   0.356   2.268   6.475 -0.6099  0.7360  0.8640
 1464SOL    HW115854   0.427   2.280   6.538  0.0422  0.2091  0.2233
 1464SOL    HW215855   0.380   2.337   6.413 -0.0325  1.4523  1.8726
 1465SOL     OW15856   1.443   2.762   6.452  0.4887  0.5074 -0.2942
 1465SOL    HW115857   1.390   2.832   6.492  0.3748  0.8586 -1.0730
 1465SOL    HW215858   1.468   2.710   6.529 -0.1192  0.2855 -0.2479
 1466SOL     OW15859   3.751   3.256  10.173  0.1077 -0.0322 -0.0210
 1466SOL    HW115860   3.793   3.251  10.259 -1.1397 -0.7165  0.5480
 1466SOL    HW215861   3.676   3.311  10.198 -0.8775 -1.9110  1.1580
 1467SOL     OW15862   3.767   3.015   5.090 -0.2526  0.0867  0.3654
 1467SOL    HW115863   3.790   2.922   5.099  2.6688  0.6213 -1.4240
 1467SOL    HW215864   3.708   3.010   5.015  1.3820  2.5936 -1.0786
 1468SOL     OW15865   3.156   3.208   7.742 -0.1324 -0.4594  0.5415
 1468SOL    HW115866   3.148   3.114   7.725  1.4703 -0.6504  0.8514
 1468SOL    HW215867   3.090   3.227   7.808 -0.9103  1.8340 -0.8841
 1469SOL     OW15868   1.116   3.345   9.689  0.0167 -0.1048  0.7277
 1469SOL    HW115869   1.042   3.290   9.713 -2.5173  1.2459 -4.0374
 1469SOL    HW215870   1.066   3.422   9.662 -0.0605 -1.3640 -2.6908
 1470SOL     OW15871   0.817   1.849   7.297 -0.1223  0.0152  0.5652
 1470SOL    HW115872   0.892   1.796   7.326 -1.5507 -1.8494  0.8497
 1470SOL    HW215873   0.749   1.793   7.333  0.0990  0.9510  2.4642
 1471SOL     OW15874   1.707   3.063  14.596 -0.1069 -0.4656 -0.2563
 1471SOL    HW115875   1.725   3.137  14.539  0.5971 -0.6570 -0.2909
 1471SOL    HW215876   1.612   3.067  14.589  0.1179  1.2810 -2.3122
 1472SOL     OW15877   1.394   1.389   8.711 -0.4992  0.1866 -0.8949
 1472SOL    HW115878   1.412   1.402   8.804 -0.5599 -1.3505 -0.6677
 1472SOL    HW215879   1.481   1.366   8.679 -0.7910  2.0338 -2.9974
 1473SOL     OW15880   4.081   4.675  10.924  0.5646  0.0495 -0.0203
 1473SOL    HW115881   4.122   4.610  10.981 -0.0111 -0.5455 -0.2865
 1473SOL    HW215882   4.153   0.018  10.914  1.2512 -0.9749 -1.5659
 1474SOL     OW15883   2.991   3.445   4.771 -0.8396 -0.2438  0.6704
 1474SOL    HW115884   2.915   3.484   4.816 -0.5557  2.8975 -1.5993
 1474SOL    HW215885   2.960   3.355   4.761 -0.3676 -0.4982  1.5263
 1475SOL     OW15886   4.018   3.005   3.502 -0.4570 -0.3484 -0.0584
 1475SOL    HW115887   4.049   2.968   3.585  1.1702  2.2065  0.4562
 1475SOL    HW215888   4.063   3.089   3.496  0.1845 -0.7286 -0.5197
 1476SOL     OW15889   1.086   0.103   1.752 -0.2864  0.7160  0.4415
 1476SOL    HW115890   1.001   0.099   1.708 -0.3214 -0.1556  0.5853
 1476SOL    HW215891   1.121   0.186   1.721  1.2600 -1.3215 -3.1794
 1477SOL     OW15892   1.570   3.790   3.611 -0.1500 -0.6363  0.5094
 1477SOL    HW115893   1.626   3.724   3.651  0.5284 -0.5036 -0.2326
 1477SOL    HW215894   1.523   3.737   3.546  2.4140 -1.5811 -0.5710
 1478SOL     OW15895   0.348   4.267   6.665  0.1900  0.4734 -0.3316
 1478SOL    HW115896   0.280   4.294   6.602  0.1006 -0.1588 -0.5063
 1478SOL    HW215897   0.414   4.232   6.605  1.0040  3.3584 -1.1200
 1479SOL     OW15898   1.639   0.875   8.588 -0.5229 -0.0024 -0.2549
 1479SOL    HW115899   1.565   0.927   8.617  1.2006  1.0524  2.2527
 1479SOL    HW215900   1.707   0.904   8.649 -3.2295 -1.3281  3.4578
 1480SOL     OW15901   4.578   2.762   2.205 -0.1909 -0.3770 -0.1045
 1480SOL    HW115902   4.585   2.751   2.110  0.2162 -2.0376  0.1199
 1480SOL    HW215903   4.488   2.733   2.218 -0.7743  2.7336  2.6561
 1481SOL     OW15904   3.424   1.837  16.601  0.6795  0.2834 -0.7485
 1481SOL    HW115905   3.448   1.929  16.616  1.0100  0.4143 -2.0789
 1481SOL    HW215906   3.504   1.798  16.566 -0.7078 -1.1073 -2.3641
 1482SOL     OW15907   4.121   3.841   6.945 -0.2759 -0.1117  0.4023
 1482SOL    HW115908   4.095   3.923   6.903  0.0874  0.3520  1.0757
 1482SOL    HW215909   4.204   3.826   6.899  0.0934  1.6875  0.4789
 1483SOL     OW15910   1.335   1.518   6.864 -0.5219 -0.2300  0.1899
 1483SOL    HW115911   1.389   1.566   6.802 -0.1885 -1.9319 -0.8296
 1483SOL    HW215912   1.364   1.557   6.947 -0.5157 -1.9823  1.0199
 1484SOL     OW15913   2.218   2.879  16.822 -0.0831 -0.1483 -0.4530
 1484SOL    HW115914   2.268   2.913  16.748 -0.0861 -3.3276 -1.9262
 1484SOL    HW215915   2.166   2.953  16.851  0.7317  0.0254  0.5555
 1485SOL     OW15916   1.458   3.110  10.749 -0.6366 -0.2800  0.1062
 1485SOL    HW115917   1.445   3.045  10.817  1.3400 -0.7287  0.0581
 1485SOL    HW215918   1.456   3.056  10.670 -0.7486  0.1715 -0.1987
 1486SOL     OW15919   1.848   3.277   1.823 -0.2597  0.2741 -0.2531
 1486SOL    HW115920   1.862   3.220   1.747  0.1579 -2.6725  2.0073
 1486SOL    HW215921   1.927   3.256   1.872 -0.6482  2.2502  1.2130
 1487SOL     OW15922   1.830   3.125  17.416 -0.2255 -0.8097 -0.6264
 1487SOL    HW115923   1.753   3.181  17.429  1.0711  0.5302  1.2464
 1487SOL    HW215924   1.902   3.187  17.424 -2.0866  1.3409 -0.3692
 1488SOL     OW15925   2.994   1.353   1.091 -0.2856  0.2048  0.0572
 1488SOL    HW115926   3.007   1.423   1.027  0.8106  0.9738  1.1472
 1488SOL    HW215927   3.003   1.407   1.169 -0.5706  2.5803 -1.5630
 1489SOL     OW15928   1.225   4.298   9.354  0.3956 -0.0703 -0.0341
 1489SOL    HW115929   1.163   4.367   9.378  0.0290 -0.9788  1.6707
 1489SOL    HW215930   1.267   4.347   9.283  0.1927  0.8608  0.4892
 1490SOL     OW15931   4.585   3.393   2.073  0.2153  0.2027 -0.3791
 1490SOL    HW115932   4.511   3.349   2.031 -1.6265 -0.8807  4.0758
 1490SOL    HW215933   4.613   3.331   2.140 -2.7581 -1.0337 -0.2854
 1491SOL     OW15934   3.772   2.023   4.811 -0.3635  0.2709 -0.0476
 1491SOL    HW115935   3.687   2.015   4.769 -1.7172 -2.0301  3.0771
 1491SOL    HW215936   3.789   1.940   4.857 -0.2655  0.5462  0.4190
 1492SOL     OW15937   2.929   4.467  16.291 -0.6598 -0.3524  0.1731
 1492SOL    HW115938   2.988   4.393  16.304  0.3722  0.3378 -0.5498
 1492SOL    HW215939   2.876   4.447  16.213 -1.3413 -2.3362  1.1488
 1493SOL     OW15940   4.274   1.900   3.629  0.2914 -0.2970 -0.1121
 1493SOL    HW115941   4.263   1.805   3.638 -0.8836 -0.2826 -1.4125
 1493SOL    HW215942   4.277   1.919   3.536 -0.2925  1.6114  0.2591
 1494SOL     OW15943   3.055   4.523   5.476 -0.0340 -0.1164 -0.2199
 1494SOL    HW115944   3.011   4.510   5.560 -2.1836 -0.0150 -1.3282
 1494SOL    HW215945   3.141   4.483   5.478 -0.0461 -0.2235 -1.7711
 1495SOL     OW15946   3.777   1.338   8.811 -0.3746  0.3165 -0.4488
 1495SOL    HW115947   3.709   1.280   8.845  2.0749 -1.3009  1.7863
 1495SOL    HW215948   3.854   1.306   8.858 -1.4847  0.3342  1.3566
 1496SOL     OW15949   4.712   3.544   5.377 -0.1319 -0.4176 -0.6682
 1496SOL    HW115950   4.665   3.462   5.362 -0.2677 -0.1105 -1.9394
 1496SOL    HW215951   0.042   3.520   5.455 -0.7281 -0.0158 -0.1668
 1497SOL     OW15952   0.668   1.696   7.965  0.1224  0.6368 -0.1857
 1497SOL    HW115953   0.665   1.649   8.048 -2.0409 -1.0233 -1.2055
 1497SOL    HW215954   0.668   1.791   7.977  1.3041  0.6987 -0.6349
 1498SOL     OW15955   1.808   0.842   0.688  0.2964 -0.0079 -0.4152
 1498SOL    HW115956   1.836   0.908   0.750 -0.1594 -0.5584  0.3783
 1498SOL    HW215957   1.806   0.891   0.606  1.3778  3.6777  1.7658
 1499SOL     OW15958   3.349   2.149   6.688 -0.2649 -0.3515 -0.2228
 1499SOL    HW115959   3.423   2.131   6.630  1.3051  0.6046  1.5006
 1499SOL    HW215960   3.375   2.236   6.720  0.7311 -0.3611 -1.0037
 1500SOL     OW15961   3.737   2.197   8.565 -0.3158 -0.0123  0.3219
 1500SOL    HW115962   3.771   2.215   8.653 -0.5941  0.3298  0.3600
 1500SOL    HW215963   3.663   2.258   8.566 -0.4974 -0.2540  1.3217
 1501SOL     OW15964   1.667   0.900   3.856 -0.1225  0.3847 -0.3337
 1501SOL    HW115965   1.643   0.813   3.825 -2.6886  1.2132 -0.6449
 1501SOL    HW215966   1.580   0.928   3.885 -0.0790  0.2100 -0.0428
 1502SOL     OW15967   1.187   1.856  13.603 -0.0126 -0.1105 -0.0066
 1502SOL    HW115968   1.281   1.846  13.621 -0.9649 -3.8625  2.8150
 1502SOL    HW215969   1.201   1.896  13.517  0.4965  0.2468  0.2456
 1503SOL     OW15970   2.678   1.773  11.095  0.3483  0.2706 -0.0779
 1503SOL    HW115971   2.718   1.846  11.048 -0.0192 -0.6042 -1.7360
 1503SOL    HW215972   2.707   1.705  11.034 -1.5574  0.1691 -0.8773
 1504SOL     OW15973   4.564   1.695   3.826 -0.6086  0.5162 -0.0655
 1504SOL    HW115974   4.536   1.627   3.887  1.3458  1.1517  1.5472
 1504SOL    HW215975   4.636   1.648   3.785 -1.5743  0.5905 -1.8796
 1505SOL     OW15976   4.615   0.783   2.964  0.0716 -0.0031  0.4973
 1505SOL    HW115977   4.666   0.725   3.021 -0.3004  1.5317  2.3819
 1505SOL    HW215978   4.530   0.743   2.947  0.3829 -0.5116  0.1083
 1506SOL     OW15979   3.523   2.388   6.656  0.0127 -0.3247  0.4386
 1506SOL    HW115980   3.559   2.322   6.597 -1.1772  0.9051 -1.6367
 1506SOL    HW215981   3.580   2.463   6.641 -3.1703  2.1698  0.7641
 1507SOL     OW15982   1.876   4.319  15.926  0.2976 -0.6656  0.6216
 1507SOL    HW115983   1.865   4.355  16.014 -2.2791  0.3055 -0.0712
 1507SOL    HW215984   1.970   4.303  15.927  0.6742  1.4988 -0.1521
 1508SOL     OW15985   1.874   3.006   4.840 -0.5609  0.2163 -0.2536
 1508SOL    HW115986   1.937   3.060   4.888 -0.0891 -0.3177 -0.2671
 1508SOL    HW215987   1.887   3.046   4.754 -0.1195  1.6483  0.4728
 1509SOL     OW15988   3.510   2.198  16.426  0.5225  0.3351 -0.0119
 1509SOL    HW115989   3.518   2.248  16.507 -0.7636 -0.4935  0.6238
 1509SOL    HW215990   3.604   2.190  16.411  0.4867  2.5007 -1.4032
 1510SOL     OW15991   1.520   4.112  13.539  0.2678 -0.4147 -0.2922
 1510SOL    HW115992   1.487   4.192  13.580  0.3089  0.2276 -1.5082
 1510SOL    HW215993   1.532   4.052  13.612 -1.0300  0.2591  0.4681
 1511SOL     OW15994   4.251   4.612   9.064  0.0448 -0.0526  0.1139
 1511SOL    HW115995   4.313   4.560   9.014 -2.0099 -1.4973 -0.9375
 1511SOL    HW215996   4.212   4.647   8.984  0.7959  0.5594  0.0151
 1512SOL     OW15997   3.481   2.715  12.938 -0.4034  0.0420  0.2111
 1512SOL    HW115998   3.501   2.808  12.936 -1.0418  0.1109 -2.0940
 1512SOL    HW215999   3.423   2.719  12.862  0.9176  3.1467 -0.6162
 1513SOL     OW16000   2.901   2.712   8.750 -0.0332 -0.0224 -0.0117
 1513SOL    HW116001   2.980   2.760   8.724  0.1081  0.9723  2.1979
 1513SOL    HW216002   2.916   2.619   8.737 -0.0366 -0.0395  0.1067
 1514SOL     OW16003   3.816   3.945  10.484  0.7239 -0.2400 -0.7542
 1514SOL    HW116004   3.768   4.008  10.431 -1.6898 -0.1773  1.4906
 1514SOL    HW216005   3.896   3.990  10.511 -1.0599  1.2314  2.0237
 1515SOL     OW16006   0.836   3.655   7.486  0.3423  0.2099 -0.1208
 1515SOL    HW116007   0.760   3.703   7.452 -1.1167 -0.2159  2.5386
 1515SOL    HW216008   0.794   3.582   7.531  1.9319 -1.0651 -0.7316
 1516SOL     OW16009   2.809   0.937   2.720 -0.0260 -0.0446 -0.7389
 1516SOL    HW116010   2.807   0.845   2.692 -0.1454 -0.3862  0.3683
 1516SOL    HW216011   2.717   0.962   2.714  0.2495  1.4273  1.2449
 1517SOL     OW16012   3.387   3.195  13.894 -0.3861  0.0823 -0.1194
 1517SOL    HW116013   3.457   3.204  13.831  1.1754  0.6500  1.6964
 1517SOL    HW216014   3.403   3.101  13.909  0.5333  0.5411  1.8156
 1518SOL     OW16015   0.738   1.280   3.420  0.1892  0.2034 -0.8446
 1518SOL    HW116016   0.752   1.359   3.368 -0.1086 -1.4101 -3.3776
 1518SOL    HW216017   0.715   1.222   3.347  0.6704 -1.9418  0.7024
 1519SOL     OW16018   3.527   4.050   8.639 -0.8712 -0.2223 -0.3899
 1519SOL    HW116019   3.585   4.113   8.684 -1.3676  1.6939 -2.4415
 1519SOL    HW216020   3.542   3.970   8.689  0.1560  1.9710  2.8416
 1520SOL     OW16021   3.543   3.000   4.087  0.0033  0.3374  0.2780
 1520SOL    HW116022   3.475   3.066   4.094 -0.0407  0.3416 -0.1855
 1520SOL    HW216023   3.539   2.992   3.992 -0.5738  0.6370  0.2844
 1521SOL     OW16024   1.869   1.671   3.848 -0.3610 -0.3543  0.1483
 1521SOL    HW116025   1.793   1.622   3.815 -0.7881  0.9641 -0.8150
 1521SOL    HW216026   1.854   1.758   3.811 -0.0121 -0.8683 -1.2061
 1522SOL     OW16027   0.151   2.722   6.202 -0.1310 -0.6888 -0.0623
 1522SOL    HW116028   0.080   2.772   6.163  0.6730 -0.4370 -1.2065
 1522SOL    HW216029   0.202   2.799   6.231  0.1930 -0.0528 -2.3226
 1523SOL     OW16030   1.605   2.646   8.080  0.2878  0.0281  0.2035
 1523SOL    HW116031   1.627   2.568   8.131  1.5173 -0.8393 -1.6874
 1523SOL    HW216032   1.539   2.601   8.027  1.7040 -2.0005  0.1853
 1524SOL     OW16033   4.321   0.179   9.466 -0.0205 -0.1557  0.1608
 1524SOL    HW116034   4.317   0.112   9.397  0.0790 -2.0001  1.9424
 1524SOL    HW216035   4.412   0.207   9.471 -0.4222  1.2544 -0.3509
 1525SOL     OW16036   2.682   4.521   0.437  0.0159  0.0627 -0.1261
 1525SOL    HW116037   2.704   4.579   0.364 -2.0321  2.2544  0.9990
 1525SOL    HW216038   2.714   4.573   0.511 -1.1624  0.1102  0.3586
 1526SOL     OW16039   1.010   1.969   3.762  0.2352  0.6129  0.1781
 1526SOL    HW116040   1.038   2.060   3.760  0.0909  0.7053  2.8725
 1526SOL    HW216041   0.981   1.955   3.852  0.2609  2.5278  0.4695
 1527SOL     OW16042   0.861   0.734  15.836 -0.6577 -0.1522  0.2046
 1527SOL    HW116043   0.893   0.811  15.789  0.6754 -0.5268  0.5008
 1527SOL    HW216044   0.767   0.744  15.852 -0.9706 -0.8657 -1.2107
 1528SOL     OW16045   2.199   2.148   0.401 -0.3541  0.0137 -0.1690
 1528SOL    HW116046   2.280   2.101   0.380  1.3288  1.9028  2.0019
 1528SOL    HW216047   2.201   2.225   0.344  2.4659  0.5829  0.6681
 1529SOL     OW16048   0.172   3.667   3.851 -0.0111  0.1946  0.0082
 1529SOL    HW116049   0.119   3.615   3.912 -0.7013 -0.2234 -0.9475
 1529SOL    HW216050   0.155   3.757   3.877  0.6607  0.4227 -0.3515
 1530SOL     OW16051   0.610   0.672   6.801  0.6703  0.0918  0.2664
 1530SOL    HW116052   0.706   0.674   6.805  0.6308 -1.1264  1.4910
 1530SOL    HW216053   0.586   0.650   6.890 -0.0547 -0.5462 -0.0897
 1531SOL     OW16054   1.649   2.689   3.307 -0.7967  0.1638  0.3507
 1531SOL    HW116055   1.641   2.609   3.256 -0.5376  0.6175 -0.4016
 1531SOL    HW216056   1.589   2.743   3.255 -2.0609 -2.1447 -0.5652
 1532SOL     OW16057   1.166   3.035  13.962 -0.1212  0.3502  0.7913
 1532SOL    HW116058   1.256   3.005  13.953  0.4257  2.4419 -0.8463
 1532SOL    HW216059   1.165   3.082  14.046  1.5149 -0.1006  1.0508
 1533SOL     OW16060   3.716   0.115   3.045  0.6277 -0.1824  0.0840
 1533SOL    HW116061   3.788   0.167   3.080  0.5239 -0.0649  0.1208
 1533SOL    HW216062   3.751   0.068   2.969 -2.7573 -0.4787 -1.3283
 1534SOL     OW16063   4.620   0.876   8.993  0.0240  0.0615 -0.3173
 1534SOL    HW116064   4.636   0.827   9.074  1.1715  0.7097 -0.1548
 1534SOL    HW216065   4.524   0.877   8.998  0.2127  0.9487  2.7138
 1535SOL     OW16066   0.595   3.104   6.833  0.2624 -0.4778 -0.0096
 1535SOL    HW116067   0.669   3.122   6.775  0.0098  2.4120  0.5745
 1535SOL    HW216068   0.520   3.094   6.775  0.6004 -0.1031 -0.5010
 1536SOL     OW16069   0.637   3.236   7.469 -0.2815  0.6565  0.3922
 1536SOL    HW116070   0.634   3.267   7.378  0.6927  0.5140  0.3181
 1536SOL    HW216071   0.576   3.163   7.473 -1.0626  1.2801  0.0539
 1537SOL     OW16072   2.539   3.500   5.326  0.2693 -0.6572 -0.3873
 1537SOL    HW116073   2.510   3.468   5.412 -0.0553 -1.3905 -0.7720
 1537SOL    HW216074   2.633   3.485   5.334 -0.0965 -1.7057  2.0181
 1538SOL     OW16075   1.399   3.972   9.414 -0.5451  0.1371  0.1228
 1538SOL    HW116076   1.409   3.925   9.331  0.9549  1.7999 -0.6390
 1538SOL    HW216077   1.341   3.908   9.455  0.4515  0.5818  2.2042
 1539SOL     OW16078   0.824   3.873   8.374 -0.3794 -0.3336  0.0264
 1539SOL    HW116079   0.893   3.904   8.433  0.2803 -1.2282 -0.2685
 1539SOL    HW216080   0.750   3.886   8.432 -0.1767  0.9347  0.0129
 1540SOL     OW16081   1.781   3.096  15.072 -0.0882 -0.0668  0.6757
 1540SOL    HW116082   1.721   3.045  15.018 -1.5314  1.2445  1.0307
 1540SOL    HW216083   1.816   3.156  15.006 -2.1716 -0.7210 -1.0066
 1541SOL     OW16084   1.539   0.829   6.896 -0.3371 -0.2552  0.3960
 1541SOL    HW116085   1.633   0.842   6.886 -0.5488  0.9251 -0.1315
 1541SOL    HW216086   1.520   0.921   6.914  1.9999  0.4605 -0.8678
 1542SOL     OW16087   3.755   1.492   9.746  0.4379 -0.0101 -0.0031
 1542SOL    HW116088   3.717   1.476   9.660 -0.7629 -1.6804  0.8356
 1542SOL    HW216089   3.680   1.466   9.799  0.4388 -0.0383 -0.0158
 1543SOL     OW16090   0.709   1.464  11.069  0.2878  0.3595  0.4448
 1543SOL    HW116091   0.671   1.455  11.156 -1.9679  0.5185 -0.5376
 1543SOL    HW216092   0.777   1.396  11.070  1.2197  1.2917  1.4350
 1544SOL     OW16093   0.060   2.461   7.064 -0.0782  0.1983  0.0443
 1544SOL    HW116094   0.091   2.386   7.113 -0.4486 -0.0569 -0.1114
 1544SOL    HW216095   4.685   2.452   7.066 -0.0089 -0.7637 -0.8233
 1545SOL     OW16096   0.806   3.594   5.118 -0.1318  0.3211  0.3622
 1545SOL    HW116097   0.858   3.661   5.162 -0.1165  0.0421  0.7653
 1545SOL    HW216098   0.760   3.539   5.181 -0.2652 -2.8478 -2.4891
 1546SOL     OW16099   3.015   0.047  15.093  0.1618 -0.0987 -0.4545
 1546SOL    HW116100   3.107   0.056  15.121 -0.9178  1.6552  2.5057
 1546SOL    HW216101   2.991   4.707  15.163 -0.2165  0.3229 -0.2206
 1547SOL     OW16102   4.057   1.555   8.494 -0.3047  0.2615  0.8858
 1547SOL    HW116103   4.082   1.474   8.539  1.9889 -0.0131 -0.8674
 1547SOL    HW216104   3.982   1.577   8.549 -1.8283 -0.8391 -0.7741
 1548SOL     OW16105   0.655   0.646  15.190 -0.4439 -0.8788  0.4516
 1548SOL    HW116106   0.701   0.563  15.196  1.5914  0.0338 -2.4035
 1548SOL    HW216107   0.732   0.703  15.196 -0.9065 -0.0782 -1.2098
 1549SOL     OW16108   4.036   3.109   8.217 -0.1057  0.2843 -0.3077
 1549SOL    HW116109   4.117   3.061   8.239  0.1702  0.6340 -0.5633
 1549SOL    HW216110   4.015   3.165   8.291 -0.0026  0.6213 -0.5365
 1550SOL     OW16111   2.701   0.224   8.234  0.3357 -0.6623  0.0068
 1550SOL    HW116112   2.697   0.237   8.140  1.9409  1.5759  0.2480
 1550SOL    HW216113   2.616   0.196   8.268 -0.8952  1.3323 -1.4048
 1551SOL     OW16114   0.081   4.055   7.059  0.0236  0.2927 -0.0235
 1551SOL    HW116115   0.040   4.135   7.028 -0.4867  0.5822  1.4155
 1551SOL    HW216116   0.032   4.032   7.138 -0.5287 -1.8421 -0.9696
 1552SOL     OW16117   3.396   0.323   7.600 -0.4497  0.2309  0.2966
 1552SOL    HW116118   3.469   0.376   7.632 -0.8756  0.9271  0.1072
 1552SOL    HW216119   3.362   0.300   7.686  0.4138  0.0671  0.5989
 1553SOL     OW16120   2.789   1.214  14.067 -0.4068  0.2064  0.4278
 1553SOL    HW116121   2.799   1.142  14.129 -1.6758 -0.8331 -0.5703
 1553SOL    HW216122   2.879   1.218  14.036 -0.5114  0.2976  0.1354
 1554SOL     OW16123   2.821   4.198  16.528 -0.3108 -0.3660 -0.9035
 1554SOL    HW116124   2.823   4.246  16.611 -0.1218 -0.9077 -0.6033
 1554SOL    HW216125   2.730   4.211  16.501 -0.3458 -1.6818 -1.4127
 1555SOL     OW16126   0.513   3.945  15.292  0.0566  0.3930  0.0380
 1555SOL    HW116127   0.453   3.950  15.366  2.6653  1.6778  2.0877
 1555SOL    HW216128   0.538   3.853  15.299  0.4796  0.4585 -0.6106
 1556SOL     OW16129   1.006   3.402   6.453  0.2957 -1.0216 -0.0242
 1556SOL    HW116130   1.057   3.480   6.474 -0.9063 -0.4264  0.7055
 1556SOL    HW216131   1.072   3.334   6.467  0.4156 -0.6392  1.2567
 1557SOL     OW16132   0.717   1.142  13.153 -0.6499 -0.2149  0.6194
 1557SOL    HW116133   0.672   1.061  13.176 -2.2606  0.2164 -0.9628
 1557SOL    HW216134   0.754   1.154  13.240  1.4680 -1.2866 -0.1264
 1558SOL     OW16135   2.488   2.496   7.248  0.2057  0.0727 -0.1524
 1558SOL    HW116136   2.441   2.420   7.280  2.9626 -1.3398  0.4760
 1558SOL    HW216137   2.452   2.555   7.314 -0.4188 -1.1253  0.5746
 1559SOL     OW16138   0.620   3.596   8.753 -0.3618  0.2623 -0.2889
 1559SOL    HW116139   0.609   3.510   8.713  0.8985 -0.7762  1.5896
 1559SOL    HW216140   0.690   3.576   8.816 -1.2956 -1.0789  0.3156
 1560SOL     OW16141   0.395   2.690   5.861  0.2314 -0.7509  0.4966
 1560SOL    HW116142   0.347   2.747   5.801 -1.2387 -0.7579  1.6728
 1560SOL    HW216143   0.317   2.647   5.896  1.6916 -2.2075  1.9730
 1561SOL     OW16144   3.002   2.271   4.826  0.2335 -0.0022  0.5598
 1561SOL    HW116145   3.047   2.232   4.752 -1.4010 -0.3472 -0.2503
 1561SOL    HW216146   2.921   2.221   4.824 -0.5563  1.3059 -0.0951
 1562SOL     OW16147   1.043   0.903   4.695  0.2398 -0.2289  0.8910
 1562SOL    HW116148   1.054   0.872   4.785  0.0561  1.5715  1.5367
 1562SOL    HW216149   0.979   0.971   4.718  0.4166  0.3802 -0.4166
 1563SOL     OW16150   0.040   1.248   2.856 -0.7522  0.3240 -0.1703
 1563SOL    HW116151   0.024   1.156   2.838 -0.9405  0.2807  0.2359
 1563SOL    HW216152   0.014   1.257   2.947 -1.4197  1.4307 -0.4711
 1564SOL     OW16153   2.777   2.126   4.823 -0.5960 -0.8495 -0.1407
 1564SOL    HW116154   2.820   2.068   4.760 -0.9841  0.3176 -1.4832
 1564SOL    HW216155   2.686   2.100   4.808 -0.7951 -1.7839  2.5652
 1565SOL     OW16156   4.616   2.753   7.267 -0.0534 -0.0210  0.3366
 1565SOL    HW116157   4.536   2.802   7.285 -0.2227 -0.4187  0.6822
 1565SOL    HW216158   4.661   2.802   7.198 -0.2263 -2.2939 -1.3779
 1566SOL     OW16159   0.892   3.340   3.881  0.2881 -0.2089 -0.6078
 1566SOL    HW116160   0.819   3.330   3.820  0.5543 -1.1280 -0.7677
 1566SOL    HW216161   0.917   3.427   3.849 -3.4281  1.0131 -0.1837
 1567SOL     OW16162   0.930   3.986   0.670  0.2505  0.7515  0.1078
 1567SOL    HW116163   0.938   4.081   0.671 -2.3649  0.9782  0.2805
 1567SOL    HW216164   1.015   3.955   0.699 -0.7630  0.5905  2.9127
 1568SOL     OW16165   3.799   0.508   7.028  0.4218  0.5186  0.0677
 1568SOL    HW116166   3.868   0.564   7.062  0.1859  1.5152 -1.0634
 1568SOL    HW216167   3.805   0.519   6.933 -1.0949 -0.4807 -0.1620
 1569SOL     OW16168   4.184   0.967   5.872 -0.4413 -0.1002  0.0968
 1569SOL    HW116169   4.199   1.049   5.919  1.3936  0.3474 -1.2587
 1569SOL    HW216170   4.094   0.981   5.842 -1.2512 -2.4859  1.4457
 1570SOL     OW16171   1.197   0.284   3.710 -0.0324  0.3508  0.0985
 1570SOL    HW116172   1.195   0.327   3.795 -0.8741 -2.0809  1.3270
 1570SOL    HW216173   1.228   0.353   3.651  1.4582  0.2637  0.7676
 1571SOL     OW16174   1.816   3.258  13.614 -0.3905  0.2336  0.2703
 1571SOL    HW116175   1.804   3.342  13.570 -0.8586  0.8101  1.4844
 1571SOL    HW216176   1.881   3.218  13.556  0.7132  0.5144  1.3360
 1572SOL     OW16177   0.510   4.524   4.296 -0.5861  0.5035  0.4699
 1572SOL    HW116178   0.571   4.558   4.230 -2.4442  1.5508 -0.7044
 1572SOL    HW216179   0.558   4.444   4.315  0.5765  1.3902  1.2861
 1573SOL     OW16180   0.810   3.193   1.554 -0.2049  0.4091  0.3905
 1573SOL    HW116181   0.788   3.137   1.480 -2.5623 -0.6623  1.9092
 1573SOL    HW216182   0.902   3.202   1.527 -0.7075 -0.0919 -1.4698
 1574SOL     OW16183   3.348   3.013  13.200 -0.1820 -0.0479 -0.5133
 1574SOL    HW116184   3.339   3.064  13.119  0.9622  2.1658  0.7375
 1574SOL    HW216185   3.289   2.939  13.187  0.7565 -1.0375  0.8338
 1575SOL     OW16186   0.294   3.922   2.705  0.1242  0.4789  0.3739
 1575SOL    HW116187   0.311   3.888   2.617 -0.6969  0.4470  0.2262
 1575SOL    HW216188   0.306   4.014   2.682 -2.5377  0.9712  0.9294
 1576SOL     OW16189   3.245   1.819   7.478 -0.1676  0.5122 -0.1276
 1576SOL    HW116190   3.324   1.849   7.523 -0.1796  0.1419  0.1464
 1576SOL    HW216191   3.180   1.887   7.494 -0.2560  0.4364 -0.1636
 1577SOL     OW16192   0.687   3.000  13.049 -0.0905  0.2355  0.1282
 1577SOL    HW116193   0.755   2.941  13.015  0.2563  1.6425 -1.6298
 1577SOL    HW216194   0.742   3.050  13.109 -0.0406 -0.5473  0.7417
 1578SOL     OW16195   4.106   0.908   5.517  0.4481 -0.3377 -0.1063
 1578SOL    HW116196   4.176   0.953   5.563 -0.0273 -0.3250  0.6079
 1578SOL    HW216197   4.035   0.903   5.581  0.9679 -0.8277  0.4363
 1579SOL     OW16198   0.390   2.992  13.196 -0.0234 -0.5965  0.0301
 1579SOL    HW116199   0.445   2.952  13.263 -1.4534 -2.3008  0.1679
 1579SOL    HW216200   0.333   3.054  13.241  1.9928  2.0230 -1.0407
 1580SOL     OW16201   1.616   1.788  15.249 -0.2085  0.2793  0.3303
 1580SOL    HW116202   1.575   1.849  15.310 -0.3394  0.8264 -0.3076
 1580SOL    HW216203   1.569   1.791  15.166 -0.5323  0.2588  0.5123
 1581SOL     OW16204   3.962   4.174   2.271 -0.4845 -0.0892 -0.1409
 1581SOL    HW116205   3.882   4.160   2.219 -1.6396 -1.3879  1.9524
 1581SOL    HW216206   3.966   4.268   2.258  1.5083 -0.5603 -2.9642
 1582SOL     OW16207   3.311   2.795   5.887  0.0047  0.2281  0.0835
 1582SOL    HW116208   3.405   2.777   5.892 -0.1736 -0.8381 -0.3035
 1582SOL    HW216209   3.290   2.798   5.794 -1.8006 -1.6640  0.4393
 1583SOL     OW16210   4.185   2.385  13.248  0.0515  0.1715 -0.2425
 1583SOL    HW116211   4.107   2.420  13.205 -1.3530 -2.8555 -0.1908
 1583SOL    HW216212   4.204   2.462  13.300  1.2399  0.1628 -0.6657
 1584SOL     OW16213   2.104   0.655   4.851 -0.2480  0.2115  0.2703
 1584SOL    HW116214   2.101   0.751   4.853 -2.4951  0.1456 -0.8207
 1584SOL    HW216215   2.097   0.646   4.946 -0.2035 -0.1561  0.2374
 1585SOL     OW16216   0.889   2.845   6.846 -0.6424 -0.2069 -0.1594
 1585SOL    HW116217   0.960   2.833   6.783 -0.5831  1.7316 -0.4587
 1585SOL    HW216218   0.871   2.754   6.869  0.5249  0.0829  1.8885
 1586SOL     OW16219   1.318   4.351   3.464 -0.5966 -0.3832  0.2544
 1586SOL    HW116220   1.287   4.263   3.483 -0.7418 -0.3281  0.2696
 1586SOL    HW216221   1.381   4.352   3.536 -0.4850  0.3791  0.1476
 1587SOL     OW16222   1.724   2.063  14.839  0.7435  0.3966  0.2166
 1587SOL    HW116223   1.728   2.059  14.744 -3.4616  1.7250 -0.0228
 1587SOL    HW216224   1.771   1.983  14.863 -3.6068 -2.4519 -0.6637
 1588SOL     OW16225   1.841   3.699   6.348  0.3275 -0.4059 -0.5281
 1588SOL    HW116226   1.855   3.791   6.371  0.2801  0.3442 -3.5748
 1588SOL    HW216227   1.896   3.661   6.416 -3.5382 -2.1333  1.6535
 1589SOL     OW16228   0.265   2.012   5.703  0.2151  0.0711  0.2814
 1589SOL    HW116229   0.247   1.933   5.653 -1.3492  0.1325  0.7447
 1589SOL    HW216230   0.351   2.042   5.674 -0.1813 -0.0030 -0.9383
 1590SOL     OW16231   0.536   1.965   4.920 -0.2844 -0.8140 -0.0092
 1590SOL    HW116232   0.462   1.988   4.977  1.6053  1.3818  1.5583
 1590SOL    HW216233   0.489   1.928   4.845  1.1671  1.2363 -1.9119
 1591SOL     OW16234   0.634   1.425   8.563 -0.1639  0.1315  0.3770
 1591SOL    HW116235   0.678   1.506   8.590 -0.6031  0.8092 -0.9883
 1591SOL    HW216236   0.550   1.459   8.535  0.4448  0.5754 -0.9138
 1592SOL     OW16237   3.290   0.104  13.123 -0.0007  0.7207 -0.2285
 1592SOL    HW116238   3.276   0.010  13.111  0.4138  0.5519  0.5763
 1592SOL    HW216239   3.378   0.120  13.089  0.9298 -0.2467  1.6614
 1593SOL     OW16240   3.747   4.352   8.243  0.0721  0.2300 -0.1902
 1593SOL    HW116241   3.664   4.315   8.274  1.0709 -0.8271  1.2386
 1593SOL    HW216242   3.809   4.298   8.291 -1.5173 -1.1231  0.3258
 1594SOL     OW16243   0.408   2.192   6.781  0.2991 -0.3994 -0.3626
 1594SOL    HW116244   0.326   2.231   6.751  0.8930  1.2929  0.1955
 1594SOL    HW216245   0.460   2.272   6.790  0.9230 -0.9870  1.3380
 1595SOL     OW16246   3.314   0.252   2.783  0.3518  0.2593 -0.3416
 1595SOL    HW116247   3.378   0.237   2.714 -0.2954  0.5109 -0.9932
 1595SOL    HW216248   3.361   0.223   2.861  0.5350  0.9816 -0.1838
 1596SOL     OW16249   4.195   0.927   6.316  0.1266  0.2334 -0.1641
 1596SOL    HW116250   4.166   0.968   6.398  2.2168  1.7251 -0.1773
 1596SOL    HW216251   4.114   0.922   6.264 -0.4647 -2.6884  1.0262
 1597SOL     OW16252   4.248   3.985   0.762 -0.3221  0.7703 -0.2110
 1597SOL    HW116253   4.224   4.064   0.809 -1.9716  0.1484 -0.0209
 1597SOL    HW216254   4.193   3.995   0.684  1.9440  0.5123 -1.8565
 1598SOL     OW16255   0.752   3.249   5.537 -0.2623  0.6343 -0.3631
 1598SOL    HW116256   0.738   3.184   5.469  1.5209  1.4090 -1.4950
 1598SOL    HW216257   0.795   3.197   5.605  1.3278  1.7586 -0.4787
 1599SOL     OW16258   1.334   1.640   3.732  0.0104  0.6733  0.4179
 1599SOL    HW116259   1.352   1.728   3.698 -0.6919  0.4649 -0.4843
 1599SOL    HW216260   1.354   1.594   3.651  0.4364  0.1855  0.7974
 1600SOL     OW16261   2.590   2.893   4.665 -0.2573 -0.0637 -0.1724
 1600SOL    HW116262   2.682   2.901   4.692 -0.3829  2.6490 -0.5604
 1600SOL    HW216263   2.554   2.903   4.753 -0.8520 -0.4246 -0.3802
 1601SOL     OW16264   3.745   0.599   8.673  0.0112 -0.0287  0.5896
 1601SOL    HW116265   3.689   0.579   8.749  0.9798 -0.8976  1.0761
 1601SOL    HW216266   3.706   0.538   8.610 -0.6136  1.2371 -0.2480
 1602SOL     OW16267   3.647   0.555   4.641 -0.0828 -0.5677 -0.0462
 1602SOL    HW116268   3.657   0.463   4.665  0.0275 -0.2215  1.2543
 1602SOL    HW216269   3.553   0.568   4.638  0.2554  1.4175 -2.5765
 1603SOL     OW16270   2.538   3.481  16.198 -0.2570  0.6024  0.2531
 1603SOL    HW116271   2.496   3.395  16.206 -0.0021  0.4621  0.1207
 1603SOL    HW216272   2.606   3.455  16.135 -2.7682 -0.3424 -2.0898
 1604SOL     OW16273   2.382   0.133  16.739  0.0432  0.5520  0.7842
 1604SOL    HW116274   2.400   0.189  16.663 -3.4793  0.1195 -0.3289
 1604SOL    HW216275   2.298   0.089  16.727 -0.3877  1.8524 -1.0190
 1605SOL     OW16276   0.578   0.972  13.310  0.4001 -0.3172  0.4811
 1605SOL    HW116277   0.506   1.032  13.292  0.5928  0.3811  2.0214
 1605SOL    HW216278   0.530   0.895  13.282  0.0568 -0.5192  1.6284
 1606SOL     OW16279   4.093   0.921   7.040  0.8048 -0.8327 -0.1360
 1606SOL    HW116280   4.149   0.931   7.118 -0.8636 -1.2231  1.1115
 1606SOL    HW216281   4.117   0.999   6.990 -2.3606 -1.1918 -2.1443
 1607SOL     OW16282   3.337   0.319   8.796 -0.7423  0.3468  0.2070
 1607SOL    HW116283   3.316   0.387   8.860  2.0732  0.5889  0.8911
 1607SOL    HW216284   3.349   0.237   8.844 -0.6246 -0.0764 -0.5328
 1608SOL     OW16285   0.521   0.573   4.062  0.0117  0.2206 -0.6290
 1608SOL    HW116286   0.505   0.646   4.122 -1.5031 -1.6632  1.2623
 1608SOL    HW216287   0.454   0.507   4.079 -2.8326  3.3942  0.3349
 1609SOL     OW16288   2.912   3.011  12.687 -0.8704 -0.1262 -0.1931
 1609SOL    HW116289   2.927   3.022  12.593 -1.2008  1.3347 -0.0635
 1609SOL    HW216290   2.905   2.915  12.694  3.3513 -0.5450 -2.0269
 1610SOL     OW16291   4.690   1.831   5.180  0.4338 -0.1231  0.0425
 1610SOL    HW116292   0.031   1.838   5.107 -0.7084  1.3175 -0.7854
 1610SOL    HW216293   0.025   1.875   5.245  0.2519 -0.6052  0.5231
 1611SOL     OW16294   2.098   4.584   7.970  0.1407 -0.2501 -0.1431
 1611SOL    HW116295   2.183   4.551   8.000  0.9138  1.0855 -0.8043
 1611SOL    HW216296   2.030   4.552   8.028  1.0433  1.6036  1.9252
 1612SOL     OW16297   2.205   0.031  13.445  0.1232 -0.2652  0.2858
 1612SOL    HW116298   2.176   4.664  13.419  1.0657 -0.1746 -1.1008
 1612SOL    HW216299   2.138   0.056  13.508 -0.0856  0.2465 -0.1390
 1613SOL     OW16300   0.504   3.247  12.543 -0.3736 -0.6138 -0.0411
 1613SOL    HW116301   0.425   3.266  12.491 -0.2862 -1.8509 -0.6283
 1613SOL    HW216302   0.572   3.280  12.484 -1.4457  1.4702 -0.1120
 1614SOL     OW16303   4.335   2.965  12.380  0.0101 -0.3468  0.4247
 1614SOL    HW116304   4.395   2.898  12.347 -0.8796 -1.3618  0.8818
 1614SOL    HW216305   4.386   3.044  12.395  0.2166  0.0668 -2.3761
 1615SOL     OW16306   1.361   2.545   6.919 -0.2546  0.2766 -0.3940
 1615SOL    HW116307   1.359   2.548   6.823  1.3221  0.6221 -0.4067
 1615SOL    HW216308   1.288   2.601   6.947 -0.4670 -0.2652  0.1346
 1616SOL     OW16309   0.624   3.495  14.989 -0.4800  0.4269 -0.0691
 1616SOL    HW116310   0.582   3.494  14.903 -2.0932 -0.7134  0.7296
 1616SOL    HW216311   0.555   3.529  15.046  1.1375 -2.4506  3.5993
 1617SOL     OW16312   0.701   2.125   5.088  0.4934 -0.5691  0.5164
 1617SOL    HW116313   0.705   2.219   5.071  0.4155 -0.1276  2.9806
 1617SOL    HW216314   0.649   2.100   5.011  0.2865 -1.1793  0.8496
 1618SOL     OW16315   0.251   3.286   9.069 -0.1798  0.3066  0.1142
 1618SOL    HW116316   0.158   3.301   9.048  0.4395  1.6503 -1.6977
 1618SOL    HW216317   0.233   3.212   9.126 -1.1048  1.3741  1.2303
 1619SOL     OW16318   3.509   1.964   3.796 -0.0992 -0.2861  0.0415
 1619SOL    HW116319   3.416   1.981   3.791  0.0445  0.1225 -1.1528
 1619SOL    HW216320   3.515   1.873   3.765  0.4020 -0.7702  1.5279
 1620SOL     OW16321   2.293   0.421   5.251  0.0875  0.2873  0.1383
 1620SOL    HW116322   2.259   0.382   5.171  2.6217 -1.1425 -0.2383
 1620SOL    HW216323   2.224   0.399   5.314  0.0617  2.5226  0.8920
 1621SOL     OW16324   0.107   3.598  10.806  0.4026  0.5720  0.3580
 1621SOL    HW116325   0.038   3.658  10.779 -1.2117 -1.8237 -0.8671
 1621SOL    HW216326   0.100   3.549  10.724 -1.4108 -0.4892  1.1533
 1622SOL     OW16327   2.950   4.116   7.914 -0.9198 -0.3529  0.3631
 1622SOL    HW116328   3.004   4.135   7.837  1.8041 -0.6148  2.2182
 1622SOL    HW216329   2.964   4.201   7.955  2.0419 -1.1199  0.9301
 1623SOL     OW16330   2.261   0.475  16.277 -0.6095 -0.0238 -0.3821
 1623SOL    HW116331   2.304   0.559  16.292  2.8426 -1.9016  0.4764
 1623SOL    HW216332   2.254   0.483  16.182  1.7942 -0.0512 -0.5748
 1624SOL     OW16333   4.035   2.010   3.086  0.2507  0.0955  0.1630
 1624SOL    HW116334   4.065   1.962   3.009  0.0715  0.1982  0.0303
 1624SOL    HW216335   3.941   1.998   3.069 -0.0844 -0.7361  2.5320
 1625SOL     OW16336   2.934   1.241   2.682 -0.4867  0.4027 -0.5724
 1625SOL    HW116337   2.973   1.154   2.692 -1.4096  0.0416 -0.0349
 1625SOL    HW216338   2.992   1.288   2.741 -0.3006 -0.2551 -0.2310
 1626SOL     OW16339   3.414   3.187   3.211 -0.0862  0.1224 -0.0323
 1626SOL    HW116340   3.351   3.251   3.177 -0.4406  1.5228  3.2811
 1626SOL    HW216341   3.381   3.104   3.174 -0.0265  0.2023 -0.2653
 1627SOL     OW16342   3.137   3.479  13.712 -0.3104 -0.4038 -0.5724
 1627SOL    HW116343   3.141   3.416  13.784  2.4228  0.9906  0.5130
 1627SOL    HW216344   3.141   3.416  13.640 -0.3041 -2.3588  1.1479
 1628SOL     OW16345   0.333   2.881   8.477  0.0274 -0.0253 -0.9139
 1628SOL    HW116346   0.385   2.940   8.531 -0.5748 -1.3689  1.1512
 1628SOL    HW216347   0.282   2.944   8.426  1.0525  2.1549  0.7448
 1629SOL     OW16348   0.951   4.235   7.729 -0.1780 -0.0914  0.1220
 1629SOL    HW116349   1.021   4.178   7.698 -0.4561  0.2240 -1.0865
 1629SOL    HW216350   0.886   4.215   7.662 -1.2423  0.8149  0.8748
 1630SOL     OW16351   0.146   3.257   6.450 -0.1189  0.7418 -0.0681
 1630SOL    HW116352   0.084   3.213   6.392 -1.0481  0.8744  0.8389
 1630SOL    HW216353   0.118   3.232   6.538  0.2524  1.5149  0.2699
 1631SOL     OW16354   3.623   1.056   6.352 -0.0411 -0.2727  0.0353
 1631SOL    HW116355   3.547   1.072   6.408 -0.0026  4.7504 -1.3037
 1631SOL    HW216356   3.626   1.147   6.322  1.2418  0.0381  1.0731
 1632SOL     OW16357   4.056   4.383  10.475  0.2884  0.3653  0.3490
 1632SOL    HW116358   4.041   4.423  10.561  0.9069  0.2364  0.5174
 1632SOL    HW216359   4.034   4.457  10.418 -2.0590 -0.4862  0.1611
 1633SOL     OW16360   2.185   4.578   0.466 -0.6223  1.1882 -0.1969
 1633SOL    HW116361   2.254   4.571   0.400  0.6432  2.3932  1.0129
 1633SOL    HW216362   2.226   4.578   0.552 -2.3627 -1.1326  0.6450
 1634SOL     OW16363   0.586   3.005  13.847 -0.4806 -0.3547 -0.1072
 1634SOL    HW116364   0.501   2.961  13.855 -0.1234 -0.9406  0.5328
 1634SOL    HW216365   0.616   2.982  13.936  1.3057 -0.0085 -0.6161
 1635SOL     OW16366   1.479   0.251   6.695 -0.1421  0.2149 -0.5521
 1635SOL    HW116367   1.429   0.331   6.711  1.6897  1.2440  0.0778
 1635SOL    HW216368   1.425   0.182   6.733  2.8419 -2.0204 -0.3279
 1636SOL     OW16369   4.395   3.693   7.241  0.0443 -0.2341 -0.3202
 1636SOL    HW116370   4.484   3.699   7.276 -0.5315  1.2409  0.8883
 1636SOL    HW216371   4.405   3.741   7.159  0.0501 -0.6176 -0.5449
 1637SOL     OW16372   1.449   1.343  13.785  0.0459  0.0852 -0.2567
 1637SOL    HW116373   1.447   1.405  13.712 -2.2959  1.6783  1.1642
 1637SOL    HW216374   1.356   1.333  13.807 -0.6881  1.6751 -2.6159
 1638SOL     OW16375   1.432   0.314   9.019  0.5405  0.0272 -0.2836
 1638SOL    HW116376   1.521   0.314   8.983  1.4687 -0.3328  2.0330
 1638SOL    HW216377   1.430   0.233   9.071  1.9818  0.5026  0.5189
 1639SOL     OW16378   0.232   2.680   7.088 -0.4668 -0.0571 -0.2406
 1639SOL    HW116379   0.185   2.599   7.069 -2.0714  0.3552  1.9936
 1639SOL    HW216380   0.252   2.662   7.180 -0.3852  0.6738 -0.1200
 1640SOL     OW16381   4.427   4.302   2.999 -0.0401  0.3650  0.3844
 1640SOL    HW116382   4.460   4.281   3.086 -0.0998  1.7835  0.7617
 1640SOL    HW216383   4.398   4.390   3.025  0.7359  0.7410 -0.0176
 1641SOL     OW16384   4.456   4.021  17.649  0.4294  0.1536 -0.1428
 1641SOL    HW116385   4.474   4.054  17.561  0.6668  3.0067  0.9533
 1641SOL    HW216386   4.390   4.083  17.681 -0.4534  0.4047 -2.4267
 1642SOL     OW16387   4.023   3.742   5.566 -0.1396  0.2072  0.5794
 1642SOL    HW116388   4.046   3.741   5.659  1.4036  1.0652  0.2084
 1642SOL    HW216389   4.025   3.838   5.564  0.1443  0.1651 -0.6311
 1643SOL     OW16390   4.076   0.821   0.684  0.2323  0.2398 -0.0907
 1643SOL    HW116391   4.168   0.816   0.710  0.4296  0.5425 -0.7368
 1643SOL    HW216392   4.057   0.914   0.687  1.2499  0.3942  1.5356
 1644SOL     OW16393   3.548   0.146  15.482  0.0505 -0.6666 -0.3129
 1644SOL    HW116394   3.475   0.192  15.441 -0.3273 -2.5272 -1.7619
 1644SOL    HW216395   3.519   0.147  15.573 -0.6653  1.6821 -0.5717
 1645SOL     OW16396   1.854   1.491  16.182 -0.2400 -0.3302 -0.3316
 1645SOL    HW116397   1.807   1.408  16.172  0.2380 -0.7220  0.6529
 1645SOL    HW216398   1.839   1.531  16.096 -1.2993 -1.2823 -0.5963
 1646SOL     OW16399   2.075   2.221  10.019 -0.5296  0.6474  0.5569
 1646SOL    HW116400   2.048   2.165   9.947  0.5153  1.2347 -0.2891
 1646SOL    HW216401   2.135   2.154  10.052  0.9173  1.4475 -0.4545
 1647SOL     OW16402   2.024   3.807   9.355 -0.7843  0.3274 -0.0542
 1647SOL    HW116403   2.003   3.751   9.281 -0.4769 -0.0635  0.1524
 1647SOL    HW216404   2.117   3.815   9.334 -0.7779  2.2347  0.6844
 1648SOL     OW16405   4.103   0.688   8.527 -0.0104  0.1396 -0.8068
 1648SOL    HW116406   4.122   0.749   8.456  0.1617  1.9897  0.8368
 1648SOL    HW216407   4.127   0.607   8.481  0.5235 -0.3980  0.4363
 1649SOL     OW16408   3.769   1.546   6.299 -0.3582  0.6227  0.9086
 1649SOL    HW116409   3.754   1.617   6.237 -2.6788  0.9088  1.8139
 1649SOL    HW216410   3.823   1.484   6.248 -0.2917  0.4933  1.1377
 1650SOL     OW16411   4.651   1.905   5.529 -0.1024 -0.5848  0.2051
 1650SOL    HW116412   4.676   1.845   5.459  0.0426  0.0249 -0.2623
 1650SOL    HW216413   4.658   1.991   5.489 -2.6798 -1.2586 -1.6517
 1651SOL     OW16414   3.910   3.642   5.106 -0.1083 -0.0449  0.3925
 1651SOL    HW116415   3.924   3.554   5.070 -1.1819 -1.1239  2.5710
 1651SOL    HW216416   3.816   3.651   5.089 -0.2167 -1.1586  0.3619
 1652SOL     OW16417   1.087   3.688   7.427 -0.1697 -0.3489 -0.6079
 1652SOL    HW116418   1.051   3.703   7.340  0.5496  1.8942 -0.5187
 1652SOL    HW216419   1.003   3.663   7.467  0.5551 -1.0140  0.4968
 1653SOL     OW16420   0.605   4.023  16.592  0.6535  0.1687 -0.1674
 1653SOL    HW116421   0.697   4.044  16.574  0.5547 -0.5556 -1.5175
 1653SOL    HW216422   0.579   4.006  16.502 -1.3925  1.7472  0.1183
 1654SOL     OW16423   2.692   2.036   9.376 -0.2081  0.7955  0.5116
 1654SOL    HW116424   2.663   1.950   9.345  0.7707  0.1821  1.2778
 1654SOL    HW216425   2.777   2.002   9.405 -0.4206 -0.8961 -0.8455
 1655SOL     OW16426   2.519   3.406   8.770 -0.2760 -0.3001  0.2541
 1655SOL    HW116427   2.586   3.337   8.773  1.4114  1.1170 -4.0434
 1655SOL    HW216428   2.471   3.384   8.690  0.9325 -1.7761 -0.0732
 1656SOL     OW16429   2.823   4.223  16.812  0.3505  0.4296  0.1821
 1656SOL    HW116430   2.772   4.293  16.852  1.3129  1.2565 -0.0419
 1656SOL    HW216431   2.799   4.147  16.866  2.4511 -0.3331  0.0505
 1657SOL     OW16432   3.722   0.851  14.919 -0.2748 -0.4043  0.4898
 1657SOL    HW116433   3.677   0.767  14.911 -0.9833 -0.0164  0.4810
 1657SOL    HW216434   3.804   0.816  14.955  1.0517  3.4960  1.3036
 1658SOL     OW16435   2.212   2.618   8.442  0.2197 -0.3815 -0.2728
 1658SOL    HW116436   2.200   2.684   8.510 -1.8374 -1.4402  0.3979
 1658SOL    HW216437   2.244   2.544   8.493 -0.4628  0.7640  1.8120
 1659SOL     OW16438   0.388   1.792   5.912  0.1941 -0.4269  0.2919
 1659SOL    HW116439   0.332   1.750   5.977  1.8309  0.6791  2.4164
 1659SOL    HW216440   0.323   1.819   5.847  2.1332  0.0167 -1.4830
 1660SOL     OW16441   0.511   4.672   0.407  0.0076  0.6235 -0.6951
 1660SOL    HW116442   0.587   0.003   0.436 -1.0269  0.0485  2.9678
 1660SOL    HW216443   0.530   4.581   0.430 -2.2914  0.3550  0.1522
 1661SOL     OW16444   1.006   2.168   3.447  0.3757  0.8156  0.7703
 1661SOL    HW116445   1.058   2.240   3.411  2.6481 -1.7444 -1.0769
 1661SOL    HW216446   1.065   2.093   3.438 -1.3044 -0.4989  0.7445
 1662SOL     OW16447   3.641   3.249   7.014  0.0773 -0.1571  0.1520
 1662SOL    HW116448   3.546   3.254   7.022  0.0457  1.3315 -1.1316
 1662SOL    HW216449   3.662   3.331   6.969  2.7290 -1.8801 -1.7217
 1663SOL     OW16450   1.951   3.746   1.010  0.5268  0.2062 -0.2566
 1663SOL    HW116451   1.878   3.736   1.071 -0.3786 -1.1396 -1.5618
 1663SOL    HW216452   1.932   3.828   0.964  1.5710  1.4076  1.4638
 1664SOL     OW16453   2.410   1.927   2.795  0.5737 -0.0597  0.1975
 1664SOL    HW116454   2.322   1.894   2.776  1.5068 -2.3019 -0.1305
 1664SOL    HW216455   2.438   1.948   2.706  0.7078  1.3875  0.5784
 1665SOL     OW16456   3.717   4.369   4.239  0.9126  0.0945 -0.4815
 1665SOL    HW116457   3.769   4.448   4.252  0.4758  0.5133 -1.2837
 1665SOL    HW216458   3.693   4.354   4.331 -2.0975 -0.6259 -1.3809
 1666SOL     OW16459   4.675   4.498  14.715  0.2303  0.4042 -0.0457
 1666SOL    HW116460   4.598   4.553  14.735 -0.0281  0.5086 -1.3255
 1666SOL    HW216461   4.680   4.455  14.800 -0.2945  0.3503 -0.0370
 1667SOL     OW16462   4.070   0.782   4.624  0.2535  0.6358 -0.5881
 1667SOL    HW116463   3.988   0.781   4.574 -0.4392  0.3291  0.5465
 1667SOL    HW216464   4.030   0.738   4.699  1.4786 -2.5945 -1.8311
 1668SOL     OW16465   3.080   1.857  12.870 -0.3602 -0.3049  0.2957
 1668SOL    HW116466   3.143   1.884  12.937  0.8761  0.0319 -1.0223
 1668SOL    HW216467   3.125   1.795  12.813  1.5477 -0.3389  1.8374
 1669SOL     OW16468   4.189   3.576   2.356  0.2059 -0.2586 -0.6973
 1669SOL    HW116469   4.189   3.584   2.452  0.5380  0.4276 -0.7504
 1669SOL    HW216470   4.096   3.558   2.344  0.1114  0.0508 -0.4550
 1670SOL     OW16471   2.542   0.530   5.806  0.4783 -0.1564 -0.1178
 1670SOL    HW116472   2.513   0.446   5.771 -0.7010 -1.9568  5.1282
 1670SOL    HW216473   2.460   0.577   5.819  0.1668 -0.5222 -0.7646
 1671SOL     OW16474   0.518   4.344   9.404 -1.2301  0.8729 -0.0728
 1671SOL    HW116475   0.560   4.268   9.365 -0.7649  1.6620 -1.1158
 1671SOL    HW216476   0.479   4.303   9.482 -1.3771 -1.0858 -1.1783
 1672SOL     OW16477   3.205   1.281   7.322 -0.5474 -0.1287  0.2807
 1672SOL    HW116478   3.228   1.365   7.362 -1.8341  0.8617 -1.0554
 1672SOL    HW216479   3.141   1.305   7.255  1.0234 -0.3716 -1.3007
 1673SOL     OW16480   0.963   1.386   2.462  0.2182 -0.3837 -0.1559
 1673SOL    HW116481   0.940   1.431   2.381  2.1076 -0.7920 -0.9314
 1673SOL    HW216482   1.009   1.458   2.507 -0.5526  1.2196 -1.9388
 1674SOL     OW16483   4.320   1.670   6.212 -0.7521 -0.0668  0.0365
 1674SOL    HW116484   4.284   1.728   6.280 -0.1437 -0.1715  0.4489
 1674SOL    HW216485   4.307   1.585   6.255  0.0417 -0.5964 -0.7725
 1675SOL     OW16486   2.307   0.621  12.477  0.2798  0.4539  0.2600
 1675SOL    HW116487   2.288   0.658  12.563 -0.3695  1.9003 -0.4893
 1675SOL    HW216488   2.354   0.540  12.497  0.9435  1.2401  1.9201
 1676SOL     OW16489   2.052   1.391   7.025 -0.2372 -1.0920  0.1283
 1676SOL    HW116490   2.029   1.451   7.096  0.1459 -0.4193 -0.3229
 1676SOL    HW216491   2.147   1.397   7.030 -0.3252  0.3434 -0.0477
 1677SOL     OW16492   3.000   1.337  10.528  0.0514 -0.4254 -0.0188
 1677SOL    HW116493   2.968   1.349  10.618 -0.4342 -0.7476 -0.1513
 1677SOL    HW216494   3.082   1.387  10.527  0.3832 -0.9895 -0.4111
 1678SOL     OW16495   3.905   0.355  12.320 -0.7968  0.3965  0.4251
 1678SOL    HW116496   3.974   0.420  12.335 -1.9009  2.0222 -1.6778
 1678SOL    HW216497   3.832   0.380  12.378 -1.6124  0.3572 -0.5894
 1679SOL     OW16498   2.585   2.045   7.892  0.4612 -0.2203  0.3927
 1679SOL    HW116499   2.531   2.071   7.818  0.7029  0.0595  0.3160
 1679SOL    HW216500   2.586   2.120   7.951 -0.6961 -1.1475  1.5926
 1680SOL     OW16501   4.123   2.320   8.046  0.4015 -0.2143  0.2504
 1680SOL    HW116502   4.080   2.392   8.093  0.0681  0.6902 -1.4714
 1680SOL    HW216503   4.052   2.295   7.987 -0.5843  2.6905  0.1958
 1681SOL     OW16504   2.269   1.404   9.946  0.4860  0.2026  0.5785
 1681SOL    HW116505   2.257   1.365   9.860 -0.2374  1.6623  0.0140
 1681SOL    HW216506   2.330   1.350   9.996 -1.5509 -2.3731  0.3066
 1682SOL     OW16507   1.536   0.304   1.116  0.0482 -0.0907 -0.2530
 1682SOL    HW116508   1.590   0.377   1.145  0.2113 -1.1442  2.1271
 1682SOL    HW216509   1.493   0.352   1.045  1.1571 -1.1550 -1.6620
 1683SOL     OW16510   0.089   3.507  16.763 -0.2794 -0.1279  0.0873
 1683SOL    HW116511   0.092   3.465  16.849  0.9110 -1.5897 -0.6700
 1683SOL    HW216512   4.715   3.523  16.758 -0.4782 -0.4995  2.6820
 1684SOL     OW16513   0.150   4.555   7.130  0.1320 -0.0978 -0.2234
 1684SOL    HW116514   0.075   4.510   7.168 -0.4230  2.1192  1.3099
 1684SOL    HW216515   0.213   4.483   7.139  1.0485  0.7219 -0.0223
 1685SOL     OW16516   4.120   1.419  15.280  0.0092 -0.3829 -0.4741
 1685SOL    HW116517   4.188   1.381  15.225  1.2486 -1.8758  2.0599
 1685SOL    HW216518   4.047   1.358  15.286 -0.8586  0.7582  0.5334
 1686SOL     OW16519   1.452   1.276   2.985 -0.2109  0.4183 -0.1014
 1686SOL    HW116520   1.362   1.297   3.011 -0.3799 -2.2033  1.3830
 1686SOL    HW216521   1.491   1.229   3.059  1.5552 -0.6092 -1.6780
 1687SOL     OW16522   2.312   0.257   3.710  0.0736  0.0034  0.2228
 1687SOL    HW116523   2.327   0.174   3.753 -0.2502 -0.1871 -0.0277
 1687SOL    HW216524   2.230   0.243   3.663  0.1131 -0.6859  0.3652
 1688SOL     OW16525   3.049   2.092   5.704 -0.0161 -0.4969  0.7797
 1688SOL    HW116526   3.135   2.112   5.741  0.1738 -0.6757  0.4299
 1688SOL    HW216527   3.052   2.123   5.613  1.5054 -0.0696  0.9809
 1689SOL     OW16528   1.003   2.667   7.483  0.3291  0.2337  0.7531
 1689SOL    HW116529   1.043   2.683   7.568  2.1824  1.2838 -0.3234
 1689SOL    HW216530   1.004   2.752   7.440 -3.5015 -0.4475 -0.6888
 1690SOL     OW16531   0.657   3.952   8.933 -0.1125  0.5245  0.0274
 1690SOL    HW116532   0.744   3.926   8.904  0.2380  1.7406  0.0046
 1690SOL    HW216533   0.625   3.971   8.844 -1.6708 -0.8055  0.3005
 1691SOL     OW16534   1.087   3.945   3.026  0.0653  0.4369  0.0903
 1691SOL    HW116535   1.007   3.894   3.041 -2.6867  4.8065  0.4915
 1691SOL    HW216536   1.149   3.874   3.038 -1.6164 -0.6072  2.5854
 1692SOL     OW16537   0.664   0.057   4.806 -0.4511  0.2837  0.5814
 1692SOL    HW116538   0.673   0.141   4.762  3.2772 -1.6872 -2.4539
 1692SOL    HW216539   0.639   4.719   4.734  2.7295  1.2972 -1.3474
 1693SOL     OW16540   0.924   2.667  11.777  0.1141 -0.0912  0.3512
 1693SOL    HW116541   0.979   2.657  11.855  1.1691  1.3904 -0.2042
 1693SOL    HW216542   0.966   2.746  11.742  1.4519 -0.4216  1.1871
 1694SOL     OW16543   0.298   1.150   6.352 -0.1628 -0.3891  0.1628
 1694SOL    HW116544   0.391   1.130   6.352 -0.2272 -0.6564  2.9895
 1694SOL    HW216545   0.252   1.066   6.345  0.0344 -0.4277 -0.6321
 1695SOL     OW16546   3.267   0.603   6.160 -0.7709 -0.3601 -0.6231
 1695SOL    HW116547   3.216   0.626   6.238  1.0111  1.6547 -0.0559
 1695SOL    HW216548   3.222   0.519   6.148 -2.6764  0.6926 -0.9514
 1696SOL     OW16549   4.039   3.092   6.635  0.9212  0.6420 -0.6126
 1696SOL    HW116550   4.024   3.027   6.567 -0.7744  0.7383 -0.3342
 1696SOL    HW216551   4.000   3.165   6.586 -2.8028  0.8927  2.7418
 1697SOL     OW16552   0.672   2.974  13.589  0.1740 -0.4777 -0.5974
 1697SOL    HW116553   0.583   2.954  13.559  0.8574 -0.0213 -2.9180
 1697SOL    HW216554   0.653   2.979  13.682 -0.2120  2.0477 -0.8204
 1698SOL     OW16555   0.258   3.960   3.001  0.0374  0.2540  0.0967
 1698SOL    HW116556   0.224   3.872   3.012  1.4651 -0.4856 -1.4566
 1698SOL    HW216557   0.296   3.944   2.915  0.8292  3.3526 -0.1352
 1699SOL     OW16558   4.279   3.806   2.206 -0.0698  0.2498 -0.0952
 1699SOL    HW116559   4.199   3.850   2.178  0.5884  1.8649  0.5825
 1699SOL    HW216560   4.244   3.720   2.231  0.4724 -0.6044 -2.2191
 1700SOL     OW16561   4.001   0.905   2.416  0.5769  0.4140 -0.3477
 1700SOL    HW116562   4.033   0.815   2.415  1.1667  0.6566 -1.9264
 1700SOL    HW216563   3.916   0.889   2.457  0.1419 -0.2156 -1.5157
 1701SOL     OW16564   4.054   0.636  13.003  0.1361 -0.2213  0.8247
 1701SOL    HW116565   4.112   0.560  13.001 -0.0944 -0.3485 -1.1318
 1701SOL    HW216566   4.064   0.666  12.912  1.6298 -0.1406  1.0243
 1702SOL     OW16567   2.544   4.140   4.829  0.1873 -0.0611  0.1206
 1702SOL    HW116568   2.483   4.211   4.810  1.8644  1.6624  1.2201
 1702SOL    HW216569   2.476   4.076   4.850 -0.9088  1.9897  2.8185
 1703SOL     OW16570   1.940   2.022   3.122  0.6084  0.0906 -0.2665
 1703SOL    HW116571   1.974   1.933   3.114 -3.8302 -1.4019 -2.6488
 1703SOL    HW216572   2.006   2.071   3.171 -0.7888 -1.1567  2.9068
 1704SOL     OW16573   0.229   2.045   2.883 -0.3652 -0.2957  0.9326
 1704SOL    HW116574   0.141   2.071   2.909 -1.1317  0.4767 -2.4021
 1704SOL    HW216575   0.270   2.131   2.870  0.7040 -0.8500  0.6157
 1705SOL     OW16576   0.708   3.107   8.436  0.0913  0.1858  0.2158
 1705SOL    HW116577   0.689   3.190   8.392 -0.1011  0.9199  1.7020
 1705SOL    HW216578   0.800   3.125   8.449  0.0984 -0.1092  0.5521
 1706SOL     OW16579   1.486   4.377  14.946 -0.3525 -0.5622 -0.1469
 1706SOL    HW116580   1.407   4.340  14.985  0.5490 -1.7307  0.5834
 1706SOL    HW216581   1.506   4.322  14.870 -1.0092 -2.2450  0.8954
 1707SOL     OW16582   0.793   0.562   4.021 -0.1468 -0.4944 -0.5350
 1707SOL    HW116583   0.698   0.563   4.037 -0.0106 -1.1607  0.2924
 1707SOL    HW216584   0.789   0.471   3.989 -2.1344 -0.0619 -1.5061
 1708SOL     OW16585   1.649   1.297  10.924  0.0779  0.0144 -0.7509
 1708SOL    HW116586   1.560   1.310  10.956 -0.6951 -0.8681 -2.5757
 1708SOL    HW216587   1.692   1.270  11.006  0.0613 -1.8016 -1.3402
 1709SOL     OW16588   0.452   2.499   9.526 -0.1091 -0.3673  0.3875
 1709SOL    HW116589   0.408   2.564   9.470  1.2284  0.3671  0.1972
 1709SOL    HW216590   0.529   2.490   9.470 -0.8234 -0.4727 -0.5895
 1710SOL     OW16591   3.368   0.792  15.671 -0.3512  0.1322  0.3620
 1710SOL    HW116592   3.332   0.742  15.743  0.8109 -1.1598  0.0467
 1710SOL    HW216593   3.387   0.876  15.713  0.0569 -0.4044  1.2444
 1711SOL     OW16594   0.176   1.702  14.695  0.0263 -0.1288  0.5120
 1711SOL    HW116595   0.106   1.641  14.672  1.6023 -1.6306 -0.2750
 1711SOL    HW216596   0.247   1.637  14.699 -0.1755 -0.3347  0.7600
 1712SOL     OW16597   1.825   4.616   2.310  0.4419 -0.0107  0.5328
 1712SOL    HW116598   1.796   4.706   2.294 -1.4863 -1.0078 -1.5205
 1712SOL    HW216599   1.763   4.554   2.272 -1.1930  1.3613  0.9643
 1713SOL     OW16600   1.009   1.522   8.408 -0.0468 -0.2977  0.1616
 1713SOL    HW116601   1.070   1.517   8.482 -1.3273 -1.7385  1.1313
 1713SOL    HW216602   0.936   1.581   8.426 -0.5968 -1.0279  0.3250
 1714SOL     OW16603   1.014   3.159   3.051 -0.5028 -0.4044  0.2387
 1714SOL    HW116604   1.109   3.163   3.040 -1.0283  2.5305 -3.1619
 1714SOL    HW216605   1.001   3.121   2.964 -1.4659 -0.9500  0.6298
 1715SOL     OW16606   4.423   4.122   6.215  0.0223 -1.1921  0.2946
 1715SOL    HW116607   4.360   4.193   6.216  2.3191  0.8944 -1.4778
 1715SOL    HW216608   4.358   4.052   6.211 -0.2316 -0.7794 -2.7499
 1716SOL     OW16609   4.582   0.895   6.020 -0.3314 -0.5237 -0.0566
 1716SOL    HW116610   4.530   0.899   6.100  0.2155 -1.1642  0.3332
 1716SOL    HW216611   4.622   0.808   6.017  1.1969  0.2076 -1.0778
 1717SOL     OW16612   4.320   2.311  13.021  0.8056 -0.6069 -0.2566
 1717SOL    HW116613   4.287   2.356  13.099 -1.4784  1.4988 -2.4443
 1717SOL    HW216614   4.270   2.230  13.027 -1.5629  0.9391  0.5349
 1718SOL     OW16615   2.813   3.697  16.940  0.2705 -0.1731  0.5222
 1718SOL    HW116616   2.903   3.702  16.908 -0.3145 -1.0139 -1.2521
 1718SOL    HW216617   2.810   3.750  17.019 -0.6647 -0.4281  0.6570
 1719SOL     OW16618   4.204   2.717   5.843 -0.5123  0.2536  0.1783
 1719SOL    HW116619   4.244   2.802   5.825 -0.9014  0.4708  0.3380
 1719SOL    HW216620   4.247   2.687   5.924  0.2344 -0.2452 -0.4077
 1720SOL     OW16621   4.648   4.688   6.349  0.0384  0.3757  0.3347
 1720SOL    HW116622   4.701   4.715   6.425  1.3747  0.8435 -0.7473
 1720SOL    HW216623   4.559   4.713   6.373 -1.0111 -1.3245 -1.7935
 1721SOL     OW16624   0.463   4.112  11.983  0.3357  0.3627 -0.3722
 1721SOL    HW116625   0.396   4.044  11.983  2.7642 -2.0203 -1.3477
 1721SOL    HW216626   0.548   4.079  12.013 -1.2406 -1.7398  1.7364
 1722SOL     OW16627   3.812   3.432  13.227 -0.2814  0.0562  0.0611
 1722SOL    HW116628   3.896   3.465  13.258 -0.8829  0.8382  0.8538
 1722SOL    HW216629   3.825   3.461  13.137 -0.2780 -1.7291 -0.5129
 1723SOL     OW16630   0.993   3.006   2.572  0.3458 -0.3747 -0.0232
 1723SOL    HW116631   1.042   3.048   2.642  1.8995 -0.1168 -1.2814
 1723SOL    HW216632   1.063   3.000   2.508  0.6146  1.0729  0.1402
 1724SOL     OW16633   1.815   1.199   8.052  0.8056  0.3121 -0.1848
 1724SOL    HW116634   1.886   1.180   7.990  1.0385  2.3449 -0.5368
 1724SOL    HW216635   1.738   1.217   7.999 -0.0446 -3.0981 -0.1635
 1725SOL     OW16636   4.485   2.020   4.286  0.8277 -0.1323  0.4812
 1725SOL    HW116637   4.508   2.022   4.193  0.6692  2.3884  0.4988
 1725SOL    HW216638   4.568   1.983   4.318  0.7490  1.3421  2.3700
 1726SOL     OW16639   1.480   0.184   2.858  0.2934  0.3593  0.0793
 1726SOL    HW116640   1.457   0.117   2.793  1.8426  0.7654 -0.8986
 1726SOL    HW216641   1.527   0.132   2.924  0.1177  1.9469  1.4620
 1727SOL     OW16642   0.430   3.314   0.959  0.0378  0.2821 -0.2255
 1727SOL    HW116643   0.383   3.255   1.018 -0.1651 -1.3651 -2.0371
 1727SOL    HW216644   0.455   3.382   1.021  1.2324  1.3591 -1.9015
 1728SOL     OW16645   0.832   3.297  10.215  0.0894 -0.1699  0.2903
 1728SOL    HW116646   0.897   3.330  10.278  0.3741  1.1454 -0.6953
 1728SOL    HW216647   0.891   3.255  10.152 -0.8064 -1.9885  0.6631
 1729SOL     OW16648   0.488   0.005   7.980  0.0220 -0.4206 -0.3468
 1729SOL    HW116649   0.576   0.037   7.962  0.0812 -0.4659 -0.1376
 1729SOL    HW216650   0.460   4.713   7.889  2.5001 -4.0225 -0.6165
 1730SOL     OW16651   1.936   3.871   2.776 -0.3329  0.2927  0.1896
 1730SOL    HW116652   1.947   3.892   2.869  1.0628 -0.0127  0.0997
 1730SOL    HW216653   1.970   3.782   2.772  0.7137  0.6633  0.7210
 1731SOL     OW16654   3.171   1.679   3.910 -0.3552 -0.5911  0.4262
 1731SOL    HW116655   3.182   1.655   3.819 -3.2309  0.9688 -0.3290
 1731SOL    HW216656   3.246   1.633   3.948 -0.7004  0.2616  2.1855
 1732SOL     OW16657   4.447   4.139  17.361  0.1621  0.5611 -0.1475
 1732SOL    HW116658   4.517   4.074  17.365  0.7128  1.1294 -0.6043
 1732SOL    HW216659   4.493   4.216  17.329 -0.2982  1.3907  1.2207
 1733SOL     OW16660   1.017   1.653  13.554 -0.6762  0.5849 -0.0916
 1733SOL    HW116661   1.031   1.701  13.473  0.4059  0.6216  0.1219
 1733SOL    HW216662   1.065   1.710  13.614 -0.5683 -1.4493  1.7307
 1734SOL     OW16663   3.166   2.813   8.701  0.6056 -0.4375 -0.2430
 1734SOL    HW116664   3.188   2.779   8.614  1.5991  1.5872 -0.7966
 1734SOL    HW216665   3.164   2.908   8.686  0.4312 -0.5083 -0.6855
 1735SOL     OW16666   0.578   2.309   3.766 -0.0610 -0.5714  0.1934
 1735SOL    HW116667   0.631   2.251   3.822 -1.3946 -0.5489  1.4606
 1735SOL    HW216668   0.649   2.354   3.720  1.2949 -1.1588  1.6728
 1736SOL     OW16669   0.886   0.511   7.801  0.0436 -0.0205  0.0653
 1736SOL    HW116670   0.862   0.516   7.893  0.9969 -1.9482  0.4099
 1736SOL    HW216671   0.917   0.420   7.803 -0.6091 -0.2850 -1.4969
 1737SOL     OW16672   3.953   2.972   2.913  0.5485 -0.2963 -0.1936
 1737SOL    HW116673   3.947   2.964   2.818 -0.3835 -2.9183  0.0982
 1737SOL    HW216674   3.900   2.905   2.956  0.6916 -0.3513 -0.1040
 1738SOL     OW16675   0.709   3.466   4.746  0.5478  0.5765 -0.0110
 1738SOL    HW116676   0.685   3.490   4.657 -0.7937 -1.8382 -0.3179
 1738SOL    HW216677   0.783   3.526   4.745  0.8700  0.1699 -0.3264
 1739SOL     OW16678   1.116   4.559   6.731 -0.1374  0.0106 -0.1712
 1739SOL    HW116679   1.021   4.562   6.731 -0.0593  2.5557  1.2384
 1739SOL    HW216680   1.136   4.516   6.648 -1.0425  1.3405 -1.0856
 1740SOL     OW16681   4.470   3.288  11.624  0.2684 -1.1703 -0.0451
 1740SOL    HW116682   4.527   3.363  11.610 -0.4366 -0.8797 -1.3820
 1740SOL    HW216683   4.543   3.235  11.655  1.2142  0.2038  0.0918
 1741SOL     OW16684   0.474   2.328   4.145 -0.8908  0.4150 -0.0722
 1741SOL    HW116685   0.412   2.256   4.133 -1.1880  0.6385  0.1204
 1741SOL    HW216686   0.457   2.360   4.234 -0.6410 -1.0141  0.4768
 1742SOL     OW16687   3.833   0.589   9.120 -0.1138  0.8248  0.3313
 1742SOL    HW116688   3.791   0.652   9.179 -1.6354  0.6212 -0.5160
 1742SOL    HW216689   3.779   0.513   9.141 -0.0232  0.9953  1.1767
 1743SOL     OW16690   2.954   0.503   8.854 -0.1391  0.3426  0.1602
 1743SOL    HW116691   2.863   0.483   8.879 -0.5551 -0.7303 -2.2572
 1743SOL    HW216692   2.948   0.599   8.859  0.1668  0.2721  2.0437
 1744SOL     OW16693   1.515   4.026  15.614 -0.4375 -0.1797  0.1294
 1744SOL    HW116694   1.493   4.112  15.579 -2.7180 -1.0577 -0.5867
 1744SOL    HW216695   1.552   4.056  15.697  1.7749 -1.2725 -0.4558
 1745SOL     OW16696   2.712   3.401  15.971 -0.2175  0.4990  0.1170
 1745SOL    HW116697   2.798   3.404  15.930 -0.5721 -1.2480 -0.7485
 1745SOL    HW216698   2.661   3.440  15.900 -0.3012  1.3193  0.6281
 1746SOL     OW16699   0.488   4.039   0.881  0.2822 -0.0225  0.4966
 1746SOL    HW116700   0.506   4.032   0.975 -1.3327 -1.0289  0.7305
 1746SOL    HW216701   0.516   3.952   0.854 -1.1276  0.3518 -2.1677
 1747SOL     OW16702   1.354   3.512   0.468 -0.3448 -0.1696  0.0656
 1747SOL    HW116703   1.380   3.492   0.558 -2.2469 -2.2763  0.1731
 1747SOL    HW216704   1.302   3.592   0.480 -0.7942 -0.3550 -0.6037
 1748SOL     OW16705   0.730   0.586   5.158  0.7025  0.4755 -0.8453
 1748SOL    HW116706   0.636   0.603   5.161  0.0595 -3.1606 -0.2415
 1748SOL    HW216707   0.737   0.529   5.081  2.9897  1.0628 -1.0817
 1749SOL     OW16708   4.540   0.105   7.547  0.3662 -0.0019 -0.1671
 1749SOL    HW116709   4.461   0.113   7.599 -0.4753  1.1187 -1.6052
 1749SOL    HW216710   4.503   0.063   7.469  1.5287 -1.1314 -0.1232
 1750SOL     OW16711   4.292   3.521   5.189 -0.1876 -0.0353  0.1197
 1750SOL    HW116712   4.326   3.604   5.155  3.0576 -0.8416  1.3390
 1750SOL    HW216713   4.228   3.559   5.249 -0.3752 -1.2792  0.7053
 1751SOL     OW16714   2.514   2.105   0.683  0.4963  0.0623  0.4115
 1751SOL    HW116715   2.435   2.083   0.733  0.6306  1.0085  1.0309
 1751SOL    HW216716   2.523   2.192   0.723  0.5615 -0.0404  0.6201
 1752SOL     OW16717   3.079   2.375   4.455 -0.3646  0.1807  0.1398
 1752SOL    HW116718   2.984   2.365   4.452 -0.4522  0.8699  0.5078
 1752SOL    HW216719   3.095   2.426   4.535  2.9358  1.1499 -1.1320
 1753SOL     OW16720   4.376   2.759   4.297 -0.5339  0.1181 -0.2673
 1753SOL    HW116721   4.364   2.776   4.390 -0.9655  0.3194 -0.3604
 1753SOL    HW216722   4.386   2.664   4.294 -1.5337 -0.0207  0.6882
 1754SOL     OW16723   2.853   1.581  10.967 -0.1814 -0.5134  0.1048
 1754SOL    HW116724   2.930   1.624  10.929 -1.4789  2.5821  0.9075
 1754SOL    HW216725   2.828   1.531  10.889  0.1353 -2.1220  1.0437
 1755SOL     OW16726   3.143   1.717   9.260 -0.3768  0.1483 -0.0279
 1755SOL    HW116727   3.223   1.663   9.260 -0.7467 -0.4185  1.3030
 1755SOL    HW216728   3.080   1.668   9.313 -0.5320 -0.1042 -0.4443
 1756SOL     OW16729   3.862   1.825   8.694  0.0176  0.3988 -0.1646
 1756SOL    HW116730   3.829   1.840   8.606  0.2599 -1.2228 -0.5179
 1756SOL    HW216731   3.875   1.730   8.692 -0.4523  0.4235 -2.9843
 1757SOL     OW16732   3.934   3.164   9.912 -0.6761 -0.4501  0.4740
 1757SOL    HW116733   3.902   3.076   9.892 -1.7865 -0.5626  2.6477
 1757SOL    HW216734   3.955   3.187   9.822  0.6065  0.1580  0.9255
 1758SOL     OW16735   3.842   2.225   7.460  0.1176 -0.1822 -0.3944
 1758SOL    HW116736   3.918   2.167   7.453  0.0762 -0.0882 -1.4943
 1758SOL    HW216737   3.814   2.230   7.369 -0.9527 -0.2837 -0.0722
 1759SOL     OW16738   1.839   2.929   0.232 -0.1031  0.3337 -0.3622
 1759SOL    HW116739   1.769   2.961   0.289  0.4668 -0.4155  0.7762
 1759SOL    HW216740   1.910   2.988   0.256 -0.4328 -0.1024  1.6962
 1760SOL     OW16741   1.738   0.941   2.221  0.5085  0.1806  0.7346
 1760SOL    HW116742   1.748   0.964   2.313  1.4223  1.9467  0.1906
 1760SOL    HW216743   1.824   0.954   2.181 -1.0963  2.5137 -1.9673
 1761SOL     OW16744   1.054   1.274   3.708  0.1233  0.1792 -0.1975
 1761SOL    HW116745   0.959   1.259   3.702  0.5107 -2.3083 -0.2738
 1761SOL    HW216746   1.066   1.321   3.626  0.1756 -0.7300 -0.7072
 1762SOL     OW16747   2.369   2.760   7.498  0.3188 -0.1193 -0.4565
 1762SOL    HW116748   2.415   2.814   7.563  1.4801 -0.7010 -0.8095
 1762SOL    HW216749   2.378   2.670   7.527 -2.8047 -0.5302 -0.7523
 1763SOL     OW16750   2.265   3.241   6.429 -0.1877 -0.3293  0.1547
 1763SOL    HW116751   2.171   3.242   6.447 -0.0601 -0.1824  0.8129
 1763SOL    HW216752   2.271   3.227   6.334 -1.2306  0.0118  0.0460
 1764SOL     OW16753   1.912   2.001   7.297  0.1980  0.3029  0.1317
 1764SOL    HW116754   1.867   1.940   7.239 -0.4979  0.9240  0.0158
 1764SOL    HW216755   1.952   2.046   7.222 -0.9037 -0.4083 -0.8898
 1765SOL     OW16756   0.805   1.886  16.752 -0.6166  0.2474  0.5770
 1765SOL    HW116757   0.797   1.930  16.667 -3.7513  1.7817  1.6485
 1765SOL    HW216758   0.817   1.795  16.724 -1.1027  0.2345  0.4055
 1766SOL     OW16759   2.404   0.490   9.466  0.0220 -0.8899 -0.3959
 1766SOL    HW116760   2.487   0.467   9.425  0.1174 -1.7017  0.2325
 1766SOL    HW216761   2.436   0.536   9.544  1.9132 -4.1976  0.7722
 1767SOL     OW16762   4.508   2.747   0.720 -0.1371 -0.1737 -0.1168
 1767SOL    HW116763   4.473   2.831   0.750 -1.7911 -0.9313  0.0636
 1767SOL    HW216764   4.589   2.782   0.683  0.0113  0.1143  0.4721
 1768SOL     OW16765   1.527   0.381  16.392  0.3689 -0.1145  0.0887
 1768SOL    HW116766   1.545   0.454  16.451  0.9407  0.3880 -0.7111
 1768SOL    HW216767   1.615   0.344  16.405 -0.6578 -2.4932  0.2234
 1769SOL     OW16768   2.513   4.531   7.095  0.0735 -0.2779 -0.2597
 1769SOL    HW116769   2.434   4.585   7.095 -0.0334 -0.4202  1.5548
 1769SOL    HW216770   2.480   4.456   7.045  1.1667 -1.0013  0.0883
 1770SOL     OW16771   1.721   3.517  10.602  0.0311  0.2385 -0.0308
 1770SOL    HW116772   1.772   3.485  10.676 -1.3848 -1.1578  0.3360
 1770SOL    HW216773   1.792   3.566  10.561 -1.7778 -0.3271 -3.8553
 1771SOL     OW16774   1.240   3.983  10.022 -0.1338 -0.2547 -0.0985
 1771SOL    HW116775   1.205   3.993  10.110  1.7634 -1.5174  0.7845
 1771SOL    HW216776   1.330   4.016  10.025 -0.1873 -0.0742 -0.3919
 1772SOL     OW16777   1.685   4.289   4.745  0.1646  0.5208 -0.0676
 1772SOL    HW116778   1.600   4.265   4.782  0.5987  0.0832  0.6497
 1772SOL    HW216779   1.729   4.323   4.823  1.3322 -0.3028 -0.3669
 1773SOL     OW16780   1.331   1.875   6.370 -0.0371 -0.1595  0.0061
 1773SOL    HW116781   1.240   1.865   6.342 -0.6238  1.3767  1.3758
 1773SOL    HW216782   1.338   1.793   6.419  0.8562 -1.2981 -2.0436
 1774SOL     OW16783   4.569   2.008   7.389 -0.0134 -0.1615 -0.3807
 1774SOL    HW116784   4.647   1.970   7.350  2.1433  1.9632  1.8790
 1774SOL    HW216785   4.509   2.023   7.316  0.7886 -1.5211 -1.3176
 1775SOL     OW16786   0.557   3.178  15.793 -0.5693  0.9286  0.3983
 1775SOL    HW116787   0.648   3.209  15.796 -0.0179 -0.6460 -0.4865
 1775SOL    HW216788   0.539   3.181  15.699  1.1510 -0.4872  0.0177
 1776SOL     OW16789   2.328   2.269   6.152  0.4534 -0.4043 -0.5422
 1776SOL    HW116790   2.405   2.308   6.113  1.9721 -0.1423  2.7031
 1776SOL    HW216791   2.260   2.321   6.110 -0.5996 -2.7459 -1.7918
 1777SOL     OW16792   0.916   2.356  17.047 -0.0878 -0.1524 -0.0826
 1777SOL    HW116793   0.825   2.371  17.020 -0.1611  1.6754  1.1851
 1777SOL    HW216794   0.955   2.440  17.021 -1.6301 -0.1824 -2.4238
 1778SOL     OW16795   0.561   0.974  11.127 -0.5709  0.0866  0.1695
 1778SOL    HW116796   0.598   0.891  11.098  0.1980 -0.2008  2.0196
 1778SOL    HW216797   0.558   0.964  11.222  1.2090 -1.3298  0.0768
 1779SOL     OW16798   1.312   2.496   4.989 -0.2057  0.0476 -0.0735
 1779SOL    HW116799   1.376   2.459   5.050 -0.8996 -0.1559  0.5284
 1779SOL    HW216800   1.280   2.572   5.039 -0.5723 -1.5075  2.0799
 1780SOL     OW16801   2.281   3.403   4.678  0.7791 -0.0115 -0.1343
 1780SOL    HW116802   2.265   3.449   4.761 -0.4433 -1.8844  0.6878
 1780SOL    HW216803   2.290   3.477   4.618  1.5374  1.3543  1.6715
 1781SOL     OW16804   1.196   0.078  16.087 -0.6488 -0.5232  0.4173
 1781SOL    HW116805   1.129   0.062  16.021 -1.3306 -3.1633  1.7800
 1781SOL    HW216806   1.164   0.159  16.128 -1.8634 -1.5808  1.5480
 1782SOL     OW16807   1.529   3.535   4.417 -0.0798  0.4775  0.3940
 1782SOL    HW116808   1.569   3.475   4.480  1.1118  0.2938 -0.5234
 1782SOL    HW216809   1.461   3.474   4.389 -0.3195  1.1334 -0.4378
 1783SOL     OW16810   3.632   2.078   7.987  0.1353  0.5659  0.3309
 1783SOL    HW116811   3.717   2.052   7.952  0.7982 -0.9760  3.0873
 1783SOL    HW216812   3.652   2.118   8.072 -1.4908 -2.2873  2.0238
 1784SOL     OW16813   1.561   3.735  15.173  0.3780 -0.4961  0.0493
 1784SOL    HW116814   1.596   3.657  15.130  0.5161  0.3352 -1.3693
 1784SOL    HW216815   1.470   3.725  15.144  0.4670  1.1963 -0.8426
 1785SOL     OW16816   0.893   1.641   7.748 -0.3718  0.0738  0.2190
 1785SOL    HW116817   0.939   1.722   7.724 -0.0775 -0.4827 -1.0697
 1785SOL    HW216818   0.803   1.673   7.754  0.7342  2.8375  2.4298
 1786SOL     OW16819   3.728   0.065  17.109 -0.0234  0.2462 -0.3656
 1786SOL    HW116820   3.708   0.145  17.060  4.1791 -0.6949 -3.6246
 1786SOL    HW216821   3.823   0.060  17.093 -0.0378 -1.4864  0.1006
 1787SOL     OW16822   1.767   4.251   1.660  0.0831  0.0897 -0.0748
 1787SOL    HW116823   1.826   4.211   1.596  0.5108 -1.3245  1.1882
 1787SOL    HW216824   1.748   4.180   1.722  0.9887 -1.0633 -1.1233
 1788SOL     OW16825   2.184   4.083   7.422  0.5965 -0.0850 -0.5198
 1788SOL    HW116826   2.163   4.140   7.496  2.6296 -1.3365  0.9859
 1788SOL    HW216827   2.101   4.103   7.377 -1.5377 -1.0156  2.9837
 1789SOL     OW16828   0.601   1.133   4.581 -0.0792 -0.9099  0.1083
 1789SOL    HW116829   0.552   1.085   4.647  2.7506 -2.0030  1.4314
 1789SOL    HW216830   0.583   1.083   4.502 -0.4221  0.0500 -0.4170
 1790SOL     OW16831   2.556   1.931   5.654 -0.2117 -0.2433  0.2137
 1790SOL    HW116832   2.566   1.959   5.745 -1.7445 -1.0028  0.6192
 1790SOL    HW216833   2.474   1.975   5.630 -0.8451 -0.3769  2.0901
 1791SOL     OW16834   1.924   4.137   7.291  0.3010 -0.3314  0.1554
 1791SOL    HW116835   1.836   4.153   7.324  0.6396 -1.3287  1.5374
 1791SOL    HW216836   1.926   4.187   7.209  0.7904  1.4742  1.2670
 1792SOL     OW16837   3.021   1.130   0.185  0.5419  0.1233 -0.8638
 1792SOL    HW116838   3.069   1.211   0.169 -0.4371  0.8056 -0.3058
 1792SOL    HW216839   2.993   1.144   0.275  1.6014  1.2665 -0.7141
 1793SOL     OW16840   1.593   1.275   7.928 -0.4699  0.1677  1.0107
 1793SOL    HW116841   1.569   1.355   7.975  0.0824 -0.0296  1.6343
 1793SOL    HW216842   1.510   1.240   7.895  0.7062  0.1946 -1.9711
 1794SOL     OW16843   4.423   3.775  15.670 -0.1218 -0.4657  0.3934
 1794SOL    HW116844   4.346   3.724  15.644  0.6195 -0.9482 -0.8748
 1794SOL    HW216845   4.491   3.734  15.615 -1.5722 -1.9017 -0.3273
 1795SOL     OW16846   4.224   4.244   8.648 -0.1143 -0.3021 -0.0759
 1795SOL    HW116847   4.306   4.230   8.694 -1.3309 -2.3070  1.4847
 1795SOL    HW216848   4.214   4.339   8.644 -0.5975 -0.3562 -0.1518
 1796SOL     OW16849   4.125   3.451   0.511  0.1452 -0.0191  0.3822
 1796SOL    HW116850   4.094   3.375   0.462 -0.3964  0.9256 -0.7594
 1796SOL    HW216851   4.199   3.409   0.555  0.5976 -1.6911 -1.9759
 1797SOL     OW16852   2.730   3.119   7.987 -0.5331 -0.3048  0.3331
 1797SOL    HW116853   2.636   3.098   7.986 -0.4970 -0.3149 -2.0866
 1797SOL    HW216854   2.739   3.180   8.060  0.4916 -0.4972  0.3619
 1798SOL     OW16855   1.594   3.279   7.010 -0.1586 -0.8239  0.0194
 1798SOL    HW116856   1.551   3.245   6.932 -0.9342 -0.9485  0.4998
 1798SOL    HW216857   1.521   3.279   7.071  0.3742 -0.6670  0.6583
 1799SOL     OW16858   2.259   2.784   4.144  0.3204  0.0491  0.0405
 1799SOL    HW116859   2.285   2.763   4.233 -0.0941 -3.0886 -0.5706
 1799SOL    HW216860   2.256   2.880   4.143  1.2003  0.0699 -0.7606
 1800SOL     OW16861   1.944   2.085   2.617 -0.0580  0.0283  0.5659
 1800SOL    HW116862   1.848   2.081   2.622 -0.0912  2.6016  1.8505
 1800SOL    HW216863   1.955   2.175   2.647 -1.2919  0.5042 -0.3891
 1801SOL     OW16864   4.341   2.425   2.717  0.6207 -0.3572 -0.3221
 1801SOL    HW116865   4.363   2.356   2.655 -1.5023 -1.6438  0.3675
 1801SOL    HW216866   4.360   2.386   2.802 -1.9218 -1.5234 -0.2870
 1802SOL     OW16867   2.403   3.052   7.409  0.2822  0.3071 -0.1130
 1802SOL    HW116868   2.316   3.046   7.449 -1.7019 -0.9082 -4.6941
 1802SOL    HW216869   2.452   3.051   7.492 -0.8672 -1.7449  0.5359
 1803SOL     OW16870   3.344   2.535  15.317 -0.2007  0.3078  0.3453
 1803SOL    HW116871   3.340   2.472  15.389 -1.2277 -1.9346 -1.6905
 1803SOL    HW216872   3.376   2.613  15.362  0.5915  1.5352 -2.3222
 1804SOL     OW16873   4.659   1.392   2.625  0.1172  0.4684 -0.1366
 1804SOL    HW116874   4.678   1.356   2.712  0.2620 -0.9106 -0.7352
 1804SOL    HW216875   4.564   1.383   2.617 -0.0593  1.4615  0.8952
 1805SOL     OW16876   0.093   1.948   3.580  0.4889 -0.1829 -0.2755
 1805SOL    HW116877   0.184   1.924   3.596  0.4538 -1.0941 -1.4568
 1805SOL    HW216878   0.080   2.030   3.629 -0.8004 -0.3092 -0.4115
 1806SOL     OW16879   2.115   4.264   7.599  0.1879 -0.0017  0.4158
 1806SOL    HW116880   2.020   4.260   7.605  0.0159  0.1757 -1.8910
 1806SOL    HW216881   2.138   4.272   7.691 -2.4979 -2.2464  1.2653
 1807SOL     OW16882   3.226   0.756  16.479 -0.3817  0.0998  0.0281
 1807SOL    HW116883   3.275   0.742  16.560  0.4340  0.5710 -0.3854
 1807SOL    HW216884   3.156   0.691  16.480 -2.4953  2.3491 -1.8366
 1808SOL     OW16885   4.424   4.501   9.684 -0.6080 -0.2337  0.2097
 1808SOL    HW116886   4.425   4.513   9.779 -1.2257  1.6589 -0.0322
 1808SOL    HW216887   4.351   4.552   9.651 -1.3379 -1.0979  0.4971
 1809SOL     OW16888   0.770   1.957   0.767  0.0196  0.0783 -0.3858
 1809SOL    HW116889   0.783   1.865   0.744  0.5341  0.1986 -0.5830
 1809SOL    HW216890   0.854   1.993   0.796 -0.3858 -0.2634  1.2430
 1810SOL     OW16891   3.429   3.472   7.016 -0.4743 -0.3748  0.7717
 1810SOL    HW116892   3.336   3.483   6.995 -0.5173 -0.7276  0.7648
 1810SOL    HW216893   3.454   3.539   7.079  0.0894  0.4298 -0.3158
 1811SOL     OW16894   3.173   3.719  12.673  0.0367  0.6918 -0.1881
 1811SOL    HW116895   3.088   3.695  12.710  1.6564 -2.3149  1.5375
 1811SOL    HW216896   3.228   3.735  12.750  0.2747 -0.2416 -0.1764
 1812SOL     OW16897   4.470   1.370   9.641 -0.3551 -0.1464 -0.1371
 1812SOL    HW116898   4.537   1.319   9.596 -0.9571  0.2230 -1.4594
 1812SOL    HW216899   4.481   1.350   9.734  0.4113  1.9841  0.2384
 1813SOL     OW16900   2.248   2.409  10.584  0.9019 -0.3054  0.4955
 1813SOL    HW116901   2.201   2.367  10.511  1.0243 -0.5980  0.5834
 1813SOL    HW216902   2.179   2.455  10.632  1.8785  0.5339  1.0742
 1814SOL     OW16903   0.947   1.268   7.154 -0.3318  0.1468 -0.0730
 1814SOL    HW116904   0.935   1.344   7.211 -0.3864  0.0636  0.0272
 1814SOL    HW216905   1.010   1.295   7.087 -1.0416  0.6569 -0.5369
 1815SOL     OW16906   0.435   3.692   3.727 -0.4999 -0.5142  0.3990
 1815SOL    HW116907   0.346   3.677   3.757 -0.9672  1.1437 -0.1845
 1815SOL    HW216908   0.476   3.606   3.715  0.1835 -0.2822  1.1087
 1816SOL     OW16909   1.945   0.382   2.369 -0.0653 -0.0453  0.3232
 1816SOL    HW116910   1.918   0.308   2.424  0.8405 -0.4807  0.1954
 1816SOL    HW216911   2.016   0.424   2.417  0.2776 -0.0932 -0.1419
 1817SOL     OW16912   3.268   2.456  12.092 -0.8550  0.4472  0.0355
 1817SOL    HW116913   3.293   2.510  12.016  0.8346 -0.0398  0.2507
 1817SOL    HW216914   3.192   2.412  12.056  0.6047 -1.9649 -0.0691
 1818SOL     OW16915   4.067   1.738   0.723 -0.1575  0.5928  0.4496
 1818SOL    HW116916   3.985   1.787   0.725 -0.6392 -0.2135  0.3394
 1818SOL    HW216917   4.126   1.812   0.708 -0.5178  0.6901 -0.4744
 1819SOL     OW16918   2.119   3.292   8.177  0.8546 -0.4414 -0.2743
 1819SOL    HW116919   2.205   3.257   8.199  0.5045 -1.0801  0.0712
 1819SOL    HW216920   2.137   3.347   8.101 -0.7348  0.4275 -0.0142
 1820SOL     OW16921   4.359   4.396   8.186 -0.1058  0.4692  0.0940
 1820SOL    HW116922   4.349   4.302   8.202 -1.0177  0.3536 -1.1046
 1820SOL    HW216923   4.267   4.410   8.161 -0.1504  0.9581  0.5378
 1821SOL     OW16924   2.330   0.421   7.522 -0.0415  0.1409 -0.5663
 1821SOL    HW116925   2.279   0.465   7.454 -1.9680  0.2128  0.9257
 1821SOL    HW216926   2.330   0.334   7.481  0.8307 -1.0756  2.0501
 1822SOL     OW16927   2.374   3.271  15.039  0.2571  0.2939 -0.5197
 1822SOL    HW116928   2.387   3.366  15.029  0.2594  0.5369  1.6154
 1822SOL    HW216929   2.464   3.241  15.048 -0.1602 -1.2129 -1.4195
 1823SOL     OW16930   0.313   0.202   8.119 -0.8671  0.3184  0.5969
 1823SOL    HW116931   0.354   0.192   8.033  0.2936  1.3428  1.0269
 1823SOL    HW216932   0.313   0.108   8.136  1.9819 -0.0417 -1.4433
 1824SOL     OW16933   3.301   4.467   5.326  0.1553 -0.2592  0.2318
 1824SOL    HW116934   3.369   4.503   5.269  0.0621  0.8158  0.7930
 1824SOL    HW216935   3.221   4.485   5.276  0.7544 -0.2214 -0.7160
 1825SOL     OW16936   1.945   0.475   6.397 -0.0525  0.1621  0.3763
 1825SOL    HW116937   1.872   0.441   6.449  1.5105 -1.2425  1.6812
 1825SOL    HW216938   1.948   0.570   6.410  0.8355 -0.0228  1.5373
 1826SOL     OW16939   1.046   4.276   3.690  0.1265 -0.2820  0.3265
 1826SOL    HW116940   1.100   4.216   3.639  0.8109  1.8976 -1.5139
 1826SOL    HW216941   1.038   4.353   3.633  1.0406 -1.2658 -1.1414
 1827SOL     OW16942   2.027   3.128   0.226  0.1697 -0.3489  0.3120
 1827SOL    HW116943   1.945   3.154   0.183 -1.2674 -0.5999  2.9211
 1827SOL    HW216944   2.082   3.199   0.196  0.1840 -1.2883 -1.9120
 1828SOL     OW16945   1.105   0.526   2.823 -0.5615 -0.2084  0.5347
 1828SOL    HW116946   1.076   0.486   2.905 -1.9574 -0.1344  0.0799
 1828SOL    HW216947   1.031   0.519   2.763 -0.9222  1.4230  0.7834
 1829SOL     OW16948   4.675   0.310  12.842  0.0972 -0.4762 -0.5147
 1829SOL    HW116949   4.667   0.405  12.832  1.8994 -0.1036  1.6292
 1829SOL    HW216950   4.601   0.287  12.897 -0.3783 -0.0837 -0.9847
 1830SOL     OW16951   4.461   1.050   9.871  0.2464 -0.0091  0.0633
 1830SOL    HW116952   4.546   1.006   9.879  0.8036  1.0958  0.3228
 1830SOL    HW216953   4.469   1.133   9.918  0.2914 -0.0706  0.1634
 1831SOL     OW16954   0.600   0.175   9.908  0.0212 -0.2940 -0.0684
 1831SOL    HW116955   0.636   0.262   9.888  0.0977  0.2486  2.4236
 1831SOL    HW216956   0.631   0.121   9.835 -1.3038 -3.6770  1.8817
 1832SOL     OW16957   4.323   4.365   6.529  0.3463  0.2858  0.3771
 1832SOL    HW116958   4.356   4.414   6.453  1.0795  1.8933  1.7137
 1832SOL    HW216959   4.231   4.347   6.510  0.1708 -1.4605  2.8920
 1833SOL     OW16960   3.050   2.583   8.017  0.7425  0.1050 -0.4486
 1833SOL    HW116961   3.060   2.524   7.942  1.0975 -0.0863 -0.2469
 1833SOL    HW216962   3.133   2.630   8.011 -0.1080  1.6383 -0.3597
 1834SOL     OW16963   4.652   1.698   6.549 -0.5056  0.1479 -0.4662
 1834SOL    HW116964   4.655   1.700   6.453 -0.3306 -0.9047 -0.4881
 1834SOL    HW216965   4.557   1.702   6.559 -0.4579  1.7886 -0.7328
 1835SOL     OW16966   3.852   1.615   2.417  0.4570 -0.2990 -0.3729
 1835SOL    HW116967   3.809   1.565   2.348  0.7513 -1.8713  0.5819
 1835SOL    HW216968   3.788   1.605   2.487  1.1217  1.4751  0.4918
 1836SOL     OW16969   2.597   3.828   3.665 -0.3762  0.0465  0.2115
 1836SOL    HW116970   2.521   3.810   3.720  0.4566  0.7504  1.6173
 1836SOL    HW216971   2.672   3.801   3.718 -1.1128 -0.5797  0.9456
 1837SOL     OW16972   1.537   0.851   2.442  0.3257  0.2237 -0.4978
 1837SOL    HW116973   1.514   0.778   2.384 -1.6317  0.4771 -0.0292
 1837SOL    HW216974   1.569   0.797   2.515  0.9096  0.6140 -0.4667
 1838SOL     OW16975   4.237   4.356   2.750  0.3842 -0.2791  0.3599
 1838SOL    HW116976   4.315   4.338   2.803  1.6725  0.3838 -1.3159
 1838SOL    HW216977   4.175   4.300   2.796  0.2664 -0.7371 -0.3734
 1839SOL     OW16978   0.719   2.715  16.188  0.1209 -0.0416  0.1958
 1839SOL    HW116979   0.730   2.620  16.198 -0.7167  0.0636  2.1685
 1839SOL    HW216980   0.684   2.750  16.270 -0.1186 -0.1357  0.1353
 1840SOL     OW16981   0.001   1.613   9.849 -0.4927 -0.6964  0.1043
 1840SOL    HW116982   0.073   1.651   9.798  0.7626  0.4000  2.6499
 1840SOL    HW216983   4.681   1.685   9.899 -1.4823 -2.9909  2.5944
 1841SOL     OW16984   3.300   2.973   9.649  0.0805 -0.2343  0.2594
 1841SOL    HW116985   3.362   3.030   9.603 -0.2001  1.0749  1.5077
 1841SOL    HW216986   3.357   2.912   9.696  0.0827 -0.7467 -0.4091
 1842SOL     OW16987   1.363   2.495   3.029  0.5316  0.2477  0.6928
 1842SOL    HW116988   1.425   2.567   3.021  0.9586 -0.2815 -0.9224
 1842SOL    HW216989   1.304   2.517   2.957  2.8747  1.4405 -0.8632
 1843SOL     OW16990   3.112   2.522   3.490  0.1390 -0.6454  0.0387
 1843SOL    HW116991   3.186   2.576   3.515 -0.4781 -0.1635  0.8252
 1843SOL    HW216992   3.035   2.576   3.507  0.3288 -0.5158  0.4680
 1844SOL     OW16993   0.316   3.855   3.525  0.4372 -0.7770  0.0654
 1844SOL    HW116994   0.361   3.810   3.596 -0.8443  0.2519  1.5529
 1844SOL    HW216995   0.373   3.932   3.515 -0.4436  0.0361  1.2029
 1845SOL     OW16996   1.458   1.039   8.722 -0.2300  0.1316 -0.5597
 1845SOL    HW116997   1.407   1.115   8.695 -0.1625  0.9255  1.5522
 1845SOL    HW216998   1.518   1.074   8.787 -0.2926  0.6329 -0.7717
 1846SOL     OW16999   2.393   3.526  11.247 -0.4137  0.2315  0.1267
 1846SOL    HW117000   2.335   3.450  11.234  2.4074 -1.7605 -0.8546
 1846SOL    HW217001   2.330   3.585  11.289 -1.4727 -0.6146 -0.2601
 1847SOL     OW17002   1.443   4.637   3.570 -0.2597  0.4180  0.1292
 1847SOL    HW117003   1.521   4.584   3.555  1.1865  1.9849  2.1514
 1847SOL    HW217004   1.456   4.713   3.513  1.7682 -1.4668 -1.9324
 1848SOL     OW17005   2.648   2.226   6.352  0.5594 -0.0657 -0.6818
 1848SOL    HW117006   2.674   2.166   6.283 -0.7466 -0.8694 -0.4794
 1848SOL    HW217007   2.722   2.287   6.352  0.7607 -0.3105 -1.1399
 1849SOL     OW17008   2.259   2.612  14.410 -0.2651  0.2337  0.0306
 1849SOL    HW117009   2.238   2.630  14.501 -0.4498  1.6739 -0.3033
 1849SOL    HW217010   2.316   2.683  14.380  0.0867  0.0529  0.2688
 1850SOL     OW17011   1.417   3.190  15.906 -0.5354 -0.2147 -0.1282
 1850SOL    HW117012   1.434   3.282  15.929  0.0243 -0.5377  0.7488
 1850SOL    HW217013   1.380   3.208  15.820  0.4101 -1.0142 -0.7032
 1851SOL     OW17014   3.940   3.470   2.826  0.6514 -0.4103  0.2884
 1851SOL    HW117015   3.969   3.511   2.908  0.7953 -2.2503  1.1462
 1851SOL    HW217016   3.860   3.522   2.823  1.7928  1.3058 -0.8410
 1852SOL     OW17017   3.733   2.293   7.229 -0.0893  0.6368  0.6066
 1852SOL    HW117018   3.718   2.387   7.217 -0.4314  0.3973 -0.7669
 1852SOL    HW217019   3.700   2.253   7.149  0.5216 -2.4848  1.9175
 1853SOL     OW17020   0.648   2.159  16.793  0.6056  0.3285 -0.4697
 1853SOL    HW117021   0.707   2.084  16.786 -0.4083 -0.5692  0.6700
 1853SOL    HW217022   0.701   2.220  16.741  1.1829  2.3768  2.5098
 1854SOL     OW17023   0.758   1.656   8.605 -0.2058  0.0050  0.1239
 1854SOL    HW117024   0.828   1.626   8.662 -1.5281 -1.6470  0.8772
 1854SOL    HW217025   0.809   1.701   8.538 -1.9552  1.5596 -0.1766
 1855SOL     OW17026   3.735   4.093   8.098 -0.1329  0.6339  0.2388
 1855SOL    HW117027   3.717   4.035   8.172  0.5331 -1.6097 -1.3486
 1855SOL    HW217028   3.698   4.178   8.121 -1.1456  0.2549  0.0344
 1856SOL     OW17029   1.454   3.825   4.152 -0.0883 -0.2031  0.0427
 1856SOL    HW117030   1.449   3.784   4.065 -1.4416 -1.8552  0.9084
 1856SOL    HW217031   1.544   3.855   4.139 -0.2867  0.7190  0.8179
 1857SOL     OW17032   2.011   1.221   3.819  0.0966 -0.1764 -0.2295
 1857SOL    HW117033   1.959   1.231   3.898 -0.0911  1.9112 -0.6117
 1857SOL    HW217034   1.956   1.158   3.772 -0.4165 -0.0624  0.2285
 1858SOL     OW17035   2.786   1.611  13.302 -0.0550 -0.0759  0.0429
 1858SOL    HW117036   2.764   1.552  13.230 -1.0532 -1.2968  1.3570
 1858SOL    HW217037   2.811   1.555  13.375 -2.3621  0.3319  1.1397
 1859SOL     OW17038   0.387   1.373   1.559  0.7929  0.3060  0.0480
 1859SOL    HW117039   0.323   1.443   1.570  1.1851  0.4656  1.3375
 1859SOL    HW217040   0.465   1.428   1.565  0.8249 -0.0473  3.1673
 1860SOL     OW17041   3.366   2.390  14.569 -0.3426  0.0357 -0.1567
 1860SOL    HW117042   3.418   2.310  14.579 -0.5223 -0.0616  0.0067
 1860SOL    HW217043   3.404   2.444  14.638 -3.4295  0.6574  1.0656
 1861SOL     OW17044   2.033   2.746   2.700 -0.1339 -0.5305 -0.2783
 1861SOL    HW117045   1.948   2.739   2.657  0.2103  2.5094 -1.4411
 1861SOL    HW217046   2.091   2.791   2.639 -1.2563 -0.3487 -1.2145
 1862SOL     OW17047   1.561   4.717   4.013 -0.0411  0.2215 -0.1197
 1862SOL    HW117048   1.611   4.676   4.083  1.5605 -0.1698 -1.5035
 1862SOL    HW217049   1.616   4.710   3.936 -0.6222  2.9961 -0.7783
 1863SOL     OW17050   1.412   1.311  11.061 -0.1314  0.1525 -0.5583
 1863SOL    HW117051   1.447   1.288  11.147 -0.8861 -0.1880 -0.3456
 1863SOL    HW217052   1.414   1.406  11.050  0.7176  0.3237  1.0530
 1864SOL     OW17053   3.510   2.004   4.728 -0.3205 -0.3243 -0.8932
 1864SOL    HW117054   3.423   1.987   4.764 -0.1312 -3.4427 -1.9102
 1864SOL    HW217055   3.486   1.985   4.637 -1.4146  0.7290 -0.8185
 1865SOL     OW17056   4.093   4.658   6.770 -0.4970  0.0659 -0.2936
 1865SOL    HW117057   4.021   4.707   6.730 -1.0708 -0.1234  0.4972
 1865SOL    HW217058   4.141   0.002   6.822 -0.1143  1.2147 -2.0755
 1866SOL     OW17059   0.820   3.051   5.721 -0.3243 -0.1945  0.4704
 1866SOL    HW117060   0.914   3.033   5.711 -1.0564 -2.1409 -2.9445
 1866SOL    HW217061   0.784   2.963   5.706  0.1305 -0.5265  1.3188
 1867SOL     OW17062   4.208   2.115  11.222  0.3446  0.1181  0.4537
 1867SOL    HW117063   4.120   2.146  11.244  0.8707  0.6767  1.7316
 1867SOL    HW217064   4.208   2.022  11.245  0.0579 -0.1180 -0.5232
 1868SOL     OW17065   0.822   0.777   3.439 -0.0357  0.6626 -0.0322
 1868SOL    HW117066   0.732   0.747   3.424  0.4033 -0.4114 -0.4987
 1868SOL    HW217067   0.867   0.743   3.362 -0.6278  2.4872 -1.1813
 1869SOL     OW17068   3.165   3.046  10.963  0.3959 -0.1253  0.0232
 1869SOL    HW117069   3.138   2.987  10.892  1.2266  0.3659 -0.7039
 1869SOL    HW217070   3.248   3.087  10.938  0.8288 -0.4811  0.9026
 1870SOL     OW17071   0.718   3.954   7.756  0.0519 -0.2052  0.2373
 1870SOL    HW117072   0.662   3.879   7.735  0.8815 -0.4588 -1.0972
 1870SOL    HW217073   0.662   4.025   7.725  0.4582  0.6666  1.5136
 1871SOL     OW17074   0.066   2.679   5.008 -0.6381  0.7712  0.2706
 1871SOL    HW117075   0.123   2.694   5.084 -0.9531 -1.7301  1.0124
 1871SOL    HW217076   4.700   2.656   5.041 -0.0464 -1.3860  0.3511
 1872SOL     OW17077   1.678   3.118  14.304 -0.7673 -0.0540  0.3117
 1872SOL    HW117078   1.681   3.214  14.296  1.4374 -0.1018  0.5187
 1872SOL    HW217079   1.585   3.097  14.311 -0.2171 -2.5326  0.2379
 1873SOL     OW17080   3.066   4.551  10.888  0.7376 -0.1990  0.6258
 1873SOL    HW117081   3.095   4.634  10.926 -1.0189  0.2614  0.9701
 1873SOL    HW217082   3.129   4.483  10.914 -0.4734 -1.0940  1.2153
 1874SOL     OW17083   0.009   2.064  10.194  0.4570  0.3234 -0.1007
 1874SOL    HW117084   4.660   2.130  10.196 -1.0946 -1.3624  1.5421
 1874SOL    HW217085   0.074   2.109  10.247  1.0714 -2.1170  1.2171
 1875SOL     OW17086   0.700   1.140   5.477  0.2859 -0.2474  0.1627
 1875SOL    HW117087   0.625   1.193   5.504  1.3869  2.5560 -2.3244
 1875SOL    HW217088   0.665   1.072   5.418 -2.0226  0.9380  0.1598
 1876SOL     OW17089   1.622   1.945   7.783 -0.2783  0.3409 -0.6037
 1876SOL    HW117090   1.638   1.850   7.781  3.4687  0.9553 -0.7082
 1876SOL    HW217091   1.591   1.969   7.696 -0.8131 -1.0887 -0.8218
 1877SOL     OW17092   0.542   4.033   8.661  0.6149  0.0481 -0.2259
 1877SOL    HW117093   0.457   4.075   8.671 -0.0577 -0.9335 -1.7792
 1877SOL    HW217094   0.599   4.100   8.621  2.6545 -1.3071  0.4090
 1878SOL     OW17095   4.587   0.483   5.431  0.1297  0.0314 -0.1258
 1878SOL    HW117096   4.595   0.523   5.518 -2.0715  1.0506 -0.3893
 1878SOL    HW217097   4.665   0.527   5.396 -0.4231  1.5494  0.5462
 1879SOL     OW17098   1.495   2.894  11.216  0.6688  0.3472 -0.0897
 1879SOL    HW117099   1.581   2.899  11.174  0.4407 -0.3338 -0.6195
 1879SOL    HW217100   1.487   2.800  11.202 -0.2256  0.6562 -1.6300
 1880SOL     OW17101   1.059   0.105   6.360 -0.0061 -0.1080  0.4056
 1880SOL    HW117102   0.979   0.058   6.383  0.6044 -1.1510  0.3971
 1880SOL    HW217103   1.077   0.131   6.450  0.1975 -0.2043  0.3931
 1881SOL     OW17104   1.041   0.537   7.226 -0.5293 -0.4900 -0.0975
 1881SOL    HW117105   0.950   0.554   7.202 -0.1990  2.7239  0.9131
 1881SOL    HW217106   1.038   0.454   7.274  1.5656 -1.0847 -1.0165
 1882SOL     OW17107   1.643   2.416  11.080 -0.3139  0.9090  0.2219
 1882SOL    HW117108   1.622   2.391  11.170 -0.7828 -0.4596 -0.2693
 1882SOL    HW217109   1.610   2.505  11.067  1.5011  1.4824 -0.4949
 1883SOL     OW17110   3.104   0.060   2.949 -0.1610  0.0209 -0.1915
 1883SOL    HW117111   3.070   0.118   2.881 -0.9905 -1.3624 -0.9568
 1883SOL    HW217112   3.103   0.125   3.019  1.8511  0.6194 -0.7176
 1884SOL     OW17113   4.050   4.624   3.876 -0.4420 -0.1569 -0.1545
 1884SOL    HW117114   4.029   4.702   3.824  1.2710  0.3301 -0.1243
 1884SOL    HW217115   3.974   4.571   3.853  0.5841 -1.3434 -0.8192
 1885SOL     OW17116   1.450   1.164   5.887 -0.5380  0.0097  0.2897
 1885SOL    HW117117   1.361   1.193   5.907 -0.2731  1.3992 -0.5185
 1885SOL    HW217118   1.467   1.097   5.954 -2.7651 -1.3625 -0.5420
 1886SOL     OW17119   2.886   4.141   5.646  0.0729  0.1567  0.4759
 1886SOL    HW117120   2.856   4.118   5.734 -0.7807  0.7534  0.3370
 1886SOL    HW217121   2.880   4.235   5.662  0.5264  0.5402 -1.6568
 1887SOL     OW17122   4.054   0.118   4.993 -0.3839  0.3060  0.1274
 1887SOL    HW117123   3.971   0.116   5.042  0.1397  0.8257  1.0482
 1887SOL    HW217124   4.024   0.104   4.904 -1.7023  2.2394  0.2650
 1888SOL     OW17125   1.078   1.312   0.655  0.4708  0.2987 -0.0913
 1888SOL    HW117126   1.082   1.321   0.750 -1.7202 -0.9038  0.1106
 1888SOL    HW217127   0.989   1.340   0.637  0.2889  0.7482  1.4978
 1889SOL     OW17128   1.155   4.651   2.872 -0.4811 -0.7922 -0.6282
 1889SOL    HW117129   1.251   4.649   2.870 -0.5062 -0.6927 -1.9971
 1889SOL    HW217130   1.132   4.588   2.940  0.4757  0.7143  1.0678
 1890SOL     OW17131   2.148   1.637   5.457 -0.1602  0.3895  0.6659
 1890SOL    HW117132   2.179   1.654   5.546 -0.9712  1.5982  0.7165
 1890SOL    HW217133   2.163   1.543   5.441 -1.4881  0.3171 -0.1033
 1891SOL     OW17134   2.484   3.759  16.993  0.0848 -0.4992  0.7236
 1891SOL    HW117135   2.464   3.754  17.086  0.6835  0.9958  0.9416
 1891SOL    HW217136   2.400   3.738  16.953  0.1598 -2.4142  1.6132
 1892SOL     OW17137   2.529   3.032  16.377 -0.2864  0.0638 -0.0857
 1892SOL    HW117138   2.470   3.055  16.305  0.9843  2.0177 -0.4951
 1892SOL    HW217139   2.541   2.938  16.366  0.6947  0.2545 -0.6440
 1893SOL     OW17140   1.432   2.881   8.666 -0.1054  0.1210  0.2228
 1893SOL    HW117141   1.386   2.913   8.588  0.5867  1.5482  0.3884
 1893SOL    HW217142   1.357   2.835   8.703 -0.7110  0.1509 -0.9656
 1894SOL     OW17143   2.425   3.422  16.695  0.8266  0.2796  0.0724
 1894SOL    HW117144   2.502   3.442  16.642  0.5888  1.7437  0.2962
 1894SOL    HW217145   2.462   3.351  16.748  1.4127 -0.2784 -1.0892
 1895SOL     OW17146   3.581   4.098   8.356  0.0541 -0.0307 -0.1119
 1895SOL    HW117147   3.489   4.124   8.364 -0.2308 -1.2372  0.6326
 1895SOL    HW217148   3.604   4.051   8.436 -0.3265  0.2349  0.1527
 1896SOL     OW17149   4.099   0.790   4.177  0.7781 -0.4663 -0.5146
 1896SOL    HW117150   4.186   0.761   4.204  0.6335 -1.0876 -0.7274
 1896SOL    HW217151   4.116   0.876   4.139 -0.4207  0.2011  0.4776
 1897SOL     OW17152   2.724   2.310   5.372  0.2307  0.6763  0.1139
 1897SOL    HW117153   2.674   2.275   5.446  1.0639 -1.7136 -0.4351
 1897SOL    HW217154   2.812   2.287   5.403 -1.0456 -0.4735  2.9392
 1898SOL     OW17155   4.568   2.317   9.357  0.4426 -0.5198 -0.4090
 1898SOL    HW117156   4.583   2.408   9.331 -1.6509 -0.1229 -0.1624
 1898SOL    HW217157   4.570   2.331   9.452 -0.0652  0.0295 -0.4802
 1899SOL     OW17158   2.930   0.873   9.550  0.4177  0.2370 -0.5687
 1899SOL    HW117159   2.902   0.934   9.618 -3.0069 -0.4114 -1.4441
 1899SOL    HW217160   2.862   0.807   9.536 -0.6353  0.8346  1.6868
 1900SOL     OW17161   0.048   2.490  16.538 -0.0098 -0.1279 -0.1696
 1900SOL    HW117162   0.078   2.400  16.549  1.4230  0.0791 -2.3878
 1900SOL    HW217163   0.082   2.535  16.615 -4.2917  1.6629  0.7265
 1901SOL     OW17164   2.821   1.241  12.968  0.2285 -0.1361 -0.1819
 1901SOL    HW117165   2.734   1.236  12.929 -0.0124  2.6203  0.0249
 1901SOL    HW217166   2.848   1.149  12.967 -1.8042 -0.7374 -0.5434
 1902SOL     OW17167   1.215   2.894   3.657  0.2233 -0.1029 -0.2674
 1902SOL    HW117168   1.132   2.920   3.696 -0.5283 -0.3584 -1.6766
 1902SOL    HW217169   1.255   2.836   3.722 -1.3637  1.0915  1.7741
 1903SOL     OW17170   1.646   2.456   5.678  0.3720 -0.1461  0.3154
 1903SOL    HW117171   1.594   2.518   5.730  1.9842  0.4642  1.1886
 1903SOL    HW217172   1.596   2.376   5.688  0.5878 -0.4049 -0.7026
 1904SOL     OW17173   0.053   2.239   5.204  0.1510 -0.6116  0.1930
 1904SOL    HW117174   0.112   2.243   5.279  1.0330  0.1598 -0.5369
 1904SOL    HW217175   4.685   2.249   5.239  0.9123  0.0989  1.9002
 1905SOL     OW17176   0.727   0.411   6.692  0.0700 -0.0495 -0.2647
 1905SOL    HW117177   0.708   0.357   6.769 -1.8788  1.0581  0.0488
 1905SOL    HW217178   0.724   0.500   6.726  0.3872 -0.5909  1.1748
 1906SOL     OW17179   3.666   0.832   3.013  0.6096  0.1293  0.2285
 1906SOL    HW117180   3.618   0.844   3.095  0.8711  3.6552 -0.1099
 1906SOL    HW217181   3.679   0.922   2.983 -1.0739  0.3682  0.1925
 1907SOL     OW17182   2.545   3.472  17.527  0.1592  0.2673 -0.7098
 1907SOL    HW117183   2.623   3.489  17.580  0.3026 -2.9795  0.1816
 1907SOL    HW217184   2.577   3.443  17.442 -0.1481  0.0863 -0.7673
 1908SOL     OW17185   4.349   3.104   3.368 -0.7276 -0.8235  0.3387
 1908SOL    HW117186   4.389   3.155   3.439  2.0465  0.6487 -2.2947
 1908SOL    HW217187   4.285   3.162   3.327  0.2622 -0.4573 -0.6950
 1909SOL     OW17188   1.015   2.247  14.991 -0.1004  0.3346 -0.5305
 1909SOL    HW117189   0.965   2.207  14.919 -1.3724 -0.0950  0.5955
 1909SOL    HW217190   1.092   2.274  14.941  0.0063  1.8261  0.4452
 1910SOL     OW17191   0.592   0.096   4.002 -0.2306 -1.2012  0.1173
 1910SOL    HW117192   0.500   0.091   3.976 -0.0394 -1.7276 -0.4408
 1910SOL    HW217193   0.637   0.147   3.934  0.3632  1.5397  2.5698
 1911SOL     OW17194   3.011   2.101  15.340 -0.4436 -0.0670  1.0038
 1911SOL    HW117195   3.039   2.026  15.392 -0.3200 -0.4089  0.4326
 1911SOL    HW217196   2.954   2.059  15.277  1.6006 -0.0886 -0.8153
 1912SOL     OW17197   0.136   3.729   1.287  0.2457  0.4458  0.2061
 1912SOL    HW117198   0.066   3.731   1.221 -0.8412 -2.4357  1.3130
 1912SOL    HW217199   0.214   3.725   1.232 -0.3595 -2.8725 -0.3855
 1913SOL     OW17200   1.927   0.674   8.343 -0.2930 -0.4252 -0.1519
 1913SOL    HW117201   1.898   0.621   8.417 -2.4507  4.0462  2.1830
 1913SOL    HW217202   1.937   0.759   8.385  0.0282 -0.0613 -0.9674
 1914SOL     OW17203   1.670   1.573   3.698  0.3124 -0.0132  0.7903
 1914SOL    HW117204   1.576   1.582   3.713 -0.1758 -2.1241 -1.2343
 1914SOL    HW217205   1.672   1.582   3.603 -2.6053 -0.7982  0.6673
 1915SOL     OW17206   2.460   0.659   8.024  0.0722 -0.1520 -0.1070
 1915SOL    HW117207   2.491   0.595   7.961  1.8693 -0.3627  1.0185
 1915SOL    HW217208   2.398   0.716   7.977 -0.1185 -0.7852 -0.6191
 1916SOL     OW17209   3.717   3.586   5.996  0.8919  0.1157  1.1551
 1916SOL    HW117210   3.626   3.563   5.977  1.4394 -1.0669 -0.1097
 1916SOL    HW217211   3.729   3.551   6.084  2.1195 -1.2374  0.4539
 1917SOL     OW17212   4.469   0.897   8.183 -0.5937 -0.5232  0.0942
 1917SOL    HW117213   4.488   0.988   8.162  0.6602 -0.8434 -0.1983
 1917SOL    HW217214   4.442   0.862   8.098  0.3215 -0.6141 -0.1563
 1918SOL     OW17215   3.135   2.177   8.400 -0.0670  0.3288 -0.1657
 1918SOL    HW117216   3.201   2.145   8.461 -1.7796  0.0560  1.5635
 1918SOL    HW217217   3.119   2.265   8.435 -1.3576  0.0515 -0.0552
 1919SOL     OW17218   3.969   4.693  15.485  0.1474 -0.5786 -0.1088
 1919SOL    HW117219   3.976   0.059  15.445  1.1511 -0.3143  0.6368
 1919SOL    HW217220   4.045   4.653  15.443 -1.2111 -2.9347 -0.3394
 1920SOL     OW17221   4.497   1.126   4.749  0.4095  0.0490  0.2861
 1920SOL    HW117222   4.523   1.118   4.841  2.3267  1.1492 -0.1498
 1920SOL    HW217223   4.578   1.091   4.711 -1.3179 -0.7662 -2.6480
 1921SOL     OW17224   0.649   4.249   5.845 -0.7211 -0.2154  0.2862
 1921SOL    HW117225   0.652   4.299   5.763 -0.0310 -0.4581  0.1675
 1921SOL    HW217226   0.731   4.201   5.839 -0.6336  0.0425 -0.5317
 1922SOL     OW17227   2.127   0.474  13.716 -0.1496  0.6772  0.2781
 1922SOL    HW117228   2.137   0.389  13.672  0.3159 -0.2349  2.1238
 1922SOL    HW217229   2.114   0.447  13.807  2.2054 -0.6123  0.2328
 1923SOL     OW17230   0.401   0.726   1.051 -0.5066  0.1265  0.0870
 1923SOL    HW117231   0.473   0.683   1.099  0.5731 -0.3434 -1.9444
 1923SOL    HW217232   0.405   0.706   0.958 -0.4675  1.6811 -0.2448
 1924SOL     OW17233   2.533   3.752   1.195 -0.4765 -0.5051  0.5132
 1924SOL    HW117234   2.483   3.679   1.160  2.4337 -1.0105 -2.6285
 1924SOL    HW217235   2.582   3.785   1.119  1.4507 -0.8735  1.5893
 1925SOL     OW17236   0.723   4.592   0.749  0.2024  0.4948 -0.0318
 1925SOL    HW117237   0.796   4.636   0.707  0.9245 -0.8965 -0.2318
 1925SOL    HW217238   0.751   4.502   0.730  1.8391  0.9152  0.3961
 1926SOL     OW17239   4.641   0.224   5.495 -0.4449  0.1814 -0.1542
 1926SOL    HW117240   4.623   0.318   5.498 -2.6519 -0.3238  2.2309
 1926SOL    HW217241   0.005   0.213   5.451  0.2661  0.2393  1.1935
 1927SOL     OW17242   1.444   2.854   9.356 -0.4082 -0.1301 -0.0579
 1927SOL    HW117243   1.475   2.927   9.302  0.5396 -0.0974  0.5383
 1927SOL    HW217244   1.517   2.839   9.416 -1.5352  0.1805  1.4100
 1928SOL     OW17245   1.118   0.131   2.709 -0.4342  0.4348 -0.5488
 1928SOL    HW117246   1.033   0.098   2.680  0.3342 -1.9271 -0.1272
 1928SOL    HW217247   1.122   0.082   2.791 -1.1643  0.1459 -0.6872
 1929SOL     OW17248   1.226   4.351   4.788  0.2203  0.2082 -0.1558
 1929SOL    HW117249   1.205   4.444   4.787 -1.8707 -0.2594 -0.9666
 1929SOL    HW217250   1.299   4.351   4.849  0.1950 -2.5771 -0.1444
 1930SOL     OW17251   0.767   1.013  15.778  0.0103  0.2276  0.0842
 1930SOL    HW117252   0.732   1.093  15.739 -1.7069 -0.6761 -0.2457
 1930SOL    HW217253   0.858   1.017  15.750 -0.6098 -2.2644 -2.3775
 1931SOL     OW17254   2.265   2.135  10.694  1.0383 -0.4291  0.1587
 1931SOL    HW117255   2.196   2.069  10.689  0.6901 -0.0993  0.5902
 1931SOL    HW217256   2.237   2.213  10.646  0.1515 -1.0641 -0.3671
 1932SOL     OW17257   3.394   3.225   9.829 -0.2298 -0.2553  0.6230
 1932SOL    HW117258   3.474   3.198   9.785  1.2234  1.6149  2.1668
 1932SOL    HW217259   3.427   3.276   9.903  2.1289 -1.7772  0.6325
 1933SOL     OW17260   2.287   1.914   6.466 -0.1020 -0.0429  0.0680
 1933SOL    HW117261   2.214   1.931   6.407  0.2036 -0.5896 -0.4761
 1933SOL    HW217262   2.307   2.002   6.498 -0.8528 -0.4611  1.6591
 1934SOL     OW17263   1.554   1.376  11.474  0.3326 -0.1671 -0.4014
 1934SOL    HW117264   1.632   1.410  11.518  0.5254  0.3649 -1.1748
 1934SOL    HW217265   1.503   1.350  11.552  1.0037  1.1028  0.4550
 1935SOL     OW17266   0.616   4.211   4.727 -0.0386 -0.3215  0.8019
 1935SOL    HW117267   0.640   4.149   4.658 -2.5152 -2.0385  1.4835
 1935SOL    HW217268   0.645   4.158   4.802 -0.0113 -0.4061  0.7316
 1936SOL     OW17269   3.577   3.571   9.280  0.1212  0.5829  0.7140
 1936SOL    HW117270   3.550   3.625   9.355 -3.1239 -0.0666  0.0029
 1936SOL    HW217271   3.493   3.551   9.240  0.1007 -1.1431  1.6058
 1937SOL     OW17272   0.223   2.392   6.735 -0.0165 -0.1153  0.2711
 1937SOL    HW117273   0.178   2.470   6.767 -0.0995 -0.3242  0.6583
 1937SOL    HW217274   0.201   2.390   6.642 -2.6397 -0.2285  0.8803
 1938SOL     OW17275   4.488   2.424   6.003  0.2099  0.1228  0.4122
 1938SOL    HW117276   4.419   2.376   5.960  0.2461 -0.0974  0.5997
 1938SOL    HW217277   4.445   2.508   6.016 -0.6186 -0.2015 -0.2917
 1939SOL     OW17278   2.488   3.363  12.184  0.2357 -0.3067  0.5753
 1939SOL    HW117279   2.437   3.363  12.103  1.2614 -1.2690 -0.0746
 1939SOL    HW217280   2.558   3.300  12.167 -1.1279 -1.7702  0.3125
 1940SOL     OW17281   4.539   3.658   3.743  0.0345  0.0402 -0.8233
 1940SOL    HW117282   4.546   3.752   3.756  1.3781 -0.0703 -0.7249
 1940SOL    HW217283   4.588   3.652   3.661 -0.2050 -0.8906 -0.9062
 1941SOL     OW17284   2.752   2.066  16.426  0.9786 -0.0615 -0.2695
 1941SOL    HW117285   2.744   1.971  16.426  2.2703 -0.1770  1.5542
 1941SOL    HW217286   2.708   2.102  16.349 -0.6333  0.3851  0.8324
 1942SOL     OW17287   0.979   4.212   2.750 -0.4421 -0.1216 -0.0567
 1942SOL    HW117288   1.037   4.212   2.826 -0.1186 -1.9636 -0.3186
 1942SOL    HW217289   0.988   4.303   2.722 -1.6594 -0.1722 -0.6078
 1943SOL     OW17290   2.539   1.385   5.780 -0.4154  0.0900 -0.1811
 1943SOL    HW117291   2.570   1.366   5.869 -1.1166  0.4456  0.1378
 1943SOL    HW217292   2.625   1.382   5.738 -0.5149  0.1044 -0.3824
 1944SOL     OW17293   1.386   0.756   8.815  0.0029 -0.3965  0.4211
 1944SOL    HW117294   1.363   0.694   8.745 -0.2112 -1.5352  1.4958
 1944SOL    HW217295   1.385   0.844   8.778  2.1756 -0.5387  0.0258
 1945SOL     OW17296   1.054   0.747   6.184  0.1482 -0.2425  0.4680
 1945SOL    HW117297   1.074   0.837   6.208  0.3047  0.0131 -0.6066
 1945SOL    HW217298   1.086   0.711   6.267  1.8127 -0.5040 -0.2875
 1946SOL     OW17299   3.829   2.444  15.498  0.0612  0.5290  0.1312
 1946SOL    HW117300   3.870   2.517  15.451 -0.5101  0.7091 -0.0928
 1946SOL    HW217301   3.880   2.431  15.577  1.5955 -0.3448 -1.0067
 1947SOL     OW17302   1.430   1.427   3.895  0.1897 -0.0928 -0.3071
 1947SOL    HW117303   1.365   1.400   3.960  1.5403  0.6161  1.3450
 1947SOL    HW217304   1.375   1.474   3.832 -0.4206 -0.1146  0.2119
 1948SOL     OW17305   1.021   2.931   7.377 -0.4863 -0.6628 -0.4036
 1948SOL    HW117306   0.972   2.969   7.450 -1.7175 -1.0256 -1.0470
 1948SOL    HW217307   0.999   2.993   7.307 -4.2363 -3.3227 -1.5818
 1949SOL     OW17308   1.728   3.835  15.377  0.4831 -0.4501  0.0735
 1949SOL    HW117309   1.677   3.783  15.314 -0.0708  2.8592 -2.2401
 1949SOL    HW217310   1.678   3.810  15.455  0.7680 -1.8330 -0.1830
 1950SOL     OW17311   1.446   3.436  11.849  0.7147  0.0180  0.1254
 1950SOL    HW117312   1.523   3.381  11.859  1.4211  0.5001 -2.7282
 1950SOL    HW217313   1.454   3.494  11.924  1.9428 -1.5681  1.2259
 1951SOL     OW17314   3.526   2.953   9.080 -0.6649  0.0256  0.3046
 1951SOL    HW117315   3.458   2.977   9.143 -0.8809  1.9462 -0.6328
 1951SOL    HW217316   3.484   2.939   8.995 -1.1895  1.6754  0.2792
 1952SOL     OW17317   2.516   1.824   3.746  0.0118 -0.1335  0.1909
 1952SOL    HW117318   2.572   1.779   3.683 -1.0196 -0.7327 -0.2904
 1952SOL    HW217319   2.558   1.910   3.754 -1.9088  0.9671 -1.5820
 1953SOL     OW17320   0.604   0.447  10.140 -0.1813  0.5380  0.0419
 1953SOL    HW117321   0.698   0.465  10.144 -0.3321  1.3726 -0.2457
 1953SOL    HW217322   0.580   0.523  10.087 -1.4946 -1.0059 -1.5881
 1954SOL     OW17323   0.063   0.608  16.445 -0.3824  0.4266 -0.0399
 1954SOL    HW117324   0.121   0.668  16.397 -0.2978  1.8033  1.7978
 1954SOL    HW217325   0.047   0.541  16.378 -0.0281  1.1729 -0.8655
 1955SOL     OW17326   2.482   1.116   5.634 -0.4707  0.0640 -0.0592
 1955SOL    HW117327   2.437   1.097   5.552  1.4820 -1.4161 -0.7916
 1955SOL    HW217328   2.476   1.212   5.632 -0.1232  0.1095  1.5020
 1956SOL     OW17329   2.602   3.230  16.764 -0.2661  1.1613  0.5012
 1956SOL    HW117330   2.680   3.282  16.742  0.6350  0.4334  1.9368
 1956SOL    HW217331   2.641   3.142  16.768 -1.2343  0.7555  1.2869
 1957SOL     OW17332   2.673   0.842   5.151  0.0295 -0.5108  0.4306
 1957SOL    HW117333   2.635   0.841   5.063 -0.7917  1.7283  0.7673
 1957SOL    HW217334   2.672   0.747   5.163 -1.4039 -0.3456  1.5511
 1958SOL     OW17335   0.252   4.236  17.370 -0.0934 -0.0948  0.4670
 1958SOL    HW117336   0.325   4.255  17.429 -1.4883 -0.0897  2.2139
 1958SOL    HW217337   0.297   4.167  17.322 -0.5433 -0.1329  0.0966
 1959SOL     OW17338   3.747   4.260   5.871  0.2170  0.0221  0.0084
 1959SOL    HW117339   3.832   4.247   5.913 -0.5961 -0.5673  1.4824
 1959SOL    HW217340   3.768   4.272   5.778  1.7039  0.2044  0.3647
 1960SOL     OW17341   2.796   0.102   0.007 -0.0483 -0.1067  0.4341
 1960SOL    HW117342   2.725   0.167   0.010 -1.2301 -1.4626  1.5730
 1960SOL    HW217343   2.805   0.102  17.596  2.5753  1.3366  0.6834
 1961SOL     OW17344   2.343   2.381   9.547  0.0667 -0.2960 -0.0120
 1961SOL    HW117345   2.369   2.380   9.455  0.9654 -1.3160  0.2585
 1961SOL    HW217346   2.373   2.470   9.565 -1.7168  0.4993 -0.9572
 1962SOL     OW17347   1.035   4.393  15.365  0.6740  0.1699 -0.5275
 1962SOL    HW117348   1.021   4.344  15.447  1.7477  2.1948  0.8764
 1962SOL    HW217349   1.072   4.473  15.404  0.5406  0.0901 -0.2289
 1963SOL     OW17350   2.200   3.606   9.106 -0.2289  0.4484 -0.5416
 1963SOL    HW117351   2.285   3.596   9.064 -1.7029 -1.6824 -2.9981
 1963SOL    HW217352   2.226   3.662   9.179  1.2586 -1.0250  0.0444
 1964SOL     OW17353   1.736   1.179   7.436 -0.1287 -0.0265 -0.4601
 1964SOL    HW117354   1.725   1.101   7.382  0.8204 -0.1683 -0.4411
 1964SOL    HW217355   1.653   1.187   7.483 -0.1837  1.6778 -0.8494
 1965SOL     OW17356   2.262   4.353   6.578 -0.3511 -0.2073 -0.5352
 1965SOL    HW117357   2.225   4.320   6.497 -4.0822  1.5450  0.4379
 1965SOL    HW217358   2.354   4.351   6.552 -1.1386  1.2215 -3.3764
 1966SOL     OW17359   2.495   4.086   3.325 -0.3076 -0.0067  0.2838
 1966SOL    HW117360   2.572   4.096   3.270 -0.3433 -1.9146 -0.1298
 1966SOL    HW217361   2.530   4.101   3.413 -0.6831 -2.6436  0.8881
 1967SOL     OW17362   2.562   0.514  16.188  0.3956  0.3357 -0.5902
 1967SOL    HW117363   2.558   0.439  16.129  2.5309  0.0494 -0.3945
 1967SOL    HW217364   2.566   0.471  16.273 -2.2179 -0.4177 -0.8795
 1968SOL     OW17365   1.133   2.071   8.275 -0.2522  0.3222 -0.2181
 1968SOL    HW117366   1.128   2.162   8.245  0.4375  0.6558  0.6937
 1968SOL    HW217367   1.127   2.082   8.370 -0.6611 -0.9967 -0.0967
 1969SOL     OW17368   4.423   1.901   6.694 -0.7351 -0.0729 -0.2587
 1969SOL    HW117369   4.351   1.934   6.748 -1.0271  0.8051 -1.1747
 1969SOL    HW217370   4.380   1.823   6.658 -0.7496  0.5305 -1.5555
 1970SOL     OW17371   4.621   3.164   1.482  0.0950  0.5496 -0.3395
 1970SOL    HW117372   4.598   3.166   1.575  0.6038 -2.9686 -0.1633
 1970SOL    HW217373   4.687   3.234   1.481 -0.2133  0.8644  1.5288
 1971SOL     OW17374   1.723   3.719   5.320 -0.3568 -0.5668 -0.0625
 1971SOL    HW117375   1.750   3.709   5.411 -0.4444 -0.7528 -0.0575
 1971SOL    HW217376   1.673   3.801   5.312 -0.3876 -0.5135  0.6448
 1972SOL     OW17377   3.372   0.643   6.476 -0.0374  0.3810  0.3348
 1972SOL    HW117378   3.378   0.673   6.566 -0.3896  3.0460 -0.5371
 1972SOL    HW217379   3.456   0.671   6.438  0.9458  0.2107  2.3455
 1973SOL     OW17380   1.003   2.981   8.283 -0.3269 -0.1966  0.2361
 1973SOL    HW117381   0.971   3.051   8.341  0.8729 -0.3989  1.1512
 1973SOL    HW217382   1.024   3.031   8.204 -0.1534  3.4323  2.5463
 1974SOL     OW17383   1.419   3.310   6.014  0.5485 -0.1634 -0.0759
 1974SOL    HW117384   1.399   3.394   5.973  1.4640  0.8596  1.5328
 1974SOL    HW217385   1.337   3.269   6.042 -0.3021  1.1102 -0.6746
 1975SOL     OW17386   4.100   4.397   8.053  0.2125  0.0190 -0.3551
 1975SOL    HW117387   4.033   4.329   8.061 -0.3683  0.5947 -0.3753
 1975SOL    HW217388   4.047   4.476   8.062 -2.1296 -1.7035  1.1832
 1976SOL     OW17389   4.597   0.614   1.614  0.3306 -0.0031 -0.0056
 1976SOL    HW117390   4.509   0.622   1.577  1.0629 -1.7883 -2.1339
 1976SOL    HW217391   4.648   0.662   1.549 -1.8780  3.4307  0.7911
 1977SOL     OW17392   2.241   3.900  15.267  0.1765  0.5617 -0.2004
 1977SOL    HW117393   2.296   3.871  15.340 -0.9758 -2.2513 -0.4479
 1977SOL    HW217394   2.227   3.989  15.298 -1.4094 -0.0266  0.7363
 1978SOL     OW17395   0.281   2.889   8.152  0.2460 -0.4256 -0.1953
 1978SOL    HW117396   0.257   2.966   8.205 -0.9913 -1.1396  0.2715
 1978SOL    HW217397   0.214   2.829   8.185  0.5844 -1.0055 -0.5829
 1979SOL     OW17398   2.055   4.139   9.260 -0.7658 -0.6713 -0.5344
 1979SOL    HW117399   2.055   4.154   9.166 -1.2828 -2.9155 -0.8996
 1979SOL    HW217400   2.125   4.075   9.272  0.5088  0.4634 -2.0763
 1980SOL     OW17401   3.742   1.646  16.065 -0.3198 -0.3276 -0.2155
 1980SOL    HW117402   3.664   1.602  16.031 -0.9183 -0.0250  0.7571
 1980SOL    HW217403   3.779   1.574  16.116  1.1243 -0.6125 -1.6653
 1981SOL     OW17404   3.099   3.774  11.748 -0.0117 -0.5806 -0.2704
 1981SOL    HW117405   3.122   3.681  11.740  0.5362 -0.3296 -1.6689
 1981SOL    HW217406   3.098   3.794  11.841 -0.2931 -0.9184 -0.2001
 1982SOL     OW17407   0.677   1.941  15.318  0.0097  0.6748 -0.1287
 1982SOL    HW117408   0.639   1.949  15.230  0.5876 -0.9595 -0.5195
 1982SOL    HW217409   0.759   1.990  15.308  2.3367 -3.3729 -0.7119
 1983SOL     OW17410   1.421   3.870   0.802 -0.4525 -0.3186 -0.6274
 1983SOL    HW117411   1.469   3.843   0.723 -0.5812 -0.3855 -0.6836
 1983SOL    HW217412   1.475   3.827   0.868  1.8086  1.3656 -1.3679
 1984SOL     OW17413   4.467   1.272   1.684 -0.6008 -0.4698 -0.2112
 1984SOL    HW117414   4.486   1.256   1.776 -0.1436  1.9251  0.1126
 1984SOL    HW217415   4.558   1.259   1.656  0.5339 -0.5254  3.6035
 1985SOL     OW17416   2.209   1.613   3.259  0.0455 -0.2314  0.4504
 1985SOL    HW117417   2.243   1.573   3.179 -1.8663  0.3958 -0.6772
 1985SOL    HW217418   2.210   1.536   3.316 -1.2795  0.3427  1.2581
 1986SOL     OW17419   3.111   3.717   1.600  0.0319 -0.1975 -0.3134
 1986SOL    HW117420   3.195   3.675   1.583 -0.8892 -1.5290 -1.5921
 1986SOL    HW217421   3.092   3.758   1.515  0.6292  2.2248  0.7062
 1987SOL     OW17422   2.407   0.857  11.078 -0.2239 -0.0148 -0.2896
 1987SOL    HW117423   2.368   0.933  11.034  0.4265  0.2393 -0.4282
 1987SOL    HW217424   2.400   0.887  11.168  1.6044 -2.0532  0.5404
 1988SOL     OW17425   3.682   2.152   5.833 -0.3989 -0.5012 -0.6322
 1988SOL    HW117426   3.739   2.188   5.901  0.1427 -1.6701 -0.4702
 1988SOL    HW217427   3.744   2.116   5.770  1.2826 -1.9021  1.8535
 1989SOL     OW17428   2.561   3.608   6.825 -0.3504  0.0574 -0.4466
 1989SOL    HW117429   2.583   3.575   6.738 -1.7787 -0.7894 -0.4895
 1989SOL    HW217430   2.618   3.550   6.876 -1.2072 -0.2827  0.1303
 1990SOL     OW17431   4.236   3.009  10.379  0.2770  0.5472  0.1810
 1990SOL    HW117432   4.214   3.099  10.353 -0.3293  0.5810  0.8192
 1990SOL    HW217433   4.213   3.015  10.472 -0.2541 -0.9524  0.1480
 1991SOL     OW17434   2.641   1.520   5.438 -0.2276  0.0026 -0.2796
 1991SOL    HW117435   2.629   1.615   5.434  2.2127  0.3478  0.6585
 1991SOL    HW217436   2.679   1.512   5.525 -0.3331 -1.6404 -0.3835
 1992SOL     OW17437   4.274   3.588   2.619 -0.4687 -0.0889  0.1059
 1992SOL    HW117438   4.231   3.654   2.673 -0.3884 -1.6472  2.0651
 1992SOL    HW217439   4.363   3.621   2.630 -0.1056 -0.4031 -1.9969
 1993SOL     OW17440   1.298   2.887   4.530 -0.4709 -0.2726 -0.0813
 1993SOL    HW117441   1.295   2.865   4.437  0.1323  0.5919 -0.3094
 1993SOL    HW217442   1.265   2.808   4.574 -2.7216  1.3657  1.1486
 1994SOL     OW17443   4.556   4.704  17.057  0.1209  0.3082 -0.1647
 1994SOL    HW117444   4.581   4.687  16.966 -1.6912 -0.1156 -0.5846
 1994SOL    HW217445   4.531   0.074  17.040  2.7735  0.7866 -1.4819
 1995SOL     OW17446   2.260   1.190   3.680 -0.0947 -0.1148 -0.0396
 1995SOL    HW117447   2.205   1.233   3.746 -0.3155 -0.7696  0.2001
 1995SOL    HW217448   2.266   1.103   3.718 -2.3904 -0.5498 -0.6501
 1996SOL     OW17449   4.165   1.190   6.978 -0.4575  0.2900 -0.1801
 1996SOL    HW117450   4.217   1.234   7.045 -1.0202  1.0323 -0.2379
 1996SOL    HW217451   4.077   1.223   6.997 -0.7292 -1.2333  1.2319
 1997SOL     OW17452   1.369   2.980   8.382  0.3568 -0.0530 -0.4251
 1997SOL    HW117453   1.455   3.011   8.410  0.7684 -1.1593 -0.4634
 1997SOL    HW217454   1.335   3.063   8.350 -0.2650 -0.5829 -1.1512
 1998SOL     OW17455   0.546   3.653   6.014  0.4616  0.4510  0.2021
 1998SOL    HW117456   0.574   3.571   5.973 -0.4686 -0.3930  1.2294
 1998SOL    HW217457   0.494   3.615   6.085 -0.1702 -0.8769 -0.9662
 1999SOL     OW17458   3.265   3.801   5.516 -0.8018  0.0148  0.1142
 1999SOL    HW117459   3.204   3.872   5.501 -0.8796  0.1576  1.0783
 1999SOL    HW217460   3.292   3.829   5.604 -1.6239 -1.2283  0.7660
 2000SOL     OW17461   1.945   2.930   3.764 -0.0526  0.1042 -0.1128
 2000SOL    HW117462   1.911   3.018   3.781  1.5354  0.7824 -0.3334
 2000SOL    HW217463   1.951   2.887   3.849  1.4407  0.8817  0.1850
 2001SOL     OW17464   0.066   2.285   4.578  0.4006 -0.1195 -0.0452
 2001SOL    HW117465   0.120   2.207   4.593 -1.5680 -1.2105  1.2770
 2001SOL    HW217466   0.132   2.336   4.531 -0.6754  1.4182  0.1248
 2002SOL     OW17467   0.398   4.716  13.072 -0.1827 -0.0503 -0.5276
 2002SOL    HW117468   0.367   0.076  13.113 -1.3189 -0.5991 -0.3228
 2002SOL    HW217469   0.398   4.653  13.144  0.9341  0.2899 -0.2288
 2003SOL     OW17470   4.359   2.692   7.118  0.2712 -0.0616  0.1796
 2003SOL    HW117471   4.414   2.747   7.175 -0.2355 -0.2665  0.8664
 2003SOL    HW217472   4.285   2.753   7.116  0.4539  0.1856  0.8856
 2004SOL     OW17473   2.448   0.046  12.846 -0.0658  0.3942 -0.1358
 2004SOL    HW117474   2.486   0.001  12.771  2.3900  0.4029  1.1271
 2004SOL    HW217475   2.519   0.041  12.909 -0.3782 -0.6977  0.1298
 2005SOL     OW17476   2.969   3.809   9.499 -0.4069 -0.1292  0.2215
 2005SOL    HW117477   2.885   3.836   9.464  0.5730  1.5148 -0.8801
 2005SOL    HW217478   2.979   3.861   9.579  0.2411  0.8380 -0.4888
 2006SOL     OW17479   1.045   3.398  16.224  0.3191 -0.1123  0.3458
 2006SOL    HW117480   1.037   3.383  16.130  1.6517 -1.0097  0.3768
 2006SOL    HW217481   0.973   3.339  16.248  0.4594  0.3305  1.8871
 2007SOL     OW17482   1.511   1.437   3.336 -0.5390  0.1716  0.6767
 2007SOL    HW117483   1.605   1.448   3.354 -0.0276 -0.7831 -1.4110
 2007SOL    HW217484   1.479   1.424   3.425 -0.1400 -0.3263  0.7459
 2008SOL     OW17485   1.000   2.569  10.524 -0.5303 -0.2979  0.5476
 2008SOL    HW117486   1.005   2.529  10.437 -0.1707  1.9281 -0.4590
 2008SOL    HW217487   0.960   2.505  10.583  1.1218 -1.5194  0.3392
 2009SOL     OW17488   0.974   3.958   2.315  0.3092 -0.4464 -0.5082
 2009SOL    HW117489   0.979   3.872   2.357 -2.0516 -0.5922 -0.4852
 2009SOL    HW217490   0.889   3.957   2.271 -0.5811  1.6861  1.1690
 2010SOL     OW17491   2.715   2.226   3.129 -0.1329  0.5311 -0.0381
 2010SOL    HW117492   2.699   2.317   3.105  1.9037  0.8772 -0.0855
 2010SOL    HW217493   2.806   2.242   3.152  0.8867 -3.1762 -1.5754
 2011SOL     OW17494   1.937   1.027   1.527  0.5703  0.2347  0.1115
 2011SOL    HW117495   1.874   1.098   1.514 -0.1851 -0.1994  1.3323
 2011SOL    HW217496   1.919   0.977   1.448  2.2533 -0.4026  0.1314
 2012SOL     OW17497   3.134   0.961   2.425  0.0613  0.3509  0.1739
 2012SOL    HW117498   3.158   0.991   2.512  0.4233  1.3779 -0.2788
 2012SOL    HW217499   3.039   0.962   2.436  0.0490 -1.6687  0.1513
 2013SOL     OW17500   3.097   0.173   8.387 -0.4166  0.1202 -0.1846
 2013SOL    HW117501   3.041   0.139   8.317  2.8376 -2.1010 -1.6734
 2013SOL    HW217502   3.039   0.229   8.439 -1.4026 -1.2394  0.1923
 2014SOL     OW17503   3.945   0.596   5.692  0.2954 -0.2958 -0.7488
 2014SOL    HW117504   3.920   0.644   5.772  1.5441  1.9190 -1.6877
 2014SOL    HW217505   3.876   0.533   5.672  0.1264 -0.5897  0.7414
 2015SOL     OW17506   1.719   1.173  11.151  0.3851 -0.7796  0.0599
 2015SOL    HW117507   1.787   1.189  11.217 -0.9772 -1.2509  1.5659
 2015SOL    HW217508   1.644   1.154  11.207  0.6971 -0.2217  0.6652
 2016SOL     OW17509   0.671   2.214  15.158 -0.3400  0.3984 -0.2611
 2016SOL    HW117510   0.733   2.279  15.125  0.4930  0.0584  0.6335
 2016SOL    HW217511   0.661   2.244  15.249  2.6992 -0.3117  0.3064
 2017SOL     OW17512   0.082   4.008  15.417 -0.3965  0.0524 -0.2971
 2017SOL    HW117513   0.104   3.945  15.485 -1.5697 -0.9200 -0.8268
 2017SOL    HW217514   4.711   3.979  15.411  0.0827 -1.0625 -2.1497
 2018SOL     OW17515   3.898   1.947   3.429  0.2872  0.4146 -0.3165
 2018SOL    HW117516   3.865   1.911   3.511  1.3495 -1.6699 -0.7811
 2018SOL    HW217517   3.832   1.917   3.367  0.2370  1.0633 -0.5753
 2019SOL     OW17518   2.778   2.698  16.858 -0.4917 -0.5045 -0.3791
 2019SOL    HW117519   2.825   2.618  16.837  2.1616  0.4966  1.7293
 2019SOL    HW217520   2.823   2.738  16.933  0.4415 -0.1560 -1.1263
 2020SOL     OW17521   2.697   3.222  11.622 -0.3399  0.0812  0.2283
 2020SOL    HW117522   2.644   3.300  11.637 -0.5598  0.1106 -0.7342
 2020SOL    HW217523   2.677   3.182  11.538  0.4010  1.6592 -0.6970
 2021SOL     OW17524   2.960   0.397   2.224  0.0562  0.0472 -0.2318
 2021SOL    HW117525   2.983   0.471   2.168 -3.6153 -0.4161 -2.3624
 2021SOL    HW217526   2.977   0.325   2.163 -0.7276  0.3265 -0.7741
 2022SOL     OW17527   0.731   1.336  16.984 -0.0928  0.2132 -0.2091
 2022SOL    HW117528   0.730   1.259  17.041 -0.0414  0.7658  0.5375
 2022SOL    HW217529   0.675   1.302  16.914 -3.2476  2.7809  1.1235
 2023SOL     OW17530   2.281   2.348   3.937  0.0152  0.1535  0.1595
 2023SOL    HW117531   2.296   2.442   3.950  0.5510  0.2719 -1.2400
 2023SOL    HW217532   2.240   2.345   3.850  0.4644 -1.8633  0.0112
 2024SOL     OW17533   0.208   4.392   4.768  0.4069  0.1930  0.1407
 2024SOL    HW117534   0.139   4.326   4.780  0.0456  1.1658  3.3466
 2024SOL    HW217535   0.228   4.366   4.678  0.0516  1.8105 -0.3968
 2025SOL     OW17536   0.587   0.251  10.315 -0.7029 -0.3696  0.0583
 2025SOL    HW117537   0.581   0.315  10.244  0.6653  0.8888  1.0843
 2025SOL    HW217538   0.677   0.263  10.346 -0.5051 -3.1118  0.5251
 2026SOL     OW17539   0.458   4.229   1.419  0.7646  0.3457 -0.5506
 2026SOL    HW117540   0.402   4.261   1.489  0.3904 -1.9195  0.1744
 2026SOL    HW217541   0.441   4.295   1.351  1.5789  0.0486 -1.0391
 2027SOL     OW17542   3.698   1.309   1.470 -0.0925  0.0909 -0.7306
 2027SOL    HW117543   3.712   1.401   1.450 -0.1207  0.1787 -0.3419
 2027SOL    HW217544   3.772   1.294   1.529  0.4652  2.9201 -0.7406
 2028SOL     OW17545   3.339   2.900   2.952 -0.5100  0.5005 -0.1555
 2028SOL    HW117546   3.427   2.900   2.991 -1.0785  1.5685  1.1407
 2028SOL    HW217547   3.288   2.920   3.031 -1.0497 -1.3277 -0.0475
 2029SOL     OW17548   2.712   3.199   3.869  0.1076 -0.4600  0.5459
 2029SOL    HW117549   2.734   3.111   3.901 -0.0406 -0.4801  0.5946
 2029SOL    HW217550   2.618   3.204   3.888  0.5066  0.4205  2.2722
 2030SOL     OW17551   1.214   2.170  11.406  0.5915 -0.0902  0.3022
 2030SOL    HW117552   1.151   2.108  11.442 -1.1685  1.4430 -0.1062
 2030SOL    HW217553   1.286   2.108  11.400  0.7983  0.1041  0.7348
 2031SOL     OW17554   1.040   1.706   2.832 -0.3182  0.2419 -0.0717
 2031SOL    HW117555   1.128   1.742   2.821  0.4884 -1.5592  0.5444
 2031SOL    HW217556   0.994   1.757   2.765 -1.2654 -1.0780 -0.4263
 2032SOL     OW17557   1.332   3.343  14.496 -0.1601 -0.5943  0.3115
 2032SOL    HW117558   1.323   3.381  14.409  1.6319  0.2970  0.5164
 2032SOL    HW217559   1.422   3.311  14.501 -0.9965 -3.2433 -1.2609
 2033SOL     OW17560   3.380   2.528   8.533 -0.1083 -0.2737 -0.6184
 2033SOL    HW117561   3.291   2.499   8.514  0.0432 -0.7782 -0.5483
 2033SOL    HW217562   3.395   2.488   8.619  0.6837 -0.0444 -0.6444
 2034SOL     OW17563   3.398   4.694   7.659 -0.2990 -0.0166  0.1610
 2034SOL    HW117564   3.471   4.670   7.601 -0.7930 -0.2469 -0.3684
 2034SOL    HW217565   3.429   0.063   7.674 -0.2492 -0.4578  2.6522
 2035SOL     OW17566   0.506   1.700   3.811  0.4846  0.0437  0.0688
 2035SOL    HW117567   0.414   1.701   3.784  0.9522 -1.3611 -1.5957
 2035SOL    HW217568   0.527   1.789   3.783 -0.5965 -0.1829 -1.4656
 2036SOL     OW17569   0.040   2.044   0.789 -0.1443  0.6254  0.3936
 2036SOL    HW117570   0.051   2.138   0.798  0.3373  0.4930  1.1930
 2036SOL    HW217571   0.118   2.012   0.836 -0.4804  0.5192  0.8745
 2037SOL     OW17572   0.478   0.937   1.252 -0.2855  0.6473 -0.2317
 2037SOL    HW117573   0.545   0.927   1.320  0.2362 -0.1528 -0.8516
 2037SOL    HW217574   0.466   0.857   1.200 -3.2432  1.5876 -0.9664
 2038SOL     OW17575   1.317   0.194   8.159  0.4371  0.1515  0.1558
 2038SOL    HW117576   1.400   0.230   8.128  0.9280 -0.2807  0.9816
 2038SOL    HW217577   1.267   0.213   8.079 -0.2931  0.4675  0.6778
 2039SOL     OW17578   2.351   3.354  11.948  0.8422 -0.3847  0.4160
 2039SOL    HW117579   2.294   3.306  11.888  1.2098 -2.7851  1.9837
 2039SOL    HW217580   2.292   3.427  11.965 -0.1175 -1.3481  1.2304
 2040SOL     OW17581   2.268   1.771  12.412 -0.1402 -0.4628 -0.2603
 2040SOL    HW117582   2.237   1.685  12.442 -1.6935  0.5303  0.9518
 2040SOL    HW217583   2.308   1.744  12.329 -0.1922 -3.8628  0.7820
 2041SOL     OW17584   1.377   3.625  15.449  0.6172  0.1333 -0.9494
 2041SOL    HW117585   1.467   3.617  15.481  0.1177 -0.0986  0.4210
 2041SOL    HW217586   1.337   3.593  15.530 -0.8020  0.3910 -1.5627
 2042SOL     OW17587   4.216   3.787   4.979 -0.2288  0.1326  0.2380
 2042SOL    HW117588   4.308   3.765   4.994 -0.1804  1.3136  1.6460
 2042SOL    HW217589   4.209   3.882   4.972 -3.1004 -0.1488 -0.7267
 2043SOL     OW17590   4.154   4.393   3.995 -0.2470  0.2166  0.1038
 2043SOL    HW117591   4.132   4.468   3.941 -1.9619 -0.2068  0.2104
 2043SOL    HW217592   4.216   4.443   4.048 -0.5550  0.7778 -0.0705
 2044SOL     OW17593   2.786   3.613   8.668  0.3708  0.6633  0.1820
 2044SOL    HW117594   2.826   3.644   8.587  3.1043 -3.8480 -0.2195
 2044SOL    HW217595   2.714   3.571   8.621 -1.6291  1.9337  2.1035
 2045SOL     OW17596   2.740   2.880   7.396 -0.4552  0.4240 -0.0997
 2045SOL    HW117597   2.710   2.810   7.453 -0.7174 -0.1675 -0.9703
 2045SOL    HW217598   2.673   2.868   7.328  0.0605 -2.6228 -0.0643
 2046SOL     OW17599   3.578   1.734   3.654  0.0473  0.0372  0.1758
 2046SOL    HW117600   3.630   1.695   3.724  0.5488  1.0178  0.3388
 2046SOL    HW217601   3.527   1.660   3.620 -1.4052  0.2812  1.7944
 2047SOL     OW17602   2.652   2.250   6.891  0.4064 -0.2327  0.0219
 2047SOL    HW117603   2.716   2.207   6.949 -0.9005  1.4165  2.6642
 2047SOL    HW217604   2.618   2.177   6.840 -3.1223  0.5531  1.2945
 2048SOL     OW17605   2.784   2.451   6.183  1.1395  0.1937 -0.4123
 2048SOL    HW117606   2.706   2.454   6.127  0.9802 -0.7062 -0.2324
 2048SOL    HW217607   2.763   2.511   6.255 -0.4156  1.8572 -2.2472
 2049SOL     OW17608   4.065   0.402  11.755  0.6123 -0.1258  0.4072
 2049SOL    HW117609   4.003   0.406  11.682  1.9483 -3.6444 -0.9493
 2049SOL    HW217610   4.011   0.430  11.829 -0.0646 -0.3028 -0.0116
 2050SOL     OW17611   4.468   3.064   7.748  0.7428  0.0256  1.0794
 2050SOL    HW117612   4.417   2.983   7.755 -0.2605  0.5170 -0.6821
 2050SOL    HW217613   4.515   3.061   7.665  1.5977  2.1891  1.4759
 2051SOL     OW17614   4.099   4.087   4.038 -0.1145 -0.6147  0.0442
 2051SOL    HW117615   4.194   4.087   4.050 -0.0590 -1.0582 -0.4034
 2051SOL    HW217616   4.097   4.121   3.948  2.2373 -2.8317 -0.8381
 2052SOL     OW17617   4.655   1.376   6.367 -0.2113  0.5754 -0.3670
 2052SOL    HW117618   4.710   1.317   6.419 -2.0202 -1.4215 -0.7228
 2052SOL    HW217619   4.630   1.309   6.304 -1.9264  0.3781  0.5232
 2053SOL     OW17620   2.748   2.593  13.446  0.0718 -0.4954 -0.5135
 2053SOL    HW117621   2.707   2.640  13.373 -3.1098  1.6441  2.6451
 2053SOL    HW217622   2.771   2.512  13.400  1.9480  0.8298 -1.8611
 2054SOL     OW17623   3.025   1.266   4.476 -0.2965 -0.1166 -0.1688
 2054SOL    HW117624   3.025   1.334   4.408 -0.2787  1.1238  1.0822
 2054SOL    HW217625   2.947   1.214   4.459 -0.8174  0.9319 -0.9879
 2055SOL     OW17626   2.703   0.132  13.577 -0.4168 -0.0327 -0.0910
 2055SOL    HW117627   2.613   0.150  13.549  0.2430  0.8100 -1.6691
 2055SOL    HW217628   2.740   0.139  13.489  3.8483 -2.8305  1.4747
 2056SOL     OW17629   1.320   1.383   5.037  0.0804  0.4194 -1.0968
 2056SOL    HW117630   1.233   1.342   5.041  0.8587 -0.9570  1.9392
 2056SOL    HW217631   1.317   1.410   4.946 -0.5165  0.5159 -1.0473
 2057SOL     OW17632   3.029   3.937   8.790  0.3281  0.4141  0.3350
 2057SOL    HW117633   3.090   3.934   8.864  1.4344  2.6095 -0.4839
 2057SOL    HW217634   3.068   3.874   8.730  0.8812  1.6221 -0.5662
 2058SOL     OW17635   2.385   3.511   1.133 -0.4922 -0.1088 -0.2255
 2058SOL    HW117636   2.399   3.444   1.066 -1.0806 -1.8330  1.3862
 2058SOL    HW217637   2.293   3.508   1.159 -0.2629 -0.9357  0.4977
 2059SOL     OW17638   1.386   1.219  12.704 -0.0998  0.3868 -0.5698
 2059SOL    HW117639   1.376   1.286  12.772  1.2511 -0.4567  0.4774
 2059SOL    HW217640   1.359   1.140  12.752 -1.0116  1.5311  0.7863
 2060SOL     OW17641   4.158   0.114   8.899  0.2753  0.6351  0.1734
 2060SOL    HW117642   4.127   0.153   8.980 -2.9094  1.2693 -1.3264
 2060SOL    HW217643   4.126   0.181   8.838  0.3851  2.9136  2.6096
 2061SOL     OW17644   1.873   4.116   5.575 -0.0137  0.2096  0.1147
 2061SOL    HW117645   1.956   4.158   5.596  0.2589 -0.4025  0.2880
 2061SOL    HW217646   1.877   4.123   5.480 -0.4866 -0.3892  0.0450
 2062SOL     OW17647   3.305   1.376   6.194 -0.1890 -0.5888  0.3859
 2062SOL    HW117648   3.266   1.302   6.241 -1.8098 -1.4126 -2.2450
 2062SOL    HW217649   3.388   1.376   6.241  0.0907  0.3558 -0.1183
 2063SOL     OW17650   2.784   3.216   5.505 -0.1285  0.0800 -0.6256
 2063SOL    HW117651   2.864   3.244   5.459  0.5890  0.3423  0.7924
 2063SOL    HW217652   2.770   3.288   5.566 -1.2684  0.2963 -1.1488
 2064SOL     OW17653   2.784   3.602   3.313 -0.3379 -0.4690 -0.2665
 2064SOL    HW117654   2.775   3.575   3.222 -1.6321  2.5557 -1.0427
 2064SOL    HW217655   2.769   3.520   3.359  0.5596  1.2800  3.1838
 2065SOL     OW17656   3.624   3.062   9.980  0.3565  0.6753 -0.0508
 2065SOL    HW117657   3.639   3.015  10.062 -0.2236 -1.4600 -1.1623
 2065SOL    HW217658   3.691   3.034   9.917  0.2383  0.6087 -0.1486
 2066SOL     OW17659   3.099   4.608   5.954  0.1176  0.0610  0.1988
 2066SOL    HW117660   3.181   4.589   6.000 -0.7959 -0.9842  1.3922
 2066SOL    HW217661   3.116   4.696   5.918 -0.7760  0.5140  0.9057
 2067SOL     OW17662   1.172   3.474  15.273  0.5479 -0.1332  0.3639
 2067SOL    HW117663   1.131   3.457  15.358 -0.6524 -0.3390 -0.2559
 2067SOL    HW217664   1.262   3.500  15.290  0.1547  2.0222 -0.9616
 2068SOL     OW17665   2.473   0.105   9.040 -0.1460 -0.7673  0.5409
 2068SOL    HW117666   2.425   0.108   9.123  0.2774  2.0882  0.6865
 2068SOL    HW217667   2.422   0.032   9.007 -0.8903 -0.4149  0.8962
 2069SOL     OW17668   1.060   1.376   8.174  0.0646 -0.4413 -0.0241
 2069SOL    HW117669   1.032   1.394   8.264 -1.0257 -1.9077 -0.0676
 2069SOL    HW217670   1.030   1.451   8.123 -1.0237  0.8975  2.6363
 2070SOL     OW17671   2.568   2.772   3.914 -0.1441  0.1067 -0.2044
 2070SOL    HW117672   2.629   2.820   3.857 -0.1593 -0.4843 -0.7165
 2070SOL    HW217673   2.495   2.834   3.913  0.3756  0.7770  2.1384
 2071SOL     OW17674   2.222   4.017   3.074  0.0077 -0.3115 -0.3843
 2071SOL    HW117675   2.150   3.954   3.082 -0.3792  0.3467  1.5136
 2071SOL    HW217676   2.283   3.978   3.136  1.1522 -0.8207 -1.8461
 2072SOL     OW17677   1.970   3.924   5.227 -0.5463  0.5171  0.0066
 2072SOL    HW117678   1.962   4.016   5.251 -1.9936  0.2777  0.4707
 2072SOL    HW217679   1.931   3.919   5.140 -0.5914 -2.7289  0.2018
 2073SOL     OW17680   1.079   1.512   6.702  0.4367  0.0210 -0.5717
 2073SOL    HW117681   1.143   1.454   6.661  1.3355  0.9787 -0.5243
 2073SOL    HW217682   1.126   1.523   6.784  1.3799 -0.7455 -1.0153
 2074SOL     OW17683   0.847   0.348  17.065  0.3762 -0.9213 -0.3589
 2074SOL    HW117684   0.860   0.302  17.147  0.1753 -1.1688 -0.4661
 2074SOL    HW217685   0.923   0.406  17.060 -1.2553  1.2469 -0.1886
 2075SOL     OW17686   4.567   2.856   5.384 -0.1161  0.1479 -0.2892
 2075SOL    HW117687   4.517   2.887   5.459  0.5029 -0.8720  0.5292
 2075SOL    HW217688   4.499   2.862   5.317 -1.1135 -0.9545  0.6308
 2076SOL     OW17689   3.496   2.402  13.723  0.1029  0.0473 -0.0492
 2076SOL    HW117690   3.422   2.461  13.715 -1.2951 -1.8664 -1.1754
 2076SOL    HW217691   3.555   2.457  13.774 -1.7541  1.6759  0.3275
 2077SOL     OW17692   3.232   0.607   3.697 -0.3035  0.1018  0.3203
 2077SOL    HW117693   3.315   0.630   3.739  0.8753  0.4382 -2.1873
 2077SOL    HW217694   3.229   0.519   3.735 -2.5134 -0.0678 -0.2601
 2078SOL     OW17695   1.155   4.479   3.068  0.2109  0.0932  0.2414
 2078SOL    HW117696   1.209   4.519   3.136  0.1948  0.5896 -0.0339
 2078SOL    HW217697   1.070   4.498   3.108 -1.2666 -2.0346 -1.9119
 2079SOL     OW17698   3.433   3.360   7.389 -0.1363  0.0864  0.3367
 2079SOL    HW117699   3.401   3.287   7.336  1.3564 -0.0962 -0.3208
 2079SOL    HW217700   3.491   3.392   7.319 -0.9664  2.0768  0.5669
 2080SOL     OW17701   1.160   3.372   7.487 -0.0560  0.9265 -0.0720
 2080SOL    HW117702   1.104   3.438   7.528 -3.8387 -1.3558 -1.5367
 2080SOL    HW217703   1.160   3.296   7.546  1.5198  0.5155 -0.6288
 2081SOL     OW17704   0.874   3.185  16.280 -0.4477 -0.2575 -0.0501
 2081SOL    HW117705   0.883   3.100  16.238  0.2384 -0.3338  0.2515
 2081SOL    HW217706   0.831   3.157  16.362 -1.3489 -0.5952 -0.6337
 2082SOL     OW17707   2.044   3.594   0.787  0.0210  0.3254  0.2881
 2082SOL    HW117708   2.134   3.613   0.761 -0.6981 -1.1451 -3.3305
 2082SOL    HW217709   2.026   3.646   0.865  2.4039 -0.8363  1.5989
 2083SOL     OW17710   2.682   0.037   7.111 -0.5335  0.4986 -0.1041
 2083SOL    HW117711   2.611   4.716   7.159 -0.9453  0.9375 -0.3338
 2083SOL    HW217712   2.726   4.681   7.073 -0.2408  0.7044 -0.1827
 2084SOL     OW17713   4.678   2.816   3.376 -0.4615  0.5274 -0.2341
 2084SOL    HW117714   0.018   2.867   3.430  1.2805 -0.0867 -1.5986
 2084SOL    HW217715   4.596   2.828   3.424 -0.2049 -1.1577  0.6217
 2085SOL     OW17716   3.579   2.296   4.882 -0.2700 -0.5458  0.1828
 2085SOL    HW117717   3.551   2.209   4.909  0.4736  0.0702  2.9473
 2085SOL    HW217718   3.608   2.325   4.969  0.0531 -1.7583  0.4790
 2086SOL     OW17719   4.316   1.019   7.536  0.1015  0.2874  0.5325
 2086SOL    HW117720   4.405   0.991   7.558  0.7850  0.9427 -1.3951
 2086SOL    HW217721   4.314   1.112   7.557 -0.9790  0.3419  0.1730
 2087SOL     OW17722   0.792   3.177  13.482 -0.4527 -0.0731  0.1460
 2087SOL    HW117723   0.821   3.220  13.563  1.0522 -0.7834 -0.0139
 2087SOL    HW217724   0.745   3.101  13.515 -0.9440  0.4602  0.6868
 2088SOL     OW17725   0.545   0.187   1.566  0.4515 -0.3350 -0.2073
 2088SOL    HW117726   0.581   0.265   1.607  4.1270 -1.1301 -1.9604
 2088SOL    HW217727   0.493   0.232   1.500  0.0823 -0.1704  0.1980
 2089SOL     OW17728   4.447   2.492   9.825 -0.0478  0.1991  0.0168
 2089SOL    HW117729   4.395   2.418   9.857 -0.4982  0.5645  0.1356
 2089SOL    HW217730   4.491   2.452   9.750  1.6189  0.0780  1.0445
 2090SOL     OW17731   2.490   2.254   7.442 -0.2231 -0.4797 -0.2396
 2090SOL    HW117732   2.408   2.255   7.393 -0.0269 -0.7509 -0.5742
 2090SOL    HW217733   2.550   2.211   7.382  0.6186 -1.0021  0.9809
 2091SOL     OW17734   3.299   3.395   4.412  0.5655 -0.2054 -0.0343
 2091SOL    HW117735   3.222   3.448   4.430 -0.2801 -1.1204 -0.9342
 2091SOL    HW217736   3.346   3.438   4.341  0.3253 -1.0223 -0.6889
 2092SOL     OW17737   3.040   3.756  13.896 -0.2417 -0.2841  0.2871
 2092SOL    HW117738   2.970   3.769  13.960 -3.1972 -0.4465 -2.9206
 2092SOL    HW217739   3.027   3.823  13.829  2.0677  0.2759  0.4110
 2093SOL     OW17740   1.523   3.820  15.872  0.6618  0.8205 -0.1253
 2093SOL    HW117741   1.547   3.888  15.935  0.2014  0.6485  0.2332
 2093SOL    HW217742   1.439   3.848  15.837 -0.0250 -1.1684 -0.0886
 2094SOL     OW17743   0.820   0.382   7.070  0.4285 -0.3992  0.3681
 2094SOL    HW117744   0.764   0.365   7.145 -0.5409  1.4462  0.0767
 2094SOL    HW217745   0.773   0.341   6.998  0.8129 -0.3489  0.0864
 2095SOL     OW17746   1.272   3.486   3.085 -0.0319  0.2081  0.0507
 2095SOL    HW117747   1.203   3.516   3.143  0.6560 -1.7035  1.8846
 2095SOL    HW217748   1.293   3.572   3.048 -1.2806  1.1314  1.5290
 2096SOL     OW17749   0.341   1.286  15.604 -0.2026 -0.9944  0.8179
 2096SOL    HW117750   0.390   1.224  15.550  2.7484  0.0932  2.2272
 2096SOL    HW217751   0.281   1.336  15.549 -0.3695 -1.1112  0.8945
 2097SOL     OW17752   3.447   2.369   4.049 -0.3391 -0.1386  0.1033
 2097SOL    HW117753   3.360   2.347   4.083 -0.6165 -1.3289 -1.3484
 2097SOL    HW217754   3.414   2.394   3.963 -0.2979 -0.3395  0.0284
 2098SOL     OW17755   4.257   1.808   5.288 -0.1361 -0.6263 -0.1192
 2098SOL    HW117756   4.341   1.830   5.250  0.4225 -0.5923  1.1439
 2098SOL    HW217757   4.201   1.872   5.245  0.0010  1.2924  2.6160
 2099SOL     OW17758   3.120   3.808   4.608 -0.4125  0.0907  0.3532
 2099SOL    HW117759   3.216   3.815   4.601 -0.2707  0.3356  2.4596
 2099SOL    HW217760   3.116   3.716   4.582 -0.3527  0.1911 -0.0169
 2100SOL     OW17761   3.301   4.619   9.704  0.1724  0.1980 -0.4578
 2100SOL    HW117762   3.261   4.547   9.752  1.4578 -0.4229 -0.3206
 2100SOL    HW217763   3.240   4.641   9.634 -0.4574  1.9157  0.6009
 2101SOL     OW17764   1.917   0.086  13.306 -0.0372  0.1857  0.7477
 2101SOL    HW117765   1.936   0.051  13.394 -0.5230 -3.6097 -0.6748
 2101SOL    HW217766   1.972   0.033  13.249  2.0054  0.1489  2.7433
 2102SOL     OW17767   0.184   1.077   7.936  0.4259 -0.1055  0.5320
 2102SOL    HW117768   0.261   1.021   7.925  0.5661  0.4136 -1.1290
 2102SOL    HW217769   0.219   1.127   8.010  0.9666 -0.4491  0.5111
 2103SOL     OW17770   2.156   0.500  10.645 -0.6405  0.1474 -0.9173
 2103SOL    HW117771   2.104   0.576  10.617 -1.2804 -0.3604 -1.1160
 2103SOL    HW217772   2.228   0.517  10.585 -0.4457 -1.9405 -1.2871
 2104SOL     OW17773   3.978   2.925   4.436  0.4621 -0.5943  0.4357
 2104SOL    HW117774   3.891   2.943   4.470  0.9848 -0.3622  1.6695
 2104SOL    HW217775   4.015   2.873   4.507 -0.6955 -2.3606 -0.2764
 2105SOL     OW17776   4.686   0.729   5.176 -0.2522  0.0473  0.9430
 2105SOL    HW117777   4.692   0.766   5.088  1.0263  1.9976  1.8572
 2105SOL    HW217778   4.638   0.802   5.215 -0.0537 -0.8771  2.9421
 2106SOL     OW17779   2.871   1.859   6.686 -0.0180  0.3290 -0.6523
 2106SOL    HW117780   2.856   1.949   6.655  0.4219  0.4184 -0.5971
 2106SOL    HW217781   2.945   1.832   6.633  1.0244 -0.5653  1.2718
 2107SOL     OW17782   4.636   0.521   8.839 -0.4496 -0.2784 -0.3438
 2107SOL    HW117783   4.617   0.595   8.782 -1.4071 -2.7279 -3.1968
 2107SOL    HW217784   4.559   0.533   8.894 -0.0075 -0.1913  0.2567
 2108SOL     OW17785   3.366   2.079   6.181  0.6403  0.1138  0.6913
 2108SOL    HW117786   3.331   2.165   6.158  1.5522  0.1076 -0.7531
 2108SOL    HW217787   3.294   2.017   6.189  0.8743 -0.0852  1.2859
 2109SOL     OW17788   3.943   3.848  11.538  0.2055  0.1493 -0.3511
 2109SOL    HW117789   3.975   3.852  11.448  0.0622  0.0233 -0.4083
 2109SOL    HW217790   3.994   3.776  11.574  0.2052  0.3958  0.1450
 2110SOL     OW17791   1.902   0.537   8.084  0.0465  0.6919 -0.2679
 2110SOL    HW117792   1.871   0.551   8.174 -0.4141 -0.3731 -0.2596
 2110SOL    HW217793   1.855   0.599   8.030 -0.6224  0.0854 -0.3857
 2111SOL     OW17794   0.052   3.498   3.406  0.2105 -0.0662 -0.1187
 2111SOL    HW117795   4.700   3.438   3.387  0.9244 -0.9713  0.0108
 2111SOL    HW217796   0.066   3.471   3.497 -1.0845  2.8553  0.9577
 2112SOL     OW17797   0.167   0.416   5.588 -0.4702  0.1826  0.1474
 2112SOL    HW117798   0.164   0.500   5.541 -1.5957 -0.1576 -0.3693
 2112SOL    HW217799   0.261   0.399   5.582 -0.6455 -0.1896 -1.4635
 2113SOL     OW17800   3.640   3.678   8.553  0.4457 -0.1825  0.1714
 2113SOL    HW117801   3.639   3.591   8.595 -2.7628  0.9199  2.3418
 2113SOL    HW217802   3.658   3.725   8.635 -1.2032  2.2554 -0.8906
 2114SOL     OW17803   2.276   0.826  10.802  0.2354 -0.3475 -0.0414
 2114SOL    HW117804   2.238   0.906  10.839  0.6231 -0.5637  0.8118
 2114SOL    HW217805   2.204   0.776  10.763 -0.0239 -1.5501  1.9569
 2115SOL     OW17806   1.088   0.713  17.170  0.8260  0.2923  0.0102
 2115SOL    HW117807   1.086   0.653  17.096 -1.1035  1.2106 -0.6942
 2115SOL    HW217808   1.049   0.655  17.235 -1.1172  0.2235 -1.2111
 2116SOL     OW17809   3.364   0.158  15.698  0.0433  0.1567 -0.5402
 2116SOL    HW117810   3.286   0.103  15.687 -0.0004  0.2656 -0.7932
 2116SOL    HW217811   3.396   0.148  15.787 -1.1524 -2.9474 -0.4535
 2117SOL     OW17812   0.976   3.719   4.083 -0.6355  0.0412 -0.3877
 2117SOL    HW117813   1.061   3.762   4.086  1.5067 -4.2013  0.5737
 2117SOL    HW217814   0.972   3.672   4.000  1.1894  1.2936 -1.1596
 2118SOL     OW17815   4.261   3.812   3.157  0.4047  0.2564 -0.2192
 2118SOL    HW117816   4.295   3.901   3.166  0.8461  0.0024  0.6459
 2118SOL    HW217817   4.301   3.780   3.076 -1.0862  1.3160 -1.3713
 2119SOL     OW17818   1.356   1.093   6.645 -0.1521 -0.2412  0.1675
 2119SOL    HW117819   1.380   1.002   6.628  4.4100  0.6705  1.7423
 2119SOL    HW217820   1.435   1.146   6.657 -0.8219  0.8578 -0.2284
 2120SOL     OW17821   0.901   0.208   4.526 -0.2299  0.2020  0.2470
 2120SOL    HW117822   0.840   0.253   4.466  1.6845 -2.1248 -3.4303
 2120SOL    HW217823   0.866   0.120   4.535 -1.3543  0.8780  2.5270
 2121SOL     OW17824   2.530   3.351   6.248  0.1221  0.0100 -0.1515
 2121SOL    HW117825   2.502   3.375   6.336 -1.7635 -1.6345 -0.2865
 2121SOL    HW217826   2.569   3.431   6.212 -1.9345  0.2764 -1.8056
 2122SOL     OW17827   2.029   1.266   2.654  0.3892 -0.0661  0.8530
 2122SOL    HW117828   2.052   1.220   2.573  1.4971 -0.0499  1.1583
 2122SOL    HW217829   1.958   1.316   2.615  0.7037 -0.7582 -0.6062
 2123SOL     OW17830   2.420   4.050   2.643 -0.6584  0.4788  0.6609
 2123SOL    HW117831   2.423   4.076   2.735 -0.9835 -0.2744  0.8790
 2123SOL    HW217832   2.363   4.124   2.623 -1.1781 -0.3936 -1.0832
 2124SOL     OW17833   0.076   0.451   6.133 -0.5834  0.0533  0.2349
 2124SOL    HW117834   0.152   0.393   6.141  1.2433  2.7042  2.2260
 2124SOL    HW217835   0.011   0.385   6.155  0.0953  0.0096  2.1496
 2125SOL     OW17836   2.000   2.065  16.136 -0.3838 -0.2819 -0.1189
 2125SOL    HW117837   1.987   1.984  16.184 -2.0252  0.6847  1.0769
 2125SOL    HW217838   2.036   2.120  16.206 -0.6272  0.6948 -0.7600
 2126SOL     OW17839   0.917   1.463   4.584  0.0076 -0.0000 -0.3967
 2126SOL    HW117840   0.891   1.441   4.495 -0.0002 -0.2797 -0.3265
 2126SOL    HW217841   0.921   1.377   4.627 -3.4739  1.5126  2.9905
 2127SOL     OW17842   4.345   4.041   2.863 -0.0947 -0.4516  1.0703
 2127SOL    HW117843   4.336   3.958   2.910  0.9135 -2.2372 -1.8711
 2127SOL    HW217844   4.333   4.111   2.927  2.9641  1.4037 -0.3911
 2128SOL     OW17845   0.859   4.094   3.414  0.3043 -0.1686 -0.0140
 2128SOL    HW117846   0.798   4.167   3.404  0.6141 -0.1119 -1.4411
 2128SOL    HW217847   0.935   4.150   3.401  1.3524 -1.5202  0.3705
 2129SOL     OW17848   4.621   2.307  10.668  0.8033 -0.1052  0.3105
 2129SOL    HW117849   4.605   2.213  10.666 -4.2135  0.7943 -0.3744
 2129SOL    HW217850   4.715   2.322  10.684  0.9151  0.4739 -0.8855
 2130SOL     OW17851   1.443   2.857  10.903 -0.0706  0.1849  0.5377
 2130SOL    HW117852   1.375   2.808  10.948  0.8976 -0.5662  1.1720
 2130SOL    HW217853   1.493   2.796  10.850  0.1796  0.0278  0.9567
 2131SOL     OW17854   0.987   4.557  12.541  0.3643  0.5661  0.9215
 2131SOL    HW117855   1.049   4.553  12.613 -1.5859  0.9387  2.6389
 2131SOL    HW217856   0.903   4.572  12.586 -0.2624  0.6527 -0.2734
 2132SOL     OW17857   0.685   4.474   2.230  0.5287  0.0774 -0.4677
 2132SOL    HW117858   0.692   4.382   2.205  1.9630  0.3892 -1.1974
 2132SOL    HW217859   0.683   4.462   2.325  1.7524 -0.4525 -0.5047
 2133SOL     OW17860   1.107   2.850   1.138  0.0530 -0.9505 -0.0634
 2133SOL    HW117861   1.124   2.768   1.184  3.6499  0.5270  1.2453
 2133SOL    HW217862   1.084   2.909   1.209 -1.7480 -0.0906 -1.3601
 2134SOL     OW17863   2.079   2.224  16.330  0.0478  0.0781 -0.5790
 2134SOL    HW117864   2.140   2.198  16.398  0.7087 -0.5691 -1.4124
 2134SOL    HW217865   2.088   2.318  16.338  0.5257 -0.0361  0.1189
 2135SOL     OW17866   4.359   2.948  16.678  0.9888  0.0841 -0.4482
 2135SOL    HW117867   4.363   2.854  16.659  1.9639  0.2011 -0.8453
 2135SOL    HW217868   4.357   2.964  16.772 -1.6638 -0.7142 -0.3750
 2136SOL     OW17869   2.584   0.815   6.356 -0.0502  0.2432  0.1876
 2136SOL    HW117870   2.561   0.802   6.264 -2.4643  0.2380  0.8107
 2136SOL    HW217871   2.657   0.876   6.346  0.0391  0.3385  1.4180
 2137SOL     OW17872   1.771   0.250   3.590  0.9044  0.3350 -0.0355
 2137SOL    HW117873   1.794   0.201   3.511 -0.5270  0.7196 -0.6872
 2137SOL    HW217874   1.708   0.313   3.554  1.0381  0.2676 -0.3886
 2138SOL     OW17875   4.031   1.621   7.678 -0.1979  0.3219 -0.4329
 2138SOL    HW117876   4.041   1.689   7.745  0.8837  1.1348 -1.4234
 2138SOL    HW217877   4.113   1.577   7.701 -1.4185 -0.0015  3.4607
 2139SOL     OW17878   4.133   0.662   2.741 -0.0380 -0.2633  0.0800
 2139SOL    HW117879   4.102   0.679   2.652 -0.0773  0.8723  0.3188
 2139SOL    HW217880   4.060   0.654   2.802 -0.7705  0.0059 -0.7810
 2140SOL     OW17881   2.316   2.507   8.193 -0.0729  0.1887  0.0873
 2140SOL    HW117882   2.281   2.568   8.128  2.9168  1.2158 -0.5680
 2140SOL    HW217883   2.308   2.562   8.272 -0.6077 -0.8075  0.7265
 2141SOL     OW17884   1.777   1.158   9.701 -0.3692  0.1306 -0.0325
 2141SOL    HW117885   1.773   1.246   9.662  1.2246 -0.3437 -1.2413
 2141SOL    HW217886   1.684   1.138   9.694 -0.4583  0.1459  1.1233
 2142SOL     OW17887   4.710   3.624  14.904  0.5685 -0.1110 -0.0690
 2142SOL    HW117888   4.629   3.671  14.887 -0.1883 -1.5037 -0.3364
 2142SOL    HW217889   4.679   3.536  14.884  0.2294  0.4485 -1.9964
 2143SOL     OW17890   4.600   2.170   2.044  0.1803 -0.0291  0.5955
 2143SOL    HW117891   4.556   2.255   2.039 -0.8666 -0.7109 -2.0053
 2143SOL    HW217892   4.592   2.134   1.956  1.3229  0.3077  0.3502
 2144SOL     OW17893   1.549   3.276   3.598  0.0218 -0.3390  0.2955
 2144SOL    HW117894   1.516   3.270   3.687  0.6571 -2.1837  0.4068
 2144SOL    HW217895   1.531   3.186   3.567  2.8736 -0.1225 -2.0211
 2145SOL     OW17896   1.047   2.490  16.747 -0.0528 -0.8415 -0.6077
 2145SOL    HW117897   1.105   2.426  16.788 -1.1524  0.2956  2.7480
 2145SOL    HW217898   1.109   2.549  16.706 -0.4696  0.9053  1.2886
 2146SOL     OW17899   1.198   0.949   7.841 -0.1274 -0.0629 -0.2215
 2146SOL    HW117900   1.212   0.865   7.799 -0.9699 -0.0880 -0.4524
 2146SOL    HW217901   1.143   0.925   7.915 -0.0124 -1.9740 -0.7556
 2147SOL     OW17902   3.157   0.440   7.530  0.0758 -0.3712 -0.2312
 2147SOL    HW117903   3.126   0.378   7.464 -1.1409 -1.0856  1.0089
 2147SOL    HW217904   3.246   0.407   7.537  0.5680  0.6438 -1.6953
 2148SOL     OW17905   2.305   4.032  17.050  0.3608 -0.4645 -0.4987
 2148SOL    HW117906   2.258   3.988  17.120  3.0996 -1.8228  0.4948
 2148SOL    HW217907   2.268   3.985  16.975 -1.0884  0.9404 -0.6586
 2149SOL     OW17908   0.706   2.476   8.851  0.0811 -0.2755 -0.3511
 2149SOL    HW117909   0.787   2.509   8.891 -0.6646 -0.3051  1.1580
 2149SOL    HW217910   0.741   2.448   8.767 -0.9630 -1.4198 -0.3921
 2150SOL     OW17911   3.776   4.438   6.682  0.1819  0.0707 -0.0986
 2150SOL    HW117912   3.753   4.501   6.614  0.8845  1.6638  1.1345
 2150SOL    HW217913   3.697   4.447   6.735 -0.4028  1.2216 -1.1524
 2151SOL     OW17914   0.024   0.579   7.009 -0.4054 -0.3988  0.3134
 2151SOL    HW117915   0.085   0.514   7.045  1.3193  1.4012  0.6876
 2151SOL    HW217916   0.037   0.657   7.063  0.0529 -0.5233  0.3861
 2152SOL     OW17917   1.144   1.133   3.109  0.0273 -0.1352  0.1766
 2152SOL    HW117918   1.197   1.094   3.179 -0.8432 -1.4961  0.0886
 2152SOL    HW217919   1.085   1.058   3.104 -0.8071  0.6007 -0.9595
 2153SOL     OW17920   0.367   1.540   7.156 -0.7086 -0.2793 -0.6050
 2153SOL    HW117921   0.275   1.512   7.153 -0.5239 -0.9472 -0.0920
 2153SOL    HW217922   0.410   1.482   7.093  0.5823  0.1018 -0.0660
 2154SOL     OW17923   2.826   0.310   1.157  0.2056 -0.1051 -0.4222
 2154SOL    HW117924   2.827   0.257   1.236  1.6659  1.3781  0.5552
 2154SOL    HW217925   2.910   0.312   1.112 -0.7871 -1.3866 -2.3398
 2155SOL     OW17926   4.259   2.150   3.131 -0.4550  0.3151  0.0427
 2155SOL    HW117927   4.171   2.113   3.127 -0.9560  1.7906 -2.4152
 2155SOL    HW217928   4.314   2.082   3.171 -0.4926  0.5873  0.5526
 2156SOL     OW17929   0.591   2.840   9.015  0.3854 -0.1834  0.1898
 2156SOL    HW117930   0.566   2.789   8.938 -1.7523 -0.2824  0.9402
 2156SOL    HW217931   0.511   2.888   9.035  0.9826  0.8884  0.0232
 2157SOL     OW17932   1.431   3.283   2.237 -0.2805  0.4741  0.3003
 2157SOL    HW117933   1.360   3.312   2.180  1.8503  3.2669 -0.9295
 2157SOL    HW217934   1.398   3.331   2.313 -0.7676  0.8126 -0.1240
 2158SOL     OW17935   4.289   2.611   3.525  0.2587 -0.3618 -0.5625
 2158SOL    HW117936   4.258   2.642   3.610 -0.9681  0.6531 -1.3792
 2158SOL    HW217937   4.343   2.682   3.491 -0.0887 -0.1323 -0.6309
 2159SOL     OW17938   3.041   3.820  15.679  0.2542 -0.1429 -0.3040
 2159SOL    HW117939   3.073   3.775  15.601  1.8284  0.4157  0.0004
 2159SOL    HW217940   3.088   3.781  15.753  0.2144  0.1369 -0.1314
 2160SOL     OW17941   1.584   4.569   7.644 -0.7007  0.3610  0.1367
 2160SOL    HW117942   1.628   4.547   7.562  0.4683  1.7459  0.4050
 2160SOL    HW217943   1.535   4.489   7.664  0.4841 -0.0689  1.3829
 2161SOL     OW17944   4.192   0.727   8.780  0.1776 -0.3237 -0.1166
 2161SOL    HW117945   4.188   0.705   8.687  0.7696  0.5304 -0.3455
 2161SOL    HW217946   4.115   0.681   8.815  1.7530 -2.6477  0.3369
 2162SOL     OW17947   1.518   3.028   2.302 -0.0301  0.3177 -0.1029
 2162SOL    HW117948   1.486   3.113   2.272  0.8039  0.7950  0.3408
 2162SOL    HW217949   1.602   3.021   2.256 -0.1741  2.6987 -0.7229
 2163SOL     OW17950   2.250   0.733  11.832 -0.0987  0.3589 -0.2919
 2163SOL    HW117951   2.331   0.782  11.826 -0.2665  0.3878 -2.1942
 2163SOL    HW217952   2.179   0.794  11.812 -0.6359 -0.4829 -0.9548
 2164SOL     OW17953   0.308   3.926   6.092  0.2317  0.3385 -0.1636
 2164SOL    HW117954   0.383   3.948   6.036 -1.4642 -1.5393 -3.1386
 2164SOL    HW217955   0.236   3.949   6.034 -0.4804  1.3088  1.1300
 2165SOL     OW17956   2.773   1.000   0.830  0.0167 -0.4032 -0.6402
 2165SOL    HW117957   2.856   0.967   0.796 -0.1080  0.6291 -1.9225
 2165SOL    HW217958   2.720   0.999   0.751  1.5393  0.9441 -1.6628
 2166SOL     OW17959   3.932   0.597   6.075  0.4171 -0.1353  0.3221
 2166SOL    HW117960   4.024   0.602   6.048  0.7885  3.1745  2.2250
 2166SOL    HW217961   3.903   0.685   6.053  0.1648 -0.5250 -0.8806
 2167SOL     OW17962   3.250   4.247  10.766 -0.0978  0.1882  0.1957
 2167SOL    HW117963   3.255   4.287  10.852  0.6801  1.7443 -0.5786
 2167SOL    HW217964   3.340   4.229  10.740 -0.4986 -1.7630  0.1311
 2168SOL     OW17965   1.479   1.028   4.735  0.1810 -0.2226  0.4189
 2168SOL    HW117966   1.534   1.003   4.808 -0.2930 -2.4163  0.0205
 2168SOL    HW217967   1.537   1.000   4.664 -0.5915  1.5977 -0.9201
 2169SOL     OW17968   3.852   1.718  10.953 -0.4524 -0.3020 -0.1029
 2169SOL    HW117969   3.943   1.710  10.924 -1.2861 -1.8173 -2.2546
 2169SOL    HW217970   3.857   1.759  11.040  1.6548  0.4996 -0.6014
 2170SOL     OW17971   2.905   4.030  14.683  0.1542  0.0002 -0.2320
 2170SOL    HW117972   2.903   4.089  14.758  0.3121  1.9939 -1.7977
 2170SOL    HW217973   2.992   4.043  14.647 -0.3014  2.2258 -0.5369
 2171SOL     OW17974   1.804   2.030  17.183 -0.5311  0.3230  0.3005
 2171SOL    HW117975   1.835   2.073  17.103 -1.7794  0.4672 -0.1005
 2171SOL    HW217976   1.713   2.058  17.181 -0.6185  0.1638  1.6032
 2172SOL     OW17977   3.595   2.678   2.498  0.5864  0.0863 -0.3817
 2172SOL    HW117978   3.512   2.713   2.466  0.6999  0.5472 -0.1781
 2172SOL    HW217979   3.607   2.610   2.432  1.8167 -0.3652  0.2924
 2173SOL     OW17980   3.289   1.828   4.696  0.5012 -0.1824  0.0255
 2173SOL    HW117981   3.285   1.800   4.604 -0.0334  1.5711 -0.4869
 2173SOL    HW217982   3.323   1.752   4.744 -0.8425  0.4876  2.0252
 2174SOL     OW17983   3.248   3.434   2.535  0.3434 -0.0402 -0.6469
 2174SOL    HW117984   3.338   3.405   2.545  0.8058  2.1643  1.5173
 2174SOL    HW217985   3.203   3.357   2.500  0.3515 -0.2589 -0.1645
 2175SOL     OW17986   2.360   2.730  10.167 -0.4754 -0.0940  0.1698
 2175SOL    HW117987   2.291   2.671  10.198 -1.1458  0.7129  0.2389
 2175SOL    HW217988   2.327   2.811  10.207  1.6610  1.0483 -0.4173
 2176SOL     OW17989   4.514   0.247   9.089  0.0776  0.1870  0.0291
 2176SOL    HW117990   4.431   0.276   9.127  0.2321 -0.8598  1.1865
 2176SOL    HW217991   4.494   0.224   8.998 -1.3851  2.6110 -0.2511
 2177SOL     OW17992   2.496   4.153  15.400  0.3607  0.3263  0.3903
 2177SOL    HW117993   2.403   4.129  15.392  0.7423 -0.7020 -1.1091
 2177SOL    HW217994   2.545   4.071  15.408 -0.4808 -0.6433 -4.0798
 2178SOL     OW17995   3.560   1.352   6.284 -0.1606  0.1919  0.0442
 2178SOL    HW117996   3.640   1.401   6.302 -0.2350  0.7396 -1.1370
 2178SOL    HW217997   3.546   1.342   6.378  0.8599  0.6162  0.2395
 2179SOL     OW17998   0.256   0.877   5.205 -0.4490  0.8802 -0.5107
 2179SOL    HW117999   0.265   0.865   5.299  1.0150  0.4455 -0.7130
 2179SOL    HW218000   0.305   0.802   5.170 -1.0373  1.0826 -1.7694
 2180SOL     OW18001   1.233   2.755   8.466  0.2809 -0.6505  0.6242
 2180SOL    HW118002   1.234   2.830   8.408 -0.6030 -1.9365 -1.0465
 2180SOL    HW218003   1.140   2.754   8.489  0.1403  3.6154  0.1741
 2181SOL     OW18004   0.713   1.083   6.676 -0.1212  0.0576 -0.5316
 2181SOL    HW118005   0.796   1.102   6.718 -1.6409  1.5860  1.7605
 2181SOL    HW218006   0.740   1.040   6.595  0.4623 -0.8623  0.1520
 2182SOL     OW18007   3.311   3.506   9.113 -0.6080 -0.0912 -0.3345
 2182SOL    HW118008   3.217   3.497   9.103 -0.9105  0.9268  1.5955
 2182SOL    HW218009   3.342   3.421   9.080 -0.3256 -0.4436  0.8339
 2183SOL     OW18010   1.142   3.347   5.479 -0.3560 -0.2376 -0.0065
 2183SOL    HW118011   1.121   3.346   5.386  2.5451  0.1672 -0.6772
 2183SOL    HW218012   1.207   3.277   5.470  1.0045  0.8573  1.2237
 2184SOL     OW18013   1.486   3.234   7.418  0.3287 -0.5560 -0.5985
 2184SOL    HW118014   1.481   3.248   7.323  0.6714  1.5320 -0.3032
 2184SOL    HW218015   1.433   3.156   7.434  3.7150 -3.1607 -2.1452
 2185SOL     OW18016   3.800   1.101  13.643  0.4570  0.2545  0.2315
 2185SOL    HW118017   3.737   1.156  13.596 -0.2701  0.4682  1.4525
 2185SOL    HW218018   3.841   1.060  13.567  2.5418  0.6071  1.1482
 2186SOL     OW18019   2.485   1.548   4.304 -0.1007  0.6628  0.2579
 2186SOL    HW118020   2.432   1.577   4.230 -2.9677 -1.3436  1.5271
 2186SOL    HW218021   2.522   1.632   4.331  0.0292  0.7842 -0.2969
 2187SOL     OW18022   4.023   3.625   8.280 -0.3977  0.2095  0.1932
 2187SOL    HW118023   4.067   3.662   8.357  0.7796 -1.8918  0.5088
 2187SOL    HW218024   4.084   3.561   8.243  0.4796  0.5101  1.1132
 2188SOL     OW18025   1.292   2.710   9.532  0.0187  0.3524 -0.1916
 2188SOL    HW118026   1.344   2.778   9.489  0.1596 -0.9466 -2.0768
 2188SOL    HW218027   1.210   2.734   9.489 -0.9580 -0.5810  1.1721
 2189SOL     OW18028   4.450   4.326  14.087 -0.1002  0.2348 -0.4147
 2189SOL    HW118029   4.543   4.324  14.064  0.0636  0.3322  0.2513
 2189SOL    HW218030   4.458   4.267  14.162  0.7707 -0.2121 -0.8612
 2190SOL     OW18031   3.717   4.368   6.114  0.1977 -0.3800 -0.0524
 2190SOL    HW118032   3.692   4.299   6.052  0.7859 -1.6943  1.1905
 2190SOL    HW218033   3.657   4.349   6.186 -0.3978  1.2028 -0.1220
 2191SOL     OW18034   0.057   0.515   9.229 -0.4962 -0.4473  0.2685
 2191SOL    HW118035   0.121   0.527   9.299  0.0079 -0.9310 -0.1093
 2191SOL    HW218036   0.095   0.569   9.159  3.1776 -1.5120  1.4331
 2192SOL     OW18037   0.852   0.775   4.515 -0.9145 -0.1194 -0.5733
 2192SOL    HW118038   0.911   0.848   4.498 -1.1385  0.7426  2.4251
 2192SOL    HW218039   0.859   0.732   4.430 -0.4682 -1.1878 -0.0004
 2193SOL     OW18040   4.436   1.070   3.961 -0.3446 -0.1333 -0.4971
 2193SOL    HW118041   4.369   1.130   3.930  0.7109  0.9645 -0.6478
 2193SOL    HW218042   4.453   1.027   3.877 -1.0785  1.9694 -1.7257
 2194SOL     OW18043   3.796   1.245   9.344 -0.3727  0.1173  0.7763
 2194SOL    HW118044   3.758   1.308   9.407  1.0833  1.9246 -0.1639
 2194SOL    HW218045   3.780   1.162   9.389 -0.6582 -0.1395  0.1992
 2195SOL     OW18046   0.850   1.222   7.478  0.2236  0.0195 -0.5147
 2195SOL    HW118047   0.893   1.234   7.562 -1.5815  1.2847  0.2247
 2195SOL    HW218048   0.883   1.305   7.444 -0.0602  0.3535  0.0324
 2196SOL     OW18049   4.357   0.001   8.617 -0.4778 -0.1252 -0.1867
 2196SOL    HW118050   4.289   4.657   8.597 -1.3066  0.3477  1.1528
 2196SOL    HW218051   4.318   0.053   8.687  1.3383  0.6500  0.2625
 2197SOL     OW18052   1.486   4.439  16.901 -0.8182  0.2845 -0.5718
 2197SOL    HW118053   1.452   4.430  16.812 -1.1501 -3.3272 -0.1060
 2197SOL    HW218054   1.443   4.362  16.939 -1.3426  1.0349  0.3449
 2198SOL     OW18055   4.508   2.609  10.458 -0.1373  0.3297 -0.5526
 2198SOL    HW118056   4.601   2.618  10.477 -0.3842  1.1224  0.2917
 2198SOL    HW218057   4.500   2.573  10.370 -1.0724 -1.3274  0.2024
 2199SOL     OW18058   4.334   3.060   6.527 -0.5894 -0.1688 -0.2929
 2199SOL    HW118059   4.333   2.964   6.522  0.4647 -0.2306  0.6364
 2199SOL    HW218060   4.360   3.061   6.619 -1.0279 -1.7570 -0.1577
 2200SOL     OW18061   2.239   2.606   0.056  0.0682 -0.7439  0.4664
 2200SOL    HW118062   2.334   2.616   0.047 -0.0655  0.5930  0.4566
 2200SOL    HW218063   2.214   2.697   0.043 -0.4373 -0.7007  1.6889
 2201SOL     OW18064   1.851   0.243  16.603 -0.2612 -0.0728  0.4835
 2201SOL    HW118065   1.872   0.300  16.529  0.6914  0.5115  1.2097
 2201SOL    HW218066   1.894   0.288  16.675  1.9053 -2.1624  0.5119
 2202SOL     OW18067   0.670   3.511  13.721  0.1935 -0.5116  0.5635
 2202SOL    HW118068   0.634   3.432  13.761 -1.4744 -0.7137 -1.3131
 2202SOL    HW218069   0.603   3.517  13.652  2.6989  2.0592 -1.6281
 2203SOL     OW18070   1.028   3.540  11.264 -0.4124 -0.5544  0.7588
 2203SOL    HW118071   1.076   3.574  11.339 -1.2098  0.5345  0.7806
 2203SOL    HW218072   1.074   3.462  11.234 -0.4756 -0.7243  1.0974
 2204SOL     OW18073   0.963   1.010   9.803 -0.1794  0.6779  0.0149
 2204SOL    HW118074   0.950   1.096   9.843 -1.5817  0.9657 -1.0407
 2204SOL    HW218075   0.922   1.033   9.720  1.8980  1.3698 -0.8142
 2205SOL     OW18076   2.650   3.933   5.296 -0.3404  0.5676 -0.4228
 2205SOL    HW118077   2.677   3.897   5.212  0.6171 -1.7400  0.8725
 2205SOL    HW218078   2.675   4.025   5.287 -0.4533  0.4310 -2.0584
 2206SOL     OW18079   1.697   0.167   6.222  0.7842 -0.5389 -0.2200
 2206SOL    HW118080   1.607   0.144   6.242  0.4611  0.2666 -0.7334
 2206SOL    HW218081   1.680   0.261   6.216  1.7785 -0.2677  1.2852
 2207SOL     OW18082   2.920   3.232   1.402  0.9554  0.4016  0.4288
 2207SOL    HW118083   2.989   3.298   1.402  0.9119  0.4454  0.2382
 2207SOL    HW218084   2.873   3.256   1.322 -1.1784  0.0225  1.5617
 2208SOL     OW18085   3.981   4.020  14.281  0.0432 -0.3837  0.3530
 2208SOL    HW118086   4.051   4.074  14.244  0.2245 -0.4076  0.6609
 2208SOL    HW218087   3.922   4.012  14.206 -0.9361  2.2064  0.8476
 2209SOL     OW18088   3.849   1.601   8.200 -0.3855  0.4533  0.0584
 2209SOL    HW118089   3.796   1.653   8.140  0.7740  1.7416  0.1610
 2209SOL    HW218090   3.801   1.518   8.203 -3.2871  2.1529  0.7825
 2210SOL     OW18091   4.576   2.493   1.770  0.0506 -0.0071 -0.0877
 2210SOL    HW118092   4.644   2.428   1.788 -0.4726 -0.3998  0.4557
 2210SOL    HW218093   4.600   2.512   1.680  1.3691  0.6677  0.4133
 2211SOL     OW18094   0.537   3.543   3.305 -0.3436  0.7603 -0.3034
 2211SOL    HW118095   0.442   3.553   3.300 -0.4720 -0.2395  0.0897
 2211SOL    HW218096   0.558   3.620   3.359  0.3533 -1.4846  2.6172
 2212SOL     OW18097   1.735   0.210   6.782 -0.3512  0.2059  0.6530
 2212SOL    HW118098   1.650   0.255   6.776 -0.6512 -0.3033  1.0992
 2212SOL    HW218099   1.780   0.280   6.829 -0.8852  0.6072  0.5709
 2213SOL     OW18100   1.271   4.341   2.750  0.5993 -0.2075 -0.5181
 2213SOL    HW118101   1.248   4.290   2.827  0.3783 -1.3287 -1.3193
 2213SOL    HW218102   1.192   4.393   2.761  1.6466  1.2512 -0.0249
 2214SOL     OW18103   1.729   3.882  14.995 -0.4085 -0.2733  0.1641
 2214SOL    HW118104   1.644   3.891  15.038 -0.0679 -0.0282  0.7789
 2214SOL    HW218105   1.787   3.867  15.069 -1.6436 -3.2610  0.5711
 2215SOL     OW18106   2.293   3.546   7.681 -0.1605  0.9956 -0.1612
 2215SOL    HW118107   2.308   3.456   7.710 -0.5492  1.8729  2.8394
 2215SOL    HW218108   2.197   3.545   7.674 -0.0830 -0.2250 -0.9648
 2216SOL     OW18109   2.908   1.481   1.699 -0.1188  0.2657  0.4775
 2216SOL    HW118110   2.852   1.462   1.623  0.4064  1.3658 -0.1928
 2216SOL    HW218111   2.994   1.485   1.657  0.5490 -3.8183  1.4875
 2217SOL     OW18112   1.062   2.328  11.575 -0.2761  0.6348  0.5440
 2217SOL    HW118113   1.123   2.401  11.576 -0.5842  0.9584 -3.2950
 2217SOL    HW218114   1.105   2.279  11.505 -0.0085  1.7050 -0.0332
 2218SOL     OW18115   2.760   4.014   3.240 -0.5758  0.7916 -0.3822
 2218SOL    HW118116   2.769   3.948   3.171 -2.5491 -0.7994  0.8569
 2218SOL    HW218117   2.775   3.972   3.325  0.7380  2.2864  0.1088
 2219SOL     OW18118   3.795   0.988  12.204 -0.4730  0.2539  0.6768
 2219SOL    HW118119   3.780   0.936  12.282 -0.5055 -0.7098  0.0266
 2219SOL    HW218120   3.851   0.933  12.149  0.0105  2.0889 -0.6701
 2220SOL     OW18121   0.270   3.865  13.125 -0.4032 -0.3082 -0.1177
 2220SOL    HW118122   0.218   3.785  13.138  0.7010 -1.1087 -0.6316
 2220SOL    HW218123   0.237   3.908  13.046  0.4382  0.7103  0.0919
 2221SOL     OW18124   1.846   4.208   7.611 -0.1414 -0.0709  0.3449
 2221SOL    HW118125   1.788   4.197   7.536 -1.3536  1.1932  1.0622
 2221SOL    HW218126   1.794   4.169   7.682 -1.3347 -0.7946 -0.9431
 2222SOL     OW18127   0.118   1.826   2.098  0.2770  0.5225 -1.0835
 2222SOL    HW118128   0.193   1.776   2.131 -0.4210 -0.7787 -1.4828
 2222SOL    HW218129   0.164   1.902   2.062  1.7358  0.8007  1.3491
 2223SOL     OW18130   0.112   4.561   8.861  0.4757  0.2925  0.1198
 2223SOL    HW118131   0.055   4.533   8.790  2.3344  0.9197 -1.6307
 2223SOL    HW218132   0.135   4.648   8.829  1.0162 -0.4954 -1.6362
 2224SOL     OW18133   0.074   0.660   5.398 -0.5818  0.8771 -0.5023
 2224SOL    HW118134   0.041   0.699   5.317 -2.3745  0.2534 -0.0822
 2224SOL    HW218135   0.069   0.738   5.452 -0.1396  0.4463  0.1585
 2225SOL     OW18136   4.005   3.684  14.078 -0.1568  0.8209  0.2547
 2225SOL    HW118137   3.958   3.701  14.159 -0.3577 -2.6245  0.8828
 2225SOL    HW218138   3.980   3.763  14.030 -0.2530 -0.2977 -1.5318
 2226SOL     OW18139   2.987   4.367   6.558  0.0888  0.4965 -0.4989
 2226SOL    HW118140   3.010   4.284   6.515 -0.2206 -1.0202  2.3038
 2226SOL    HW218141   3.072   4.410   6.549  0.4920 -0.6011 -1.9927
 2227SOL     OW18142   2.617   3.513   4.241 -0.1894 -0.0168  0.1216
 2227SOL    HW118143   2.535   3.540   4.281 -2.0992 -0.4469 -3.5239
 2227SOL    HW218144   2.618   3.589   4.182 -0.7830 -2.1136 -2.6038
 2228SOL     OW18145   4.018   1.525   3.578  0.5877  0.2602 -0.0737
 2228SOL    HW118146   3.925   1.546   3.581  0.3600 -0.9683  0.9238
 2228SOL    HW218147   4.016   1.444   3.628  0.1067 -0.0066 -0.5265
 2229SOL     OW18148   2.185   0.757   3.922  0.1364  0.6856  0.0082
 2229SOL    HW118149   2.221   0.836   3.881  0.5733 -0.1718 -1.2761
 2229SOL    HW218150   2.253   0.737   3.986 -0.0936  0.9395  0.3303
 2230SOL     OW18151   2.426   1.599   8.873 -0.1627 -0.1936 -0.0483
 2230SOL    HW118152   2.443   1.650   8.952  1.0273  0.4502 -0.7280
 2230SOL    HW218153   2.400   1.516   8.914 -0.6974  0.2384  0.4818
 2231SOL     OW18154   1.478   0.281   4.352  0.0829 -0.0166  0.5253
 2231SOL    HW118155   1.462   0.362   4.400 -0.2851  0.0700  0.2578
 2231SOL    HW218156   1.417   0.298   4.280 -2.4267  0.6431  2.8489
 2232SOL     OW18157   3.088   0.542   8.334 -0.1663 -0.4035 -0.5399
 2232SOL    HW118158   3.017   0.483   8.361 -1.4296  1.4921  0.2652
 2232SOL    HW218159   3.098   0.517   8.243  1.0678 -1.4338 -0.1249
 2233SOL     OW18160   4.470   3.528  11.189  0.0629 -0.0865  0.0424
 2233SOL    HW118161   4.388   3.548  11.143 -0.7017 -1.9497  0.5937
 2233SOL    HW218162   4.527   3.595  11.151 -2.0977  2.0703  0.5882
 2234SOL     OW18163   3.201   2.262   1.166 -0.1009  0.0481 -0.2919
 2234SOL    HW118164   3.208   2.351   1.131  0.0574  0.6758  1.3667
 2234SOL    HW218165   3.276   2.261   1.225 -0.0178  4.0721 -0.3178
 2235SOL     OW18166   2.626   4.262   9.404  0.2702 -0.6920  0.5670
 2235SOL    HW118167   2.559   4.290   9.342  0.8301  0.2529  0.3901
 2235SOL    HW218168   2.575   4.237   9.481  0.9546 -0.8107  0.9911
 2236SOL     OW18169   2.051   1.642   7.979 -0.2887  0.2511  0.3755
 2236SOL    HW118170   2.057   1.583   7.903  0.5852  0.0461  0.6052
 2236SOL    HW218171   2.104   1.714   7.944  2.6032 -2.2219 -0.3404
 2237SOL     OW18172   3.797   0.488   6.742 -0.6345  0.6477 -0.0726
 2237SOL    HW118173   3.759   0.401   6.734 -0.2164  0.6427 -2.0002
 2237SOL    HW218174   3.869   0.474   6.681  0.2089 -0.9088  1.2812
 2238SOL     OW18175   2.375   4.302   6.985 -0.9023  0.6502  0.1549
 2238SOL    HW118176   2.342   4.220   7.022 -3.1558  3.1207  3.6901
 2238SOL    HW218177   2.301   4.331   6.933 -0.1470 -0.8677 -1.7487
 2239SOL     OW18178   0.129   1.656   7.522  0.4493 -0.7707  0.5799
 2239SOL    HW118179   0.169   1.570   7.525  0.5897 -0.6675  1.8066
 2239SOL    HW218180   0.104   1.660   7.614 -0.9204 -0.2043  0.1925
 2240SOL     OW18181   2.923   1.267   6.779  0.1883  0.3046 -0.1256
 2240SOL    HW118182   2.975   1.251   6.858 -2.1141 -2.0385  0.8893
 2240SOL    HW218183   2.972   1.220   6.712  1.3164  1.4242 -0.1002
 2241SOL     OW18184   4.349   3.080  13.388  0.1511 -0.2450  0.0312
 2241SOL    HW118185   4.317   3.064  13.477  0.6865  1.7666  0.5933
 2241SOL    HW218186   4.436   3.039  13.384  0.4480  0.2898  0.9957
 2242SOL     OW18187   2.683   0.538  10.377 -0.0415  0.3673 -0.1232
 2242SOL    HW118188   2.632   0.615  10.401  1.0333  0.7977  0.7332
 2242SOL    HW218189   2.747   0.536  10.448 -0.2617 -0.1956  0.0605
 2243SOL     OW18190   3.702   3.445  12.908  0.4364  0.7255  0.1467
 2243SOL    HW118191   3.631   3.467  12.847  0.6792 -1.3064 -0.8600
 2243SOL    HW218192   3.661   3.401  12.982  2.5562 -1.6714 -0.1178
 2244SOL     OW18193   0.249   2.997   4.350 -0.6399  0.8408 -0.6117
 2244SOL    HW118194   0.260   3.089   4.328  1.8736  1.1331  1.8023
 2244SOL    HW218195   0.339   2.969   4.333 -1.0583 -2.6445  2.6739
 2245SOL     OW18196   1.778   1.259   7.722 -0.0307 -0.2122 -0.0001
 2245SOL    HW118197   1.722   1.256   7.799  3.2737 -2.7390  2.3036
 2245SOL    HW218198   1.865   1.253   7.762 -0.5405 -1.5326  0.8914
 2246SOL     OW18199   1.855   1.704   1.130 -0.1780  0.1098  0.5359
 2246SOL    HW118200   1.902   1.684   1.050 -1.2004  0.5542 -0.1748
 2246SOL    HW218201   1.766   1.671   1.117 -0.5306  0.7475  1.3492
 2247SOL     OW18202   1.928   2.432   5.819 -0.0111 -0.1734 -0.2181
 2247SOL    HW118203   1.866   2.485   5.870  1.1223 -0.1820  1.1783
 2247SOL    HW218204   1.868   2.359   5.802 -0.3635 -0.0107  0.3133
 2248SOL     OW18205   0.473   3.462   5.126 -0.4570  0.2876 -0.0276
 2248SOL    HW118206   0.473   3.522   5.201 -1.0589 -0.7435  0.8058
 2248SOL    HW218207   0.494   3.375   5.158 -0.6258 -0.7780 -2.8503
 2249SOL     OW18208   3.014   3.197   3.246  0.2570  0.6768 -0.1001
 2249SOL    HW118209   2.984   3.241   3.167  0.6330 -0.0746 -0.6591
 2249SOL    HW218210   3.072   3.266   3.279  0.8640 -0.7469  1.8326
 2250SOL     OW18211   2.771   3.803  15.611 -0.1473  0.4118  0.0944
 2250SOL    HW118212   2.764   3.711  15.638 -2.3369  0.7650  0.7500
 2250SOL    HW218213   2.864   3.813  15.632 -0.1396 -1.8558  1.1219
 2251SOL     OW18214   1.835   0.925   3.231  0.0964 -0.0310  0.2848
 2251SOL    HW118215   1.764   0.976   3.191  0.6767  1.0447  0.6056
 2251SOL    HW218216   1.857   1.001   3.286 -0.2585  1.3719 -1.5086
 2252SOL     OW18217   0.811   1.884  13.560  0.0869 -0.4586  0.0673
 2252SOL    HW118218   0.836   1.794  13.538  0.3411 -0.6930  1.3417
 2252SOL    HW218219   0.856   1.925  13.485  1.3913 -1.4460  0.3121
 2253SOL     OW18220   1.324   0.345   7.668 -0.0985  0.4608 -0.3346
 2253SOL    HW118221   1.282   0.398   7.601 -1.5911  0.0034  0.2358
 2253SOL    HW218222   1.416   0.329   7.647 -0.3839 -0.5389 -0.7983
 2254SOL     OW18223   0.338   2.479   8.645  0.3152 -0.2200 -0.0610
 2254SOL    HW118224   0.369   2.392   8.669 -0.8057 -1.1266 -1.9115
 2254SOL    HW218225   0.244   2.458   8.644  0.4993 -0.9540 -1.7100
 2255SOL     OW18226   2.972   4.585   9.144 -0.0876  0.3413  0.0100
 2255SOL    HW118227   2.906   4.653   9.159 -1.0602 -0.3769 -1.0078
 2255SOL    HW218228   2.983   4.597   9.050  2.2150  1.8644  0.4866
 2256SOL     OW18229   0.308   2.884   2.224  0.1779  0.5289 -0.3333
 2256SOL    HW118230   0.344   2.941   2.293  0.2472  0.6464 -0.4679
 2256SOL    HW218231   0.362   2.808   2.246 -0.1042 -0.0487 -1.6344
 2257SOL     OW18232   0.108   1.486   3.180  0.4100  0.4531  0.0896
 2257SOL    HW118233   0.100   1.390   3.177  0.7606  0.3783  1.5133
 2257SOL    HW218234   0.026   1.514   3.219 -0.1548  0.9815 -1.4996
 2258SOL     OW18235   4.302   0.791   9.285  0.5942 -0.0708 -0.6398
 2258SOL    HW118236   4.222   0.795   9.337 -0.1132  1.3604 -1.8377
 2258SOL    HW218237   4.272   0.736   9.211 -1.0377 -1.9252  1.3952
 2259SOL     OW18238   1.271   1.009  11.202 -0.2862 -0.3326  0.3780
 2259SOL    HW118239   1.342   1.072  11.217  0.6845 -0.8518 -2.0465
 2259SOL    HW218240   1.301   0.969  11.120  0.8739  2.8450 -0.7776
 2260SOL     OW18241   4.099   3.540   4.840 -0.2081  0.0247  0.1743
 2260SOL    HW118242   4.106   3.448   4.867  1.8115 -0.2243 -1.1645
 2260SOL    HW218243   4.111   3.582   4.925 -1.3405  1.1687 -0.2379
 2261SOL     OW18244   1.508   2.635   3.545  0.1246  0.3224 -0.0872
 2261SOL    HW118245   1.572   2.633   3.474  0.2512  1.6068 -0.0095
 2261SOL    HW218246   1.536   2.718   3.584  2.6071 -0.8506  0.5648
 2262SOL     OW18247   2.596   3.160   7.202  0.3328  0.1595 -0.2517
 2262SOL    HW118248   2.670   3.150   7.261  1.0541 -3.7884 -1.8406
 2262SOL    HW218249   2.631   3.185   7.117  0.5414 -0.3328 -0.3113
 2263SOL     OW18250   2.695   4.677   7.955  0.3651  0.1053  0.2914
 2263SOL    HW118251   2.642   4.614   7.905  2.5318 -0.8552 -0.8159
 2263SOL    HW218252   2.769   4.620   7.976 -0.3110 -1.6226 -2.0241
 2264SOL     OW18253   1.573   1.283   4.806  0.5364 -0.4104 -0.9471
 2264SOL    HW118254   1.562   1.236   4.723 -3.9226  1.7668 -1.6175
 2264SOL    HW218255   1.653   1.235   4.829 -0.4676 -1.5722  0.0943
 2265SOL     OW18256   0.788   0.035   3.634  0.2756  0.4999 -0.3860
 2265SOL    HW118257   0.818   0.122   3.661  1.6508  0.4512 -1.7650
 2265SOL    HW218258   0.711   0.015   3.686  0.5308 -1.4738 -0.7659
 2266SOL     OW18259   2.756   4.657  13.772  0.4818 -0.2312 -0.0043
 2266SOL    HW118260   2.753   0.014  13.716  0.5177 -0.5000 -0.3767
 2266SOL    HW218261   2.790   4.687  13.856 -1.1131 -1.3475  1.0556
 2267SOL     OW18262   0.308   3.782   8.442 -0.1651  0.3042  0.5135
 2267SOL    HW118263   0.392   3.746   8.471  0.7564  1.2194 -1.0245
 2267SOL    HW218264   0.336   3.842   8.373  0.2366 -0.9739 -0.4322
 2268SOL     OW18265   3.885   0.461   2.143 -0.2409 -0.1667 -0.3921
 2268SOL    HW118266   3.846   0.399   2.080 -1.4576 -2.5984  2.7647
 2268SOL    HW218267   3.882   0.401   2.217 -0.8261  0.3738  0.0139
 2269SOL     OW18268   2.565   0.885   7.635 -0.3777  0.3374  0.0960
 2269SOL    HW118269   2.546   0.909   7.725  0.9638 -0.2268  0.5323
 2269SOL    HW218270   2.507   0.810   7.621  0.5183 -0.1204 -1.2424
 2270SOL     OW18271   2.472   2.987  13.185  0.2567 -0.1107  0.1377
 2270SOL    HW118272   2.506   3.064  13.138  1.6139 -0.0244  1.2804
 2270SOL    HW218273   2.381   2.983  13.156 -0.0708  0.5048  1.0898
 2271SOL     OW18274   0.954   1.933  13.336  0.3841  0.2881 -0.2505
 2271SOL    HW118275   0.969   1.911  13.244 -0.5237 -0.0274 -0.3284
 2271SOL    HW218276   1.043   1.955  13.362  0.0832  0.0858  0.9344
 2272SOL     OW18277   4.198   0.574   7.641 -1.0010 -0.2101  0.0575
 2272SOL    HW118278   4.167   0.544   7.726 -0.3210 -1.7429 -0.2273
 2272SOL    HW218279   4.191   0.667   7.659  0.0324  0.2115 -1.7303
 2273SOL     OW18280   2.248   0.753   8.888  0.4956 -0.0900  0.1175
 2273SOL    HW118281   2.179   0.705   8.840  0.2025  1.5206 -1.0787
 2273SOL    HW218282   2.230   0.845   8.866  0.2805 -0.0152  0.6084
 2274SOL     OW18283   2.931   1.792   5.650  0.1501  0.1961 -0.1025
 2274SOL    HW118284   2.999   1.858   5.637  0.8585 -0.4755  0.1721
 2274SOL    HW218285   2.922   1.759   5.561 -0.5650  1.7109 -0.5870
 2275SOL     OW18286   1.967   4.292   2.668  0.2354  0.2108  0.1569
 2275SOL    HW118287   1.937   4.216   2.618  1.4442  0.5544 -1.0802
 2275SOL    HW218288   1.977   4.359   2.601  0.7217 -0.2724 -0.2516
 2276SOL     OW18289   0.492   4.230  14.639  0.3963  0.2430 -0.0912
 2276SOL    HW118290   0.547   4.262  14.567  0.6273  2.2312  0.9738
 2276SOL    HW218291   0.534   4.144  14.651 -1.1377 -0.2812  1.6346
 2277SOL     OW18292   2.061   3.280   2.484  0.5847 -0.5688  0.2322
 2277SOL    HW118293   1.980   3.252   2.441 -0.4862  0.2183  1.7446
 2277SOL    HW218294   2.107   3.197   2.499 -0.8329 -1.0058  2.1617
 2278SOL     OW18295   3.464   1.091  11.926  0.2708 -0.3035 -0.0735
 2278SOL    HW118296   3.429   1.068  12.012  0.6958  1.3857  0.5573
 2278SOL    HW218297   3.434   1.182  11.924  0.3685 -0.1974  2.9069
 2279SOL     OW18298   3.529   1.545   1.342 -0.1818  0.4341 -0.0170
 2279SOL    HW118299   3.541   1.520   1.433  0.1494  2.6736  0.5576
 2279SOL    HW218300   3.620   1.572   1.327  0.8039 -2.0963  1.4981
 2280SOL     OW18301   2.437   0.127   7.827  0.7682 -0.3538 -0.2378
 2280SOL    HW118302   2.466   0.042   7.860 -1.8049  0.0899  3.1961
 2280SOL    HW218303   2.472   0.129   7.738  0.9419 -0.2185 -0.1657
 2281SOL     OW18304   1.414   2.330   6.491  0.1690 -0.2533 -0.3484
 2281SOL    HW118305   1.336   2.330   6.435  1.2590  0.2513 -1.8983
 2281SOL    HW218306   1.448   2.241   6.483 -0.6436 -0.6450  0.6215
 2282SOL     OW18307   4.332   4.095   4.516  0.3592 -0.6652 -0.2930
 2282SOL    HW118308   4.362   4.061   4.432  1.2878  2.0637 -1.0651
 2282SOL    HW218309   4.249   4.129   4.484 -0.9232 -1.5877  1.9918
 2283SOL     OW18310   2.448   1.682  11.252 -0.5863 -0.2859  0.2499
 2283SOL    HW118311   2.434   1.623  11.326 -0.0607  0.6429  1.0943
 2283SOL    HW218312   2.542   1.699  11.244 -0.1901 -1.7082  1.6900
 2284SOL     OW18313   4.358   3.244   0.234  0.3879  0.0267  0.0148
 2284SOL    HW118314   4.326   3.320   0.186  0.0401 -0.0210  0.1638
 2284SOL    HW218315   4.451   3.265   0.234 -0.2876  2.9678 -1.9183
 2285SOL     OW18316   1.234   2.065   4.684  0.1642  0.2563 -0.0812
 2285SOL    HW118317   1.246   1.972   4.702 -0.9190  0.0530 -0.4053
 2285SOL    HW218318   1.286   2.086   4.607  0.1285  3.7321  0.8199
 2286SOL     OW18319   2.866   3.083   2.581 -0.5220  0.7598  0.4658
 2286SOL    HW118320   2.882   3.100   2.674 -4.0474 -1.0587  1.4197
 2286SOL    HW218321   2.791   3.138   2.558 -0.8446  0.4066  0.6577
 2287SOL     OW18322   1.167   2.649  13.533 -0.1553  0.0503  0.7693
 2287SOL    HW118323   1.211   2.713  13.589  0.2504 -0.0918  0.6180
 2287SOL    HW218324   1.220   2.640  13.454  0.4270 -0.6108  1.2342
 2288SOL     OW18325   4.119   2.891   3.728  0.3753 -0.8702 -0.0983
 2288SOL    HW118326   4.199   2.856   3.768  0.1154 -3.5161 -1.9361
 2288SOL    HW218327   4.053   2.885   3.797  0.4650 -2.2140 -0.1428
 2289SOL     OW18328   1.954   1.641   8.620  0.2484 -0.5545 -0.2074
 2289SOL    HW118329   2.015   1.663   8.691 -1.1953  0.1859  0.7941
 2289SOL    HW218330   1.942   1.717   8.563  0.1398 -0.2900  0.1691
 2290SOL     OW18331   0.069   2.243   4.177 -0.6548 -0.1163  0.0410
 2290SOL    HW118332   0.030   2.188   4.110 -1.7209  1.4563 -0.6192
 2290SOL    HW218333   0.013   2.321   4.181 -1.6521 -0.9355  2.1966
 2291SOL     OW18334   4.289   4.375   1.587 -0.5991  0.2654 -0.3738
 2291SOL    HW118335   4.234   4.338   1.518  0.2590 -0.6329 -0.5788
 2291SOL    HW218336   4.235   4.446   1.622  0.3565  2.3175 -2.9498
 2292SOL     OW18337   0.154   2.838   2.791 -0.0666  0.1862 -0.3341
 2292SOL    HW118338   0.161   2.803   2.703  0.6999  2.4211 -1.1621
 2292SOL    HW218339   0.099   2.915   2.773 -0.7658 -1.2236 -4.1222
 2293SOL     OW18340   0.273   4.008  12.612 -0.1285 -0.1443  0.0177
 2293SOL    HW118341   0.353   3.978  12.570  1.0043  1.6583  0.8751
 2293SOL    HW218342   0.212   3.961  12.555  1.6873 -1.1877 -1.0464
 2294SOL     OW18343   1.060   0.583   4.834 -0.0048 -0.0666  0.2879
 2294SOL    HW118344   0.972   0.620   4.845  0.3386  1.5864 -2.5451
 2294SOL    HW218345   1.051   0.511   4.897 -2.5320 -0.9812 -1.1124
 2295SOL     OW18346   3.789   3.872   6.002  0.0951  0.1947  0.0192
 2295SOL    HW118347   3.777   3.791   5.953 -0.0690 -1.4254  2.6824
 2295SOL    HW218348   3.859   3.907   5.947 -1.2392 -0.9145 -2.3763
 2296SOL     OW18349   1.657   0.751   4.206 -0.1037 -0.3593 -0.5460
 2296SOL    HW118350   1.649   0.724   4.297  3.6373  2.3051  0.5579
 2296SOL    HW218351   1.730   0.696   4.178  1.9180  0.9001  2.3040
 2297SOL     OW18352   1.555   3.349   4.172  0.2121 -0.0817 -0.2669
 2297SOL    HW118353   1.588   3.286   4.235  0.0815 -0.4858 -0.6036
 2297SOL    HW218354   1.475   3.370   4.219 -1.3104 -0.3598 -2.7325
 2298SOL     OW18355   2.308   4.162  16.423 -0.2846  0.0632 -0.8659
 2298SOL    HW118356   2.293   4.256  16.431 -0.6451 -0.2266  2.0304
 2298SOL    HW218357   2.226   4.127  16.390 -0.7288  0.5749 -0.2968
 2299SOL     OW18358   1.426   0.059   7.476  0.0912 -0.2629 -0.1325
 2299SOL    HW118359   1.473   0.005   7.539 -2.2985 -0.5183  1.4184
 2299SOL    HW218360   1.351   0.001   7.462 -1.1365  1.7152 -1.7421
 2300SOL     OW18361   4.156   1.401   9.476 -0.3855  0.0236 -0.1862
 2300SOL    HW118362   4.085   1.462   9.493 -1.8934 -1.6843 -0.3945
 2300SOL    HW218363   4.221   1.421   9.545  1.4138 -0.2691 -1.7919
 2301SOL     OW18364   3.614   1.968   2.690 -0.3982 -1.0669 -0.3829
 2301SOL    HW118365   3.598   1.935   2.602  2.8290 -0.5294 -1.1564
 2301SOL    HW218366   3.541   2.029   2.704 -0.2222 -1.0968  0.6606
 2302SOL     OW18367   1.025   0.970   8.751 -0.5228 -0.8950 -0.4112
 2302SOL    HW118368   1.059   0.966   8.840 -0.3834 -0.8289 -0.4614
 2302SOL    HW218369   0.941   1.013   8.768 -0.2771 -0.3050 -0.7156
 2303SOL     OW18370   3.507   1.618   5.093 -0.4512  0.0635 -0.2497
 2303SOL    HW118371   3.560   1.635   5.171  0.0665 -0.3983 -0.5039
 2303SOL    HW218372   3.451   1.548   5.127  1.6757 -1.2177  0.6209
 2304SOL     OW18373   2.053   0.518   4.607 -0.4477  0.3351 -0.0492
 2304SOL    HW118374   2.104   0.555   4.679 -0.2584 -0.0924  0.0403
 2304SOL    HW218375   2.005   0.449   4.653  1.5176 -1.6408 -0.9763
 2305SOL     OW18376   2.864   1.919   5.231 -0.0164  0.1488 -0.1873
 2305SOL    HW118377   2.777   1.892   5.202 -0.2451 -1.0370  1.6043
 2305SOL    HW218378   2.872   2.005   5.188  3.4138  0.1618  0.4710
 2306SOL     OW18379   2.519   3.917   9.139 -0.3053 -0.3241  0.0543
 2306SOL    HW118380   2.518   3.872   9.223 -0.5276  0.5152  0.5059
 2306SOL    HW218381   2.590   3.978   9.162  0.1930 -0.6582 -0.6081
 2307SOL     OW18382   2.470   0.784   3.588 -0.0970 -0.2027  0.1789
 2307SOL    HW118383   2.492   0.720   3.520  0.6247  1.8868 -1.5584
 2307SOL    HW218384   2.526   0.855   3.557  0.3521 -1.3512 -1.6757
 2308SOL     OW18385   2.131   0.993   8.799  0.3599 -0.4343  0.2492
 2308SOL    HW118386   2.054   1.027   8.844 -0.0780  0.1240 -0.9270
 2308SOL    HW218387   2.199   1.056   8.824  0.7200 -0.7839  0.1584
 2309SOL     OW18388   3.678   3.207   5.333  0.0185 -0.5835  0.2963
 2309SOL    HW118389   3.631   3.176   5.255 -0.3494  2.3552 -0.6340
 2309SOL    HW218390   3.607   3.244   5.386  0.7138  0.0277  0.7938
 2310SOL     OW18391   3.263   4.021  11.680 -0.7297 -0.0761  0.8106
 2310SOL    HW118392   3.319   3.971  11.740 -0.2515  0.7486  1.0624
 2310SOL    HW218393   3.222   4.082  11.742  0.8078  0.2410  1.5149
 2311SOL     OW18394   4.136   4.466   4.398 -0.2705  0.3668  0.0637
 2311SOL    HW118395   4.167   4.506   4.316  1.6985 -0.9035  0.1871
 2311SOL    HW218396   4.219   4.446   4.441  0.4003  0.7259 -1.0511
 2312SOL     OW18397   1.668   4.530   8.823  0.1249 -0.3137  0.4953
 2312SOL    HW118398   1.600   4.582   8.780 -0.6770 -3.2642 -1.7976
 2312SOL    HW218399   1.658   4.566   8.911  1.6947 -1.1810  1.0138
 2313SOL     OW18400   2.258   1.651   8.170 -0.3077  0.1936 -0.1127
 2313SOL    HW118401   2.170   1.660   8.133  0.1292  0.3969 -1.0996
 2313SOL    HW218402   2.292   1.592   8.103 -0.0232  1.2209 -0.8678
 2314SOL     OW18403   3.359   2.986   3.611  0.0547 -0.2466  0.1233
 2314SOL    HW118404   3.350   3.076   3.581 -0.8917  0.0766  1.3286
 2314SOL    HW218405   3.437   2.959   3.563 -0.4689 -1.5469 -0.0006
 2315SOL     OW18406   2.510   4.422  10.317 -0.0044 -0.0823 -0.0528
 2315SOL    HW118407   2.514   4.445  10.224 -1.2973  2.1622  0.4244
 2315SOL    HW218408   2.454   4.491  10.352  2.6140  0.5580  2.8875
 2316SOL     OW18409   0.517   3.423   1.205  0.0896  0.4336 -0.3257
 2316SOL    HW118410   0.499   3.332   1.231 -0.0326  0.3337 -0.7546
 2316SOL    HW218411   0.445   3.462   1.255  0.4647 -0.7644  1.1420
 2317SOL     OW18412   2.314   0.747  12.844  0.2517 -0.0893 -0.0173
 2317SOL    HW118413   2.310   0.802  12.922 -2.3134 -1.2599  0.6599
 2317SOL    HW218414   2.227   0.760  12.806  0.4788 -0.5994 -0.7025
 2318SOL     OW18415   1.136   3.224  14.156 -0.0751  0.5006 -0.2542
 2318SOL    HW118416   1.142   3.318  14.173 -1.0442  0.5362 -0.1273
 2318SOL    HW218417   1.116   3.186  14.241  2.1623 -0.9883 -0.3841
 2319SOL     OW18418   2.876   2.850   6.361 -0.6063 -0.3296  0.4673
 2319SOL    HW118419   2.938   2.796   6.411 -0.6932  0.0773  1.0101
 2319SOL    HW218420   2.827   2.897   6.429  1.5939 -0.7104  2.3381
 2320SOL     OW18421   1.160   4.496   3.869  0.2458  0.6867 -0.4697
 2320SOL    HW118422   1.177   4.562   3.802  1.0121  1.1170  0.1459
 2320SOL    HW218423   1.114   4.428   3.820  2.1868  0.0734 -1.4305
 2321SOL     OW18424   0.257   4.685   8.185 -0.1563  0.0089 -0.6295
 2321SOL    HW118425   0.165   4.662   8.172 -0.4031 -0.3451  1.7704
 2321SOL    HW218426   0.257   4.694   8.280 -0.5708  1.1065 -0.7423
 2322SOL     OW18427   3.753   3.258   5.875 -0.3489  0.2888 -0.1166
 2322SOL    HW118428   3.745   3.186   5.938  1.8850  0.1411  0.0117
 2322SOL    HW218429   3.663   3.286   5.859 -0.6532 -0.0883  0.9077
 2323SOL     OW18430   0.094   1.521  16.000 -0.1570  0.0270  0.1278
 2323SOL    HW118431   0.072   1.475  16.082 -1.4443 -0.5168 -0.5234
 2323SOL    HW218432   0.184   1.493  15.983 -0.6372 -0.9290 -0.8448
 2324SOL     OW18433   3.102   0.253   8.947  0.7080  0.5535 -0.0442
 2324SOL    HW118434   3.088   0.348   8.949  1.7213  0.7284 -0.9204
 2324SOL    HW218435   3.081   0.233   8.855  0.3137 -0.8883  0.3571
 2325SOL     OW18436   2.898   2.156   3.460  0.9466  0.2031 -0.1016
 2325SOL    HW118437   2.844   2.234   3.450 -0.7653 -0.9101  0.5628
 2325SOL    HW218438   2.980   2.190   3.423  2.1710 -1.3225  1.1988
 2326SOL     OW18439   1.911   3.779   8.160  0.7140  0.1223  0.0610
 2326SOL    HW118440   1.827   3.737   8.141  1.5098 -1.6357  0.3314
 2326SOL    HW218441   1.905   3.809   8.250 -1.2592  1.5354 -0.5415
 2327SOL     OW18442   0.286   2.324   4.418  0.4986  0.5788  0.0724
 2327SOL    HW118443   0.273   2.419   4.406  2.1806  1.0779  2.3138
 2327SOL    HW218444   0.231   2.286   4.350  0.5656 -0.6180  0.6916
 2328SOL     OW18445   0.831   2.636   1.416  0.0607 -0.1177 -0.2096
 2328SOL    HW118446   0.869   2.607   1.333 -1.6419 -0.5989 -0.8279
 2328SOL    HW218447   0.754   2.581   1.402  0.5796 -0.7135 -0.6761
 2329SOL     OW18448   2.414   2.123   7.670  0.6552  0.5145  0.0149
 2329SOL    HW118449   2.443   2.049   7.616  1.4738  1.6604 -1.1234
 2329SOL    HW218450   2.455   2.195   7.621  1.0986  0.8438  0.8732
 2330SOL     OW18451   0.710   1.252   3.112  0.5190 -0.2183  0.4986
 2330SOL    HW118452   0.730   1.194   3.038 -0.3537 -0.4787  0.4613
 2330SOL    HW218453   0.770   1.323   3.090 -0.5246  0.7213  0.6795
 2331SOL     OW18454   2.308   0.167   7.389  0.1185 -0.4064  0.2063
 2331SOL    HW118455   2.226   0.206   7.358  1.3031  0.7789 -1.4646
 2331SOL    HW218456   2.340   0.136   7.304 -0.8858 -0.6558 -0.0783
 2332SOL     OW18457   1.038   0.445   2.498 -0.7757  0.6179 -0.1976
 2332SOL    HW118458   1.107   0.435   2.433 -1.1833 -0.7412 -0.4077
 2332SOL    HW218459   1.004   0.528   2.464 -1.5807  0.6493  0.6990
 2333SOL     OW18460   0.447   2.688  12.828 -0.5341 -0.2653  0.3140
 2333SOL    HW118461   0.380   2.667  12.894  0.5504  2.2602  2.2394
 2333SOL    HW218462   0.420   2.780  12.829 -0.6568 -0.2951 -0.1101
 2334SOL     OW18463   1.317   3.687  15.064 -0.4247  0.0393  0.4535
 2334SOL    HW118464   1.241   3.650  15.020 -0.1205  1.3416 -1.1442
 2334SOL    HW218465   1.279   3.774  15.077  1.3678  0.8412  0.3998
 2335SOL     OW18466   1.057   1.707   7.489 -0.1720  0.6297  0.3247
 2335SOL    HW118467   1.040   1.800   7.502  1.2902  1.2252 -2.1635
 2335SOL    HW218468   1.151   1.705   7.502  0.1772  1.1529 -2.1693
 2336SOL     OW18469   0.733   0.402   5.791 -0.0533 -0.2870 -0.2123
 2336SOL    HW118470   0.800   0.454   5.747 -0.8200 -0.3054 -1.3979
 2336SOL    HW218471   0.794   0.364   5.855  2.1805 -2.4225 -3.6096
 2337SOL     OW18472   3.833   1.773   4.949 -0.1793  0.1118  0.2303
 2337SOL    HW118473   3.924   1.746   4.944 -0.0227  0.5855  0.5319
 2337SOL    HW218474   3.786   1.692   4.930  1.7996 -0.5694 -1.7461
 2338SOL     OW18475   0.585   3.692  15.347 -0.2448  0.5697 -0.2694
 2338SOL    HW118476   0.554   3.647  15.269 -0.0405  1.0415 -0.6213
 2338SOL    HW218477   0.583   3.619  15.409  2.0541  1.6757  1.1065
 2339SOL     OW18478   4.098   0.123   2.820  0.1975 -0.7734 -0.1416
 2339SOL    HW118479   4.078   0.180   2.894  2.4782  1.1089 -0.9646
 2339SOL    HW218480   4.018   0.074   2.800  0.1862 -0.5714 -0.6120
 2340SOL     OW18481   0.290   2.625   7.681  0.3311 -0.0791 -0.0641
 2340SOL    HW118482   0.234   2.558   7.642 -1.0171  1.2175 -0.3626
 2340SOL    HW218483   0.261   2.624   7.773 -1.9445  0.9875 -0.7817
 2341SOL     OW18484   2.045   3.897   9.642  0.6381  0.0016 -0.3004
 2341SOL    HW118485   2.062   3.877   9.549 -0.2462  0.4168 -0.5510
 2341SOL    HW218486   1.950   3.898   9.651  0.6897  1.5833 -0.0013
 2342SOL     OW18487   2.888   4.635  16.531 -0.3965 -0.6862  0.5170
 2342SOL    HW118488   2.902   4.592  16.446  2.5337 -0.5957  0.9390
 2342SOL    HW218489   2.950   4.585  16.584  1.6551  0.9988 -0.2724
 2343SOL     OW18490   4.211   1.964  13.793  0.4025  0.0580 -0.1523
 2343SOL    HW118491   4.189   1.961  13.700  0.1120 -2.9813  0.0071
 2343SOL    HW218492   4.172   1.882  13.825  0.4628  0.0791 -0.0231
 2344SOL     OW18493   1.052   4.372   9.730  0.4304 -0.4189 -0.4900
 2344SOL    HW118494   1.092   4.286   9.721  0.5746 -0.4907  0.9697
 2344SOL    HW218495   1.042   4.394   9.822  0.2159 -0.6001 -0.4730
 2345SOL     OW18496   1.833   3.098  11.889  0.0350  0.0931  0.0261
 2345SOL    HW118497   1.914   3.046  11.881 -0.5920 -0.5665 -2.1642
 2345SOL    HW218498   1.795   3.062  11.969  3.4296 -1.0900  1.1159
 2346SOL     OW18499   3.770   4.626   6.472 -0.5566 -0.1787 -0.2138
 2346SOL    HW118500   3.841   4.629   6.407  0.0294  4.1576  0.6340
 2346SOL    HW218501   3.787   4.702   6.528 -1.8568  0.7549 -1.0782
 2347SOL     OW18502   0.277   4.237   7.454 -0.2373  0.2941  0.0643
 2347SOL    HW118503   0.265   4.208   7.545  1.5822  1.7773  0.7972
 2347SOL    HW218504   0.218   4.312   7.463 -1.1757 -0.0638 -3.0974
 2348SOL     OW18505   1.998   0.318  12.544  0.1037 -0.4978  0.2532
 2348SOL    HW118506   1.972   0.226  12.544  1.2639 -0.8263 -0.8433
 2348SOL    HW218507   1.927   0.351  12.599 -1.4176 -2.2851 -0.6083
 2349SOL     OW18508   1.103   0.657   4.569  0.2703  0.1095  0.1355
 2349SOL    HW118509   1.081   0.631   4.658  1.9120 -0.9074  0.2473
 2349SOL    HW218510   1.093   0.752   4.575 -0.1774 -0.0197  1.4459
 2350SOL     OW18511   2.009   3.163   8.549  0.3288  0.0263 -0.0078
 2350SOL    HW118512   1.946   3.098   8.582 -1.3447  1.3399 -0.6314
 2350SOL    HW218513   2.004   3.159   8.454 -2.0402 -0.8637  0.1465
 2351SOL     OW18514   3.154   4.211   2.353  0.3042 -0.1512 -0.3669
 2351SOL    HW118515   3.237   4.259   2.362  1.4983 -2.5647  1.5459
 2351SOL    HW218516   3.089   4.280   2.339  0.8464  1.1374  3.3573
 2352SOL     OW18517   1.825   0.363   8.441  0.4714 -0.1127 -0.2392
 2352SOL    HW118518   1.805   0.281   8.395  1.2690 -0.6132  0.3216
 2352SOL    HW218519   1.770   0.353   8.519 -0.1143  0.8754 -0.5231
 2353SOL     OW18520   3.970   1.097   3.382  0.1006 -0.0331 -0.0803
 2353SOL    HW118521   3.920   1.131   3.307  0.6106 -0.7985 -0.7617
 2353SOL    HW218522   3.960   1.172   3.441 -1.0980 -0.2766  0.0235
 2354SOL     OW18523   2.053   0.897   6.925  0.0407 -0.0695 -0.1021
 2354SOL    HW118524   2.084   0.974   6.877 -0.6043 -1.8272 -3.3945
 2354SOL    HW218525   2.132   0.881   6.975 -0.6279 -0.4856  0.8130
 2355SOL     OW18526   1.214   1.225   8.901 -0.7921  0.3184 -0.3507
 2355SOL    HW118527   1.243   1.204   8.813 -1.9675  1.5109 -1.0128
 2355SOL    HW218528   1.219   1.143   8.951  1.8154  0.1946 -0.8222
 2356SOL     OW18529   3.062   1.625  10.772  0.2167 -0.1547 -0.3175
 2356SOL    HW118530   3.050   1.644  10.679 -2.1945  1.7224  0.3757
 2356SOL    HW218531   3.128   1.556  10.759  0.3016 -0.8673  3.9870
 2357SOL     OW18532   3.287   3.472   3.721 -0.1462  0.2118 -0.2290
 2357SOL    HW118533   3.230   3.543   3.690 -1.3512 -1.2247 -1.2720
 2357SOL    HW218534   3.230   3.396   3.732 -2.6946  2.0256 -0.8046
 2358SOL     OW18535   1.908   3.574   5.612 -0.8532 -0.1189  0.3212
 2358SOL    HW118536   2.002   3.594   5.605 -0.9377  0.0598 -0.3823
 2358SOL    HW218537   1.874   3.664   5.610  3.2416  1.4226 -0.0049
 2359SOL     OW18538   0.878   3.499   6.198  0.1799  0.0920  0.2421
 2359SOL    HW118539   0.915   3.460   6.277 -0.9846 -2.0942 -0.3053
 2359SOL    HW218540   0.812   3.557   6.235  1.2974  1.6404 -0.2024
 2360SOL     OW18541   4.312   1.472  17.023  0.3692 -0.1541 -0.1764
 2360SOL    HW118542   4.269   1.551  17.055 -1.1678  1.0808 -5.3627
 2360SOL    HW218543   4.362   1.441  17.099  0.1941  0.0257  0.0100
 2361SOL     OW18544   4.444   4.002   6.642 -0.3532 -0.1318 -0.2373
 2361SOL    HW118545   4.503   4.052   6.698  1.1800 -1.2928 -0.8424
 2361SOL    HW218546   4.484   4.017   6.557 -2.1704  1.5713 -0.7997
 2362SOL     OW18547   4.154   1.714  13.894 -0.0247 -0.0523 -0.2493
 2362SOL    HW118548   4.089   1.647  13.873 -0.1065  0.1560 -0.6800
 2362SOL    HW218549   4.224   1.665  13.936  0.2567 -0.4430 -1.1694
 2363SOL     OW18550   4.333   1.662   6.596  0.4856  0.5472  0.6980
 2363SOL    HW118551   4.257   1.670   6.654 -0.2749  0.4411 -0.2929
 2363SOL    HW218552   4.299   1.598   6.533  1.0826  2.0363 -1.1393
 2364SOL     OW18553   2.580   1.065   3.098  1.0241  0.2112  0.3308
 2364SOL    HW118554   2.663   1.085   3.141  0.0554 -1.5887  3.0641
 2364SOL    HW218555   2.514   1.083   3.165 -0.0391 -0.3999 -0.5469
 2365SOL     OW18556   2.560   4.497   2.592 -0.9479  0.1894 -0.0755
 2365SOL    HW118557   2.592   4.421   2.641 -1.1591 -0.6596 -1.2725
 2365SOL    HW218558   2.466   4.506   2.608 -1.0802 -0.9021 -0.2313
 2366SOL     OW18559   3.861   2.800  13.038  0.2897 -0.4286  0.1027
 2366SOL    HW118560   3.922   2.817  13.110 -0.7754 -1.7815  1.3237
 2366SOL    HW218561   3.811   2.732  13.083 -0.9448  0.5805  0.2641
 2367SOL     OW18562   2.629   4.535  16.297 -0.0670 -0.0215 -0.4014
 2367SOL    HW118563   2.723   4.532  16.317  0.4109  2.1252 -2.3186
 2367SOL    HW218564   2.603   4.624  16.322 -1.4279  0.0164 -2.0165
 2368SOL     OW18565   1.510   2.898  12.878 -0.1486  0.4898  0.6954
 2368SOL    HW118566   1.602   2.889  12.853 -0.6111  2.0779 -1.6184
 2368SOL    HW218567   1.467   2.907  12.793  0.8568 -1.7287 -0.0456
 2369SOL     OW18568   2.915   3.403  12.902  0.4977  0.4294 -0.0682
 2369SOL    HW118569   2.911   3.391  12.997  0.2328  0.7928 -0.0334
 2369SOL    HW218570   2.867   3.327  12.868  0.0938  1.6190 -2.1522
 2370SOL     OW18571   4.563   1.016   3.131 -0.4954 -0.3217 -0.2855
 2370SOL    HW118572   4.544   0.952   3.062 -0.3489  0.8034 -1.3766
 2370SOL    HW218573   4.591   0.955   3.200 -0.1242 -0.2408 -0.3608
 2371SOL     OW18574   3.492   0.450  14.728 -0.4975 -0.3623 -0.2078
 2371SOL    HW118575   3.541   0.470  14.649  0.6566  0.0360  0.6088
 2371SOL    HW218576   3.426   0.519  14.720 -1.7798 -1.6023 -0.2354
 2372SOL     OW18577   4.555   1.704   8.522  0.2895 -0.1888  1.3798
 2372SOL    HW118578   4.483   1.721   8.461  1.1453  2.0264  0.9779
 2372SOL    HW218579   4.530   1.613   8.535 -0.2224 -0.0802  1.1529
 2373SOL     OW18580   1.810   3.282   1.192  0.4448 -0.0279  0.2909
 2373SOL    HW118581   1.870   3.279   1.118  1.9436  1.3460  1.4486
 2373SOL    HW218582   1.862   3.335   1.253 -1.6026  2.4965 -0.1777
 2374SOL     OW18583   4.527   4.018  15.450  0.4106 -0.2272  0.1171
 2374SOL    HW118584   4.576   4.047  15.528  2.9696 -0.4578 -1.4150
 2374SOL    HW218585   4.551   4.088  15.390 -0.0146  0.5342  0.8240
 2375SOL     OW18586   0.310   2.625   0.655  0.2819 -0.2208 -0.2325
 2375SOL    HW118587   0.256   2.600   0.581  1.5546 -0.8472 -0.9471
 2375SOL    HW218588   0.246   2.624   0.726  0.1709 -1.5500 -0.3622
 2376SOL     OW18589   0.679   0.810   9.526  0.5940 -0.1780 -0.0525
 2376SOL    HW118590   0.758   0.860   9.546 -1.8554  4.5524 -2.4416
 2376SOL    HW218591   0.649   0.857   9.449  0.0367 -3.2418 -1.6983
 2377SOL     OW18592   3.472   3.129   5.157 -0.0583  0.0198  0.2189
 2377SOL    HW118593   3.458   3.076   5.079  0.0755 -1.8066  1.4356
 2377SOL    HW218594   3.415   3.205   5.147  0.1962  0.1499 -0.2395
 2378SOL     OW18595   3.866   3.138  13.392  0.0295 -0.0573 -0.1218
 2378SOL    HW118596   3.905   3.130  13.479  1.4086  0.2177 -0.7156
 2378SOL    HW218597   3.936   3.138  13.327  0.8743 -0.4204  0.7843
 2379SOL     OW18598   4.561   0.521   3.465  0.4107 -0.1271 -0.4611
 2379SOL    HW118599   4.585   0.578   3.539 -0.5899 -0.4258  0.0940
 2379SOL    HW218600   4.515   0.455   3.516 -0.5716  1.1974  0.3937
 2380SOL     OW18601   0.812   2.209   4.359  0.7053 -0.5546  0.5091
 2380SOL    HW118602   0.792   2.142   4.424  2.4175 -2.4837 -0.9669
 2380SOL    HW218603   0.876   2.262   4.405  0.4228 -1.1450  1.5775
 2381SOL     OW18604   2.448   3.749   1.465 -0.0878  0.3374  0.5885
 2381SOL    HW118605   2.466   3.755   1.371  0.2390 -0.9620  0.5632
 2381SOL    HW218606   2.378   3.815   1.464 -0.3118  0.1035  0.9897
 2382SOL     OW18607   0.588   1.921   8.361 -0.5108  0.4467 -0.2477
 2382SOL    HW118608   0.590   1.972   8.441 -0.5181  0.7269 -0.4270
 2382SOL    HW218609   0.610   1.980   8.289  1.2482  1.7762  1.3850
 2383SOL     OW18610   0.063   1.847  17.093 -0.1304  0.5240  0.1556
 2383SOL    HW118611   4.705   1.805  17.128  0.2025  0.3757  0.7216
 2383SOL    HW218612   0.135   1.791  17.119 -0.6165  0.2380  0.8927
 2384SOL     OW18613   1.263   1.897   8.108 -0.1003 -0.0750 -0.5473
 2384SOL    HW118614   1.310   1.836   8.164 -2.8173 -1.0421  0.6857
 2384SOL    HW218615   1.233   1.956   8.177  2.5080  0.1656  0.3636
 2385SOL     OW18616   1.776   0.466   6.133 -0.0709 -0.1565 -0.1009
 2385SOL    HW118617   1.747   0.424   6.052 -0.5031 -0.9667  0.4800
 2385SOL    HW218618   1.859   0.424   6.155 -0.7295 -1.8000 -0.7613
 2386SOL     OW18619   1.448   0.904   4.375  0.2966 -0.3424 -0.0655
 2386SOL    HW118620   1.409   0.835   4.321 -2.3420  1.9558 -1.0858
 2386SOL    HW218621   1.378   0.925   4.437 -0.6615  0.5870 -1.4484
 2387SOL     OW18622   2.547   4.548   9.820  0.1878 -0.2868  0.1532
 2387SOL    HW118623   2.465   4.548   9.869 -1.4223 -2.4599 -2.5340
 2387SOL    HW218624   2.610   4.551   9.892  1.4523  0.7529 -0.9893
 2388SOL     OW18625   1.166   2.659   4.407  0.1457 -0.3984  0.9160
 2388SOL    HW118626   1.200   2.572   4.386  1.8803  0.5195  0.0125
 2388SOL    HW218627   1.126   2.637   4.492  0.6756 -0.2677  1.2005
 2389SOL     OW18628   3.691   0.997   4.550  0.7294  0.0866 -0.0692
 2389SOL    HW118629   3.689   0.968   4.642 -0.8533 -0.7029 -0.3406
 2389SOL    HW218630   3.759   1.063   4.560 -1.5564  2.1446  1.9316
 2390SOL     OW18631   0.567   2.334  16.026 -0.0282 -0.0239 -0.7873
 2390SOL    HW118632   0.491   2.335  15.968  0.3141 -1.7114 -1.2771
 2390SOL    HW218633   0.544   2.397  16.093 -0.1219 -1.8501  0.9180
 2391SOL     OW18634   2.098   2.841   4.522  0.0293 -0.8989 -0.6043
 2391SOL    HW118635   2.035   2.874   4.457 -1.0401  0.5103  1.1543
 2391SOL    HW218636   2.159   2.915   4.519 -0.3878 -0.4582  2.1605
 2392SOL     OW18637   2.625   3.225   2.503 -0.2573  0.1774  0.0328
 2392SOL    HW118638   2.576   3.253   2.580  0.2838  0.9839  0.0822
 2392SOL    HW218639   2.684   3.300   2.493  0.6951 -0.6989 -0.9801
 2393SOL     OW18640   1.918   3.708   2.431 -0.4132  0.7584 -0.3048
 2393SOL    HW118641   1.910   3.720   2.336  0.9102 -0.7047 -0.6149
 2393SOL    HW218642   2.002   3.753   2.445 -1.0277  1.5321  0.8152
 2394SOL     OW18643   1.061   2.266   7.814  0.0028  0.2957 -0.4002
 2394SOL    HW118644   1.034   2.357   7.827 -0.9987 -0.0267 -0.2017
 2394SOL    HW218645   1.063   2.259   7.719 -2.4016 -2.5359 -0.2726
 2395SOL     OW18646   3.057   4.399  10.622 -0.5564 -0.0218  0.7037
 2395SOL    HW118647   3.036   4.451  10.700  0.1926 -0.8634  1.4740
 2395SOL    HW218648   3.104   4.329  10.667 -0.0286 -1.3231 -1.8918
 2396SOL     OW18649   4.507   0.264  13.066 -0.3029  0.2112  0.2379
 2396SOL    HW118650   4.586   0.290  13.113  0.2522 -1.7011  0.3697
 2396SOL    HW218651   4.466   0.218  13.138 -1.7494 -1.3777 -1.5966
 2397SOL     OW18652   1.875   2.639   8.557 -0.2572  0.2093 -0.1888
 2397SOL    HW118653   1.869   2.722   8.510 -1.8360  0.2431  0.0853
 2397SOL    HW218654   1.883   2.680   8.643 -0.0254 -1.6726  0.6789
 2398SOL     OW18655   2.527   0.013   8.318  0.0223 -0.6219  0.3634
 2398SOL    HW118656   2.576   4.667   8.269 -0.5960 -0.8265  0.0062
 2398SOL    HW218657   2.437   4.716   8.287 -0.0444  0.6161 -0.1551
 2399SOL     OW18658   4.256   0.607  12.518 -0.9076  0.5193 -0.4123
 2399SOL    HW118659   4.313   0.560  12.578 -1.2420 -0.5294 -0.9123
 2399SOL    HW218660   4.312   0.671  12.474  1.4211  1.6006  4.2000
 2400SOL     OW18661   0.224   0.805  12.552 -0.2800  0.0940 -0.2095
 2400SOL    HW118662   0.312   0.841  12.569 -0.7004  0.3496  1.4111
 2400SOL    HW218663   0.216   0.802  12.456  2.4383 -0.4569 -0.4288
 2401SOL     OW18664   2.362   2.287   4.853 -0.0092 -0.0646  0.0257
 2401SOL    HW118665   2.437   2.325   4.898  1.3797  0.5122 -2.7431
 2401SOL    HW218666   2.334   2.228   4.923  1.1698  1.3044  1.6468
 2402SOL     OW18667   1.266   2.258  13.435  0.1956 -0.1325 -0.3093
 2402SOL    HW118668   1.177   2.223  13.443 -0.8065  2.1527 -1.4941
 2402SOL    HW218669   1.258   2.316  13.511  0.0687  0.6296 -0.9053
 2403SOL     OW18670   2.428   4.164  11.429 -0.4425 -0.2671 -0.2775
 2403SOL    HW118671   2.515   4.195  11.405 -0.7555  1.2216  0.5071
 2403SOL    HW218672   2.382   4.171  11.346 -3.8450 -4.0735  1.2853
 2404SOL     OW18673   0.283   4.261  15.974  0.0819  0.2560  0.3638
 2404SOL    HW118674   0.251   4.201  15.906  0.3662 -0.8368  1.2113
 2404SOL    HW218675   0.324   4.328  15.919 -1.4400 -0.1729 -1.3190
 2405SOL     OW18676   4.244   1.998   1.480 -0.0406 -0.0970 -0.0003
 2405SOL    HW118677   4.185   1.963   1.414 -1.0221  1.1327  0.2240
 2405SOL    HW218678   4.216   1.942   1.552  0.5530  0.3040  0.5378
 2406SOL     OW18679   3.990   3.923   8.437 -0.0434 -0.2490  0.0229
 2406SOL    HW118680   4.017   3.854   8.376 -0.7056  0.2349 -0.8259
 2406SOL    HW218681   4.066   3.925   8.494  0.4430  0.5992 -0.6609
 2407SOL     OW18682   3.300   4.497   9.007 -0.5388  0.3470  0.5888
 2407SOL    HW118683   3.285   4.453   8.923  1.2989  1.7441 -0.4625
 2407SOL    HW218684   3.239   4.449   9.063 -0.5383 -0.5266 -0.1597
 2408SOL     OW18685   0.440   0.110   5.990  0.3116 -0.2852 -0.4764
 2408SOL    HW118686   0.473   0.176   5.929  1.0294 -1.1503 -1.0308
 2408SOL    HW218687   0.366   0.150   6.034 -0.5984 -0.0766 -2.1941
 2409SOL     OW18688   2.629   2.597   8.040  0.2112 -0.0451  0.5702
 2409SOL    HW118689   2.645   2.505   8.059  2.2363 -0.0876 -1.3291
 2409SOL    HW218690   2.670   2.650   8.109 -1.9245 -1.4039  2.8791
 2410SOL     OW18691   1.117   3.623   7.092 -0.2574  0.2326  0.5672
 2410SOL    HW118692   1.094   3.546   7.143 -1.2005 -1.8040 -2.8750
 2410SOL    HW218693   1.134   3.592   7.003 -0.8399 -2.4627  1.3987
 2411SOL     OW18694   0.583   4.385   5.284 -0.6948  0.4371 -0.3232
 2411SOL    HW118695   0.527   4.346   5.217 -0.2133 -0.6853 -0.0828
 2411SOL    HW218696   0.515   4.392   5.351 -0.0076  0.8392  0.3337
 2412SOL     OW18697   0.207   3.786   5.226  0.0904 -0.6574 -0.1887
 2412SOL    HW118698   0.287   3.767   5.276  1.2342  1.9311 -1.0317
 2412SOL    HW218699   0.207   3.705   5.174  0.8578 -0.1234 -1.0183
 2413SOL     OW18700   0.925   1.520   8.788  0.1641  0.2312 -0.4006
 2413SOL    HW118701   0.992   1.474   8.738  0.1099  0.2201 -0.4627
 2413SOL    HW218702   0.941   1.472   8.869  0.0598 -5.5482 -3.7901
 2414SOL     OW18703   4.058   3.199   4.681 -0.6776  0.3885  0.9608
 2414SOL    HW118704   3.984   3.257   4.666 -1.0352 -0.5760 -1.0188
 2414SOL    HW218705   4.016   3.114   4.697  0.7763 -0.2586  1.3980
 2415SOL     OW18706   1.220   4.057   5.863 -0.3017  0.2785 -0.1438
 2415SOL    HW118707   1.247   4.002   5.790 -0.2990 -0.2313  0.2407
 2415SOL    HW218708   1.275   4.018   5.931 -0.9361  1.1918  0.8958
 2416SOL     OW18709   1.973   0.058   5.398  0.0754 -0.0429 -0.4815
 2416SOL    HW118710   2.006   0.144   5.422 -2.2429  0.7166 -0.0073
 2416SOL    HW218711   2.052   0.014   5.428 -1.0258 -2.4351 -1.0871
 2417SOL     OW18712   3.118   2.297   3.335  0.4019  0.2588 -0.4144
 2417SOL    HW118713   3.115   2.374   3.392  4.1421  0.7684 -0.9040
 2417SOL    HW218714   3.196   2.304   3.280 -0.1710 -0.2502 -1.2863
 2418SOL     OW18715   1.589   4.665  11.775  0.4099  0.0218  0.3652
 2418SOL    HW118716   1.585   4.674  11.680  0.8443  2.1878  0.5377
 2418SOL    HW218717   1.501   4.633  11.795  0.1591  0.6145  0.2194
 2419SOL     OW18718   4.608   4.601   8.686  0.3604  0.5086  0.0532
 2419SOL    HW118719   4.516   4.619   8.665 -0.8742 -2.9860  2.4467
 2419SOL    HW218720   4.633   4.575   8.598 -2.5343 -0.2153 -0.5652
 2420SOL     OW18721   1.233   3.155   2.447 -0.0884  0.2437 -0.0308
 2420SOL    HW118722   1.211   3.147   2.354 -0.5985 -1.5238  0.2480
 2420SOL    HW218723   1.296   3.228   2.442 -1.0146  1.0152 -0.5686
 2421SOL     OW18724   0.949   3.624   3.808 -0.2354  0.3588 -0.1854
 2421SOL    HW118725   1.042   3.613   3.785  0.3876  1.9080  1.5984
 2421SOL    HW218726   0.910   3.617   3.721  0.1275 -1.9571 -0.1716
 2422SOL     OW18727   1.108   2.355  10.294 -0.0087 -0.0713  0.3690
 2422SOL    HW118728   1.175   2.286  10.292 -1.4812 -1.5798  1.8842
 2422SOL    HW218729   1.039   2.300  10.331  0.4889 -0.7952  0.2239
 2423SOL     OW18730   3.355   0.611   7.292  0.2577 -0.0526  0.1647
 2423SOL    HW118731   3.404   0.531   7.305 -0.6922 -1.1548 -3.1596
 2423SOL    HW218732   3.401   0.648   7.217 -1.8272 -0.3847 -1.2845
 2424SOL     OW18733   3.053   2.164   6.898  0.3806  0.1641  0.3361
 2424SOL    HW118734   3.070   2.207   6.814  2.4740  1.1786  1.2971
 2424SOL    HW218735   3.040   2.238   6.958  0.6103 -0.5740  1.2866
 2425SOL     OW18736   4.346   0.608  16.491 -0.1995  0.3320 -0.1887
 2425SOL    HW118737   4.366   0.549  16.418  1.9370 -1.4665  1.8900
 2425SOL    HW218738   4.414   0.597  16.557  0.5105 -0.6198 -1.0916
 2426SOL     OW18739   2.684   1.957   3.427 -0.3200  0.2317  0.3296
 2426SOL    HW118740   2.760   2.015   3.433 -0.7116  0.8621 -0.7845
 2426SOL    HW218741   2.630   2.006   3.489 -1.3377 -0.2994 -0.1380
 2427SOL     OW18742   2.802   3.516   6.164 -0.4358 -0.2353  0.3474
 2427SOL    HW118743   2.798   3.562   6.080  0.4424  1.5430  1.2910
 2427SOL    HW218744   2.776   3.589   6.219  0.8324 -0.3091  1.0296
 2428SOL     OW18745   1.040   1.755   4.643 -0.1730 -0.6995  0.0869
 2428SOL    HW118746   0.974   1.778   4.579  2.4847 -0.2447 -2.4915
 2428SOL    HW218747   0.986   1.711   4.708 -2.7022  1.2900 -0.6706
 2429SOL     OW18748   2.319   3.209   6.169  0.2783 -0.4420  0.2738
 2429SOL    HW118749   2.353   3.122   6.189  0.1800 -0.3833  0.7032
 2429SOL    HW218750   2.400   3.260   6.176  0.2722 -0.2650 -0.8934
 2430SOL     OW18751   2.466   2.867   8.002  0.0674 -0.6439  0.0971
 2430SOL    HW118752   2.556   2.862   8.035 -0.2802  1.0442  1.3404
 2430SOL    HW218753   2.461   2.963   7.998 -1.6273 -0.6398  2.3345
 2431SOL     OW18754   2.081   1.138   4.673 -0.3398  0.1449 -0.1258
 2431SOL    HW118755   2.069   1.072   4.741  0.1775 -1.7631 -1.8760
 2431SOL    HW218756   2.100   1.086   4.595  2.0528 -0.0433  0.5856
 2432SOL     OW18757   3.437   1.665   6.523 -0.2623 -0.0812  0.0759
 2432SOL    HW118758   3.508   1.707   6.474 -0.2646  0.4983  0.5733
 2432SOL    HW218759   3.482   1.647   6.606 -0.3725 -0.0674  0.1384
 2433SOL     OW18760   0.554   3.179  12.811 -0.2597  0.0364 -0.1755
 2433SOL    HW118761   0.629   3.239  12.810  0.6454 -1.0863 -0.2931
 2433SOL    HW218762   0.536   3.177  12.717  2.1312 -1.1930 -0.6222
 2434SOL     OW18763   0.570   2.743   9.686 -0.0318  0.5173 -0.4333
 2434SOL    HW118764   0.630   2.682   9.729 -1.7140  1.2068  2.9032
 2434SOL    HW218765   0.500   2.685   9.655 -0.0570  0.2217  0.1704
 2435SOL     OW18766   4.506   2.545   7.949  0.2561 -0.4753  0.0089
 2435SOL    HW118767   4.445   2.473   7.936  1.5460 -1.3464 -1.1865
 2435SOL    HW218768   4.517   2.571   7.857  0.4637 -0.9522 -0.0993
 2436SOL     OW18769   1.448   2.362  11.269 -0.4379  0.7899 -0.1555
 2436SOL    HW118770   1.358   2.392  11.282  0.3742  2.7827  0.9135
 2436SOL    HW218771   1.501   2.428  11.314 -2.2621  0.9356  1.7863
 2437SOL     OW18772   4.427   2.965   7.272 -0.0566  0.0087 -0.5402
 2437SOL    HW118773   4.361   3.035   7.267  1.2317  1.3009  0.2803
 2437SOL    HW218774   4.440   2.973   7.178  0.1560  0.1786 -0.4949
 2438SOL     OW18775   3.407   2.122   2.369  0.1708 -0.4177 -0.3011
 2438SOL    HW118776   3.345   2.067   2.418  0.1883  0.3430  0.5793
 2438SOL    HW218777   3.478   2.059   2.357  0.6487  0.5278 -2.3716
 2439SOL     OW18778   4.512   2.434   1.119 -0.6320 -0.1668 -0.3236
 2439SOL    HW118779   4.539   2.403   1.033 -0.9965 -1.0060 -0.1433
 2439SOL    HW218780   4.589   2.404   1.167 -1.0363 -1.3196 -0.3741
 2440SOL     OW18781   2.374   1.803   7.223 -0.3920 -0.0485 -0.0680
 2440SOL    HW118782   2.425   1.734   7.265 -0.5054 -1.0025 -1.4852
 2440SOL    HW218783   2.312   1.811   7.295  1.6619  1.5465  1.5449
 2441SOL     OW18784   4.614   3.203   8.176  0.3627  0.1340  0.3377
 2441SOL    HW118785   4.522   3.211   8.149  0.1166  3.3936  2.1993
 2441SOL    HW218786   4.621   3.264   8.249  1.8156 -1.0079  1.1483
 2442SOL     OW18787   2.768   2.235  12.299  0.2711 -0.6118 -0.2098
 2442SOL    HW118788   2.838   2.215  12.363 -0.0117 -1.0751 -0.0418
 2442SOL    HW218789   2.751   2.149  12.259 -1.1504  1.4988 -4.0881
 2443SOL     OW18790   4.171   1.008  13.325  0.4475 -0.5673 -0.2146
 2443SOL    HW118791   4.261   0.979  13.309  1.4048  1.8623  0.6900
 2443SOL    HW218792   4.131   0.952  13.259  1.6702 -0.2764 -1.2137
 2444SOL     OW18793   0.286   1.927   9.013  0.8160  0.8791  0.1085
 2444SOL    HW118794   0.337   1.882   8.946  0.3344 -0.6836  0.7871
 2444SOL    HW218795   0.247   1.851   9.057 -1.1517  1.8406  0.0248
 2445SOL     OW18796   3.074   1.977  10.084  0.1868 -0.3295  0.1802
 2445SOL    HW118797   3.052   2.069  10.069 -1.2117 -0.6550  0.2345
 2445SOL    HW218798   3.100   1.952   9.995 -0.3248  0.7034 -0.2626
 2446SOL     OW18799   1.385   3.913   6.014  0.2291 -0.1001  0.0989
 2446SOL    HW118800   1.440   3.854   5.963  0.1229  0.7285 -0.9812
 2446SOL    HW218801   1.438   3.993   6.006  0.0505  0.1151  1.0633
 2447SOL     OW18802   3.276   2.521   3.050 -0.1502 -0.0265 -0.2361
 2447SOL    HW118803   3.272   2.583   3.122 -2.7172 -1.0797  0.5252
 2447SOL    HW218804   3.364   2.482   3.057 -0.6891 -1.2288 -0.1231
 2448SOL     OW18805   0.941   2.189  10.410 -0.0869 -1.1204 -0.2269
 2448SOL    HW118806   0.880   2.203  10.482 -1.0398  1.2564 -1.5071
 2448SOL    HW218807   0.985   2.111  10.445 -1.4598 -1.2088  1.3073
 2449SOL     OW18808   4.435   3.258  17.120 -0.7583 -0.1851  0.4864
 2449SOL    HW118809   4.446   3.275  17.027 -0.8126  2.4537  0.9427
 2449SOL    HW218810   4.523   3.258  17.157 -1.2990  1.8052  1.8067
 2450SOL     OW18811   1.130   1.604   6.298 -0.3913 -0.4021  0.4407
 2450SOL    HW118812   1.085   1.545   6.359  0.5431 -1.9476 -0.3743
 2450SOL    HW218813   1.179   1.544   6.242  0.5311  1.4129 -0.6900
 2451SOL     OW18814   2.389   3.603   6.451  0.8677 -0.1716 -0.2623
 2451SOL    HW118815   2.313   3.626   6.398 -0.2249  0.7405  1.7283
 2451SOL    HW218816   2.374   3.670   6.517  0.5185 -0.0134 -0.5055
 2452SOL     OW18817   4.426   2.779   8.955  0.6059  0.3294  0.0953
 2452SOL    HW118818   4.347   2.819   8.918  1.0389 -0.1237 -1.3472
 2452SOL    HW218819   4.422   2.819   9.042  1.9926  0.5201  0.0735
 2453SOL     OW18820   1.103   2.313   3.014 -0.9038 -0.5264  0.1687
 2453SOL    HW118821   1.123   2.253   2.941  0.3003 -0.0517  0.1139
 2453SOL    HW218822   1.176   2.373   2.997  0.0727 -1.2528  1.8310
 2454SOL     OW18823   3.617   0.757   7.139 -0.0283  0.0429 -0.2899
 2454SOL    HW118824   3.687   0.739   7.202  0.8717 -0.3510 -1.3953
 2454SOL    HW218825   3.665   0.821   7.086  0.9542 -0.1421  0.3804
 2455SOL     OW18826   4.274   1.539   7.731 -0.3967  0.1111 -0.2504
 2455SOL    HW118827   4.264   1.538   7.827  1.8195  0.5407 -0.0316
 2455SOL    HW218828   4.369   1.529   7.733 -0.2424  1.8354  0.7817
 2456SOL     OW18829   3.985   4.473  11.995  0.1602 -0.0706  0.1311
 2456SOL    HW118830   4.060   4.529  11.972  0.1859  0.0932  0.6064
 2456SOL    HW218831   3.971   4.416  11.919  2.1379 -0.5550  0.1354
 2457SOL     OW18832   2.815   2.503   7.219  0.0911 -0.2828 -0.7322
 2457SOL    HW118833   2.846   2.568   7.156 -0.2591 -2.7058 -3.3744
 2457SOL    HW218834   2.719   2.502   7.219  0.0676  0.6965  1.0460
 2458SOL     OW18835   3.666   3.320   3.571 -0.1664 -0.8330  0.4977
 2458SOL    HW118836   3.721   3.285   3.641  1.3867  1.3740  0.3742
 2458SOL    HW218837   3.712   3.287   3.494  1.1400  0.3985  0.7509
 2459SOL     OW18838   2.988   0.544   3.344 -0.6107  1.2752 -0.2810
 2459SOL    HW118839   3.062   0.588   3.387  0.6974  0.4925 -1.7272
 2459SOL    HW218840   2.996   0.588   3.259 -0.5491  3.0120  0.6271
 2460SOL     OW18841   4.180   4.122  11.943 -0.7220  0.1604  0.1258
 2460SOL    HW118842   4.117   4.078  11.886 -0.4277 -1.6163  1.1707
 2460SOL    HW218843   4.126   4.171  12.005 -1.9825 -2.6840  1.2966
 2461SOL     OW18844   4.613   0.221   5.786  0.5380 -0.8297  0.6555
 2461SOL    HW118845   4.705   0.205   5.768  0.3172 -2.6072  1.1659
 2461SOL    HW218846   4.574   0.218   5.698 -0.6592  1.5599  1.0842
 2462SOL     OW18847   0.265   3.258   8.582 -0.0140 -0.6427 -0.1982
 2462SOL    HW118848   0.272   3.285   8.490  0.4441  0.5479  0.1857
 2462SOL    HW218849   0.170   3.256   8.580 -0.0853  0.8881  1.2738
 2463SOL     OW18850   1.654   2.107   8.263  0.1275 -0.4824 -0.2157
 2463SOL    HW118851   1.649   2.015   8.291  0.5727 -0.7146 -0.8927
 2463SOL    HW218852   1.685   2.098   8.172  1.1176  0.7748  0.0039
 2464SOL     OW18853   0.920   0.172   1.174 -0.2904  0.0251 -0.4108
 2464SOL    HW118854   0.900   0.099   1.233  1.1903 -1.4711 -1.7504
 2464SOL    HW218855   0.852   0.233   1.204 -0.7627 -1.0457  0.7355
 2465SOL     OW18856   3.799   1.786   6.134  0.3643  0.2047  0.2675
 2465SOL    HW118857   3.763   1.802   6.047  0.9166 -0.4037 -0.0716
 2465SOL    HW218858   3.889   1.817   6.126  1.3032 -2.7343 -0.7566
 2466SOL     OW18859   4.259   2.719   2.967 -0.1306  0.1849 -0.4329
 2466SOL    HW118860   4.181   2.716   2.913  0.3907  2.2855 -1.3152
 2466SOL    HW218861   4.231   2.787   3.029 -0.5045  1.8039 -2.3611
 2467SOL     OW18862   1.003   2.274  16.467 -0.4443 -0.0253 -0.0344
 2467SOL    HW118863   0.914   2.286  16.434  0.3057 -2.5882 -2.9721
 2467SOL    HW218864   0.983   2.273  16.561  0.1655  1.3669  0.1050
 2468SOL     OW18865   1.659   4.498   3.157  0.3489  0.1378 -0.0024
 2468SOL    HW118866   1.570   4.463   3.149  1.0259 -1.9240  1.5349
 2468SOL    HW218867   1.721   4.432   3.127  2.4538  1.5326  1.2087
 2469SOL     OW18868   0.756   1.325   2.640 -0.0122 -0.0209  0.1528
 2469SOL    HW118869   0.702   1.302   2.564  0.5445  0.2889 -0.3329
 2469SOL    HW218870   0.843   1.331   2.601  0.8434 -0.8810  1.9440
 2470SOL     OW18871   2.355   2.847   5.541 -0.8848  0.3487 -0.9584
 2470SOL    HW118872   2.322   2.861   5.452 -0.6634  1.6718 -0.8262
 2470SOL    HW218873   2.376   2.755   5.522  0.3202  0.4177  0.0417
 2471SOL     OW18874   3.032   0.048   3.904 -0.4941  0.4581 -0.2606
 2471SOL    HW118875   3.083   0.051   3.823  0.0290 -0.6785  0.0296
 2471SOL    HW218876   3.066   0.128   3.945 -2.5682  1.1636  0.0724
 2472SOL     OW18877   2.119   3.313   7.644  0.3644  0.2551  0.4206
 2472SOL    HW118878   2.068   3.275   7.716  1.3604 -0.0555  0.9567
 2472SOL    HW218879   2.067   3.386   7.610 -1.0273 -0.5392  0.8160
 2473SOL     OW18880   3.765   1.997  16.635  0.1491 -0.5449 -0.5788
 2473SOL    HW118881   3.852   2.038  16.638 -0.9316  1.5581  2.1625
 2473SOL    HW218882   3.717   2.032  16.710 -0.5097 -2.7665  0.0335
 2474SOL     OW18883   4.012   3.883   2.154  0.1169 -0.0745 -0.1448
 2474SOL    HW118884   3.956   3.816   2.113 -0.3503  0.4056 -0.2895
 2474SOL    HW218885   4.004   3.961   2.101  0.4637  0.7836  1.0636
 2475SOL     OW18886   2.178   2.930   5.742 -0.2412  0.5536  0.4676
 2475SOL    HW118887   2.224   2.875   5.679  1.8453 -0.1308  2.5756
 2475SOL    HW218888   2.253   2.977   5.779  1.0288 -0.7671 -0.4158
 2476SOL     OW18889   2.049   1.259  16.301  0.2785 -0.3666 -0.6615
 2476SOL    HW118890   2.049   1.279  16.207 -1.9544  2.8358  0.0258
 2476SOL    HW218891   2.113   1.188  16.298  1.1578  0.3059  2.3472
 2477SOL     OW18892   2.737   4.027   0.767 -0.3387 -0.0096  0.7138
 2477SOL    HW118893   2.753   4.121   0.760  2.1139 -0.5210 -0.7827
 2477SOL    HW218894   2.658   4.016   0.714  0.7762 -0.5034 -0.8419
 2478SOL     OW18895   1.990   4.477   7.754 -0.3085 -0.4314  0.6366
 2478SOL    HW118896   2.068   4.523   7.783 -2.3915  3.1297  0.6319
 2478SOL    HW218897   1.948   4.447   7.835 -2.0782 -0.4574 -0.2921
 2479SOL     OW18898   3.526   4.032   6.325  0.0649 -0.1577 -0.2846
 2479SOL    HW118899   3.480   4.019   6.408  0.6494  2.3208  0.4268
 2479SOL    HW218900   3.608   3.991   6.355 -0.9314 -0.7941  1.5571
 2480SOL     OW18901   2.807   0.982   5.507  0.4706 -0.2935 -0.1563
 2480SOL    HW118902   2.805   1.030   5.590 -0.8390 -0.5267 -0.0445
 2480SOL    HW218903   2.772   0.896   5.531 -1.4241  0.7590  0.8683
 2481SOL     OW18904   4.298   3.029   8.253  0.7097 -0.1595 -0.2903
 2481SOL    HW118905   4.332   3.051   8.166 -1.5191 -1.8088 -1.5832
 2481SOL    HW218906   4.352   2.952   8.270  0.7384 -0.1060 -0.1352
 2482SOL     OW18907   1.947   0.145   4.732 -0.0390  0.3111 -0.8210
 2482SOL    HW118908   1.887   0.165   4.661 -0.1353 -3.0653 -1.6872
 2482SOL    HW218909   2.008   0.095   4.678  1.2607  2.8898 -1.7165
 2483SOL     OW18910   1.754   1.698   9.220  0.1516  0.7214 -0.6881
 2483SOL    HW118911   1.680   1.656   9.265  1.9251 -2.1165 -0.4735
 2483SOL    HW218912   1.715   1.757   9.155 -0.0828  1.2410 -0.0697
 2484SOL     OW18913   1.182   0.409  13.022  0.5121  0.4297 -0.0212
 2484SOL    HW118914   1.213   0.490  13.062  0.0436  0.9698 -0.7647
 2484SOL    HW218915   1.229   0.340  13.069  0.5232  0.2936 -0.2313
 2485SOL     OW18916   3.590   0.912   5.907 -0.5349  0.5785  0.1023
 2485SOL    HW118917   3.558   0.846   5.968  1.6177 -1.5790 -1.1489
 2485SOL    HW218918   3.541   0.990   5.935 -0.6350 -0.1067  1.7988
 2486SOL     OW18919   2.270   0.423   3.042  0.4696 -0.2968 -0.6590
 2486SOL    HW118920   2.180   0.399   3.020  1.0067 -2.0244 -1.0078
 2486SOL    HW218921   2.269   0.452   3.133 -1.9056 -2.3409 -0.0243
 2487SOL     OW18922   3.528   0.025   5.937 -0.1558  0.1257 -0.1833
 2487SOL    HW118923   3.539   0.120   5.933  1.2208 -0.0809 -1.0558
 2487SOL    HW218924   3.438   0.019   5.905 -0.0125 -0.3085 -0.5075
 2488SOL     OW18925   3.059   1.337   9.408  0.2915 -0.0372 -0.2822
 2488SOL    HW118926   3.045   1.417   9.358  0.0046  2.4644  3.7708
 2488SOL    HW218927   2.978   1.291   9.385  0.2413  0.1740 -0.5190
 2489SOL     OW18928   4.163   0.261  14.985 -0.0394  0.1350  0.0011
 2489SOL    HW118929   4.237   0.247  14.926 -1.1733 -3.4843 -0.5415
 2489SOL    HW218930   4.189   0.217  15.065 -2.1786  1.0297  1.2016
 2490SOL     OW18931   4.666   4.411   6.230  0.0964 -0.7609  0.7039
 2490SOL    HW118932   4.571   4.396   6.232  0.3765 -2.8436 -1.2931
 2490SOL    HW218933   4.668   4.481   6.296  0.5485  0.5271 -0.6879
 2491SOL     OW18934   4.409   2.803  10.899  0.2848  0.2559  0.3705
 2491SOL    HW118935   4.409   2.889  10.942  2.3129  0.9602 -1.0347
 2491SOL    HW218936   4.325   2.770  10.930 -0.5486  2.7275  0.7685
 2492SOL     OW18937   4.105   0.443   3.747  0.2743  0.6377  0.3076
 2492SOL    HW118938   4.072   0.524   3.788  2.9402  1.3944  0.9910
 2492SOL    HW218939   4.178   0.414   3.802 -0.6098  0.7093  1.5181
 2493SOL     OW18940   4.519   0.432   6.899  1.0102  0.2605  0.0983
 2493SOL    HW118941   4.507   0.337   6.902  1.2976  0.2254  0.1008
 2493SOL    HW218942   4.572   0.441   6.978 -0.2638  1.9665  0.7632
 2494SOL     OW18943   1.249   3.259   6.479 -0.6101 -0.0442 -0.0404
 2494SOL    HW118944   1.314   3.295   6.418  0.6582 -2.3348 -0.0590
 2494SOL    HW218945   1.282   3.280   6.566 -1.5972  2.2772 -0.2309
 2495SOL     OW18946   0.345   3.899  11.728 -0.0119 -0.3940 -0.3491
 2495SOL    HW118947   0.416   3.835  11.735  0.6560  0.2336 -1.3579
 2495SOL    HW218948   0.339   3.927  11.819 -0.2756 -0.0777 -0.4618
 2496SOL     OW18949   0.959   1.819  15.978 -0.0452 -0.5477  0.1990
 2496SOL    HW118950   0.974   1.739  16.028 -1.1365 -0.3932  0.7699
 2496SOL    HW218951   0.869   1.802  15.951  0.1998  1.8635 -2.2470
 2497SOL     OW18952   2.334   4.602   4.177 -0.1511 -0.0906 -0.0718
 2497SOL    HW118953   2.256   4.573   4.224 -0.5107 -1.1961 -1.3269
 2497SOL    HW218954   2.399   4.535   4.202 -0.9762 -0.3619  1.3523
 2498SOL     OW18955   1.620   4.545   5.079  0.3839 -0.5709  0.3243
 2498SOL    HW118956   1.570   4.590   5.146 -0.8429 -0.6229 -0.5521
 2498SOL    HW218957   1.708   4.548   5.117  1.1089  2.1783 -1.5905
 2499SOL     OW18958   3.171   2.599  17.364 -0.3352  0.0393  0.0885
 2499SOL    HW118959   3.259   2.627  17.389 -0.0174  0.1017 -1.1171
 2499SOL    HW218960   3.106   2.633  17.426 -1.7300 -1.4748 -0.5494
 2500SOL     OW18961   3.993   3.054   0.199  0.2976  0.1366 -0.2507
 2500SOL    HW118962   3.972   3.041   0.107 -0.2892 -1.3038  0.0859
 2500SOL    HW218963   3.953   2.978   0.242  1.9288 -1.2082 -1.1202
 2501SOL     OW18964   0.672   0.871   2.152 -0.3167  0.2752 -0.0676
 2501SOL    HW118965   0.760   0.861   2.116 -0.1387 -0.5982  0.6140
 2501SOL    HW218966   0.621   0.877   2.071 -1.6603 -1.2150  0.6625
 2502SOL     OW18967   1.143   1.620   7.183 -0.1237  0.1627 -0.0349
 2502SOL    HW118968   1.236   1.598   7.195 -0.2374 -0.0635  0.4588
 2502SOL    HW218969   1.142   1.716   7.183  0.0671  0.1654  0.9658
 2503SOL     OW18970   1.605   3.848   2.826  0.1398  0.1381 -0.4726
 2503SOL    HW118971   1.614   3.814   2.737 -0.1299  0.7704 -0.7411
 2503SOL    HW218972   1.671   3.793   2.868 -0.0074  0.5818  0.3421
 2504SOL     OW18973   3.978   0.199  15.325 -0.0138 -0.4206  0.6016
 2504SOL    HW118974   3.972   0.293  15.342 -0.2830 -0.3077 -0.1001
 2504SOL    HW218975   3.918   0.190  15.251 -2.0204 -2.0211  2.4208
 2505SOL     OW18976   1.549   0.523  15.421  0.7541 -0.6129  0.1528
 2505SOL    HW118977   1.528   0.436  15.453  1.0036 -0.8528 -0.3308
 2505SOL    HW218978   1.503   0.528  15.337  0.1159 -1.2781  0.4702
 2506SOL     OW18979   0.754   4.478   9.407  0.6040 -0.2274 -0.1235
 2506SOL    HW118980   0.772   4.531   9.329 -0.4724  0.9357  0.4112
 2506SOL    HW218981   0.663   4.452   9.395  0.0427  2.3054 -1.5572
 2507SOL     OW18982   0.953   1.457   5.522  0.2268  0.1940  0.8342
 2507SOL    HW118983   1.012   1.466   5.447  0.6824  0.6397  1.2435
 2507SOL    HW218984   0.871   1.485   5.482  0.7741  0.1477 -0.3204
 2508SOL     OW18985   3.692   2.233   1.782  0.2755 -0.0499  0.0581
 2508SOL    HW118986   3.606   2.245   1.742  0.8987  3.6897 -0.1038
 2508SOL    HW218987   3.745   2.224   1.703 -2.4453  2.2593 -2.0085
 2509SOL     OW18988   0.684   0.113   2.318 -0.0928  0.4530  0.4676
 2509SOL    HW118989   0.724   0.088   2.235 -0.0689  1.3968  0.1940
 2509SOL    HW218990   0.748   0.175   2.354 -0.5653  0.4834  1.2646
 2510SOL     OW18991   4.434   0.903   5.784 -0.1149  0.2119 -0.6067
 2510SOL    HW118992   4.353   0.925   5.829  0.2668 -1.6554  0.9842
 2510SOL    HW218993   4.496   0.916   5.855  0.7997  0.8432 -1.5260
 2511SOL     OW18994   0.563   3.658   0.578  0.2536 -0.5625  0.5147
 2511SOL    HW118995   0.631   3.699   0.630 -1.2262  0.0816  1.9589
 2511SOL    HW218996   0.617   3.614   0.512 -2.0769 -1.2989 -0.9393
 2512SOL     OW18997   3.951   2.287   2.735 -0.8593  0.9530  0.4133
 2512SOL    HW118998   4.016   2.232   2.778  1.0860  0.4785 -3.0726
 2512SOL    HW218999   3.938   2.231   2.658  0.5848 -0.5101  1.2390
 2513SOL     OW19000   0.835   0.076  16.453 -0.3388 -0.6087  0.0063
 2513SOL    HW119001   0.810   4.704  16.448  1.8581 -1.2476  0.8128
 2513SOL    HW219002   0.930   0.077  16.441 -0.0725  1.4170  2.1801
 2514SOL     OW19003   3.186   4.489  11.878 -0.5874 -0.2031 -0.2195
 2514SOL    HW119004   3.157   4.579  11.860  0.2909  0.8014  3.3827
 2514SOL    HW219005   3.113   4.432  11.855 -0.0583 -0.9867  0.0517
 2515SOL     OW19006   3.844   2.653   1.309  0.6121 -0.1199  0.0988
 2515SOL    HW119007   3.803   2.588   1.367  0.4951 -0.2158 -0.0905
 2515SOL    HW219008   3.915   2.686   1.363 -0.5992  3.0929 -0.2834
 2516SOL     OW19009   4.181   4.623   9.582 -0.2201 -0.3899 -0.4711
 2516SOL    HW119010   4.141   4.687   9.641 -0.9472 -3.0889  1.9962
 2516SOL    HW219011   4.229   4.667   9.513 -0.1554  0.0444 -0.1504
 2517SOL     OW19012   1.292   0.024   6.761  0.0126  0.5723 -0.0784
 2517SOL    HW119013   1.346   4.686   6.815  2.4283  2.2448 -0.7075
 2517SOL    HW219014   1.208   4.698   6.765  0.0122  0.6121  0.4698
 2518SOL     OW19015   4.189   3.114   2.575  0.2048  0.4671  0.1830
 2518SOL    HW119016   4.100   3.088   2.554 -0.2863  0.1146  2.7186
 2518SOL    HW219017   4.175   3.197   2.620  1.0555  0.1400  1.0551
 2519SOL     OW19018   3.641   4.691   8.927  0.1872  0.3272  0.4270
 2519SOL    HW119019   3.575   4.678   8.996  0.7697  3.5795  1.6157
 2519SOL    HW219020   3.657   0.064   8.942 -2.1310  1.0521 -1.6907
 2520SOL     OW19021   3.694   4.289   7.777  0.0011  0.1308 -0.4557
 2520SOL    HW119022   3.632   4.348   7.821  1.3999  2.3946 -1.5121
 2520SOL    HW219023   3.776   4.303   7.825 -0.8498 -0.3313  1.1261
 2521SOL     OW19024   2.825   3.106  10.853 -0.2531 -0.2347  0.0541
 2521SOL    HW119025   2.901   3.154  10.822  1.7157 -3.7738 -0.6453
 2521SOL    HW219026   2.846   3.080  10.943 -0.4640 -1.0557 -0.1314
 2522SOL     OW19027   0.958   2.723   8.347  0.5742  0.3559 -0.4027
 2522SOL    HW119028   0.960   2.816   8.325  1.3651  0.5954  0.7000
 2522SOL    HW219029   0.872   2.721   8.388  1.1565  1.7820  0.8869
 2523SOL     OW19030   0.391   0.351   2.125  1.2995  0.0051 -0.1793
 2523SOL    HW119031   0.322   0.383   2.067  0.6586 -0.5190  0.2977
 2523SOL    HW219032   0.417   0.430   2.171 -0.0975 -1.1752  2.6510
 2524SOL     OW19033   4.140   2.309   8.828 -0.2807  0.3503  0.0082
 2524SOL    HW119034   4.218   2.263   8.858 -1.4015 -1.9992 -0.6106
 2524SOL    HW219035   4.176   2.373   8.767 -0.3087  0.7081  0.3733
 2525SOL     OW19036   3.674   4.074  11.991 -0.4292  0.2595 -0.2785
 2525SOL    HW119037   3.592   4.114  12.021 -1.0468  0.1046 -1.7448
 2525SOL    HW219038   3.656   3.982  11.973 -1.6529  0.4101  0.1378
 2526SOL     OW19039   1.283   2.982   6.486 -0.3025  0.3201  0.2110
 2526SOL    HW119040   1.208   3.033   6.517 -0.6274  0.7220 -1.2350
 2526SOL    HW219041   1.330   3.045   6.431 -1.4577  0.5124 -0.5643
 2527SOL     OW19042   4.002   1.085   0.765 -0.9800  0.2786 -0.3926
 2527SOL    HW119043   4.000   1.159   0.826 -2.9983 -0.6941  0.7115
 2527SOL    HW219044   3.965   1.011   0.813  0.3539  0.1178  0.4036
 2528SOL     OW19045   3.404   3.854   4.415  0.1153 -0.6414  0.2686
 2528SOL    HW119046   3.410   3.801   4.495  0.6120 -1.9191 -0.6173
 2528SOL    HW219047   3.474   3.807   4.370 -0.5946  1.9284 -3.5590
 2529SOL     OW19048   2.585   4.250   7.126  0.1668 -0.9638 -0.3296
 2529SOL    HW119049   2.613   4.340   7.112 -0.5929 -0.5836  0.6130
 2529SOL    HW219050   2.511   4.250   7.065 -1.0343  1.9472  1.1850
 2530SOL     OW19051   1.989   0.087   1.709 -0.5450  0.2672  0.2828
 2530SOL    HW119052   2.044   0.016   1.742 -1.7583 -1.1207 -0.6163
 2530SOL    HW219053   2.015   0.094   1.617 -1.9351  0.4229 -0.1118
 2531SOL     OW19054   0.456   1.694   8.294 -0.2452 -0.1154 -0.8146
 2531SOL    HW119055   0.390   1.721   8.230  1.4445  1.9290 -1.6548
 2531SOL    HW219056   0.504   1.776   8.304  0.0700 -0.6544  2.0891
 2532SOL     OW19057   3.370   3.000   5.523  0.8442 -0.4998  0.4351
 2532SOL    HW119058   3.463   3.021   5.535  0.2201  1.9836  0.8482
 2532SOL    HW219059   3.332   3.087   5.527  1.3665 -0.2203 -0.5264
 2533SOL     OW19060   2.186   3.635   7.067 -0.1784  0.9220  0.4107
 2533SOL    HW119061   2.102   3.680   7.058 -1.0566 -0.8313 -0.1177
 2533SOL    HW219062   2.200   3.598   6.980 -1.5091 -1.0741  1.0476
 2534SOL     OW19063   3.061   0.968   5.430 -0.5441  0.3390 -0.2048
 2534SOL    HW119064   2.966   0.979   5.426 -0.7999 -1.4697  0.8014
 2534SOL    HW219065   3.093   1.052   5.463  1.0205  0.1134 -1.1629
 2535SOL     OW19066   4.573   1.426   6.081 -0.4458 -0.6100  0.0245
 2535SOL    HW119067   4.655   1.462   6.046  0.2524  0.3220  2.6189
 2535SOL    HW219068   4.604   1.336   6.085  2.1151  0.2648  0.1551
 2536SOL     OW19069   0.552   1.373   5.613 -0.1320 -0.1100  0.4411
 2536SOL    HW119070   0.503   1.439   5.662  0.2976 -0.2334  1.0436
 2536SOL    HW219071   0.627   1.417   5.572 -0.1973  0.4925  0.9718
 2537SOL     OW19072   0.208   0.678   4.042  0.3556 -1.1138 -0.3805
 2537SOL    HW119073   0.131   0.634   4.006  1.6531 -2.3353 -1.6534
 2537SOL    HW219074   0.246   0.609   4.096  0.6824 -0.8955 -0.3309
 2538SOL     OW19075   0.303   2.203   8.999 -0.7063  0.1341  0.3525
 2538SOL    HW119076   0.257   2.205   9.083 -2.6481  2.7309 -0.7843
 2538SOL    HW219077   0.275   2.115   8.973 -0.2436  0.4694 -1.2968
 2539SOL     OW19078   4.563   2.268   0.649 -0.2494 -0.2303 -0.3576
 2539SOL    HW119079   4.536   2.198   0.589 -0.2918 -0.3764 -0.1649
 2539SOL    HW219080   4.601   2.223   0.724 -0.2085  0.9646  0.3338
 2540SOL     OW19081   0.465   1.161  14.716  0.0040 -0.2158  0.2217
 2540SOL    HW119082   0.534   1.095  14.727 -1.1125 -1.3353  0.5851
 2540SOL    HW219083   0.461   1.197  14.804 -2.6089  0.9014 -0.3704
 2541SOL     OW19084   4.641   1.164   8.227 -0.4821  0.1315 -0.1084
 2541SOL    HW119085   4.672   1.181   8.138 -0.0693  1.6492  0.3404
 2541SOL    HW219086   4.701   1.094   8.255  0.3463  1.0022  0.2857
 2542SOL     OW19087   2.315   3.881   0.481  0.0933  0.0951  0.1795
 2542SOL    HW119088   2.310   3.867   0.386  2.0582  0.4943  0.0185
 2542SOL    HW219089   2.241   3.937   0.503 -1.0042 -0.2550 -2.6121
 2543SOL     OW19090   4.551   3.317   5.363  0.4684 -0.2074 -0.2022
 2543SOL    HW119091   4.557   3.253   5.292 -1.0051 -0.4529 -0.1014
 2543SOL    HW219092   4.462   3.346   5.344  0.4899  0.2385  0.3814
 2544SOL     OW19093   1.622   4.007   5.064  0.7814  0.5366 -0.8837
 2544SOL    HW119094   1.625   3.927   5.012 -0.9738  1.6945 -2.7351
 2544SOL    HW219095   1.662   4.062   4.997 -0.9856  1.2512 -1.3423
 2545SOL     OW19096   2.537   2.359   0.788 -0.7327 -1.1618  0.1645
 2545SOL    HW119097   2.462   2.414   0.765  1.5613  1.3559 -1.2874
 2545SOL    HW219098   2.544   2.377   0.881 -1.0454 -0.2806  0.0178
 2546SOL     OW19099   3.302   4.353  12.693 -0.1921  0.4278  0.0591
 2546SOL    HW119100   3.375   4.295  12.674 -0.0258  0.4624  0.5990
 2546SOL    HW219101   3.308   4.410  12.617 -1.9188  0.4044 -0.0928
 2547SOL     OW19102   4.174   1.480   2.396  0.1700  0.6111 -0.3006
 2547SOL    HW119103   4.175   1.568   2.434  0.1057  0.5928 -0.2564
 2547SOL    HW219104   4.251   1.469   2.340  0.1393  0.2450 -0.2691
 2548SOL     OW19105   4.109   2.504   4.507 -0.0364 -0.2674 -0.5103
 2548SOL    HW119106   4.097   2.467   4.595  0.7120  0.9969  0.1332
 2548SOL    HW219107   4.205   2.512   4.508 -0.1273  0.6328  1.7634
 2549SOL     OW19108   0.311   3.712   1.070  0.3140 -0.3558 -0.9951
 2549SOL    HW119109   0.402   3.726   1.097  0.9895 -3.3959 -1.7708
 2549SOL    HW219110   0.319   3.643   1.005 -1.5098  1.1662 -2.8488
 2550SOL     OW19111   2.089   4.158  10.917  0.1007 -0.0914 -0.0712
 2550SOL    HW119112   2.164   4.217  10.919 -1.3955  1.8604 -1.0810
 2550SOL    HW219113   2.031   4.195  10.850  2.3957  1.7563 -1.0676
 2551SOL     OW19114   0.136   3.134  10.716 -0.1106 -0.1640  0.2894
 2551SOL    HW119115   0.042   3.144  10.734 -0.0476  2.2245 -0.7493
 2551SOL    HW219116   0.148   3.176  10.631  1.9694 -1.1810  0.0774
 2552SOL     OW19117   2.525   0.068  16.356 -0.4433 -0.2665  0.5567
 2552SOL    HW119118   2.446   0.061  16.301 -0.7219  0.2256  0.8928
 2552SOL    HW219119   2.502   0.131  16.425 -1.4538  2.3848 -2.2389
 2553SOL     OW19120   1.650   1.972   8.734 -0.2486 -0.2193  0.0215
 2553SOL    HW119121   1.659   2.020   8.651 -1.2423 -0.9732 -0.5240
 2553SOL    HW219122   1.713   2.016   8.791 -0.6300  0.7998 -0.3500
 2554SOL     OW19123   0.916   1.411  17.612 -0.0241 -0.0600  1.4209
 2554SOL    HW119124   0.998   1.440  17.651  0.6179 -0.0653  0.0506
 2554SOL    HW219125   0.952   1.344  17.555 -2.9161 -1.2332  0.9912
 2555SOL     OW19126   1.794   3.017   1.151 -0.1181 -0.2149  0.1444
 2555SOL    HW119127   1.766   3.105   1.175 -0.0894 -0.1232 -0.1632
 2555SOL    HW219128   1.728   2.988   1.088  0.7114 -0.8094 -0.4588
 2556SOL     OW19129   4.214   1.062   8.006 -1.2126  0.3499  0.2756
 2556SOL    HW119130   4.265   0.993   7.963  1.6042  2.0380  0.8939
 2556SOL    HW219131   4.198   1.112   7.925 -1.3480 -1.2870 -0.7020
 2557SOL     OW19132   0.738   1.862  11.277  0.0513 -0.4838 -0.3530
 2557SOL    HW119133   0.695   1.947  11.269  1.5639  0.1830 -1.4034
 2557SOL    HW219134   0.678   1.805  11.230 -0.7584  0.4080 -0.4045
 2558SOL     OW19135   1.748   0.705  17.291 -0.3519  0.0949 -0.6632
 2558SOL    HW119136   1.791   0.665  17.215  0.7503  1.8069 -0.9387
 2558SOL    HW219137   1.805   0.782  17.289 -0.0709 -0.1255 -1.0439
 2559SOL     OW19138   1.203   4.504   7.838  0.5657  0.3428 -0.7373
 2559SOL    HW119139   1.286   4.546   7.860  0.0486  0.4089  1.0862
 2559SOL    HW219140   1.227   4.461   7.756 -1.1268 -3.9904  1.0205
 2560SOL     OW19141   3.969   0.710   1.909  0.2597  0.3872  0.5773
 2560SOL    HW119142   3.925   0.700   1.825 -1.9580  0.5844  1.7088
 2560SOL    HW219143   4.057   0.721   1.876  0.5222 -0.1699  1.0858
 2561SOL     OW19144   2.082   1.675   4.767  0.2816 -1.1324 -0.6416
 2561SOL    HW119145   2.127   1.618   4.829  1.2844  1.8260  1.3492
 2561SOL    HW219146   1.993   1.650   4.792 -1.6070  3.9973 -2.0693
 2562SOL     OW19147   1.591   0.698  12.742 -1.3721 -0.4815  0.2698
 2562SOL    HW119148   1.618   0.607  12.757  0.3508 -0.2093 -1.1921
 2562SOL    HW219149   1.499   0.681  12.718 -1.3405 -0.8902  0.4381
 2563SOL     OW19150   1.473   1.220  12.455  0.4285  0.3298 -0.9216
 2563SOL    HW119151   1.552   1.273  12.461  0.7983 -0.5361  1.7766
 2563SOL    HW219152   1.437   1.221  12.544  1.1261  1.4107 -0.6547
 2564SOL     OW19153   4.587   0.836   3.354 -0.4717 -0.5591  0.1795
 2564SOL    HW119154   4.638   0.770   3.307  1.6797  0.1747  1.4521
 2564SOL    HW219155   4.633   0.845   3.438  1.2247 -0.2783 -0.7781
 2565SOL     OW19156   1.791   4.033   8.269 -0.5956  0.1848 -0.4644
 2565SOL    HW119157   1.727   4.098   8.240 -0.8089 -0.4094 -1.3517
 2565SOL    HW219158   1.870   4.063   8.223 -0.6009 -1.2232 -1.3772
 2566SOL     OW19159   0.494   1.524   7.528 -0.1817 -0.2818  1.1249
 2566SOL    HW119160   0.446   1.441   7.523 -2.6230  1.0952  1.9918
 2566SOL    HW219161   0.501   1.530   7.623 -2.7786  0.2473  1.2765
 2567SOL     OW19162   1.466   3.591   7.680  0.6985  0.2459 -0.3540
 2567SOL    HW119163   1.509   3.518   7.635  0.6445 -0.6615  1.0441
 2567SOL    HW219164   1.450   3.550   7.765 -1.3073  2.3397  0.2615
 2568SOL     OW19165   2.254   4.132   5.273 -0.1484  0.0157  0.6170
 2568SOL    HW119166   2.323   4.198   5.276 -0.1415  0.0224  0.3246
 2568SOL    HW219167   2.217   4.142   5.185  0.2284 -1.4688  0.2803
 2569SOL     OW19168   2.806   3.495   2.727  0.3188  0.5294 -0.6055
 2569SOL    HW119169   2.795   3.487   2.632  0.0663 -1.2267 -0.4434
 2569SOL    HW219170   2.902   3.493   2.732  0.2597 -2.5219 -0.6687
 2570SOL     OW19171   2.354   0.050   0.780  0.6767 -0.3261 -0.2881
 2570SOL    HW119172   2.268   0.065   0.817  0.9095 -1.8992  0.8458
 2570SOL    HW219173   2.391   4.707   0.841  0.6264  0.6107  0.7047
 2571SOL     OW19174   1.101   2.806   1.801  0.5965 -0.2858 -0.4260
 2571SOL    HW119175   1.146   2.854   1.732  1.7619 -0.8399 -0.0613
 2571SOL    HW219176   1.045   2.751   1.747 -1.2331  1.3163 -0.1512
 2572SOL     OW19177   0.173   3.367  11.454  0.6180  0.2945  0.1327
 2572SOL    HW119178   0.256   3.415  11.454  0.6110  0.2993  0.8462
 2572SOL    HW219179   0.207   3.278  11.442 -0.6345 -0.1771  0.0750
 2573SOL     OW19180   1.809   2.421   0.529 -0.1686  0.6328  0.2334
 2573SOL    HW119181   1.794   2.507   0.489  1.0854  0.9416  0.4054
 2573SOL    HW219182   1.882   2.392   0.474 -1.4192  1.0616 -1.6353
 2574SOL     OW19183   1.464   4.607   6.931 -0.1299  0.1329 -0.5559
 2574SOL    HW119184   1.449   4.691   6.974  2.8685  1.5205 -2.2626
 2574SOL    HW219185   1.557   4.588   6.945 -0.0548  3.2247  3.1157
 2575SOL     OW19186   3.120   2.429   8.474  0.0940 -0.1052  0.7076
 2575SOL    HW119187   3.095   2.518   8.450 -0.4497 -1.1725 -2.6048
 2575SOL    HW219188   3.083   2.428   8.563 -1.2921  0.8685  0.1446
 2576SOL     OW19189   0.723   0.868   3.073 -0.1862  0.4285 -0.2960
 2576SOL    HW119190   0.757   0.782   3.095  0.4615  0.6375 -0.5068
 2576SOL    HW219191   0.673   0.852   2.993 -1.3153  0.0131  0.4857
 2577SOL     OW19192   4.602   0.668   3.689  0.1087 -0.6099  0.1212
 2577SOL    HW119193   4.656   0.746   3.677  1.4728 -2.0442 -3.1870
 2577SOL    HW219194   4.596   0.659   3.784  0.8404  0.7524  0.2938
 2578SOL     OW19195   4.291   0.743  15.493 -0.2307  0.1666 -0.1313
 2578SOL    HW119196   4.310   0.665  15.546  0.1985  1.4642  1.6311
 2578SOL    HW219197   4.319   0.813  15.553  0.8872  1.5174 -2.2121
 2579SOL     OW19198   1.701   3.677   2.628  0.3729 -0.9501  0.3800
 2579SOL    HW119199   1.759   3.735   2.578  1.2385 -2.9063 -0.8965
 2579SOL    HW219200   1.767   3.629   2.678  1.3926 -1.0822 -1.0773
 2580SOL     OW19201   3.901   0.131  12.639  0.1450  0.0279 -0.6279
 2580SOL    HW119202   3.877   0.061  12.578 -0.7267  0.3071 -0.5975
 2580SOL    HW219203   3.813   0.147  12.671  0.4661 -1.2492  0.9169
 2581SOL     OW19204   0.684   3.080  17.389 -0.5619  0.1360  0.2048
 2581SOL    HW119205   0.715   3.160  17.347 -0.2234 -0.1095 -0.0013
 2581SOL    HW219206   0.759   3.065  17.446  0.2908 -1.5741 -1.3762
 2582SOL     OW19207   2.751   4.627   2.054 -0.4600 -0.0139  0.0170
 2582SOL    HW119208   2.743   4.636   1.959 -0.7792  3.5599  0.4132
 2582SOL    HW219209   2.829   4.571   2.057  1.1218  2.3317  1.7858
 2583SOL     OW19210   1.018   2.274   6.794  0.4437  0.5772  0.1448
 2583SOL    HW119211   1.021   2.365   6.763  2.3531  0.8234  1.0317
 2583SOL    HW219212   1.056   2.224   6.722  0.1138  0.5249  0.0065
 2584SOL     OW19213   3.879   4.559   8.132  0.4236 -0.1754  0.1357
 2584SOL    HW119214   3.812   4.620   8.102  1.0465  0.6657  0.4518
 2584SOL    HW219215   3.826   4.487   8.166 -2.0772  0.2729 -2.8197
 2585SOL     OW19216   0.994   3.607   5.394  0.3096 -0.4229  0.3553
 2585SOL    HW119217   0.955   3.684   5.353 -1.9166  0.0207  3.2785
 2585SOL    HW219218   1.088   3.612   5.377 -0.1038 -0.0674 -1.8709
 2586SOL     OW19219   0.302   0.145   2.318  0.3850  0.8053  0.0932
 2586SOL    HW119220   0.360   0.140   2.394  0.0660  1.6126  0.3898
 2586SOL    HW219221   0.336   0.225   2.277  0.4528  1.1317  0.7828
 2587SOL     OW19222   4.297   0.208   4.847  0.3329  0.7483  0.5351
 2587SOL    HW119223   4.241   0.286   4.854 -1.3569 -0.3773 -0.3414
 2587SOL    HW219224   4.235   0.156   4.898  0.6847 -1.3884 -1.2226
 2588SOL     OW19225   2.775   4.442   4.513  0.3770  0.1287 -0.0215
 2588SOL    HW119226   2.802   4.523   4.470 -1.0119  1.0989  0.9265
 2588SOL    HW219227   2.816   4.443   4.599 -0.7967  0.0527  0.5496
 2589SOL     OW19228   4.160   1.960   6.815  0.2541 -0.2738  0.0579
 2589SOL    HW119229   4.077   1.912   6.822  0.9172 -1.3969  0.1683
 2589SOL    HW219230   4.179   1.975   6.908  2.1821 -1.5197 -0.1308
 2590SOL     OW19231   2.657   4.246   2.670 -0.4701 -0.2282  0.2548
 2590SOL    HW119232   2.644   4.198   2.752  0.4388  1.0696  1.1576
 2590SOL    HW219233   2.626   4.180   2.608 -2.4980  1.2044 -0.2823
 2591SOL     OW19234   4.419   0.562   2.213  0.0861  0.0342 -0.1665
 2591SOL    HW119235   4.447   0.474   2.188 -0.4692 -0.2378  0.1846
 2591SOL    HW219236   4.324   0.555   2.211  0.0008  1.0974  0.3873
 2592SOL     OW19237   2.298   3.092  12.976  0.3432  0.3111  0.6225
 2592SOL    HW119238   2.294   2.997  12.971  2.1009  0.4143 -2.2555
 2592SOL    HW219239   2.391   3.110  12.971  0.2626  0.1950 -1.2019
 2593SOL     OW19240   1.973   2.609   2.932  0.2775  0.3738 -0.8802
 2593SOL    HW119241   1.910   2.676   2.961 -0.3684  0.2850 -2.0663
 2593SOL    HW219242   2.008   2.663   2.861 -0.2331  1.6286 -0.1852
 2594SOL     OW19243   1.586   4.505   8.495 -0.1300 -0.1944  0.0787
 2594SOL    HW119244   1.602   4.578   8.556  0.0003 -1.0746  1.0934
 2594SOL    HW219245   1.599   4.559   8.417 -0.4143  1.4779  1.1727
 2595SOL     OW19246   4.246   1.461   3.455  0.4215  0.3851 -0.3681
 2595SOL    HW119247   4.163   1.484   3.497 -0.2956  0.5269 -1.8409
 2595SOL    HW219248   4.221   1.487   3.366 -1.7165 -0.3689  0.0064
 2596SOL     OW19249   4.327   4.427  11.742  0.3062  0.6592 -0.2600
 2596SOL    HW119250   4.358   4.445  11.830 -0.4879 -0.1100  0.1733
 2596SOL    HW219251   4.235   4.405  11.759  0.8314 -1.7652 -0.5051
 2597SOL     OW19252   0.901   4.431   4.477 -0.1035  0.1835 -0.3923
 2597SOL    HW119253   0.939   4.347   4.454  0.5839  0.1904  0.7233
 2597SOL    HW219254   0.953   4.439   4.557 -0.3320  2.3895 -0.4547
 2598SOL     OW19255   2.267   1.080  16.307 -0.2417  0.9146  0.2237
 2598SOL    HW119256   2.344   1.060  16.360 -0.0059 -3.0216 -1.5993
 2598SOL    HW219257   2.302   1.047  16.225 -0.5827  1.0985  0.0044
 2599SOL     OW19258   0.120   3.233   6.741 -0.3362 -0.2891 -0.0575
 2599SOL    HW119259   0.127   3.324   6.769 -0.8128 -0.1962 -0.2447
 2599SOL    HW219260   0.154   3.185   6.816  1.2225  0.3019 -0.3704
 2600SOL     OW19261   4.653   2.001   3.367 -0.8757  0.3122  0.0810
 2600SOL    HW119262   0.005   1.981   3.426 -0.4876  0.7329 -0.2494
 2600SOL    HW219263   4.646   2.094   3.390 -3.6176 -0.2071  1.3037
 2601SOL     OW19264   2.323   0.307   0.989 -0.0358 -0.6683  0.7529
 2601SOL    HW119265   2.263   0.256   0.934 -1.7045  2.3312 -0.2184
 2601SOL    HW219266   2.276   0.390   0.997 -0.2953 -0.7806  0.3942
 2602SOL     OW19267   0.976   3.017   1.000 -0.0860 -0.1073 -0.1033
 2602SOL    HW119268   1.042   3.038   0.934  0.6157 -0.6952  0.4126
 2602SOL    HW219269   1.021   2.942   1.039  2.3895  1.9990  1.1264
 2603SOL     OW19270   0.470   0.303  16.728 -0.5251 -0.3481 -0.0364
 2603SOL    HW119271   0.505   0.322  16.815 -2.8369  2.1706  0.3143
 2603SOL    HW219272   0.545   0.262  16.684 -0.6164 -0.2804 -0.2524
 2604SOL     OW19273   1.962   1.620   7.712  0.7803  0.2809 -0.0334
 2604SOL    HW119274   1.944   1.708   7.679 -0.4812  0.4102  0.9858
 2604SOL    HW219275   1.980   1.582   7.626 -2.2979  1.2903 -1.1512
 2605SOL     OW19276   2.505   1.836  14.189  0.1113  0.2935 -0.2644
 2605SOL    HW119277   2.571   1.767  14.183 -0.6346 -0.3494 -1.0881
 2605SOL    HW219278   2.461   1.797  14.264  0.1603 -0.8836 -0.8396
 2606SOL     OW19279   1.867   3.603   1.704 -0.3938 -0.1070  0.5842
 2606SOL    HW119280   1.896   3.623   1.793 -1.9049 -3.4128  1.8497
 2606SOL    HW219281   1.880   3.508   1.701  0.4362  0.0624 -1.3782
 2607SOL     OW19282   1.342   1.136   3.477 -0.4001 -0.1316  0.4750
 2607SOL    HW119283   1.361   1.050   3.514 -1.8465 -0.8427 -0.4127
 2607SOL    HW219284   1.255   1.112   3.443 -0.4379 -1.1440  1.2712
 2608SOL     OW19285   2.727   3.954   4.830 -0.4666 -0.5753  0.0080
 2608SOL    HW119286   2.661   4.023   4.832  0.5332  0.4068 -1.4442
 2608SOL    HW219287   2.746   3.952   4.924  0.1853  0.7867 -0.0956
 2609SOL     OW19288   2.757   0.458  17.023 -0.1010 -0.0024 -0.4623
 2609SOL    HW119289   2.690   0.488  17.086 -0.2806  1.1330 -1.1909
 2609SOL    HW219290   2.748   0.364  17.035 -1.8282  0.4615  2.0758
 2610SOL     OW19291   4.518   3.056  16.474  0.3891 -0.0108 -0.9453
 2610SOL    HW119292   4.488   3.146  16.463  2.6661  0.9153  0.4561
 2610SOL    HW219293   4.468   3.022  16.548  0.6874 -0.6903 -1.0579
 2611SOL     OW19294   3.298   1.620  13.238  0.1217  0.6560  0.1322
 2611SOL    HW119295   3.263   1.614  13.149 -0.0828  1.9938  0.1219
 2611SOL    HW219296   3.220   1.664  13.272  0.1078  1.3913 -0.8586
 2612SOL     OW19297   2.332   3.421   0.662 -0.1451 -0.4031 -0.1012
 2612SOL    HW119298   2.326   3.516   0.672  2.5506 -0.0796 -1.7654
 2612SOL    HW219299   2.367   3.394   0.746  2.9536  0.2452 -1.1675
 2613SOL     OW19300   0.142   4.691  11.674  0.5491 -0.5396 -0.1843
 2613SOL    HW119301   0.188   4.607  11.673 -1.0574 -1.4248 -1.3156
 2613SOL    HW219302   0.074   4.678  11.607  0.9139 -0.3962 -0.5865
 2614SOL     OW19303   1.259   3.203   8.236 -0.4698 -0.9681  0.4385
 2614SOL    HW119304   1.175   3.228   8.274 -0.8052 -1.4733  0.0323
 2614SOL    HW219305   1.252   3.256   8.157  0.4233 -1.0441  0.3078
 2615SOL     OW19306   2.611   3.839   8.411 -0.0096 -0.0022 -0.1073
 2615SOL    HW119307   2.706   3.845   8.402 -0.0312  0.2220 -0.1911
 2615SOL    HW219308   2.610   3.888   8.493  0.8976 -1.1274  0.5810
 2616SOL     OW19309   4.645   3.971   0.990 -0.3211  0.0454  0.0199
 2616SOL    HW119310   4.595   3.899   0.950  0.2006 -0.8749  1.0178
 2616SOL    HW219311   0.017   3.954   0.975 -0.2609  1.1582 -0.9169
 2617SOL     OW19312   3.313   0.873   5.494 -0.1538 -0.3824 -0.1640
 2617SOL    HW119313   3.322   0.902   5.585 -0.0081 -0.7037 -0.0756
 2617SOL    HW219314   3.232   0.912   5.461 -1.5209 -0.8869  2.5952
 2618SOL     OW19315   3.905   2.011  17.482  0.1923 -0.1014  0.6704
 2618SOL    HW119316   3.927   1.918  17.482 -0.6792 -0.3043  1.5586
 2618SOL    HW219317   3.904   2.024  17.387 -1.5629  0.3739  0.7674
 2619SOL     OW19318   3.216   1.179   2.179  0.1792 -0.7246  0.5804
 2619SOL    HW119319   3.149   1.118   2.208 -1.0133  0.8034  1.0627
 2619SOL    HW219320   3.282   1.176   2.249 -0.0252 -1.2666  0.7444
 2620SOL     OW19321   1.439   4.117  11.102  0.2571  0.4290  0.1775
 2620SOL    HW119322   1.436   4.021  11.094  2.0003  0.4408 -0.5580
 2620SOL    HW219323   1.389   4.138  11.181 -0.0955 -0.4801  0.1994
 2621SOL     OW19324   2.947   1.697   5.387  0.1757 -0.1586 -0.6136
 2621SOL    HW119325   2.964   1.757   5.314 -3.3676 -0.4910 -1.7324
 2621SOL    HW219326   2.853   1.712   5.401  0.4719  0.2789  0.7867
 2622SOL     OW19327   0.731   2.623  13.885  0.3996  0.2913  0.9662
 2622SOL    HW119328   0.814   2.648  13.845  0.3930 -1.2626 -0.0122
 2622SOL    HW219329   0.732   2.708  13.929  1.4809  1.2617 -0.9310
 2623SOL     OW19330   0.841   2.976   8.719 -0.5728 -0.6577 -0.2426
 2623SOL    HW119331   0.894   3.029   8.659 -3.0147  1.5837 -0.4600
 2623SOL    HW219332   0.877   2.891   8.697 -1.6643 -1.1044 -0.3008
 2624SOL     OW19333   4.633   0.548   7.439 -0.1720 -0.1512  0.6184
 2624SOL    HW119334   4.685   0.474   7.409 -0.5483  0.1785 -0.8502
 2624SOL    HW219335   4.594   0.508   7.516  0.9536  0.3722  1.4577
 2625SOL     OW19336   0.457   4.392  11.931  0.5105  0.1232  0.3744
 2625SOL    HW119337   0.530   4.432  11.884 -0.2468 -0.7114 -1.5272
 2625SOL    HW219338   0.478   4.301  11.952  2.0668  0.6671  1.1648
 2626SOL     OW19339   3.499   1.523   6.820 -0.4097 -0.8221 -0.0432
 2626SOL    HW119340   3.484   1.477   6.903  0.8311  0.9792  1.1656
 2626SOL    HW219341   3.420   1.577   6.824 -0.4209 -0.9357  1.2916
 2627SOL     OW19342   2.602   3.770  11.415  0.6705 -0.0494 -0.1389
 2627SOL    HW119343   2.665   3.830  11.454  1.2282 -0.4087 -0.4753
 2627SOL    HW219344   2.527   3.829  11.412 -0.1112 -1.1204 -1.5618
 2628SOL     OW19345   2.315   1.146   2.762 -0.1301 -0.0514 -0.3763
 2628SOL    HW119346   2.249   1.079   2.746  0.2946 -0.5309 -0.1239
 2628SOL    HW219347   2.288   1.176   2.848  1.3172  1.7476 -0.5428
 2629SOL     OW19348   0.110   1.553   2.480  0.0548  0.2017  0.1027
 2629SOL    HW119349   0.053   1.514   2.547 -1.4620 -0.4386 -1.5592
 2629SOL    HW219350   0.148   1.629   2.524 -3.5469  1.8783  0.3536
 2630SOL     OW19351   0.568   0.936   7.172  0.8847 -0.6952 -0.1371
 2630SOL    HW119352   0.554   1.016   7.121  1.5436  1.3144  2.7897
 2630SOL    HW219353   0.662   0.948   7.189  0.4023  1.4775  1.0162
 2631SOL     OW19354   1.613   0.456   2.498 -0.3156  0.4834 -0.0434
 2631SOL    HW119355   1.674   0.419   2.562  0.2978  0.5326 -0.5927
 2631SOL    HW219356   1.527   0.440   2.536 -0.6944  3.6066  0.3741
 2632SOL     OW19357   4.670   3.286   8.904  0.0660  0.0412  0.0716
 2632SOL    HW119358   4.691   3.223   8.973 -0.1908 -0.3463 -0.2071
 2632SOL    HW219359   4.674   3.224   8.832 -2.2137 -0.5191  0.4480
 2633SOL     OW19360   1.259   0.237   5.025  0.3894 -0.8090 -0.3063
 2633SOL    HW119361   1.173   0.267   4.996  0.6822  0.1806 -0.1319
 2633SOL    HW219362   1.229   0.149   5.050 -2.2170  0.3373  0.5765
 2634SOL     OW19363   3.442   4.525  12.488 -0.4817 -0.0784 -0.2862
 2634SOL    HW119364   3.460   4.583  12.414 -0.5880  0.1982 -0.0975
 2634SOL    HW219365   3.346   4.527  12.486 -0.5315 -1.0907  1.3880
 2635SOL     OW19366   0.793   1.664   4.791 -0.1466  0.3469  0.0169
 2635SOL    HW119367   0.828   1.578   4.769  2.4735  1.3822  0.1962
 2635SOL    HW219368   0.726   1.675   4.724  0.5653  3.1740 -0.2589
 2636SOL     OW19369   1.782   3.907   9.634 -0.0741  0.7823  0.6770
 2636SOL    HW119370   1.757   3.825   9.591  0.1997  1.6470 -1.1373
 2636SOL    HW219371   1.793   3.960   9.555  0.7595 -1.9318 -1.0157
 2637SOL     OW19372   3.853   1.922  16.367  0.0114  0.1782 -0.2385
 2637SOL    HW119373   3.858   1.952  16.457  0.9947  0.4004 -0.3679
 2637SOL    HW219374   3.806   2.000  16.339 -0.9716  0.1498  1.3473
 2638SOL     OW19375   1.733   2.470  13.022 -0.1621  0.5293 -0.1843
 2638SOL    HW119376   1.664   2.489  13.085 -1.7934 -2.2215 -1.1410
 2638SOL    HW219377   1.746   2.558  12.987  0.9925 -0.1430 -1.4672
 2639SOL     OW19378   1.174   4.051   7.327  0.4583 -0.1700 -0.1252
 2639SOL    HW119379   1.127   3.983   7.278 -0.7889  0.4142  0.2404
 2639SOL    HW219380   1.136   4.044   7.414 -1.1876 -1.6985 -0.9544
 2640SOL     OW19381   0.402   0.133   3.565 -0.3995  0.3741  0.1609
 2640SOL    HW119382   0.451   0.211   3.538  0.8388 -0.4227  0.1133
 2640SOL    HW219383   0.365   0.111   3.479  1.1930 -1.3151 -0.0860
 2641SOL     OW19384   1.849   3.540  12.017  0.2599 -0.2207  0.5949
 2641SOL    HW119385   1.755   3.530  12.002  0.5639 -3.4148  0.7994
 2641SOL    HW219386   1.850   3.631  11.989 -1.3931 -0.5416 -0.5382
 2642SOL     OW19387   4.353   2.606   6.827  0.3966 -0.5955  0.0266
 2642SOL    HW119388   4.372   2.573   6.915  2.8676 -1.8025 -0.9349
 2642SOL    HW219389   4.339   2.696   6.855  0.0096 -0.6439 -0.0145
 2643SOL     OW19390   2.034   3.645  15.346 -0.0998  0.5794  0.3888
 2643SOL    HW119391   1.981   3.723  15.328  0.5680  1.0595  0.4785
 2643SOL    HW219392   1.967   3.587  15.382 -3.5104  3.9144 -0.5853
 2644SOL     OW19393   3.793   2.449  14.896 -0.4139 -0.4543  0.5066
 2644SOL    HW119394   3.714   2.486  14.935  1.7280  1.6549  2.8812
 2644SOL    HW219395   3.775   2.356  14.888 -2.7464  0.0661 -0.2953
 2645SOL     OW19396   0.651   1.550   9.389  0.9788 -0.3741 -0.5803
 2645SOL    HW119397   0.624   1.641   9.381 -3.3695 -1.7183 -1.3189
 2645SOL    HW219398   0.694   1.535   9.305  1.6762  0.7956 -0.4212
 2646SOL     OW19399   0.476   0.537  14.872 -0.6126  0.2316 -0.3842
 2646SOL    HW119400   0.427   0.528  14.791 -1.8389  1.0167  0.2670
 2646SOL    HW219401   0.550   0.485  14.840 -0.8127 -0.2166 -0.1201
 2647SOL     OW19402   0.998   3.445  16.901 -0.6133  0.2226  0.0876
 2647SOL    HW119403   0.933   3.508  16.932  0.5193  1.0054  0.8712
 2647SOL    HW219404   1.025   3.417  16.988 -0.0045  1.7989  0.4142
 2648SOL     OW19405   0.070   0.789   7.176  0.2925  0.3995  0.1345
 2648SOL    HW119406   0.088   0.821   7.264  1.5332  0.2867 -0.0880
 2648SOL    HW219407   0.157   0.754   7.159  1.0554  2.7240 -0.7502
 2649SOL     OW19408   3.687   3.756   4.776 -0.0526  0.0229  0.1774
 2649SOL    HW119409   3.774   3.796   4.772  0.1105 -0.3689 -0.3011
 2649SOL    HW219410   3.685   3.704   4.856 -1.5356 -0.0897  0.0678
 2650SOL     OW19411   1.233   1.596   0.538  0.4552 -0.1477 -0.3172
 2650SOL    HW119412   1.193   1.574   0.454 -1.4335 -2.2570  1.1374
 2650SOL    HW219413   1.217   1.511   0.579 -0.5143  0.5945  0.8567
 2651SOL     OW19414   1.672   3.509   8.963 -0.6068  0.0288 -0.2860
 2651SOL    HW119415   1.762   3.485   8.988 -0.3217  0.0056 -1.3635
 2651SOL    HW219416   1.682   3.496   8.869  0.9361  1.7062 -0.3548
 2652SOL     OW19417   1.919   3.178   7.397 -0.4294 -0.0726 -0.3996
 2652SOL    HW119418   1.931   3.256   7.344 -0.9700  1.5940  1.9351
 2652SOL    HW219419   2.009   3.146   7.402 -0.3147 -0.0407 -2.2544
 2653SOL     OW19420   2.767   2.241   2.702  0.0934  0.4568  0.0966
 2653SOL    HW119421   2.749   2.173   2.637  0.1284  0.8539 -0.3311
 2653SOL    HW219422   2.681   2.283   2.709  0.0176  0.1156  1.1682
 2654SOL     OW19423   1.053   0.144   4.789  0.6695  0.2789 -0.2975
 2654SOL    HW119424   1.021   0.186   4.869  1.8106 -0.7718  0.7325
 2654SOL    HW219425   0.991   0.171   4.722  1.0907  2.7424  0.3010
 2655SOL     OW19426   1.141   0.895   2.479  0.7012  0.2677 -0.2680
 2655SOL    HW119427   1.204   0.911   2.549 -1.8838 -1.2649  2.3675
 2655SOL    HW219428   1.128   0.988   2.457  0.9635  0.4072  0.1860
 2656SOL     OW19429   3.203   2.958   3.183 -0.2505  0.6816 -0.6808
 2656SOL    HW119430   3.200   2.875   3.231  0.2736  0.6550 -0.6918
 2656SOL    HW219431   3.158   3.011   3.249 -0.5240 -1.9196  1.2041
 2657SOL     OW19432   3.661   2.137   3.373 -0.1753 -0.4451 -0.0163
 2657SOL    HW119433   3.591   2.199   3.393 -0.3470 -0.9056  0.8010
 2657SOL    HW219434   3.621   2.069   3.319  1.5864 -0.2351 -1.6013
 2658SOL     OW19435   1.743   4.027   3.052 -0.3640 -0.3613 -0.3343
 2658SOL    HW119436   1.732   4.010   2.959 -0.3841  0.4188 -0.4781
 2658SOL    HW219437   1.823   3.979   3.074 -0.5334  0.5463  2.3543
 2659SOL     OW19438   1.829   1.842  13.390 -0.0680 -0.0760  0.5444
 2659SOL    HW119439   1.925   1.841  13.384 -0.1377  0.3312 -0.7295
 2659SOL    HW219440   1.815   1.871  13.299 -0.4589 -1.1894  0.2506
 2660SOL     OW19441   2.157   2.422  14.796  0.1456 -0.0347  0.0259
 2660SOL    HW119442   2.087   2.422  14.862  0.5796 -2.0905  0.4994
 2660SOL    HW219443   2.170   2.327  14.792 -2.4000 -0.4236  0.7847
 2661SOL     OW19444   4.128   1.202   3.630  0.1984  0.1610 -0.4565
 2661SOL    HW119445   4.187   1.195   3.555 -2.1374  0.3625 -2.3140
 2661SOL    HW219446   4.112   1.110   3.651  0.6980 -0.0056 -0.8202
 2662SOL     OW19447   0.839   1.303   4.332 -0.4279  0.2279 -0.7026
 2662SOL    HW119448   0.839   1.326   4.239 -2.4053  1.0642 -0.5009
 2662SOL    HW219449   0.898   1.230   4.348 -2.0009 -0.2316  3.0581
 2663SOL     OW19450   0.908   1.429   3.011 -0.2719  0.2217  0.1828
 2663SOL    HW119451   0.964   1.386   2.946 -1.2409  1.5772 -1.5468
 2663SOL    HW219452   0.961   1.502   3.045  0.8815 -1.3927  1.8377
 2664SOL     OW19453   0.106   1.214   7.039 -0.1541 -0.1028 -0.5863
 2664SOL    HW119454   0.129   1.307   7.048 -0.7806  0.0655 -0.7304
 2664SOL    HW219455   0.082   1.191   7.129  2.0754 -2.1696 -0.5060
 2665SOL     OW19456   4.408   0.452   8.678 -0.3180  0.0549 -0.5420
 2665SOL    HW119457   4.466   0.463   8.753  0.5988  1.5899 -1.4857
 2665SOL    HW219458   4.468   0.458   8.603  0.0542 -0.3919 -0.2808
 2666SOL     OW19459   0.771   2.596   2.437 -0.3711  0.1719  0.1076
 2666SOL    HW119460   0.722   2.519   2.466  0.3890 -0.6740 -0.8594
 2666SOL    HW219461   0.836   2.554   2.381  0.9496  0.5475  1.3589
 2667SOL     OW19462   1.042   0.644   3.920  0.0792  0.2770  0.4765
 2667SOL    HW119463   0.948   0.627   3.931 -0.1722  0.8394 -0.8492
 2667SOL    HW219464   1.052   0.702   3.845 -0.5960 -0.3035 -0.0672
 2668SOL     OW19465   1.080   4.608   2.409  0.1696  0.5051  0.5885
 2668SOL    HW119466   1.157   4.591   2.464  0.1084 -2.6810 -0.2763
 2668SOL    HW219467   1.076   4.542   2.339 -0.8294  0.6216  0.5384
 2669SOL     OW19468   2.568   3.569  11.053 -0.3353  0.0228  0.0195
 2669SOL    HW119469   2.651   3.523  11.063 -0.2172  0.0203 -0.9852
 2669SOL    HW219470   2.522   3.569  11.137  0.2333 -1.0610  0.3258
 2670SOL     OW19471   3.121   0.083   3.644 -0.9408 -0.3648  0.4286
 2670SOL    HW119472   3.086   0.163   3.604 -2.1903 -0.8138  0.6275
 2670SOL    HW219473   3.184   0.055   3.577  0.8729  0.8025  1.6399
 2671SOL     OW19474   2.758   0.538   8.077 -0.4529  0.2925  0.0959
 2671SOL    HW119475   2.741   0.619   8.030 -1.3996 -0.2062 -0.4170
 2671SOL    HW219476   2.712   0.484   8.013  0.3666 -0.5856  0.2494
 2672SOL     OW19477   3.680   4.358   2.427 -0.0074 -0.5176  0.1182
 2672SOL    HW119478   3.663   4.303   2.351  1.1390  1.4746 -1.5792
 2672SOL    HW219479   3.596   4.347   2.471 -0.0064 -2.0452 -0.2724
 2673SOL     OW19480   4.607   3.119  10.630 -0.4221 -0.1677 -0.4160
 2673SOL    HW119481   4.550   3.042  10.640 -0.9774  0.3833  0.5925
 2673SOL    HW219482   4.672   3.075  10.575  0.5215  1.0364 -0.2550
 2674SOL     OW19483   2.099   2.339  10.327 -0.4354  0.4892 -0.1478
 2674SOL    HW119484   2.136   2.270  10.271  0.1136 -1.1622  2.2300
 2674SOL    HW219485   2.045   2.289  10.389  1.6191 -1.2215  0.2803
 2675SOL     OW19486   4.504   1.589   5.237 -0.5499 -0.1707  0.5389
 2675SOL    HW119487   4.566   1.662   5.232  0.5743 -1.1221  0.4773
 2675SOL    HW219488   4.501   1.578   5.332 -0.1244  0.0431  0.5787
 2676SOL     OW19489   0.244   2.154   1.102  0.1855 -0.0239  0.0524
 2676SOL    HW119490   0.260   2.068   1.141  0.7431 -0.8515 -2.0377
 2676SOL    HW219491   0.256   2.123   1.013  0.0565 -0.5360  0.2137
 2677SOL     OW19492   0.119   4.310   6.504 -0.2625 -0.0915 -0.0228
 2677SOL    HW119493   0.076   4.345   6.426  1.3913 -0.6801 -1.2041
 2677SOL    HW219494   0.074   4.226   6.506 -0.7014  0.0992 -1.7911
 2678SOL     OW19495   3.990   3.294   6.412  0.1417 -0.2473  0.3889
 2678SOL    HW119496   3.975   3.269   6.321  3.9621 -0.2296 -0.2577
 2678SOL    HW219497   4.080   3.327   6.416 -0.7709  2.4352 -1.6163
 2679SOL     OW19498   3.421   4.274   4.735  0.1352  0.3633  0.0034
 2679SOL    HW119499   3.333   4.250   4.705  0.3566  0.7664 -0.9668
 2679SOL    HW219500   3.469   4.202   4.694  0.6721  1.2612 -0.9503
 2680SOL     OW19501   2.222   0.979   2.433 -0.8289  0.1028  0.6749
 2680SOL    HW119502   2.197   1.009   2.520  2.6336  2.3970  0.9151
 2680SOL    HW219503   2.146   1.017   2.389 -0.1939  0.8596  0.2278
 2681SOL     OW19504   4.212   2.863   2.697  0.1779 -0.5819  0.4079
 2681SOL    HW119505   4.292   2.859   2.751  0.2393 -1.0348  0.2813
 2681SOL    HW219506   4.215   2.948   2.655  0.1546  0.0572  1.6897
 2682SOL     OW19507   1.356   3.571   8.257 -0.2750  0.5167 -0.5148
 2682SOL    HW119508   1.294   3.581   8.330 -0.4629  0.0423 -0.6135
 2682SOL    HW219509   1.416   3.507   8.294 -2.3875 -0.6277  0.8955
 2683SOL     OW19510   1.738   1.836  15.599 -0.0388 -0.1258  0.1512
 2683SOL    HW119511   1.783   1.912  15.636  1.0355 -1.1418  0.9424
 2683SOL    HW219512   1.802   1.796  15.540 -0.2553  0.8861 -0.7682
 2684SOL     OW19513   2.996   4.624   0.010 -0.0456  0.4602  0.0322
 2684SOL    HW119514   3.078   4.664   0.039  0.1319 -0.5857  0.9711
 2684SOL    HW219515   2.939   4.700   0.003 -0.1172  0.3559 -0.5959
 2685SOL     OW19516   2.376   4.616  17.554 -0.1144 -0.1802 -0.2426
 2685SOL    HW119517   2.443   4.642  17.491 -1.0967 -1.2368 -1.6911
 2685SOL    HW219518   2.314   4.682  17.524 -2.6716 -0.8623  3.5602
 2686SOL     OW19519   4.344   2.110   9.346  0.0876 -0.0453 -0.1560
 2686SOL    HW119520   4.427   2.155   9.333 -1.1926  2.1244 -0.7852
 2686SOL    HW219521   4.282   2.170   9.304  1.9938  0.2340 -2.5662
 2687SOL     OW19522   1.610   3.417   8.220  0.6835  0.3177 -0.2958
 2687SOL    HW119523   1.579   3.338   8.176  1.4924 -0.6005  0.7961
 2687SOL    HW219524   1.652   3.386   8.300  1.0238  0.9668 -0.2209
 2688SOL     OW19525   0.932   2.511   5.151  0.3603 -0.3672 -0.2095
 2688SOL    HW119526   0.970   2.521   5.063  3.1226 -3.6776  0.6313
 2688SOL    HW219527   0.854   2.458   5.134  1.1940 -1.7123  0.1251
 2689SOL     OW19528   3.959   1.939  11.844  0.3747  0.4471  0.2200
 2689SOL    HW119529   3.964   1.844  11.856 -1.1925  0.3705  0.2962
 2689SOL    HW219530   3.877   1.961  11.887 -0.0049  0.0813 -0.3227
 2690SOL     OW19531   2.473   2.185   9.685 -0.3067  0.1364 -0.1533
 2690SOL    HW119532   2.561   2.217   9.663 -0.8958  2.3765  0.7011
 2690SOL    HW219533   2.431   2.240   9.619  1.7862  0.0070 -1.5953
 2691SOL     OW19534   0.594   1.677   6.454 -0.2624  0.0571  0.6358
 2691SOL    HW119535   0.563   1.657   6.542 -1.6169  1.7558  0.5269
 2691SOL    HW219536   0.530   1.638   6.394  2.1692 -1.5133 -0.9464
 2692SOL     OW19537   2.467   0.353  10.316 -0.2955  0.2736  0.3659
 2692SOL    HW119538   2.448   0.306  10.398 -1.4477 -0.4035 -0.2833
 2692SOL    HW219539   2.550   0.390  10.344 -0.4945  0.2417  1.0083
 2693SOL     OW19540   3.121   0.701   6.375  0.1034  0.0267 -0.0898
 2693SOL    HW119541   3.194   0.659   6.422  0.1385  1.9392  1.5543
 2693SOL    HW219542   3.056   0.711   6.444 -0.4088 -0.0142 -0.5641
 2694SOL     OW19543   3.748   1.341   1.836  0.3284  0.5186  0.6273
 2694SOL    HW119544   3.826   1.294   1.868  0.4996 -1.0216 -2.0523
 2694SOL    HW219545   3.751   1.410   1.902 -1.4721  4.1842 -3.1746
 2695SOL     OW19546   2.541   1.272   4.177 -0.2869  0.9286  0.2693
 2695SOL    HW119547   2.473   1.307   4.234 -0.7500 -0.4456  0.5690
 2695SOL    HW219548   2.558   1.353   4.129 -0.7308  0.2462 -1.0450
 2696SOL     OW19549   2.619   3.928  15.408  0.5644 -0.0499 -0.0006
 2696SOL    HW119550   2.656   3.889  15.487 -1.3494  1.2790  1.5543
 2696SOL    HW219551   2.650   3.867  15.341  0.3460  0.4575 -0.5641
 2697SOL     OW19552   4.629   2.615   7.700  0.2393 -0.4515  0.2724
 2697SOL    HW119553   4.686   2.622   7.776 -1.3920 -2.0589  1.6352
 2697SOL    HW219554   4.675   2.678   7.644 -0.2263  2.1548  2.7845
 2698SOL     OW19555   4.638   3.940  17.378 -0.6159 -0.6125  0.6023
 2698SOL    HW119556   4.661   3.921  17.287 -0.9796 -0.3929  0.4654
 2698SOL    HW219557   4.650   3.852  17.414 -0.1566 -0.9730 -0.4294
 2699SOL     OW19558   2.704   2.645   5.541  0.1628  0.3413  0.4551
 2699SOL    HW119559   2.672   2.556   5.557  0.9319  0.5282  3.1473
 2699SOL    HW219560   2.624   2.694   5.560 -0.0451  0.3716 -0.5067
 2700SOL     OW19561   1.546   3.720   0.986  0.4053  0.2926 -0.2671
 2700SOL    HW119562   1.596   3.732   1.067 -1.6820  0.8946  0.9378
 2700SOL    HW219563   1.573   3.630   0.968  0.5849  0.2797  0.0627
 2701SOL     OW19564   3.936   0.108   6.651  0.6234  0.0693 -0.6338
 2701SOL    HW119565   3.995   0.184   6.653 -0.0972  0.6476 -0.9809
 2701SOL    HW219566   3.854   0.155   6.631  0.3521  1.2181  3.1496
 2702SOL     OW19567   4.424   1.469   0.396 -0.4162  0.1953 -0.2942
 2702SOL    HW119568   4.354   1.532   0.377 -0.0935  0.5686 -0.2583
 2702SOL    HW219569   4.390   1.380   0.394 -0.6652  0.3301 -2.2451
 2703SOL     OW19570   1.635   4.395   5.930 -0.0868 -0.2090 -0.7759
 2703SOL    HW119571   1.651   4.331   5.861 -0.3134 -0.7194 -0.3482
 2703SOL    HW219572   1.598   4.472   5.885  2.8934  1.9255  0.4592
 2704SOL     OW19573   2.116   2.063   6.287  0.5024  0.5017 -0.0967
 2704SOL    HW119574   2.193   2.057   6.231  0.6248  0.1462  0.1149
 2704SOL    HW219575   2.069   2.125   6.231  0.6791 -1.5888 -2.5452
 2705SOL     OW19576   1.904   4.291   2.309  1.1706 -0.7765 -0.0165
 2705SOL    HW119577   1.819   4.246   2.307  1.1038 -0.6497  0.0042
 2705SOL    HW219578   1.902   4.358   2.376  0.4827 -0.9056  0.0883
 2706SOL     OW19579   1.158   1.556   7.716  0.2318  0.4616 -0.0971
 2706SOL    HW119580   1.203   1.612   7.652 -2.0797  0.6329 -1.5696
 2706SOL    HW219581   1.065   1.580   7.715  0.6425  2.1133  0.7499
 2707SOL     OW19582   2.743   0.539   4.227  0.1068  0.2576  0.2653
 2707SOL    HW119583   2.829   0.513   4.194  1.2698  1.2988  2.4613
 2707SOL    HW219584   2.751   0.631   4.201  1.8170  0.6401  2.1312
 2708SOL     OW19585   2.051   1.144  13.561 -0.5226 -0.1955  0.0055
 2708SOL    HW119586   1.981   1.090  13.599  0.0492  0.3068  1.8079
 2708SOL    HW219587   2.024   1.234  13.579  1.8259  0.1604  1.7601
 2709SOL     OW19588   2.679   1.709   3.575  0.1363  0.2787  0.2481
 2709SOL    HW119589   2.667   1.631   3.521 -0.3502  1.6990 -1.7241
 2709SOL    HW219590   2.675   1.778   3.508  0.7616 -1.0105 -1.1181
 2710SOL     OW19591   3.323   0.579   8.481  0.4632 -0.2843 -0.1506
 2710SOL    HW119592   3.251   0.543   8.429  0.4156  0.4976 -0.6413
 2710SOL    HW219593   3.279   0.623   8.553  0.8401 -0.1656  0.0036
 2711SOL     OW19594   2.999   1.149   0.476 -0.2475 -0.4183  0.3144
 2711SOL    HW119595   2.925   1.088   0.474  0.1294 -0.9304  1.9652
 2711SOL    HW219596   3.033   1.126   0.563  0.5321  0.5698  0.2758
 2712SOL     OW19597   2.140   4.627   0.101  0.5385  0.1856 -0.0982
 2712SOL    HW119598   2.096   4.546   0.075 -3.3418  0.9981  3.9094
 2712SOL    HW219599   2.064   4.684   0.109 -0.1218 -0.4786 -1.7728
 2713SOL     OW19600   4.230   1.547   9.203  0.3260  0.8989  0.1587
 2713SOL    HW119601   4.202   1.490   9.274 -0.1289 -0.5353 -1.1593
 2713SOL    HW219602   4.259   1.625   9.250  0.5536  0.2592  1.0795
 2714SOL     OW19603   0.520   2.232   5.689 -0.0093 -0.3723  0.1472
 2714SOL    HW119604   0.541   2.181   5.767  1.9293 -0.4215 -0.4025
 2714SOL    HW219605   0.606   2.268   5.668 -0.1927 -1.5679 -2.6557
 2715SOL     OW19606   0.610   2.308  12.030 -0.3355  0.5221 -0.1659
 2715SOL    HW119607   0.612   2.218  12.064  2.6815  1.6614  2.7212
 2715SOL    HW219608   0.530   2.340  12.072  0.0902  0.9946  0.2825
 2716SOL     OW19609   0.314   4.720   4.315  0.0618  0.2910  0.1686
 2716SOL    HW119610   0.339   0.055   4.388 -0.9419 -0.1277  0.8325
 2716SOL    HW219611   0.387   4.659   4.307  1.2746  1.5939  1.4705
 2717SOL     OW19612   0.276   1.410   2.882  0.0605 -0.8823  0.5782
 2717SOL    HW119613   0.312   1.417   2.794  0.4301  1.1580  0.8942
 2717SOL    HW219614   0.193   1.364   2.870 -0.3102  0.3351 -1.6391
 2718SOL     OW19615   0.078   0.978   9.250  0.5251  0.4523 -0.1025
 2718SOL    HW119616   0.020   0.937   9.315  0.3265 -0.9837 -1.1864
 2718SOL    HW219617   0.092   0.906   9.189  0.7773  0.0472  0.4387
 2719SOL     OW19618   4.398   2.084  11.048 -0.2048 -0.2890 -0.1046
 2719SOL    HW119619   4.372   1.995  11.074 -1.0488  0.1580  0.5687
 2719SOL    HW219620   4.328   2.123  11.100  1.4307  0.9596  1.1331
 2720SOL     OW19621   3.856   2.520   8.017  0.5722  1.0560 -0.7117
 2720SOL    HW119622   3.864   2.470   7.936  0.1569  0.4002 -0.3535
 2720SOL    HW219623   3.761   2.528   8.029  0.4794 -1.1952  0.1391
 2721SOL     OW19624   3.102   2.556  10.746  0.1930  0.0225 -0.1483
 2721SOL    HW119625   3.081   2.618  10.816  0.5002  1.3505 -1.2320
 2721SOL    HW219626   3.157   2.491  10.789 -1.5282  0.7731  3.1547
 2722SOL     OW19627   0.775   3.045  14.591 -0.2298 -0.2350 -0.4713
 2722SOL    HW119628   0.717   3.108  14.633  0.7491 -0.1184  0.7102
 2722SOL    HW219629   0.730   3.038  14.507 -0.9749 -0.1809 -0.0724
 2723SOL     OW19630   2.386   0.103  11.797 -0.2864 -0.1392  0.0920
 2723SOL    HW119631   2.308   0.152  11.824 -0.6347  0.2365 -1.6012
 2723SOL    HW219632   2.446   0.169  11.764 -0.3183 -0.2062 -0.0983
 2724SOL     OW19633   0.234   0.947   1.029  0.5088 -0.1826  0.6418
 2724SOL    HW119634   0.271   0.859   1.033 -0.7659 -0.6250  2.3981
 2724SOL    HW219635   0.140   0.929   1.024  0.9670 -1.6350 -2.8999
 2725SOL     OW19636   3.491   2.312  15.124  0.5441 -0.2095 -0.2754
 2725SOL    HW119637   3.550   2.249  15.082  0.5711 -1.1160  1.1040
 2725SOL    HW219638   3.508   2.304  15.218  0.6065 -0.6475 -0.3209
 2726SOL     OW19639   2.419   2.954   1.881  0.0123  0.3411  0.1313
 2726SOL    HW119640   2.406   2.873   1.932 -0.4368  0.7825  0.7213
 2726SOL    HW219641   2.337   3.003   1.878 -0.9095 -1.2320 -0.7353
 2727SOL     OW19642   4.672   2.886   6.755  0.3295  0.1876 -0.0807
 2727SOL    HW119643   4.642   2.833   6.830 -2.8131  2.2427  0.0958
 2727SOL    HW219644   4.639   2.975   6.766  0.2715  0.4566 -2.4548
 2728SOL     OW19645   1.267   3.600  11.067 -0.3741  0.1533  0.6660
 2728SOL    HW119646   1.243   3.509  11.086 -3.3090  0.5248 -1.1973
 2728SOL    HW219647   1.218   3.614  10.985  0.8740  1.8738  0.2152
 2729SOL     OW19648   2.562   3.716   4.504 -0.1345  0.2282 -0.4313
 2729SOL    HW119649   2.629   3.745   4.443 -0.9556 -0.0574 -1.4613
 2729SOL    HW219650   2.616   3.667   4.566  0.8713  0.9965 -0.6887
 2730SOL     OW19651   2.622   3.122  11.366 -0.2298 -0.0267 -0.7118
 2730SOL    HW119652   2.537   3.084  11.344  0.6887 -1.5639 -1.5451
 2730SOL    HW219653   2.685   3.051  11.376 -2.1544 -1.6400 -0.1224
 2731SOL     OW19654   3.003   4.409   0.770  1.1666 -0.8259 -0.0784
 2731SOL    HW119655   2.996   4.479   0.705  2.4793  0.2410  0.9095
 2731SOL    HW219656   3.013   4.464   0.849 -1.1155  0.9440 -1.0041
 2732SOL     OW19657   2.087   3.487   4.241  0.4983  0.0171 -0.1423
 2732SOL    HW119658   2.065   3.564   4.189 -1.7040 -0.2529  0.4043
 2732SOL    HW219659   2.183   3.489   4.247  0.4541  2.1633 -0.0056
 2733SOL     OW19660   2.658   2.469   4.732  0.0372 -0.5111 -0.0710
 2733SOL    HW119661   2.721   2.490   4.802 -0.3516  0.6162 -0.0677
 2733SOL    HW219662   2.584   2.436   4.783 -0.9463  1.2013 -0.4237
 2734SOL     OW19663   1.863   0.121   2.988  0.2049 -0.0766 -0.8673
 2734SOL    HW119664   1.893   0.202   2.946 -2.4621 -0.0331 -2.7064
 2734SOL    HW219665   1.936   0.099   3.046  0.3343  2.7922  0.0415
 2735SOL     OW19666   1.238   4.369   8.675 -0.4460  0.1589  0.5728
 2735SOL    HW119667   1.296   4.313   8.622 -0.4214  0.7073  0.0268
 2735SOL    HW219668   1.241   4.448   8.621 -1.2831 -0.2751 -0.1110
 2736SOL     OW19669   3.316   1.808  12.167  0.0587 -0.0138 -0.1864
 2736SOL    HW119670   3.387   1.870  12.150  0.5395 -0.5402 -0.1183
 2736SOL    HW219671   3.246   1.850  12.118 -0.9630  0.3848  1.6144
 2737SOL     OW19672   2.967   0.035   3.326  0.2390  0.2303  0.2376
 2737SOL    HW119673   3.054   0.067   3.350  1.5569 -1.1350 -2.7200
 2737SOL    HW219674   2.975   0.020   3.232 -2.9002 -0.3165  0.0595
 2738SOL     OW19675   2.275   2.373   8.625 -0.1546 -0.2354 -0.0124
 2738SOL    HW119676   2.278   2.294   8.678  0.4073 -1.3251 -1.6447
 2738SOL    HW219677   2.366   2.403   8.630 -0.3401  0.5513 -1.3499
 2739SOL     OW19678   1.428   2.428   8.732  0.0937 -0.1399 -0.0003
 2739SOL    HW119679   1.519   2.436   8.760 -0.2826 -1.6220  1.6311
 2739SOL    HW219680   1.387   2.476   8.803  1.2692 -0.1518  0.6791
 2740SOL     OW19681   1.095   3.770  10.901 -0.3846  0.0818 -0.1512
 2740SOL    HW119682   1.050   3.706  10.956  0.1812 -0.9449 -0.8825
 2740SOL    HW219683   1.123   3.828  10.972 -0.0492 -0.1759 -0.0697
 2741SOL     OW19684   2.044   4.220   0.839  0.1459 -0.4548 -0.2432
 2741SOL    HW119685   2.096   4.300   0.835 -0.4605 -0.0558 -0.2304
 2741SOL    HW219686   1.956   4.238   0.806  1.3767  1.8807 -2.2173
 2742SOL     OW19687   0.096   3.279   5.788 -0.2860 -0.0352  0.5400
 2742SOL    HW119688   0.116   3.198   5.741 -0.7044 -0.4093  0.9976
 2742SOL    HW219689   0.004   3.287   5.763 -0.9581 -2.2201  2.2383
 2743SOL     OW19690   0.631   4.366  15.967  0.1573 -0.5214  0.1601
 2743SOL    HW119691   0.701   4.307  15.939  1.0868  0.4149  0.4821
 2743SOL    HW219692   0.563   4.350  15.903  0.5612 -0.1387 -0.3633
 2744SOL     OW19693   2.847   0.303   9.209  0.0085 -0.3372 -0.1723
 2744SOL    HW119694   2.886   0.243   9.273 -1.5957  0.2187  1.3214
 2744SOL    HW219695   2.880   0.265   9.128 -2.8713 -1.6010 -0.7365
 2745SOL     OW19696   2.146   3.355   3.800  0.8442  0.6230  0.5121
 2745SOL    HW119697   2.154   3.438   3.847 -0.8770  1.9286 -1.4603
 2745SOL    HW219698   2.089   3.306   3.858 -0.1590  0.8219 -0.3066
 2746SOL     OW19699   0.522   3.162  17.086 -0.2231 -0.4970 -0.9387
 2746SOL    HW119700   0.491   3.149  17.176 -1.6651  1.2204 -1.2096
 2746SOL    HW219701   0.608   3.194  17.112  0.0569  0.1250 -2.6459
 2747SOL     OW19702   3.805   1.103   4.208 -0.4141  0.3936  0.2703
 2747SOL    HW119703   3.867   1.098   4.280  1.5029 -0.4086 -1.4518
 2747SOL    HW219704   3.729   1.146   4.248 -0.0268  0.8687  0.4885
 2748SOL     OW19705   1.055   2.294   5.575 -0.4742 -0.5649  0.5943
 2748SOL    HW119706   1.076   2.271   5.485  0.4581 -1.1943  0.9659
 2748SOL    HW219707   1.065   2.389   5.573  0.6559 -0.7776 -3.2956
 2749SOL     OW19708   2.131   1.366  13.145 -0.3474 -0.1097  0.2709
 2749SOL    HW119709   2.166   1.412  13.221 -0.7793 -0.3373  0.6100
 2749SOL    HW219710   2.107   1.281  13.182  0.0053  0.8120  2.6390
 2750SOL     OW19711   1.470   3.991  15.073 -0.1023  0.3246 -0.1593
 2750SOL    HW119712   1.463   3.933  15.149  1.4834 -0.9568 -0.9796
 2750SOL    HW219713   1.396   3.953  15.025 -0.2330  0.3041  0.0612
 2751SOL     OW19714   0.296   1.223   8.157 -0.6563 -0.3670 -0.2277
 2751SOL    HW119715   0.232   1.233   8.228  1.0329  1.6882  0.9853
 2751SOL    HW219716   0.335   1.310   8.153  0.2077 -0.6644  1.6547
 2752SOL     OW19717   0.094   0.072   4.569 -0.0045 -0.3500  0.2745
 2752SOL    HW119718   0.150   0.048   4.643  1.4341 -0.4269 -0.8235
 2752SOL    HW219719   0.099   4.707   4.526 -3.1137 -1.0776  1.3532
 2753SOL     OW19720   2.083   4.070   3.442  1.1143 -0.2197  0.0945
 2753SOL    HW119721   2.135   3.991   3.458 -0.1213 -1.0694 -0.0505
 2753SOL    HW219722   2.143   4.122   3.390  2.1310 -0.1846  1.2892
 2754SOL     OW19723   4.672   0.601  14.397  0.0998  0.3397  0.3293
 2754SOL    HW119724   4.580   0.577  14.405  0.0625  0.6559  0.8326
 2754SOL    HW219725   4.695   0.556  14.315  1.6967  3.3952 -0.9007
 2755SOL     OW19726   3.286   0.035  15.134  0.2493 -0.0721 -0.0513
 2755SOL    HW119727   3.361   4.697  15.138  1.5820  1.7143  0.8576
 2755SOL    HW219728   3.289   0.061  15.042 -2.9845 -0.2398 -0.2214
 2756SOL     OW19729   1.940   2.190   6.103  0.0584  0.4756 -0.0484
 2756SOL    HW119730   1.860   2.143   6.127 -0.1207  0.5773 -0.4511
 2756SOL    HW219731   1.930   2.188   6.008 -0.4282 -1.8755  0.0517
 2757SOL     OW19732   0.726   0.611   2.468  0.1029  0.0851  0.2014
 2757SOL    HW119733   0.807   0.643   2.427  0.8034  0.3816  1.8069
 2757SOL    HW219734   0.702   0.695   2.507 -0.1478 -0.4004  1.0883
 2758SOL     OW19735   3.284   2.473   7.804 -0.5148  0.6126  0.5102
 2758SOL    HW119736   3.358   2.456   7.861 -0.7368 -0.3556  0.5146
 2758SOL    HW219737   3.262   2.384   7.776 -2.9050  1.3705 -0.0415
 2759SOL     OW19738   3.031   3.001   8.006 -0.5362 -0.3734  0.4078
 2759SOL    HW119739   2.950   2.984   7.958 -0.1137  2.6002 -1.3546
 2759SOL    HW219740   3.099   2.973   7.944 -0.5631  0.5500 -0.0317
 2760SOL     OW19741   1.481   3.472   5.370 -0.6811 -0.9001 -0.0051
 2760SOL    HW119742   1.575   3.481   5.356 -0.6477 -1.9371 -0.4221
 2760SOL    HW219743   1.465   3.381   5.394  0.8013 -1.3103 -0.5909
 2761SOL     OW19744   4.142   2.487   6.352 -0.6407  0.4951  0.3500
 2761SOL    HW119745   4.139   2.398   6.385  3.2418 -0.7527 -2.7019
 2761SOL    HW219746   4.209   2.513   6.416  0.0927  0.2016 -0.3001
 2762SOL     OW19747   1.303   1.402   9.674 -0.1092 -0.2366  0.2967
 2762SOL    HW119748   1.303   1.497   9.680 -3.5459 -0.4996  4.2088
 2762SOL    HW219749   1.231   1.391   9.612 -0.5455 -1.4433  1.0179
 2763SOL     OW19750   4.596   4.616   4.223 -0.4033 -0.2589 -0.2943
 2763SOL    HW119751   4.617   4.691   4.168 -0.4497 -0.2534 -0.3051
 2763SOL    HW219752   4.599   4.656   4.310 -1.0288  0.4146 -0.5812
 2764SOL     OW19753   0.840   3.367  15.259  0.2636  0.4981  0.4244
 2764SOL    HW119754   0.916   3.359  15.201 -0.9238  0.6910 -1.1745
 2764SOL    HW219755   0.886   3.397  15.338  0.9301  2.5714 -0.7397
 2765SOL     OW19756   0.850   2.704   6.372 -0.0162 -0.0240  0.7175
 2765SOL    HW119757   0.936   2.661   6.374 -0.2351 -0.4744  0.4310
 2765SOL    HW219758   0.821   2.711   6.282  1.1230  1.5935  0.4776
 2766SOL     OW19759   3.214   4.570   7.403 -0.0181 -0.4315 -0.2559
 2766SOL    HW119760   3.200   4.532   7.317  1.1747  0.4929 -0.8528
 2766SOL    HW219761   3.234   4.662   7.386 -1.5413  0.0145  0.3543
 2767SOL     OW19762   3.712   0.963  17.210 -0.2976  0.3803  0.5671
 2767SOL    HW119763   3.739   0.873  17.230  2.4712  1.0348 -0.2392
 2767SOL    HW219764   3.793   1.013  17.201 -0.2365 -0.3345 -2.6153
 2768SOL     OW19765   4.554   2.481   8.911 -0.2752  0.4466 -0.3983
 2768SOL    HW119766   4.586   2.393   8.893 -1.9752 -0.2063 -0.2164
 2768SOL    HW219767   4.539   2.472   9.005  1.4584 -0.8054 -0.2296
 2769SOL     OW19768   0.372   1.733  15.295  0.3176  0.0637 -0.2123
 2769SOL    HW119769   0.358   1.641  15.273  1.8334 -0.5543  1.3652
 2769SOL    HW219770   0.415   1.769  15.218 -0.9515  0.5157 -0.7227
 2770SOL     OW19771   0.622   0.153   1.937  0.3409  0.0217  0.9049
 2770SOL    HW119772   0.576   0.210   1.998  1.1914 -0.9796  2.4970
 2770SOL    HW219773   0.660   0.081   1.988  0.4699 -0.5654 -0.0325
 2771SOL     OW19774   1.035   3.079   6.622  1.1686 -0.1474  0.3925
 2771SOL    HW119775   1.073   3.126   6.696  0.2013  1.8509 -0.3681
 2771SOL    HW219776   0.943   3.072   6.644  1.4634  0.2345  1.7308
 2772SOL     OW19777   2.397   0.206   8.690 -0.2532  0.2510 -0.0367
 2772SOL    HW119778   2.343   0.284   8.677  2.9022  2.1369 -1.8559
 2772SOL    HW219779   2.344   0.158   8.754  0.0544  0.2210  0.1988
 2773SOL     OW19780   4.495   4.636   3.179 -0.5543 -0.3035  0.2074
 2773SOL    HW119781   4.416   4.585   3.165 -1.3546  0.9503  0.1935
 2773SOL    HW219782   4.458   4.705   3.233 -0.4245  1.1065 -1.5144
 2774SOL     OW19783   0.578   4.000   4.934 -0.0622 -0.5952 -0.1954
 2774SOL    HW119784   0.485   3.982   4.921 -0.9604  2.8087  1.4929
 2774SOL    HW219785   0.597   3.906   4.937 -1.5556 -0.9499 -2.0106
 2775SOL     OW19786   2.959   2.060  17.560  0.2509 -0.1013  0.1683
 2775SOL    HW119787   3.013   2.137  17.577 -0.0445  0.7739 -2.8677
 2775SOL    HW219788   2.971   2.035  17.468 -0.3587 -1.3719  0.4379
 2776SOL     OW19789   2.986   2.860  13.349  0.4212 -0.0569  0.1728
 2776SOL    HW119790   3.027   2.775  13.337 -0.9156 -0.7136  0.2576
 2776SOL    HW219791   2.924   2.865  13.275 -0.7635  1.0782  1.2426
 2777SOL     OW19792   3.826   2.959   7.263 -0.0171  0.2066 -0.2603
 2777SOL    HW119793   3.743   2.916   7.285 -0.7787  0.9620 -1.6354
 2777SOL    HW219794   3.864   2.973   7.349  1.7581 -1.0306 -0.8463
 2778SOL     OW19795   3.413   1.986  15.935  0.3931  0.3211 -0.4033
 2778SOL    HW119796   3.350   1.916  15.952  0.3120  0.5202  0.1318
 2778SOL    HW219797   3.467   1.974  16.013 -2.1895 -1.5435  1.0793
 2779SOL     OW19798   1.085   2.974   1.382 -0.5662 -0.4385 -1.0085
 2779SOL    HW119799   1.118   2.895   1.425  0.6339  1.1994  1.0839
 2779SOL    HW219800   1.102   3.038   1.452 -1.1351 -2.3939  0.9335
 2780SOL     OW19801   0.978   0.446  15.326 -0.6266 -0.1709 -0.0076
 2780SOL    HW119802   0.981   0.351  15.339  0.6627 -0.0637  0.4361
 2780SOL    HW219803   1.061   0.462  15.283 -0.0303 -0.6713  0.9548
 2781SOL     OW19804   0.628   2.155  14.883  0.1205 -0.4510  0.5981
 2781SOL    HW119805   0.646   2.157  14.977 -1.1724  2.2691  0.7783
 2781SOL    HW219806   0.707   2.122  14.839  1.6837  1.5326  1.8931
 2782SOL     OW19807   3.257   1.428   3.281  0.1016 -0.1046  0.6002
 2782SOL    HW119808   3.245   1.342   3.242 -0.2265  0.9224 -1.5849
 2782SOL    HW219809   3.170   1.460   3.257 -0.7763 -1.6049  1.8250
 2783SOL     OW19810   2.806   2.874  13.123  0.2751 -0.2645  0.3461
 2783SOL    HW119811   2.798   2.809  13.053  2.1494 -0.1257  0.0013
 2783SOL    HW219812   2.730   2.846  13.175  2.4270 -1.4300  2.8284
 2784SOL     OW19813   2.409   1.213   4.989  0.0236 -0.0909  0.2980
 2784SOL    HW119814   2.492   1.243   4.951  0.9193 -1.4505  1.1693
 2784SOL    HW219815   2.355   1.250   4.919 -0.2676  0.6095  0.8983
 2785SOL     OW19816   3.981   3.582  11.319  0.2869 -0.2119 -0.0093
 2785SOL    HW119817   3.915   3.579  11.389 -0.8838  0.1287 -1.0918
 2785SOL    HW219818   3.921   3.590  11.245 -0.2605 -0.8584  0.3634
 2786SOL     OW19819   1.502   2.559   0.543  0.4719  0.7700 -0.3161
 2786SOL    HW119820   1.506   2.575   0.448  1.3461  2.5509  0.0324
 2786SOL    HW219821   1.410   2.585   0.550  0.0730 -0.8715  0.4159
 2787SOL     OW19822   3.960   3.380   5.056 -0.5465 -0.4586  0.1915
 2787SOL    HW119823   3.879   3.334   5.034 -1.5235  2.7128 -2.8572
 2787SOL    HW219824   3.999   3.315   5.116  0.9406  0.4852  0.2533
 2788SOL     OW19825   3.605   2.294   7.643 -0.5140  0.0668  0.0277
 2788SOL    HW119826   3.567   2.359   7.584  3.0016  2.1219  0.0520
 2788SOL    HW219827   3.670   2.248   7.589 -1.3296 -0.5615 -0.4211
 2789SOL     OW19828   1.415   2.890   1.238  0.0024 -0.6606  0.4953
 2789SOL    HW119829   1.337   2.901   1.183  0.1243 -0.0589  0.4390
 2789SOL    HW219830   1.469   2.824   1.196  0.1498 -0.9527  1.1532
 2790SOL     OW19831   4.366   3.772   6.815  0.1960  0.0249  0.0810
 2790SOL    HW119832   4.427   3.758   6.887  0.3109  1.2814  0.2357
 2790SOL    HW219833   4.410   3.832   6.754 -1.2398  1.6439  0.6227
 2791SOL     OW19834   2.311   0.498   6.669  1.0766 -0.0204  0.3718
 2791SOL    HW119835   2.387   0.482   6.614  0.5678 -0.4409 -0.2009
 2791SOL    HW219836   2.354   0.544   6.741  1.8130 -1.7499  1.0392
 2792SOL     OW19837   1.353   0.763   6.008 -0.1955 -0.0158  0.0008
 2792SOL    HW119838   1.445   0.784   6.021 -0.0059 -0.8227 -0.0673
 2792SOL    HW219839   1.334   0.678   6.048 -3.1154 -0.2380 -1.8617
 2793SOL     OW19840   3.682   1.232   5.117 -0.8180 -0.2783 -0.2816
 2793SOL    HW119841   3.685   1.182   5.035  1.0542  0.6809 -0.7882
 2793SOL    HW219842   3.741   1.302   5.088 -2.3729  1.3183  0.3591
 2794SOL     OW19843   3.720   3.664   5.596 -0.1619  0.5760 -0.3200
 2794SOL    HW119844   3.719   3.582   5.646  0.1088  1.4394  1.1014
 2794SOL    HW219845   3.812   3.692   5.600 -0.7221  2.0210  2.0706
 2795SOL     OW19846   2.463   1.842   4.876  1.1187 -0.1196  0.3398
 2795SOL    HW119847   2.489   1.777   4.810  1.6669  1.5330 -1.0654
 2795SOL    HW219848   2.475   1.925   4.831 -1.8783  0.5582  0.7846
 2796SOL     OW19849   4.355   3.554   0.769  0.2103  0.1653  0.4686
 2796SOL    HW119850   4.282   3.557   0.830 -1.9183  1.2745 -2.1143
 2796SOL    HW219851   4.376   3.461   0.767 -2.2665 -0.4355  3.2467
 2797SOL     OW19852   0.673   1.592   7.348 -0.1852  0.3800  0.3369
 2797SOL    HW119853   0.594   1.585   7.402 -0.4358 -0.5197 -0.1557
 2797SOL    HW219854   0.633   1.594   7.262  0.5795 -2.3454 -0.0749
 2798SOL     OW19855   3.168   0.970   8.506 -0.9436 -0.2794 -0.0191
 2798SOL    HW119856   3.239   0.988   8.568 -2.0304  0.9350  0.8557
 2798SOL    HW219857   3.173   1.048   8.451  0.0163  0.1084  0.6093
 2799SOL     OW19858   3.153   3.334   3.437  0.0653 -0.3940 -0.0169
 2799SOL    HW119859   3.241   3.298   3.449 -0.1313 -0.6782  0.6257
 2799SOL    HW219860   3.130   3.299   3.523 -1.4790  1.6093  0.3825
 2800SOL     OW19861   4.421   4.210   7.612  0.0986  0.0488  1.1505
 2800SOL    HW119862   4.337   4.254   7.602  1.6441  2.9580  0.9555
 2800SOL    HW219863   4.410   4.148   7.683 -1.3337  0.3978  1.2255
 2801SOL     OW19864   3.741   3.663   6.603 -0.1970  0.9166 -0.2550
 2801SOL    HW119865   3.758   3.569   6.595  0.6346  1.1153 -0.7212
 2801SOL    HW219866   3.659   3.658   6.652 -0.9442 -0.2400 -1.6597
 2802SOL     OW19867   3.706   2.691   2.743 -0.1582  0.3875 -0.0500
 2802SOL    HW119868   3.662   2.678   2.659 -1.3607  1.2805  0.4420
 2802SOL    HW219869   3.797   2.697   2.714 -0.8189  2.6022 -1.6390
 2803SOL     OW19870   3.980   3.513   4.350  0.0254  0.1074  0.3806
 2803SOL    HW119871   4.018   3.425   4.349 -0.0278  0.1039 -1.7924
 2803SOL    HW219872   3.948   3.511   4.440 -3.4302  2.1679 -0.7974
 2804SOL     OW19873   2.394   2.780   5.029  0.9510 -0.3623 -0.6463
 2804SOL    HW119874   2.332   2.718   4.989 -1.0232  0.3827  1.2250
 2804SOL    HW219875   2.359   2.775   5.118 -1.2116 -0.7664 -1.5226
 2805SOL     OW19876   0.499   4.076   1.166 -0.1514 -0.1291 -0.2414
 2805SOL    HW119877   0.502   4.020   1.243  0.9915  0.3993  0.1001
 2805SOL    HW219878   0.474   4.160   1.206 -2.8093 -1.1807  0.2872
 2806SOL     OW19879   3.192   1.401   1.867  0.0456  0.1212  0.4076
 2806SOL    HW119880   3.287   1.409   1.863 -0.0703  0.9738 -0.5413
 2806SOL    HW219881   3.157   1.445   1.789  3.6649  2.9783  0.4363
 2807SOL     OW19882   0.972   3.369   4.661  0.3586  0.7773 -0.1543
 2807SOL    HW119883   0.969   3.434   4.591 -1.8857  0.5818 -0.2201
 2807SOL    HW219884   1.050   3.401   4.706  1.0125 -0.7145 -0.2276
 2808SOL     OW19885   2.441   2.694   6.252  0.5262 -0.4958 -0.0056
 2808SOL    HW119886   2.508   2.626   6.255  1.4411  0.3103 -1.7411
 2808SOL    HW219887   2.432   2.704   6.157 -2.1411 -0.0374  0.2738
 2809SOL     OW19888   2.114   1.301  12.851 -0.0495  0.3737 -0.3974
 2809SOL    HW119889   2.069   1.276  12.932 -1.5775 -1.4717 -1.8170
 2809SOL    HW219890   2.056   1.269  12.782 -1.8963 -1.6574  2.1053
 2810SOL     OW19891   2.017   4.253  13.024  0.0969  0.5465 -0.5661
 2810SOL    HW119892   1.962   4.304  13.084 -0.3166  1.4437 -1.7239
 2810SOL    HW219893   2.030   4.171  13.073  0.9443  2.0730  1.7900
 2811SOL     OW19894   2.809   2.276   4.566  0.1457 -0.1918 -0.0671
 2811SOL    HW119895   2.794   2.350   4.624  1.4132 -0.1029  0.1341
 2811SOL    HW219896   2.737   2.215   4.585  1.9292 -1.8128  1.3758
 2812SOL     OW19897   0.960   0.898   9.369 -0.0187 -0.1942 -0.2723
 2812SOL    HW119898   0.896   0.949   9.319  0.8355  1.2647  0.0989
 2812SOL    HW219899   0.972   0.954   9.446  0.0345  2.1992 -2.0135
 2813SOL     OW19900   2.153   0.034   4.568 -0.1889 -0.4767  0.0330
 2813SOL    HW119901   2.218   0.045   4.638 -1.1521  0.1081  0.8350
 2813SOL    HW219902   2.177   0.121   4.534 -1.6563 -0.1498 -0.1594
 2814SOL     OW19903   2.876   2.635   4.885 -0.2619 -0.3322  0.0379
 2814SOL    HW119904   2.954   2.587   4.913 -1.5314 -2.4977 -0.1706
 2814SOL    HW219905   2.813   2.628   4.957 -0.0836  1.3626  0.3555
 2815SOL     OW19906   0.125   1.743   4.011  0.3852 -0.0489  0.1562
 2815SOL    HW119907   0.133   1.696   3.928 -0.1932  1.0294 -0.5242
 2815SOL    HW219908   0.087   1.679   4.071 -1.0875 -0.7032 -1.4803
 2816SOL     OW19909   4.387   2.488   7.503 -0.1770  0.3072 -0.6328
 2816SOL    HW119910   4.467   2.478   7.556 -0.1823  0.6900 -0.5490
 2816SOL    HW219911   4.414   2.438   7.426 -0.4283  0.5093 -0.8500
 2817SOL     OW19912   2.619   2.822  10.580  0.1228 -0.4275  1.2038
 2817SOL    HW119913   2.571   2.904  10.569  0.0457 -0.5027  0.9756
 2817SOL    HW219914   2.553   2.762  10.615 -1.6486 -0.0511 -1.5679
 2818SOL     OW19915   0.930   4.134   5.801  0.1840  0.2561  0.3908
 2818SOL    HW119916   0.978   4.128   5.719 -2.3231 -0.9589 -1.0033
 2818SOL    HW219917   0.992   4.094   5.862  0.1065  1.8151  1.5058
 2819SOL     OW19918   1.812   0.315   7.218 -0.0091 -0.1708 -0.3416
 2819SOL    HW119919   1.795   0.322   7.312 -2.3167  1.8916 -0.9240
 2819SOL    HW219920   1.826   0.220   7.215  0.3724 -0.0893 -1.1208
 2820SOL     OW19921   2.464   3.347   7.471 -0.3703  0.1644 -0.3734
 2820SOL    HW119922   2.486   3.315   7.558 -0.3047 -0.8051 -0.7486
 2820SOL    HW219923   2.480   3.442   7.469  3.3325 -0.4595 -0.2634
 2821SOL     OW19924   3.175   2.178   8.807  0.1879  0.4589 -0.4569
 2821SOL    HW119925   3.098   2.121   8.796  0.1266  0.8561 -2.0868
 2821SOL    HW219926   3.218   2.130   8.878 -2.9608  1.2303  1.9667
 2822SOL     OW19927   2.187   3.822   8.678 -0.1973 -0.1210 -0.2696
 2822SOL    HW119928   2.279   3.800   8.691  0.1731  0.8350 -1.1826
 2822SOL    HW219929   2.194   3.865   8.592 -1.4623 -0.5986 -0.6133
 2823SOL     OW19930   2.826   2.323  13.327 -0.3322  0.0962 -0.3648
 2823SOL    HW119931   2.903   2.269  13.308 -2.6213 -2.5808 -1.9155
 2823SOL    HW219932   2.761   2.268  13.370 -1.1796  1.9310  0.7187
 2824SOL     OW19933   2.948   1.384   8.782 -0.4722  0.3599 -0.1065
 2824SOL    HW119934   2.860   1.407   8.752 -0.6930 -0.1955  0.1039
 2824SOL    HW219935   2.968   1.313   8.721  2.6022 -1.1113  2.6496
 2825SOL     OW19936   0.358   3.257   6.285 -0.1970 -0.1916 -0.4057
 2825SOL    HW119937   0.284   3.268   6.345 -0.9606 -1.6879 -1.0601
 2825SOL    HW219938   0.370   3.162   6.289 -1.5684 -0.3400  0.2256
 2826SOL     OW19939   4.029   3.522  13.351 -0.2390  0.1782 -0.0866
 2826SOL    HW119940   4.106   3.558  13.307 -0.7352 -1.4731 -2.3282
 2826SOL    HW219941   4.060   3.500  13.439  1.3294 -0.8597 -0.9055
 2827SOL     OW19942   0.079   2.590   5.501 -0.3512 -0.2577  0.1809
 2827SOL    HW119943   0.131   2.517   5.534 -0.0190 -0.2148 -0.2455
 2827SOL    HW219944   0.074   2.655   5.571  0.1677 -0.4450  0.3856
 2828SOL     OW19945   1.468   4.202  15.865 -0.0243  0.2223  0.4534
 2828SOL    HW119946   1.528   4.275  15.885 -1.6960  1.8183 -0.3056
 2828SOL    HW219947   1.490   4.148  15.941  1.6046 -0.0489 -0.2335
 2829SOL     OW19948   2.842   2.930   3.457  0.0631 -0.8093  0.3669
 2829SOL    HW119949   2.865   2.952   3.367 -1.6406 -0.8936 -0.0730
 2829SOL    HW219950   2.747   2.939   3.453  0.1398  0.5561  1.5612
 2830SOL     OW19951   4.301   2.274   8.385 -0.1088  0.3632  0.0791
 2830SOL    HW119952   4.334   2.216   8.453 -0.7441  1.9568  1.7605
 2830SOL    HW219953   4.208   2.288   8.403 -0.7158 -1.1568 -1.8465
 2831SOL     OW19954   1.802   2.242   2.403 -0.0930  0.3546  0.0169
 2831SOL    HW119955   1.857   2.294   2.461  1.7849 -0.2945 -1.1659
 2831SOL    HW219956   1.762   2.193   2.475 -1.2002  2.5526  0.8625
 2832SOL     OW19957   2.524   0.423   3.775  0.2297  0.0880 -0.5989
 2832SOL    HW119958   2.450   0.399   3.720  1.4848 -1.7328 -1.4916
 2832SOL    HW219959   2.603   0.379   3.742 -1.4557 -1.8899 -1.9982
 2833SOL     OW19960   2.211   0.754  12.271 -0.0176 -0.0416  0.4052
 2833SOL    HW119961   2.119   0.763  12.295  0.7350  0.7590  3.0201
 2833SOL    HW219962   2.241   0.726  12.358  0.8079 -2.0032 -0.5114
 2834SOL     OW19963   3.362   2.867  13.663  0.2205 -0.2518  0.2854
 2834SOL    HW119964   3.312   2.896  13.587  3.2494  3.0318 -0.4344
 2834SOL    HW219965   3.298   2.805  13.698  0.4478 -1.2612 -1.0884
 2835SOL     OW19966   1.905   1.672  13.868 -0.5559 -0.2247 -0.4576
 2835SOL    HW119967   1.878   1.728  13.795 -0.0832  0.1737 -0.3270
 2835SOL    HW219968   1.822   1.628  13.885 -0.8411  0.7344  0.5716
 2836SOL     OW19969   3.726   1.347   2.828  0.1309  0.0202 -0.2813
 2836SOL    HW119970   3.763   1.377   2.912  0.6665 -1.8106  0.1468
 2836SOL    HW219971   3.651   1.406   2.826 -0.2941 -0.5137 -0.1271
 2837SOL     OW19972   0.814   0.440   9.061  0.0424  0.2993  0.2523
 2837SOL    HW119973   0.785   0.451   9.152  0.3443 -2.1624  0.6591
 2837SOL    HW219974   0.805   0.345   9.053  0.1557  0.3744 -0.6990
 2838SOL     OW19975   1.161   3.168   5.225  0.1475 -0.2947  0.2602
 2838SOL    HW119976   1.160   3.083   5.269  1.8843 -1.2947 -1.6591
 2838SOL    HW219977   1.209   3.147   5.145  1.4841 -1.6203  1.4120
 2839SOL     OW19978   3.302   4.303   7.929 -0.6108  0.0424 -0.0432
 2839SOL    HW119979   3.329   4.236   7.866  1.0406  1.8537 -1.2717
 2839SOL    HW219980   3.369   4.369   7.913 -1.3266  0.2338 -2.2404
 2840SOL     OW19981   1.710   1.655   7.364 -0.3559  0.5144 -0.2577
 2840SOL    HW119982   1.703   1.578   7.309 -3.0711 -0.4665  1.4344
 2840SOL    HW219983   1.694   1.607   7.445 -1.1642  0.6243 -0.3476
 2841SOL     OW19984   4.716   3.056  16.091  0.3611  0.5839 -0.0243
 2841SOL    HW119985   0.007   2.978  16.145 -2.1379  0.3549  0.1636
 2841SOL    HW219986   0.082   3.065  16.049  1.6373 -1.0551  2.2585
 2842SOL     OW19987   3.172   1.938   6.772 -0.1066 -1.2797  0.8399
 2842SOL    HW119988   3.110   1.985   6.827  0.8720 -0.3959  1.1929
 2842SOL    HW219989   3.236   2.009   6.764 -1.2427 -0.2258  1.1809
 2843SOL     OW19990   4.009   2.328  12.923 -0.2928  0.6554  0.2528
 2843SOL    HW119991   4.056   2.390  12.867 -0.7522  0.4184 -0.3913
 2843SOL    HW219992   3.994   2.383  13.000  1.0987  3.0976 -1.2217
 2844SOL     OW19993   1.160   3.013   0.783  0.1026  0.5801  0.2340
 2844SOL    HW119994   1.143   2.935   0.731 -1.1330  1.3885 -0.5806
 2844SOL    HW219995   1.159   3.082   0.717 -0.6078  1.5236  1.2117
 2845SOL     OW19996   1.354   3.121   4.906  0.0144 -0.0969 -0.1951
 2845SOL    HW119997   1.405   3.202   4.911 -1.1230  0.3539  4.5058
 2845SOL    HW219998   1.390   3.059   4.969 -0.9014  1.5505  1.9623
 2846SOL     OW19999   4.008   1.999   7.172 -0.2032  0.5465 -0.2658
 2846SOL    HW120000   4.073   1.930   7.165  0.4525  0.9651  1.8005
 2846SOL    HW220001   3.926   1.950   7.185  1.1158 -1.6688 -0.3038
 2847SOL     OW20002   4.231   3.743   6.363  0.1111 -0.2393  0.0868
 2847SOL    HW120003   4.197   3.833   6.368 -2.1544 -1.1095  0.5976
 2847SOL    HW220004   4.301   3.742   6.428 -0.1542  1.7952  0.4264
 2848SOL     OW20005   2.358   1.256  13.769  0.0880  0.0273  0.0302
 2848SOL    HW120006   2.362   1.347  13.740 -2.3082  0.2282  0.3837
 2848SOL    HW220007   2.405   1.269  13.851  1.1061  0.2081 -0.5783
 2849SOL     OW20008   2.422   1.130   9.390  0.1107  0.3361  0.3574
 2849SOL    HW120009   2.401   1.221   9.408 -1.1999 -0.0090  0.5336
 2849SOL    HW220010   2.511   1.118   9.425  0.3961  1.5717  0.0533
 2850SOL     OW20011   1.641   2.741   8.381 -0.4535 -0.6049  0.1543
 2850SOL    HW120012   1.660   2.689   8.303 -0.9952 -0.6427  0.0434
 2850SOL    HW220013   1.570   2.688   8.419 -0.0358  0.0784  1.8853
 2851SOL     OW20014   3.661   4.715   2.587 -0.3362  0.1162 -0.4103
 2851SOL    HW120015   3.692   4.705   2.497  0.2630 -2.7225  0.0984
 2851SOL    HW220016   3.695   4.632   2.621 -0.5776 -0.7269 -2.2192
 2852SOL     OW20017   2.591   2.225   8.155 -0.1920 -0.5136  0.2440
 2852SOL    HW120018   2.607   2.251   8.246  0.8142 -1.3295  0.3010
 2852SOL    HW220019   2.498   2.206   8.166 -0.7859  1.6911 -1.0246
 2853SOL     OW20020   3.875   4.678   5.557  0.1297 -0.2301 -0.0989
 2853SOL    HW120021   3.810   4.621   5.516  1.3951 -1.4935 -0.3445
 2853SOL    HW220022   3.845   4.671   5.648 -1.8647 -1.3279 -0.8448
 2854SOL     OW20023   0.239   1.452   2.228 -0.4316 -0.0612 -0.0884
 2854SOL    HW120024   0.287   1.522   2.185  0.5066 -1.0933 -0.7273
 2854SOL    HW220025   0.215   1.482   2.316 -2.6247 -1.1512 -0.2989
 2855SOL     OW20026   3.382   3.572  17.380 -0.1226 -0.5333 -0.0129
 2855SOL    HW120027   3.288   3.562  17.366 -0.2245  0.9592 -0.3895
 2855SOL    HW220028   3.415   3.510  17.445 -1.8916 -0.3253  1.0842
 2856SOL     OW20029   2.332   1.066   9.948  0.2153  0.5562 -0.2295
 2856SOL    HW120030   2.392   1.133   9.982  2.8721 -0.8016 -2.2375
 2856SOL    HW220031   2.354   0.982   9.987 -0.3294 -0.0110 -1.1592
 2857SOL     OW20032   2.306   1.279  16.555  0.3758  0.3729  0.0157
 2857SOL    HW120033   2.329   1.319  16.471 -0.4544 -0.6728 -0.6996
 2857SOL    HW220034   2.255   1.203  16.527 -1.2259  1.3732  0.1937
 2858SOL     OW20035   2.606   2.087   6.673 -0.0171 -0.0572 -0.3554
 2858SOL    HW120036   2.567   2.082   6.586 -1.5518 -2.1005  0.4621
 2858SOL    HW220037   2.697   2.112   6.654 -0.2506  1.0057 -0.0621
 2859SOL     OW20038   1.027   1.606   4.356 -0.2807  0.0130  0.3398
 2859SOL    HW120039   0.959   1.673   4.359  1.0974  1.4665 -0.8533
 2859SOL    HW220040   1.026   1.582   4.449 -0.2076  2.4350  0.9647
 2860SOL     OW20041   0.276   3.492   5.901  0.2450 -0.2653  0.2907
 2860SOL    HW120042   0.282   3.562   5.837 -0.9388 -1.5046 -1.2007
 2860SOL    HW220043   0.218   3.427   5.860  2.2209 -0.8772 -1.5652
 2861SOL     OW20044   4.433   4.694   5.813  0.5108 -0.0410  0.0745
 2861SOL    HW120045   4.407   4.660   5.728 -1.0424  0.7355  0.2238
 2861SOL    HW220046   4.441   0.066   5.789 -0.0988  0.1360  0.5362
 2862SOL     OW20047   0.954   1.471   5.811  0.4924  0.2801 -0.1464
 2862SOL    HW120048   1.043   1.453   5.779 -0.3420 -2.1251 -1.1839
 2862SOL    HW220049   0.907   1.461   5.728 -0.2398  0.5808  0.2389
 2863SOL     OW20050   3.187   2.887   7.413 -0.3956  0.2413  0.7571
 2863SOL    HW120051   3.105   2.899   7.462 -3.0630 -2.7627 -2.9601
 2863SOL    HW220052   3.175   2.798   7.379 -0.6555  0.6462 -0.2377
 2864SOL     OW20053   4.259   0.054  16.987 -1.2429  0.1203 -0.7804
 2864SOL    HW120054   4.319   4.714  17.030 -0.6765  1.4163  0.2610
 2864SOL    HW220055   4.292   0.135  17.027  3.8371 -1.9068 -0.9806
 2865SOL     OW20056   3.004   1.418  12.868  0.0818  0.3171 -0.3021
 2865SOL    HW120057   2.968   1.425  12.780  1.4688 -1.3364 -1.0015
 2865SOL    HW220058   2.922   1.389  12.908 -0.0649  1.7374  0.4247
 2866SOL     OW20059   2.666   4.712   5.910 -0.3170  0.9195 -0.1197
 2866SOL    HW120060   2.654   4.633   5.963  0.6244  0.5615 -0.4520
 2866SOL    HW220061   2.702   0.050   5.976  0.2219  2.1280 -1.4853
 2867SOL     OW20062   2.744   1.890  10.836 -0.2899  0.0187 -0.0118
 2867SOL    HW120063   2.657   1.855  10.815 -0.0661 -0.7098  0.2523
 2867SOL    HW220064   2.789   1.865  10.755  0.4220  0.7102  0.1725
 2868SOL     OW20065   4.630   2.233   8.823 -0.1360 -0.6328 -0.3287
 2868SOL    HW120066   4.643   2.149   8.779  3.5868 -0.4843  0.4721
 2868SOL    HW220067   4.618   2.197   8.911  0.1759 -0.6035 -0.2763
 2869SOL     OW20068   2.340   1.407   2.597 -0.6185  0.0931 -0.2761
 2869SOL    HW120069   2.304   1.333   2.646  0.6003 -0.8866 -0.8945
 2869SOL    HW220070   2.277   1.476   2.622 -0.2477 -0.8993  3.4607
 2870SOL     OW20071   2.823   1.881   0.271  0.8162  0.2213 -0.3556
 2870SOL    HW120072   2.775   1.824   0.332 -0.6400  2.3931  0.5288
 2870SOL    HW220073   2.823   1.964   0.318  1.1518 -0.8365  1.5187
 2871SOL     OW20074   3.023   0.149   4.309 -0.2022 -0.0495  0.6217
 2871SOL    HW120075   3.011   0.068   4.358  0.4089 -0.9098 -0.6608
 2871SOL    HW220076   2.932   0.175   4.297  0.0891  0.1464 -1.1154
 2872SOL     OW20077   1.537   1.592   5.662 -0.2954 -0.1345  0.3830
 2872SOL    HW120078   1.630   1.610   5.675 -0.2219  0.7487 -1.4212
 2872SOL    HW220079   1.505   1.681   5.675  2.5212  0.8895  0.1991
 2873SOL     OW20080   0.127   2.196   5.878 -0.5830  1.4757  0.1666
 2873SOL    HW120081   0.103   2.106   5.900  0.6683  0.8528 -1.0231
 2873SOL    HW220082   0.202   2.172   5.823 -1.4468  0.0746 -0.4145
 2874SOL     OW20083   2.075   4.717  14.438  0.0919 -0.1196  0.5270
 2874SOL    HW120084   2.038   4.662  14.369  2.7402 -0.3768 -0.6733
 2874SOL    HW220085   2.140   4.654  14.469 -0.4363 -1.0292 -0.2051
 2875SOL     OW20086   0.957   3.781  11.425  0.6812 -0.7245  0.5434
 2875SOL    HW120087   0.961   3.837  11.503 -0.7228  0.6114 -0.3416
 2875SOL    HW220088   0.940   3.693  11.460  2.2350 -2.4695 -3.1169
 2876SOL     OW20089   4.323   3.716  17.288 -0.2791 -0.4262 -0.3143
 2876SOL    HW120090   4.320   3.812  17.292 -1.1143 -0.4967  0.6363
 2876SOL    HW220091   4.255   3.689  17.349  0.1698  1.1844  0.9147
 2877SOL     OW20092   0.870   3.811   5.314 -0.1346  0.5306  0.3397
 2877SOL    HW120093   0.832   3.853   5.391 -0.7511 -0.3575  0.5172
 2877SOL    HW220094   0.862   3.885   5.254  1.0677 -0.3481 -0.8816
 2878SOL     OW20095   4.331   2.494   5.311 -0.4575  0.0064  0.6948
 2878SOL    HW120096   4.299   2.561   5.372  0.0967 -0.1145  1.1174
 2878SOL    HW220097   4.243   2.459   5.292  0.3869 -0.8988 -1.4798
 2879SOL     OW20098   1.608   3.793  12.968 -0.3024  0.6967  0.5033
 2879SOL    HW120099   1.633   3.768  12.879 -0.3811  0.9589  0.4067
 2879SOL    HW220100   1.676   3.856  12.990 -1.0301  2.2009 -1.5610
 2880SOL     OW20101   3.226   3.809   9.086 -0.4525  0.3358  0.2221
 2880SOL    HW120102   3.173   3.870   9.137 -2.7372  0.8448 -2.6950
 2880SOL    HW220103   3.177   3.729   9.108  0.5858 -0.5956 -0.8791
 2881SOL     OW20104   3.687   0.295  15.304  0.2539  0.2324 -0.1491
 2881SOL    HW120105   3.677   0.236  15.379  2.3860 -0.1046 -0.1318
 2881SOL    HW220106   3.753   0.357  15.336 -0.4939  1.1763 -0.4088
 2882SOL     OW20107   2.412   0.329   2.097 -0.1849 -0.3213  0.1438
 2882SOL    HW120108   2.450   0.413   2.071 -1.2113 -0.7573 -2.8195
 2882SOL    HW220109   2.500   0.291   2.092 -0.9748 -2.4049  1.9638
 2883SOL     OW20110   4.389   2.908  10.650  0.4704 -0.0327 -0.2483
 2883SOL    HW120111   4.410   2.866  10.734  0.9311  4.3760  1.8416
 2883SOL    HW220112   4.320   2.969  10.677  0.9164  0.0406  0.7119
 2884SOL     OW20113   1.904   0.760   4.599  0.1077 -0.4562 -0.5142
 2884SOL    HW120114   1.973   0.808   4.552 -0.1448  1.5666  1.1734
 2884SOL    HW220115   1.953   0.681   4.622  0.9018 -0.7870 -3.3962
 2885SOL     OW20116   1.540   3.406  10.440  0.6969  0.3043  0.2212
 2885SOL    HW120117   1.584   3.447  10.515 -3.0253  2.4519  1.2629
 2885SOL    HW220118   1.608   3.398  10.374 -0.8532 -0.7340 -1.2420
 2886SOL     OW20119   1.346   4.222   4.574  0.2645  0.2505 -0.2049
 2886SOL    HW120120   1.300   4.259   4.649 -0.3210 -2.7353  0.9152
 2886SOL    HW220121   1.387   4.296   4.530  0.2562 -0.1663 -0.8992
 2887SOL     OW20122   0.228   2.398  13.345  0.4184  0.7593  0.3528
 2887SOL    HW120123   0.251   2.395  13.252  0.2251 -1.1118  0.3784
 2887SOL    HW220124   0.297   2.356  13.396 -0.2298 -1.6066 -0.7196
 2888SOL     OW20125   4.582   0.785   8.714 -0.5500 -0.5573 -0.1301
 2888SOL    HW120126   4.551   0.848   8.649 -1.6667  0.2687  1.2066
 2888SOL    HW220127   4.566   0.826   8.799  1.0581 -0.4571  0.1378
 2889SOL     OW20128   2.935   1.210   2.399 -0.9617  0.2432  0.3674
 2889SOL    HW120129   2.943   1.253   2.484  0.0559 -0.6361  0.7177
 2889SOL    HW220130   2.891   1.128   2.423 -2.3504  1.0524  0.5783
 2890SOL     OW20131   1.517   3.709   5.864  0.0362 -0.1722 -0.7393
 2890SOL    HW120132   1.595   3.654   5.861  0.1792  0.0344 -0.7796
 2890SOL    HW220133   1.460   3.635   5.888  1.6646 -1.1476  0.1415
 2891SOL     OW20134   3.278   4.257   4.322 -0.1587  0.8314  0.4622
 2891SOL    HW120135   3.367   4.255   4.288 -1.2450 -0.4209 -2.2465
 2891SOL    HW220136   3.282   4.187   4.387 -0.0089  2.3018  2.0530
 2892SOL     OW20137   1.356   0.058  17.421 -0.8472  0.2711  0.3314
 2892SOL    HW120138   1.286   0.113  17.458  0.1535  1.1483  0.9086
 2892SOL    HW220139   1.384   0.025  17.506 -0.3689  2.1836  0.9134
 2893SOL     OW20140   0.134   3.985   8.815  0.2604  0.6761 -0.0007
 2893SOL    HW120141   0.126   3.927   8.739 -1.3675  1.7743 -0.6771
 2893SOL    HW220142   0.224   3.966   8.841 -0.2587 -0.5433  0.8967
 2894SOL     OW20143   4.440   0.970  13.266  0.0836 -0.0875  0.1268
 2894SOL    HW120144   4.491   0.905  13.219 -0.7982 -0.5066 -0.2393
 2894SOL    HW220145   4.434   1.048  13.210 -1.6525 -0.4063 -0.1258
 2895SOL     OW20146   3.100   3.367   5.364  0.4129  0.2764  0.4196
 2895SOL    HW120147   3.094   3.458   5.392  1.0310  0.1554  0.9683
 2895SOL    HW220148   3.088   3.368   5.269 -1.3190  1.6160  0.6704
 2896SOL     OW20149   3.921   3.881   5.320  0.2778 -0.2902 -0.2452
 2896SOL    HW120150   3.927   3.874   5.415 -1.7713 -0.5632 -0.1366
 2896SOL    HW220151   4.010   3.866   5.288  0.2778  0.8867 -0.7954
 2897SOL     OW20152   3.013   2.390  14.271  0.8371  0.1490  0.0155
 2897SOL    HW120153   2.963   2.394  14.189  1.0380 -2.6336 -0.2778
 2897SOL    HW220154   3.047   2.479  14.276 -1.3742  1.2457 -4.4714
 2898SOL     OW20155   3.818   1.743   9.219 -0.1399 -0.6265 -0.5758
 2898SOL    HW120156   3.740   1.797   9.225  0.4115 -0.1405  2.4359
 2898SOL    HW220157   3.773   1.659   9.211  1.4043 -1.5536  0.5231
 2899SOL     OW20158   2.546   3.135   8.626 -0.8369 -0.1252 -0.0326
 2899SOL    HW120159   2.631   3.130   8.670 -0.9322  2.6423  0.4202
 2899SOL    HW220160   2.562   3.086   8.545  0.1400  1.8994 -1.0652
 2900SOL     OW20161   3.859   4.519  17.277 -0.3807 -0.0903  0.3767
 2900SOL    HW120162   3.932   4.459  17.259  0.8174  1.0063  1.5684
 2900SOL    HW220163   3.813   4.528  17.194 -0.4830  0.9814  0.5525
 2901SOL     OW20164   3.400   4.411   7.015  0.4405  0.0665  0.3795
 2901SOL    HW120165   3.382   4.375   6.928  1.7710  0.2348  0.0407
 2901SOL    HW220166   3.482   4.455   6.992  1.6710 -2.7976 -0.6480
 2902SOL     OW20167   2.943   0.328   3.049 -0.1291 -0.4011  0.0519
 2902SOL    HW120168   2.977   0.298   2.965 -2.3750  0.8030 -1.2989
 2902SOL    HW220169   3.021   0.330   3.104  0.9741  1.0797 -1.5682
 2903SOL     OW20170   0.745   3.489   5.399  0.0514  0.1970  0.4915
 2903SOL    HW120171   0.836   3.519   5.401 -0.1459  0.8959 -1.3749
 2903SOL    HW220172   0.747   3.429   5.474  0.5885 -0.8297 -0.3326
 2904SOL     OW20173   0.626   0.132   7.338  0.3252 -0.0293 -0.0677
 2904SOL    HW120174   0.659   0.222   7.334 -1.9510  0.8725  1.9529
 2904SOL    HW220175   0.697   0.069   7.329  0.8581  0.4828  0.5054
 2905SOL     OW20176   1.075   0.388   4.498 -0.1638 -0.3386  0.2179
 2905SOL    HW120177   1.005   0.330   4.526 -0.3834 -0.2896 -0.2186
 2905SOL    HW220178   1.048   0.480   4.506 -1.3990 -0.6605 -0.1714
 2906SOL     OW20179   3.615   4.702   7.501 -0.2174 -0.1700 -0.6857
 2906SOL    HW120180   3.679   4.711   7.572  0.0563  0.7565 -1.0526
 2906SOL    HW220181   3.681   4.687   7.433 -0.2887 -2.1660 -0.3303
 2907SOL     OW20182   3.560   1.367  16.174 -0.8575  0.5390 -0.0536
 2907SOL    HW120183   3.499   1.388  16.244  1.5344 -2.1564  2.8512
 2907SOL    HW220184   3.648   1.396  16.199 -0.6288 -0.1756 -0.0385
 2908SOL     OW20185   0.562   3.282  13.818  0.6743  0.3468 -0.0921
 2908SOL    HW120186   0.598   3.193  13.812 -0.4594 -0.1934  1.1658
 2908SOL    HW220187   0.504   3.277  13.894 -0.4439 -0.4303 -0.9896
 2909SOL     OW20188   3.114   0.824   1.786  0.1888 -0.7132 -0.3666
 2909SOL    HW120189   3.056   0.859   1.854  0.9884 -0.0426 -0.0148
 2909SOL    HW220190   3.122   0.734   1.819 -1.1890 -0.4404  0.7423
 2910SOL     OW20191   3.290   0.807   7.573 -0.0316 -0.2528 -0.2710
 2910SOL    HW120192   3.202   0.779   7.602  0.4893 -0.8817  0.7056
 2910SOL    HW220193   3.287   0.831   7.481  1.1560  0.2112 -0.1830
 2911SOL     OW20194   2.272   3.314  14.778  0.0902 -0.3039  0.5963
 2911SOL    HW120195   2.263   3.266  14.860  1.4252  2.5581  2.4041
 2911SOL    HW220196   2.333   3.376  14.816 -0.5929 -0.7642  2.4209
 2912SOL     OW20197   1.020   4.440   9.999 -0.1921 -0.2758 -0.0409
 2912SOL    HW120198   0.928   4.460  10.019 -0.0717  0.2278 -0.0100
 2912SOL    HW220199   1.043   4.378  10.068  0.0051 -0.3558 -0.1789
 2913SOL     OW20200   1.861   3.760   3.951 -0.3441  0.6531  0.7700
 2913SOL    HW120201   1.833   3.818   4.022  0.6596  1.8632  0.1812
 2913SOL    HW220202   1.789   3.702   3.925  0.0743  1.3493 -1.9168
 2914SOL     OW20203   3.317   2.110   8.599 -0.4781 -0.0837  0.4504
 2914SOL    HW120204   3.264   2.140   8.672 -0.8978 -2.2691  1.0606
 2914SOL    HW220205   3.369   2.043   8.643  0.9500 -0.8527 -2.3873
 2915SOL     OW20206   4.101   3.587  10.015 -0.0235 -0.3930  0.1025
 2915SOL    HW120207   4.137   3.590   9.927  1.0265 -0.6785  0.5250
 2915SOL    HW220208   4.010   3.573   9.988  0.5169 -0.9492 -1.4321
 2916SOL     OW20209   2.976   3.385   5.098 -0.1935 -0.7117  0.0033
 2916SOL    HW120210   2.949   3.296   5.119 -0.8031 -0.8967 -1.5391
 2916SOL    HW220211   3.011   3.367   5.010 -0.5340 -1.1315 -0.0456
 2917SOL     OW20212   2.212   1.185   7.316  0.1315 -0.1053 -0.1684
 2917SOL    HW120213   2.281   1.161   7.253 -0.4161  0.0058 -0.8095
 2917SOL    HW220214   2.200   1.107   7.370 -0.2113 -0.0971 -0.2325
 2918SOL     OW20215   3.886   1.974   1.382  0.5328  0.2523 -0.1953
 2918SOL    HW120216   3.955   2.038   1.364  1.2935 -0.6318 -0.4456
 2918SOL    HW220217   3.937   1.893   1.382 -0.9297 -0.6606 -0.3086
 2919SOL     OW20218   0.638   3.520   5.753  0.0216  0.6564  0.0769
 2919SOL    HW120219   0.675   3.510   5.841 -0.7634  0.9429  0.4389
 2919SOL    HW220220   0.697   3.588   5.721  1.7130 -0.4789  0.7859
 2920SOL     OW20221   3.290   1.584   5.745 -0.1993 -0.1114  0.1608
 2920SOL    HW120222   3.308   1.650   5.812  2.2996  0.5979 -1.2194
 2920SOL    HW220223   3.275   1.640   5.668  0.4565  2.3478  1.8079
 2921SOL     OW20224   0.112   2.567   4.746 -0.4598 -0.2685  0.7710
 2921SOL    HW120225   0.120   2.587   4.839 -1.9574 -2.4750  1.3731
 2921SOL    HW220226   0.059   2.639   4.713  1.8809  0.0658 -2.2576
 2922SOL     OW20227   1.284   0.403  10.359  1.1808 -0.1567 -0.3861
 2922SOL    HW120228   1.273   0.455  10.439 -1.8662  1.5520 -1.9336
 2922SOL    HW220229   1.331   0.327  10.393  1.0766 -0.6517 -1.3458
 2923SOL     OW20230   2.466   4.063   6.516  0.5530 -0.4558  0.5362
 2923SOL    HW120231   2.467   4.119   6.439  0.1781 -1.1123  0.0447
 2923SOL    HW220232   2.517   4.112   6.580  1.9823 -1.6290  0.3050
 2924SOL     OW20233   0.625   2.094   4.177 -0.3644 -0.0334 -0.1436
 2924SOL    HW120234   0.579   2.178   4.183 -0.1786 -0.0408  1.6135
 2924SOL    HW220235   0.701   2.116   4.231  1.6089 -0.7073 -2.6495
 2925SOL     OW20236   2.863   3.562   3.773  0.5725  0.3432  0.3613
 2925SOL    HW120237   2.903   3.568   3.686 -0.1994 -1.3249 -0.0931
 2925SOL    HW220238   2.864   3.655   3.799 -1.1829  0.9032 -1.5000
 2926SOL     OW20239   4.596   3.954   3.720  0.0423 -0.0430 -0.0130
 2926SOL    HW120240   4.683   3.994   3.716  1.0026 -1.9648  1.3188
 2926SOL    HW220241   4.541   4.031   3.737  0.5617  0.2778  0.2037
 2927SOL     OW20242   1.994   3.711   4.743 -0.3458  0.1658 -0.0864
 2927SOL    HW120243   1.998   3.668   4.658 -0.2710 -1.0521  0.5441
 2927SOL    HW220244   2.035   3.641   4.793 -0.7799 -0.9049 -1.2171
 2928SOL     OW20245   1.972   2.520   8.312  0.2662  0.0723 -0.4587
 2928SOL    HW120246   1.935   2.554   8.394 -2.1243  0.4106 -1.6834
 2928SOL    HW220247   2.054   2.570   8.308  2.3879 -3.5265 -1.4940
 2929SOL     OW20248   1.457   1.488   2.808 -0.2607  0.7168  0.4324
 2929SOL    HW120249   1.528   1.529   2.858  0.8066  0.3261 -0.7635
 2929SOL    HW220250   1.441   1.408   2.858  0.3961 -0.1507 -0.7376
 2930SOL     OW20251   2.669   1.625  14.192  0.1290 -0.4948  0.7469
 2930SOL    HW120252   2.602   1.556  14.194 -1.5533  1.2032  3.2390
 2930SOL    HW220253   2.744   1.585  14.148 -1.4082 -1.8626 -0.6091
 2931SOL     OW20254   1.213   0.412   4.261  0.1174 -0.0002  0.1498
 2931SOL    HW120255   1.193   0.502   4.284 -0.4255 -0.1824  0.3887
 2931SOL    HW220256   1.182   0.364   4.338 -3.0954  2.1294  0.1969
 2932SOL     OW20257   1.368   1.953  11.233 -0.2214 -0.0846 -0.2727
 2932SOL    HW120258   1.418   1.888  11.185  0.9035 -0.8227  1.9086
 2932SOL    HW220259   1.306   1.993  11.172 -0.2648 -0.0902 -0.2332
 2933SOL     OW20260   0.471   3.440   9.118 -0.0991 -0.0866 -0.0260
 2933SOL    HW120261   0.393   3.388   9.098  0.4556 -1.7335  2.1250
 2933SOL    HW220262   0.525   3.428   9.040 -0.0908  0.8624 -0.1630
 2934SOL     OW20263   3.982   0.775   1.099  0.0934 -0.1393  0.3045
 2934SOL    HW120264   3.939   0.814   1.022 -0.7228  0.6622  1.1643
 2934SOL    HW220265   4.075   0.779   1.077  0.2473  2.3867  1.4513
 2935SOL     OW20266   3.459   3.478  11.444 -0.7537 -0.0805  0.1035
 2935SOL    HW120267   3.512   3.404  11.414 -0.0271  0.3253  0.3972
 2935SOL    HW220268   3.374   3.435  11.446  0.8053 -3.0330  2.8628
 2936SOL     OW20269   0.095   2.734   5.264  0.1757  0.1685  0.7016
 2936SOL    HW120270   0.010   2.758   5.301  0.3667  2.3418 -0.2889
 2936SOL    HW220271   0.125   2.663   5.322 -0.7402 -0.7955  0.0055
 2937SOL     OW20272   1.520   0.072   8.548 -0.5259 -0.4094  0.4274
 2937SOL    HW120273   1.439   0.100   8.504  0.3933  1.7336  0.1444
 2937SOL    HW220274   1.594   0.111   8.503  0.2173 -1.7436  0.4845
 2938SOL     OW20275   1.599   1.550   3.090 -0.3678  0.0429  0.1623
 2938SOL    HW120276   1.637   1.609   3.156 -0.6723  1.7191 -1.1696
 2938SOL    HW220277   1.553   1.482   3.140 -0.9474 -2.0868 -3.2428
 2939SOL     OW20278   2.137   3.386  11.115 -0.6241 -0.5139 -0.2564
 2939SOL    HW120279   2.069   3.338  11.067 -0.2107 -1.2763 -0.0677
 2939SOL    HW220280   2.206   3.321  11.128 -1.0409 -0.6046  1.5298
 2940SOL     OW20281   0.262   3.006   7.538  0.2713 -0.2270 -0.5787
 2940SOL    HW120282   0.339   2.954   7.517  1.9584  2.1500 -0.3306
 2940SOL    HW220283   0.197   2.937   7.551  0.5529 -0.3455  0.1942
 2941SOL     OW20284   4.704   3.146  11.679 -0.5732  0.1452 -0.7432
 2941SOL    HW120285   4.717   3.077  11.744 -0.7481 -0.1260 -0.9991
 2941SOL    HW220286   4.717   3.094  11.600  0.3810 -1.2103  0.3078
 2942SOL     OW20287   1.049   2.517   4.878 -0.2913  0.1273  0.2296
 2942SOL    HW120288   1.131   2.484   4.914  1.1182  0.8027 -2.3350
 2942SOL    HW220289   1.017   2.431   4.852 -0.2991  0.2299 -0.1018
 2943SOL     OW20290   0.516   4.279   2.858 -0.1866  0.3563  0.1686
 2943SOL    HW120291   0.538   4.347   2.795  1.3064  0.1917  0.5136
 2943SOL    HW220292   0.462   4.232   2.795  1.7427 -0.7931 -0.6411
 2944SOL     OW20293   3.708   3.078  13.750 -0.6107  0.2269  0.4081
 2944SOL    HW120294   3.800   3.062  13.773 -0.3127  0.8194 -0.3829
 2944SOL    HW220295   3.677   3.040  13.832  2.4255 -0.0485  1.4338
 2945SOL     OW20296   4.458   4.659   6.086  0.5343  0.0038 -0.2304
 2945SOL    HW120297   4.529   4.707   6.042  0.0264  0.7796 -0.1931
 2945SOL    HW220298   4.407   4.626   6.012 -1.2728  1.9119  0.1837
 2946SOL     OW20299   0.280   3.286   2.562 -0.6374  0.4815 -0.2379
 2946SOL    HW120300   0.353   3.292   2.623  0.6263 -1.3168 -1.5586
 2946SOL    HW220301   0.218   3.346   2.602  1.2701  1.3142  1.4394
 2947SOL     OW20302   1.206   3.347   3.340 -0.9758 -0.1204  0.1139
 2947SOL    HW120303   1.179   3.384   3.255  1.2572 -2.5761 -1.6771
 2947SOL    HW220304   1.129   3.313   3.385 -1.4824 -2.1141 -2.2736
 2948SOL     OW20305   2.232   1.807   5.056 -0.6486  0.0646 -0.7606
 2948SOL    HW120306   2.309   1.833   5.004 -0.6957 -1.5803 -1.6414
 2948SOL    HW220307   2.186   1.740   5.007  0.0435 -0.8690 -0.1282
 2949SOL     OW20308   3.148   4.194  14.938  0.8765  0.2621 -0.4096
 2949SOL    HW120309   3.184   4.262  14.994  0.8817 -0.3398  0.3259
 2949SOL    HW220310   3.062   4.170  14.974  0.2467  0.7016 -1.6318
 2950SOL     OW20311   3.154   0.723   3.484  0.1090 -0.4661  0.1758
 2950SOL    HW120312   3.198   0.689   3.562  2.3061 -1.8322 -1.6467
 2950SOL    HW220313   3.078   0.770   3.518  0.4486  0.6091 -0.5678
 2951SOL     OW20314   2.689   1.731   0.439 -0.0405  0.2006 -0.5029
 2951SOL    HW120315   2.682   1.730   0.535  1.4219  0.3310 -0.3967
 2951SOL    HW220316   2.594   1.723   0.434 -0.1042 -0.3053  1.3217
 2952SOL     OW20317   1.807   3.981  10.772 -0.3402 -0.0522 -0.4594
 2952SOL    HW120318   1.764   3.969  10.856 -1.6840  0.1677 -1.1119
 2952SOL    HW220319   1.763   4.060  10.740  0.1179 -1.1221 -3.8125
 2953SOL     OW20320   0.911   3.771   0.032  0.3783 -0.5785 -0.1694
 2953SOL    HW120321   0.938   3.762   0.124  0.9633  0.0464 -0.2860
 2953SOL    HW220322   0.815   3.774   0.035  0.4447  2.2681 -1.0912
 2954SOL     OW20323   0.153   1.879  15.306 -0.3155 -0.1936  0.3219
 2954SOL    HW120324   0.203   1.811  15.351 -0.2447 -0.4213 -0.0993
 2954SOL    HW220325   0.218   1.927  15.255  0.4658 -2.1052 -0.4772
 2955SOL     OW20326   1.550   3.174   8.710  0.5077  0.1640  0.0652
 2955SOL    HW120327   1.544   3.101   8.648 -0.1626  1.0070 -0.8526
 2955SOL    HW220328   1.590   3.129   8.784 -2.1729 -0.5204  1.0892
 2956SOL     OW20329   3.254   3.934  12.120  0.3271 -0.5965 -0.6294
 2956SOL    HW120330   3.202   3.944  12.200  1.4460  0.1358  0.0070
 2956SOL    HW220331   3.197   3.869  12.079  0.6501 -1.6995  0.6744
 2957SOL     OW20332   3.759   3.784   2.043 -0.0568 -0.3961  0.0314
 2957SOL    HW120333   3.747   3.843   1.969 -1.4898 -0.5156  0.1817
 2957SOL    HW220334   3.723   3.840   2.111 -1.7028 -1.3672 -0.0448
 2958SOL     OW20335   1.752   1.556   6.967 -0.8983 -0.1963 -0.3380
 2958SOL    HW120336   1.671   1.582   6.922 -0.0241 -0.6673 -2.1453
 2958SOL    HW220337   1.818   1.603   6.915  0.6265 -2.1290 -0.1288
 2959SOL     OW20338   3.513   4.203  10.709  0.2415 -0.3290  0.2682
 2959SOL    HW120339   3.585   4.141  10.719  2.6545  2.2442 -1.2102
 2959SOL    HW220340   3.537   4.251  10.630  1.5484 -0.3306  0.6698
 2960SOL     OW20341   2.443   4.592  12.062 -0.3592  0.0003  0.0940
 2960SOL    HW120342   2.347   4.590  12.065 -0.3841  1.5715  0.5222
 2960SOL    HW220343   2.465   4.584  11.969 -0.3901  3.9826 -0.2795
 2961SOL     OW20344   2.177   1.553  12.218  0.0029  0.2157 -0.0733
 2961SOL    HW120345   2.110   1.604  12.173 -1.2422  0.0445  1.5841
 2961SOL    HW220346   2.247   1.549  12.153 -0.3345 -1.8036 -0.3295
 2962SOL     OW20347   0.264   4.332   2.013  0.1210 -0.0343  0.0585
 2962SOL    HW120348   0.257   4.427   2.014 -1.3736 -0.1485  0.1538
 2962SOL    HW220349   0.202   4.314   1.943 -2.0071 -0.9147  2.1788
 2963SOL     OW20350   0.182   3.629  17.401 -0.2997 -0.5572  0.6655
 2963SOL    HW120351   0.186   3.551  17.456 -4.1468 -0.8301  0.5518
 2963SOL    HW220352   0.100   3.666  17.433  0.3738  0.2836  1.4345
 2964SOL     OW20353   0.605   1.696   4.572  0.6381  0.1725 -0.3955
 2964SOL    HW120354   0.572   1.726   4.488 -0.9391  0.4134  0.3118
 2964SOL    HW220355   0.596   1.600   4.570  1.6016  0.0730 -0.4720
 2965SOL     OW20356   3.494   0.941  17.084 -0.3934  0.6044 -0.9797
 2965SOL    HW120357   3.475   1.023  17.038 -1.7496  2.2411  2.5511
 2965SOL    HW220358   3.574   0.962  17.131  1.0307 -2.4098 -2.0604
 2966SOL     OW20359   1.738   4.683   6.971 -0.1691  0.3183  0.2046
 2966SOL    HW120360   1.722   0.027   6.902 -2.2935 -4.7474 -4.1060
 2966SOL    HW220361   1.779   0.005   7.046  1.4347 -2.5484  0.9636
 2967SOL     OW20362   0.977   0.495   9.689 -0.0205 -0.7665 -0.3056
 2967SOL    HW120363   0.987   0.558   9.618  3.5676  1.5303  2.2362
 2967SOL    HW220364   1.054   0.442   9.669  0.4328 -0.2011 -0.0534
 2968SOL     OW20365   1.081   3.845   2.057 -0.4280 -0.0823 -0.5352
 2968SOL    HW120366   1.048   3.848   2.147  0.8652  1.9397 -0.1281
 2968SOL    HW220367   1.147   3.778   2.076  0.5170  0.7849 -0.7808
 2969SOL     OW20368   1.550   3.679   5.558  0.4866 -0.6713 -0.3978
 2969SOL    HW120369   1.508   3.643   5.480 -1.7844 -0.4108  0.7054
 2969SOL    HW220370   1.476   3.673   5.619 -1.1564 -2.3735 -2.5654
 2970SOL     OW20371   1.637   3.107   5.056 -0.1578 -0.2287 -0.2049
 2970SOL    HW120372   1.656   3.074   5.144  0.6303 -1.5983 -0.8851
 2970SOL    HW220373   1.692   3.185   5.048 -1.9898  1.1154  0.4190
 2971SOL     OW20374   3.999   2.801   2.420  1.0264  0.2379  0.1370
 2971SOL    HW120375   3.975   2.737   2.486  0.7988  1.4962  1.2795
 2971SOL    HW220376   3.960   2.767   2.340  2.3804 -1.4706  0.2113
 2972SOL     OW20377   3.132   0.575   5.176 -0.5218  0.1222  0.1479
 2972SOL    HW120378   3.117   0.658   5.131 -0.0206  1.5976  2.6874
 2972SOL    HW220379   3.222   0.598   5.200 -0.1199  0.4990 -1.7273
 2973SOL     OW20380   4.303   4.429   7.019 -0.2266  0.3805  0.4860
 2973SOL    HW120381   4.217   4.398   7.048 -1.1639  2.9761  0.4418
 2973SOL    HW220382   4.317   4.394   6.931  1.5896  0.5220  0.7174
 2974SOL     OW20383   3.835   0.914   0.916  0.6545  0.5243 -0.1029
 2974SOL    HW120384   3.756   0.968   0.905 -0.3915 -0.9655  0.0921
 2974SOL    HW220385   3.820   0.849   0.848 -0.0489  0.5066  0.0708
 2975SOL     OW20386   1.406   0.338  13.591 -0.1489  0.6253 -0.0303
 2975SOL    HW120387   1.481   0.349  13.649 -0.4006 -2.3698  0.8498
 2975SOL    HW220388   1.336   0.301  13.645  0.5498 -1.3463 -0.4678
 2976SOL     OW20389   2.364   0.274   9.273 -0.2222  0.1530 -0.4437
 2976SOL    HW120390   2.269   0.268   9.286  0.0636 -1.1328  1.0613
 2976SOL    HW220391   2.390   0.335   9.342 -2.0820  0.5176 -0.0589
 2977SOL     OW20392   0.906   2.013   9.572 -0.1786  0.2735  0.1309
 2977SOL    HW120393   0.865   2.010   9.485 -0.5701 -2.9220  0.4243
 2977SOL    HW220394   0.929   2.106   9.577  2.8866 -0.3394 -3.1618
 2978SOL     OW20395   3.933   0.185   9.057  0.5617 -0.0179  0.5466
 2978SOL    HW120396   3.848   0.219   9.028  1.5306  1.5878 -0.3918
 2978SOL    HW220397   3.910   0.113   9.116  1.6778 -0.1238  0.8624
 2979SOL     OW20398   3.633   4.709   8.104 -0.0970 -0.1506  0.3486
 2979SOL    HW120399   3.638   4.693   8.198  0.0089  2.3147  0.7473
 2979SOL    HW220400   3.542   4.681   8.093 -0.2124 -0.2454  1.5472
 2980SOL     OW20401   3.646   2.000  17.589 -0.2539  0.2101 -0.2942
 2980SOL    HW120402   3.733   2.002  17.550  0.0252  0.7432  0.3541
 2980SOL    HW220403   3.640   1.906  17.604 -1.5208  0.6176  1.8363
 2981SOL     OW20404   1.782   0.424   4.640 -0.5111  0.0848 -0.2456
 2981SOL    HW120405   1.708   0.364   4.629  0.3166 -1.1328  0.8103
 2981SOL    HW220406   1.750   0.448   4.727  1.7539  2.7369 -0.1617
 2982SOL     OW20407   4.576   3.309   5.663 -0.4085 -0.6538 -0.2936
 2982SOL    HW120408   4.501   3.317   5.722 -0.2527  0.6353 -0.2697
 2982SOL    HW220409   4.535   3.348   5.587  0.6172 -0.1164 -0.5686
 2983SOL     OW20410   1.714   4.097  17.622 -0.3275  0.2752  0.1085
 2983SOL    HW120411   1.729   4.002  17.618 -1.2904  0.2761 -3.7209
 2983SOL    HW220412   1.793   4.126  17.576 -0.0491 -1.9684 -0.8805
 2984SOL     OW20413   3.309   2.613  12.575 -0.0278 -0.1151  0.4413
 2984SOL    HW120414   3.241   2.592  12.510  1.6847 -1.7884 -0.8000
 2984SOL    HW220415   3.286   2.693  12.622  0.1815 -0.0850  0.4925
 2985SOL     OW20416   4.295   3.462   0.070 -0.4278 -0.5819 -0.3943
 2985SOL    HW120417   4.360   3.463   0.000  0.5471  2.5920  0.5371
 2985SOL    HW220418   4.295   3.555   0.093 -1.8325 -0.2378 -1.8133
 2986SOL     OW20419   1.403   4.665   8.222 -0.4381 -0.3432 -0.3488
 2986SOL    HW120420   1.343   0.014   8.197  1.5889  1.3372 -0.5553
 2986SOL    HW220421   1.485   4.709   8.199  0.2698 -1.9707 -0.9328
 2987SOL     OW20422   2.288   1.378   3.987 -0.3665  0.1499 -0.3352
 2987SOL    HW120423   2.211   1.362   4.041  0.1385 -1.6672 -0.1562
 2987SOL    HW220424   2.265   1.449   3.927  1.9180 -2.0621 -3.8575
 2988SOL     OW20425   2.912   3.067  16.025 -0.0392  0.5072 -0.2721
 2988SOL    HW120426   2.883   3.128  16.094  1.0951  0.9747 -0.2049
 2988SOL    HW220427   2.937   3.127  15.955  0.7409 -0.8889 -1.1876
 2989SOL     OW20428   4.267   3.150   2.957  0.0475  0.5483 -0.5142
 2989SOL    HW120429   4.263   3.245   2.944  0.1426  0.5002 -0.9024
 2989SOL    HW220430   4.185   3.124   2.914  1.0508 -2.0414 -0.8536
 2990SOL     OW20431   3.432   2.644   6.163  0.1395 -0.4817 -0.1202
 2990SOL    HW120432   3.503   2.695   6.124  0.1792 -0.5826 -0.1783
 2990SOL    HW220433   3.365   2.711   6.176  2.1596  1.5827 -0.3615
 2991SOL     OW20434   4.150   3.672  17.513  0.5320  0.4514 -0.3906
 2991SOL    HW120435   4.124   3.761  17.539  3.0239  0.4179  2.2855
 2991SOL    HW220436   4.104   3.619  17.578  0.7692  0.2614 -0.3793
 2992SOL     OW20437   1.852   2.227  17.016 -0.2211  0.1165  0.1430
 2992SOL    HW120438   1.879   2.246  16.927  1.8833 -2.3139  0.2562
 2992SOL    HW220439   1.814   2.309  17.048  0.2835  1.0975 -1.8027
 2993SOL     OW20440   2.270   3.045   8.820 -0.0044 -0.0820  0.0594
 2993SOL    HW120441   2.352   3.092   8.802  0.3713 -1.5033 -1.9791
 2993SOL    HW220442   2.300   2.978   8.881  1.7930 -0.3230 -1.0819
 2994SOL     OW20443   0.623   3.009   5.225 -0.1401 -0.2585 -0.2747
 2994SOL    HW120444   0.669   2.938   5.271  0.4537 -0.6563 -1.4964
 2994SOL    HW220445   0.693   3.038   5.167 -0.9978 -1.0469 -1.6967
 2995SOL     OW20446   3.910   0.737  12.157 -0.4347  0.2946 -0.2243
 2995SOL    HW120447   3.930   0.679  12.083  0.2519 -2.6089  2.2089
 2995SOL    HW220448   3.998   0.766  12.182 -0.3019  0.3928 -0.8079
 2996SOL     OW20449   4.013   2.550   7.020 -0.5618 -0.1348 -0.0871
 2996SOL    HW120450   3.931   2.503   7.010 -0.8662  0.3817  0.0078
 2996SOL    HW220451   4.008   2.596   7.104 -0.3044 -0.3396  0.0430
 2997SOL     OW20452   1.628   4.401   2.189  0.0537  0.3540 -0.6201
 2997SOL    HW120453   1.551   4.408   2.246  0.5133  1.0869 -0.0818
 2997SOL    HW220454   1.594   4.405   2.100  1.4383 -0.2814 -1.1712
 2998SOL     OW20455   1.492   0.590   9.137 -0.5535 -0.3023 -0.2426
 2998SOL    HW120456   1.506   0.514   9.080 -0.6454  0.5593 -1.4045
 2998SOL    HW220457   1.577   0.602   9.180 -1.1796  1.3362  0.5241
 2999SOL     OW20458   2.024   3.898   7.881  0.7014 -0.0893  0.7752
 2999SOL    HW120459   1.994   3.812   7.910  0.6150 -0.3062  0.0608
 2999SOL    HW220460   2.112   3.905   7.919  0.9528  1.1909 -0.0483
 3000SOL     OW20461   4.505   3.223   3.577  0.0679  0.2428 -0.0494
 3000SOL    HW120462   4.466   3.257   3.658  0.2932  1.5404 -0.4871
 3000SOL    HW220463   4.503   3.297   3.517 -2.0752  0.1155 -0.1511
 3001SOL     OW20464   2.500   1.195   7.748  0.1305 -0.2187 -0.2025
 3001SOL    HW120465   2.406   1.178   7.752  0.4858 -1.9339  0.9329
 3001SOL    HW220466   2.535   1.113   7.785  0.8266 -1.2497 -3.1398
 3002SOL     OW20467   0.103   1.211   4.111  0.3906 -0.0398  0.0196
 3002SOL    HW120468   0.131   1.255   4.192 -1.3221  0.0465  0.5563
 3002SOL    HW220469   0.182   1.182   4.065  2.5662  1.4738  2.7189
 3003SOL     OW20470   0.691   1.507   2.830  0.2346 -0.7443 -0.4258
 3003SOL    HW120471   0.684   1.450   2.754 -2.0511  0.1818 -0.9151
 3003SOL    HW220472   0.766   1.481   2.882  0.4674 -1.4978 -1.1555
 3004SOL     OW20473   3.129   0.668   5.713  0.1310 -0.0715 -0.1241
 3004SOL    HW120474   3.207   0.616   5.695 -0.7798 -0.9014 -1.6904
 3004SOL    HW220475   3.170   0.754   5.729 -0.8860  0.7869 -2.0544
 3005SOL     OW20476   0.823   0.875   2.539  0.0951  1.0393  0.0495
 3005SOL    HW120477   0.913   0.848   2.523 -0.2204 -0.7708  1.2247
 3005SOL    HW220478   0.816   0.946   2.476  0.7264  1.4954  0.4898
 3006SOL     OW20479   3.102   2.466   5.661  0.1669  0.4114 -0.3247
 3006SOL    HW120480   3.151   2.422   5.731 -0.2887  1.6828  0.7971
 3006SOL    HW220481   3.092   2.396   5.597 -0.3950 -0.4423  0.6877
 3007SOL     OW20482   0.031   1.360   1.670 -0.4328  0.0302 -0.3755
 3007SOL    HW120483   0.085   1.300   1.721 -1.5628 -0.1157  0.6609
 3007SOL    HW220484   0.089   1.435   1.684  1.6593 -1.8086  0.8296
 3008SOL     OW20485   0.038   3.275  17.512  0.4679 -0.5498  0.2569
 3008SOL    HW120486   0.123   3.313  17.536 -0.1102  1.3955 -0.7657
 3008SOL    HW220487   0.037   3.186  17.547 -0.1156 -0.7006 -0.1376
 3009SOL     OW20488   0.846   1.841   4.461 -0.2234 -0.1038 -0.1124
 3009SOL    HW120489   0.780   1.841   4.391  0.5074  1.1350 -0.8129
 3009SOL    HW220490   0.812   1.909   4.520 -3.1731 -1.1575 -0.6155
 3010SOL     OW20491   3.118   1.957  15.868  0.1402 -0.0029  0.2519
 3010SOL    HW120492   3.177   2.001  15.807  1.5402  0.7079  2.1108
 3010SOL    HW220493   3.030   1.974  15.835  0.0367 -2.9354 -1.0560
 3011SOL     OW20494   3.814   4.234   4.787  0.3984  0.5235  0.2028
 3011SOL    HW120495   3.838   4.163   4.727  2.2456  1.1177  0.2277
 3011SOL    HW220496   3.802   4.191   4.872 -0.5425  2.7050  1.1510
 3012SOL     OW20497   0.730   2.431   6.284 -0.4543 -0.2822  0.1655
 3012SOL    HW120498   0.764   2.417   6.195  0.4317  0.6681  0.3626
 3012SOL    HW220499   0.741   2.345   6.325 -2.0228 -0.1895  0.7968
 3013SOL     OW20500   4.183   0.026  15.142 -0.2668 -0.8048 -0.1225
 3013SOL    HW120501   4.204   4.681  15.208 -1.1288  1.2810  2.2524
 3013SOL    HW220502   4.133   0.089  15.195  1.3111  1.0382 -0.8140
 3014SOL     OW20503   0.107   1.340   8.316  0.2152  0.3373 -0.0210
 3014SOL    HW120504   0.100   1.434   8.333  2.0627  0.2725  1.0803
 3014SOL    HW220505   0.018   1.309   8.300  0.5560 -0.1034 -1.0944
 3015SOL     OW20506   1.608   0.756   2.678  0.1945 -0.0321  0.0591
 3015SOL    HW120507   1.550   0.715   2.742  0.6982 -1.5550 -0.4698
 3015SOL    HW220508   1.614   0.837   2.728 -2.7054  0.8132 -0.9288
 3016SOL     OW20509   3.019   3.508  15.985 -0.5238 -0.0168  0.3694
 3016SOL    HW120510   3.068   3.581  15.948 -3.5145  1.3561 -0.8391
 3016SOL    HW220511   3.014   3.536  16.077 -1.9465  0.6571  0.0796
 3017SOL     OW20512   0.893   2.403   4.180 -0.3545  0.0376 -0.1594
 3017SOL    HW120513   0.828   2.457   4.135 -0.3612  0.9875  0.9911
 3017SOL    HW220514   0.847   2.372   4.258 -0.1141  1.9122  0.7267
 3018SOL     OW20515   2.524   1.785   3.279  0.4505 -0.2982 -0.0995
 3018SOL    HW120516   2.589   1.828   3.334 -0.2617  1.1565 -0.4033
 3018SOL    HW220517   2.472   1.852   3.235 -1.4416 -0.1809  2.2634
 3019SOL     OW20518   1.097   0.136   4.321  0.2429 -0.1568  0.3949
 3019SOL    HW120519   1.043   0.057   4.323  1.6937 -1.2017 -2.8519
 3019SOL    HW220520   1.055   0.200   4.379 -1.1865  0.6936 -1.5905
 3020SOL     OW20521   2.881   2.790   2.506  0.1594 -0.2043  0.5183
 3020SOL    HW120522   2.902   2.770   2.415  0.2779 -0.2398  0.5537
 3020SOL    HW220523   2.828   2.868   2.492  1.2842  0.4326 -0.1246
 3021SOL     OW20524   1.013   0.111   3.084  0.5008  0.0177 -0.0462
 3021SOL    HW120525   0.928   0.110   3.129  0.7730  1.3405  0.4854
 3021SOL    HW220526   0.986   0.092   2.994  1.8604 -0.1901 -0.3988
 3022SOL     OW20527   4.687   0.706   6.328 -0.1488  0.0091  0.0455
 3022SOL    HW120528   4.622   0.762   6.372 -1.2889 -1.3971  0.1731
 3022SOL    HW220529   4.622   0.640   6.305 -0.7559  1.2914 -1.9432
 3023SOL     OW20530   0.983   0.331   4.999  0.0292 -0.5662 -0.6537
 3023SOL    HW120531   0.909   0.386   4.973 -0.2211 -1.4301 -1.7336
 3023SOL    HW220532   0.934   0.267   5.052  1.0077 -0.3003  0.5795
 3024SOL     OW20533   1.310   3.524   5.889 -0.2398 -0.8478 -0.2946
 3024SOL    HW120534   1.281   3.510   5.799 -0.6858 -2.7107  0.1540
 3024SOL    HW220535   1.254   3.596   5.919  0.4850 -0.9060  1.1711
 3025SOL     OW20536   1.577   4.613  13.296  0.2417  0.2257 -0.4405
 3025SOL    HW120537   1.557   4.701  13.262  0.5387  0.2593 -0.5323
 3025SOL    HW220538   1.574   4.638  13.388  1.0125 -1.2453 -0.0286
 3026SOL     OW20539   0.651   1.245   9.460 -0.5780 -0.1586 -0.3781
 3026SOL    HW120540   0.662   1.339   9.447 -0.7581 -0.2342 -1.0691
 3026SOL    HW220541   0.567   1.217   9.424 -1.6757  1.8007  0.6537
 3027SOL     OW20542   0.097   3.109  16.493 -0.2373 -0.0339  0.1808
 3027SOL    HW120543   0.010   3.073  16.474 -0.2521  0.6090 -0.9660
 3027SOL    HW220544   0.075   3.146  16.579 -1.5080  1.7250 -0.9004
 3028SOL     OW20545   1.962   3.731   6.986 -0.3479 -0.2409 -0.3817
 3028SOL    HW120546   1.896   3.663   6.972  0.9047 -1.2057 -1.6716
 3028SOL    HW220547   1.931   3.781   7.061  1.8257  1.7903 -0.8488
 3029SOL     OW20548   4.277   1.328  16.506 -0.6412 -0.3975 -0.1204
 3029SOL    HW120549   4.305   1.294  16.591  0.5554  1.8776  0.3849
 3029SOL    HW220550   4.238   1.414  16.523 -0.4753 -0.1150 -1.1771
 3030SOL     OW20551   0.192   4.331  15.458  0.1917 -0.0566 -0.0225
 3030SOL    HW120552   0.259   4.302  15.519  0.6253 -2.3773 -1.6001
 3030SOL    HW220553   0.201   4.426  15.448  0.6963 -0.6746 -5.3182
 3031SOL     OW20554   4.279   4.186   2.330 -0.1548 -0.5793  0.3532
 3031SOL    HW120555   4.337   4.251   2.370 -1.1663  0.6172 -0.1406
 3031SOL    HW220556   4.277   4.124   2.403  1.2706 -1.2855 -0.2037
 3032SOL     OW20557   1.680   2.171  12.958 -0.3225  0.6928  0.1456
 3032SOL    HW120558   1.662   2.254  12.915 -2.0106  0.3997  0.2896
 3032SOL    HW220559   1.775   2.182  12.962 -0.0194 -2.0116  0.3489
 3033SOL     OW20560   1.369   1.312   9.172  0.8283 -0.4397  0.4609
 3033SOL    HW120561   1.384   1.344   9.083 -1.5886  1.2115  0.6503
 3033SOL    HW220562   1.464   1.309   9.178  0.7991  1.0864  1.6193
 3034SOL     OW20563   0.921   1.904   6.556  0.4937  0.1318 -0.4882
 3034SOL    HW120564   1.008   1.880   6.589 -0.6636 -0.9351  1.7364
 3034SOL    HW220565   0.874   1.823   6.573  0.4858  0.2228 -0.0870
 3035SOL     OW20566   2.260   1.056   7.672 -0.7839  0.3331  0.7883
 3035SOL    HW120567   2.174   1.064   7.632 -0.9081 -1.7878  0.6546
 3035SOL    HW220568   2.259   0.962   7.688  0.8473  0.2981  0.6763
 3036SOL     OW20569   4.238   1.668   8.025 -0.2286  0.0383 -0.5121
 3036SOL    HW120570   4.252   1.759   7.999  2.1649 -0.2059 -0.1288
 3036SOL    HW220571   4.208   1.676   8.115 -0.1651 -0.2844 -0.4603
 3037SOL     OW20572   2.799   2.708  14.463  0.8803 -0.6799 -0.1079
 3037SOL    HW120573   2.794   2.781  14.524 -1.6163 -1.8787  1.1139
 3037SOL    HW220574   2.893   2.688  14.469  0.9548 -0.4088 -0.3564
 3038SOL     OW20575   2.538   1.402   6.703  0.1772 -0.5478  0.3065
 3038SOL    HW120576   2.612   1.454   6.672  0.0908 -1.3258 -1.1739
 3038SOL    HW220577   2.467   1.457   6.670  1.1508  0.6606  0.1831
 3039SOL     OW20578   2.034   4.375   0.550  0.3025  0.3375  0.0682
 3039SOL    HW120579   2.093   4.428   0.497 -0.0319 -0.1297 -0.7705
 3039SOL    HW220580   2.092   4.345   0.621  2.0424  0.9554 -1.0781
 3040SOL     OW20581   0.204   1.183  16.042  0.4312  0.8771 -0.1448
 3040SOL    HW120582   0.253   1.265  16.047  3.0084 -0.7115  0.5898
 3040SOL    HW220583   0.187   1.160  15.950  0.2774  2.2520 -0.4539
 3041SOL     OW20584   0.897   0.013  13.268  0.5795  0.2228  0.0750
 3041SOL    HW120585   0.886   4.639  13.281  1.9066  0.1390  0.6211
 3041SOL    HW220586   0.863   0.044  13.352  1.9177  0.5802  0.4889
 3042SOL     OW20587   3.758   1.172  16.388  0.3524 -0.1884 -0.7033
 3042SOL    HW120588   3.672   1.130  16.392 -0.3351  1.2937 -0.0723
 3042SOL    HW220589   3.767   1.232  16.461 -0.7411 -2.5058  1.3396
 3043SOL     OW20590   3.701   4.643   3.618 -0.6756 -0.4244 -0.6055
 3043SOL    HW120591   3.719   4.623   3.709 -1.2172  2.0296  0.0566
 3043SOL    HW220592   3.747   4.572   3.575 -0.4813 -1.9701  2.1800
 3044SOL     OW20593   0.344   0.582   2.812  0.1729  0.6165  0.1916
 3044SOL    HW120594   0.305   0.544   2.891  1.4961 -1.8868 -0.3768
 3044SOL    HW220595   0.348   0.506   2.753 -0.0520  1.4822 -0.9357
 3045SOL     OW20596   2.533   1.288  17.188  0.2761 -0.4136  0.1498
 3045SOL    HW120597   2.460   1.317  17.133 -0.6262  1.4800  2.3351
 3045SOL    HW220598   2.519   1.355  17.255  1.8509 -3.1558  3.2003
 3046SOL     OW20599   4.123   1.232   6.262 -0.3565 -0.1480  0.0832
 3046SOL    HW120600   4.091   1.155   6.309  1.0598 -0.7468  0.0550
 3046SOL    HW220601   4.043   1.282   6.245 -1.3586 -1.7504  0.0026
 3047SOL     OW20602   0.727   0.907  16.473  0.3792 -0.8585 -0.2983
 3047SOL    HW120603   0.662   0.896  16.542  1.2428  1.3956  0.8739
 3047SOL    HW220604   0.696   0.983  16.423  0.2686  0.4631  1.7851
 3048SOL     OW20605   1.404   2.280   5.168 -0.0176  0.3676  0.4860
 3048SOL    HW120606   1.375   2.335   5.240 -0.5786 -0.5953  1.0047
 3048SOL    HW220607   1.334   2.215   5.163 -0.8112  1.3643 -1.0308
 3049SOL     OW20608   0.368   0.186  10.477  0.0197  0.5129 -0.3448
 3049SOL    HW120609   0.320   0.128  10.418 -0.9097  4.2661 -3.2374
 3049SOL    HW220610   0.445   0.213  10.427 -0.0591 -1.0693 -1.2959
 3050SOL     OW20611   4.665   3.627  12.478 -0.2604  0.2280  0.1099
 3050SOL    HW120612   4.589   3.569  12.484 -0.6911  0.6432 -1.3479
 3050SOL    HW220613   4.717   3.595  12.551 -0.7898 -1.3997 -0.2293
 3051SOL     OW20614   4.179   0.851   7.675  0.5416  0.5135  0.2689
 3051SOL    HW120615   4.225   0.918   7.623  0.6699 -1.3508 -2.0366
 3051SOL    HW220616   4.093   0.862   7.635  0.5637 -0.8109 -0.1430
 3052SOL     OW20617   1.267   3.874  15.810  0.5717 -0.0656  0.4351
 3052SOL    HW120618   1.201   3.936  15.841  0.9074  0.8236 -0.6435
 3052SOL    HW220619   1.215   3.794  15.817  1.1861 -0.3597  1.6790
 3053SOL     OW20620   4.049   4.332  17.184 -0.1737  0.0796 -0.1968
 3053SOL    HW120621   4.091   4.344  17.099  0.9451 -0.1402  0.3255
 3053SOL    HW220622   4.126   4.357  17.236 -1.4858  0.3534  1.6512
 3054SOL     OW20623   1.385   1.610   5.424 -0.3015 -0.0791 -0.0625
 3054SOL    HW120624   1.445   1.591   5.497  1.9883  2.1091 -1.3730
 3054SOL    HW220625   1.403   1.704   5.424  0.2371 -0.1890 -1.7089
 3055SOL     OW20626   3.188   1.446   2.154 -0.0637  0.6635 -0.1837
 3055SOL    HW120627   3.194   1.354   2.179  1.2217  0.1539 -2.2795
 3055SOL    HW220628   3.183   1.428   2.060  1.5446  1.1874 -0.3733
 3056SOL     OW20629   3.283   1.176   5.232  0.1202  0.9689  0.3817
 3056SOL    HW120630   3.346   1.118   5.275  1.5562  2.4575  0.2820
 3056SOL    HW220631   3.228   1.192   5.308  0.2531  1.1559  0.4392
 3057SOL     OW20632   0.991   2.912   3.327  0.2777 -0.7627  0.2023
 3057SOL    HW120633   0.955   2.873   3.407 -2.8823  2.1470  0.1961
 3057SOL    HW220634   0.917   2.901   3.268  0.5060  0.2573 -0.2730
 3058SOL     OW20635   4.024   3.086  13.628  0.2827  0.1009 -0.5972
 3058SOL    HW120636   4.046   2.995  13.647 -1.4489 -0.1811  0.0316
 3058SOL    HW220637   4.039   3.131  13.711  0.4704  0.4816 -0.8378
 3059SOL     OW20638   3.555   3.212   2.781  0.1338 -0.2349 -0.2459
 3059SOL    HW120639   3.590   3.251   2.862  2.0440 -0.1457 -1.1081
 3059SOL    HW220640   3.578   3.120   2.791  0.7479  0.0713  1.1923
 3060SOL     OW20641   3.384   1.047   0.989 -0.2962 -0.3226 -0.0610
 3060SOL    HW120642   3.393   1.025   1.082  1.9961  1.5913  0.1696
 3060SOL    HW220643   3.479   1.054   0.981 -0.3599  0.0728 -0.4632
 3061SOL     OW20644   2.509   1.484   6.203 -0.2745  0.0880  1.3528
 3061SOL    HW120645   2.468   1.538   6.271 -2.0973  2.4304 -1.6593
 3061SOL    HW220646   2.442   1.480   6.135 -1.8896 -1.2306  3.0107
 3062SOL     OW20647   4.406   0.559   8.943 -0.0801 -0.1507  0.1602
 3062SOL    HW120648   4.342   0.498   8.981 -0.1347  1.6492  3.0032
 3062SOL    HW220649   4.345   0.606   8.886 -0.5531 -0.1984  0.6141
 3063SOL     OW20650   2.151   2.257  14.168  0.5944 -0.0898  0.7050
 3063SOL    HW120651   2.102   2.206  14.103  0.6156  0.0251  0.5978
 3063SOL    HW220652   2.205   2.181  14.188  0.3335 -0.3486  0.4306
 3064SOL     OW20653   1.434   4.181   7.910  0.0648 -0.1851 -0.0742
 3064SOL    HW120654   1.396   4.097   7.935  0.9479 -0.4524  0.3541
 3064SOL    HW220655   1.473   4.219   7.989 -2.4120 -0.4913  1.2815
 3065SOL     OW20656   0.279   0.229  11.405 -0.1734  0.1686 -1.2434
 3065SOL    HW120657   0.185   0.225  11.387 -0.1420 -1.1911 -1.1528
 3065SOL    HW220658   0.280   0.309  11.457  0.5828 -0.4436 -0.3051
 3066SOL     OW20659   2.084   4.534   1.524 -0.0254 -0.1173 -0.0306
 3066SOL    HW120660   2.066   4.489   1.607 -1.4674 -0.2612 -0.4101
 3066SOL    HW220661   2.163   4.583   1.544  0.6746 -0.7211 -1.3689
 3067SOL     OW20662   3.401   0.449   5.430  0.3376  0.8240  0.6034
 3067SOL    HW120663   3.496   0.441   5.419 -0.1276 -4.3915  0.5871
 3067SOL    HW220664   3.382   0.540   5.406  0.9361  0.8505  0.2045
 3068SOL     OW20665   4.037   3.707  12.207 -0.0683  0.2210  0.2993
 3068SOL    HW120666   4.112   3.703  12.267 -0.2056  0.1765  0.4654
 3068SOL    HW220667   3.987   3.635  12.244 -0.8301 -0.3278 -1.7959
 3069SOL     OW20668   1.896   1.420  16.436  0.3404  0.4062  0.2221
 3069SOL    HW120669   1.881   1.467  16.354 -1.4698  1.8354  1.3459
 3069SOL    HW220670   1.963   1.361  16.403 -1.3116 -2.3127  1.7302
 3070SOL     OW20671   1.997   3.643   1.970  0.0986 -0.1025 -0.4379
 3070SOL    HW120672   2.011   3.568   2.028  1.4754  0.9055  0.5331
 3070SOL    HW220673   1.963   3.716   2.021 -1.8827 -3.0554  2.4879
 3071SOL     OW20674   4.102   0.041   2.344 -0.4269 -0.1940  0.4149
 3071SOL    HW120675   4.156   0.085   2.410 -0.1908  0.0804  0.0432
 3071SOL    HW220676   4.114   4.668   2.363  2.3484 -0.1793 -1.2410
 3072SOL     OW20677   3.494   2.298   1.304  0.0319 -0.0534 -0.5623
 3072SOL    HW120678   3.544   2.292   1.385  0.0413  1.5283 -0.4420
 3072SOL    HW220679   3.477   2.392   1.299  1.4086  0.2027 -0.3186
 3073SOL     OW20680   1.210   1.202  13.613 -0.2866  0.2546 -0.0319
 3073SOL    HW120681   1.184   1.118  13.650 -0.2719 -0.3859 -1.4441
 3073SOL    HW220682   1.199   1.259  13.689 -1.3972  0.2742 -0.2178
 3074SOL     OW20683   1.297   0.347   3.024  0.7129  0.0096  0.3862
 3074SOL    HW120684   1.231   0.321   2.959 -0.7833 -0.4616  2.1029
 3074SOL    HW220685   1.376   0.321   2.976  0.3987 -1.1598  0.5135
 3075SOL     OW20686   0.396   2.249  13.507 -0.1126 -0.5385 -0.0188
 3075SOL    HW120687   0.436   2.175  13.462 -1.1747  0.5532 -2.7117
 3075SOL    HW220688   0.444   2.248  13.590 -0.0551  4.4073 -0.0330
 3076SOL     OW20689   3.155   1.230   5.494  0.0856  0.5407 -0.5031
 3076SOL    HW120690   3.087   1.294   5.475 -0.7063  0.3662  1.7461
 3076SOL    HW220691   3.188   1.258   5.579 -1.2453  0.3236  0.0855
 3077SOL     OW20692   0.020   0.802   7.882 -0.2843  0.1615 -0.1914
 3077SOL    HW120693   0.079   0.854   7.938 -0.4318  1.3870 -1.1709
 3077SOL    HW220694   0.069   0.721   7.867  2.0360  1.1592  2.0076
 3078SOL     OW20695   1.676   0.801   5.686  0.0762  0.3641  0.0721
 3078SOL    HW120696   1.765   0.765   5.677 -1.7212 -3.2382 -3.4724
 3078SOL    HW220697   1.625   0.738   5.634  1.4526 -1.8889  1.4637
 3079SOL     OW20698   3.690   2.581  14.628 -0.0472  0.1337  0.0818
 3079SOL    HW120699   3.627   2.536  14.685  1.8105 -3.0259 -0.3426
 3079SOL    HW220700   3.762   2.519  14.638  0.5818  0.9755  0.6586
 3080SOL     OW20701   4.053   4.190   2.905 -0.0464  0.2954 -0.5609
 3080SOL    HW120702   4.015   4.106   2.931 -1.8464  0.4411 -2.7416
 3080SOL    HW220703   4.054   4.236   2.988 -3.6261 -0.0861 -0.3335
 3081SOL     OW20704   1.997   2.476   9.023  0.5702 -0.2060 -0.4247
 3081SOL    HW120705   1.924   2.433   9.067  1.5204 -0.5747  0.7884
 3081SOL    HW220706   1.960   2.544   8.967 -2.9871 -1.2726  0.6451
 3082SOL     OW20707   2.560   3.189  13.016 -0.0229  0.4167 -0.2308
 3082SOL    HW120708   2.626   3.210  12.950 -1.1011 -1.4608 -1.9004
 3082SOL    HW220709   2.528   3.270  13.056  1.6792  0.6389  0.6509
 3083SOL     OW20710   1.841   3.883  11.129  0.2197 -0.6745 -0.6493
 3083SOL    HW120711   1.927   3.924  11.120 -0.5821  1.0717 -0.4137
 3083SOL    HW220712   1.849   3.796  11.090 -1.7724 -0.2852 -1.9406
 3084SOL     OW20713   1.134   0.148   7.505 -0.1756 -0.1134 -0.2325
 3084SOL    HW120714   1.211   0.200   7.527  1.3163 -2.7611  0.7965
 3084SOL    HW220715   1.111   0.120   7.593 -1.4056 -2.4688 -1.2974
 3085SOL     OW20716   2.418   3.520   0.413  0.2384  0.0594 -0.1415
 3085SOL    HW120717   2.418   3.505   0.507 -0.9375 -0.9859 -0.3040
 3085SOL    HW220718   2.346   3.582   0.401 -0.0667  0.1945  2.3040
 3086SOL     OW20719   4.593   0.043   3.767 -0.1228 -0.0084 -0.2251
 3086SOL    HW120720   4.645   0.116   3.800 -0.8890 -1.1257  3.4596
 3086SOL    HW220721   4.553   0.084   3.691  0.9906 -2.0762 -1.9119
 3087SOL     OW20722   0.165   1.179  15.768  0.1731  0.0680  0.1291
 3087SOL    HW120723   0.248   1.210  15.734 -1.0091  1.1604 -1.7267
 3087SOL    HW220724   0.120   1.261  15.749  1.2339  0.9227  1.2576
 3088SOL     OW20725   1.013   3.756   4.889 -0.5351  0.7611 -0.0083
 3088SOL    HW120726   0.959   3.750   4.811  0.4642  1.8064 -0.7820
 3088SOL    HW220727   0.971   3.689   4.944  1.3290  0.5287  1.1425
 3089SOL     OW20728   2.751   2.152   9.940 -0.0537 -0.1111  0.7919
 3089SOL    HW120729   2.831   2.153   9.992  0.0562 -1.5552  0.6403
 3089SOL    HW220730   2.700   2.086   9.988  0.9079 -0.5668  1.1803
 3090SOL     OW20731   3.922   3.850   4.925 -0.1852 -0.0931 -0.4924
 3090SOL    HW120732   3.888   3.777   4.976 -0.9552 -0.8280 -2.0542
 3090SOL    HW220733   4.014   3.834   4.947 -0.2865 -1.8891 -1.4222
 3091SOL     OW20734   0.842   3.671  10.752  0.0240 -0.1375 -0.6989
 3091SOL    HW120735   0.913   3.672  10.688 -0.7665 -0.3975 -1.5894
 3091SOL    HW220736   0.877   3.623  10.827  2.9023  1.7267 -0.8459
 3092SOL     OW20737   4.054   0.331   2.570  0.1451 -0.5845 -0.2245
 3092SOL    HW120738   4.095   0.257   2.615  0.9177  0.7330  1.2089
 3092SOL    HW220739   4.020   0.375   2.647  0.8955  1.7052 -1.2082
 3093SOL     OW20740   1.716   4.110   7.829 -0.5818 -0.3113  0.5696
 3093SOL    HW120741   1.749   4.020   7.826 -1.8567 -0.7604  0.3197
 3093SOL    HW220742   1.633   4.110   7.875 -0.2799 -1.4495  1.1223
 3094SOL     OW20743   1.069   1.314   4.982 -0.7089  0.2459 -0.5595
 3094SOL    HW120744   1.033   1.226   4.994  0.7759 -0.1857  0.7099
 3094SOL    HW220745   1.062   1.325   4.888 -4.0831 -1.0617 -0.4699
 3095SOL     OW20746   0.447   3.791  17.391  0.0302  0.4534 -0.4659
 3095SOL    HW120747   0.427   3.884  17.378  2.4272  1.0259 -0.1589
 3095SOL    HW220748   0.361   3.751  17.383  0.5892 -0.8577  0.0006
 3096SOL     OW20749   3.666   2.805   6.057  0.6728  0.0137  0.2928
 3096SOL    HW120750   3.758   2.827   6.042  0.8690 -1.4267 -0.6741
 3096SOL    HW220751   3.642   2.770   5.971  0.5126  1.8728 -0.4238
 3097SOL     OW20752   1.889   1.630  15.939 -0.6764 -0.2945 -0.7196
 3097SOL    HW120753   1.816   1.632  15.877 -0.9454  0.9971 -0.3587
 3097SOL    HW220754   1.925   1.717  15.923  1.2645 -1.1723 -1.1444
 3098SOL     OW20755   3.954   2.201   3.325  0.3229 -0.2799 -0.2778
 3098SOL    HW120756   3.980   2.142   3.255  1.4040  1.3841 -1.2908
 3098SOL    HW220757   3.904   2.137   3.376  1.5743 -0.4076  0.7807
 3099SOL     OW20758   2.669   0.442  10.757  0.4625  0.4895  0.1477
 3099SOL    HW120759   2.597   0.505  10.748  1.0612  1.0914 -0.4275
 3099SOL    HW220760   2.738   0.485  10.706  0.0161  3.0547  1.6963
 3100SOL     OW20761   3.396   4.468   8.293 -0.3005 -0.4635 -0.4708
 3100SOL    HW120762   3.391   4.516   8.376 -0.8765  2.7577 -2.3887
 3100SOL    HW220763   3.375   4.383   8.331  0.3357 -1.1286 -1.6349
 3101SOL     OW20764   3.166   4.296  11.524  0.1219 -0.1772 -0.0558
 3101SOL    HW120765   3.232   4.230  11.505 -0.0173 -0.0541 -0.9707
 3101SOL    HW220766   3.214   4.365  11.478 -0.5221  0.4449  0.2030
 3102SOL     OW20767   3.362   0.291   2.310 -0.6427  0.4147  0.1489
 3102SOL    HW120768   3.336   0.201   2.328  1.3302 -0.1768 -0.0409
 3102SOL    HW220769   3.278   0.334   2.329 -1.7194 -0.4677 -2.5880
 3103SOL     OW20770   4.353   2.539  11.817 -0.1430 -0.2389 -0.2877
 3103SOL    HW120771   4.304   2.469  11.774 -0.1014 -0.1755 -0.4387
 3103SOL    HW220772   4.324   2.538  11.908 -0.0356  2.6072 -0.2439
 3104SOL     OW20773   3.474   2.330   3.558 -0.0802  0.1001  0.1085
 3104SOL    HW120774   3.520   2.414   3.551 -0.2020  0.0053 -1.8594
 3104SOL    HW220775   3.538   2.284   3.612 -0.3875 -1.3952 -0.8044
 3105SOL     OW20776   1.742   3.322   7.809 -0.5221  0.0584 -0.3635
 3105SOL    HW120777   1.651   3.302   7.786 -0.5194  0.3793 -0.6583
 3105SOL    HW220778   1.758   3.405   7.764  1.5975 -1.1389 -1.8086
 3106SOL     OW20779   0.953   0.074  11.589 -0.4694  0.2178 -0.2757
 3106SOL    HW120780   0.980   4.717  11.540 -1.6836  0.2302 -0.9678
 3106SOL    HW220781   0.972   0.049  11.680 -0.1532  0.8841 -0.1591
 3107SOL     OW20782   1.335   0.955   7.436  0.1647  0.7402 -0.3384
 3107SOL    HW120783   1.241   0.968   7.432  0.1725  0.7062 -0.6505
 3107SOL    HW220784   1.362   0.931   7.347  0.5754  0.3154 -0.0980
 3108SOL     OW20785   0.588   1.697   3.468 -0.1176 -0.2727 -0.4536
 3108SOL    HW120786   0.682   1.706   3.485 -0.3086  0.6096  0.1122
 3108SOL    HW220787   0.573   1.762   3.399 -3.8376 -0.2373  0.4030
 3109SOL     OW20788   0.798   0.067   3.307  0.1981  0.0770  0.1469
 3109SOL    HW120789   0.745   0.047   3.384  0.9064 -0.8459  0.3919
 3109SOL    HW220790   0.734   0.096   3.243  0.5616 -0.7863 -0.5972
 3110SOL     OW20791   1.766   2.121   1.546  0.4393 -0.5868 -0.5856
 3110SOL    HW120792   1.823   2.056   1.504  1.2299  0.2240 -0.7537
 3110SOL    HW220793   1.682   2.079   1.566 -0.7914  1.4880 -1.4463
 3111SOL     OW20794   2.694   3.872  12.206 -0.1010  0.8255  0.2159
 3111SOL    HW120795   2.780   3.902  12.177  0.5984  0.0237  1.5217
 3111SOL    HW220796   2.647   3.870  12.122 -1.8439  2.8724  1.1466
 3112SOL     OW20797   4.345   3.653   0.516  0.2566 -0.0507  0.3602
 3112SOL    HW120798   4.276   3.592   0.489  1.2758 -0.5070 -1.1916
 3112SOL    HW220799   4.355   3.610   0.601 -2.1621  1.7467  1.5770
 3113SOL     OW20800   0.614   2.035  13.326  0.2536  0.3431 -0.1937
 3113SOL    HW120801   0.552   2.069  13.262  2.3785  1.5163 -1.6366
 3113SOL    HW220802   0.678   2.106  13.326 -0.3774  0.8969  3.3383
 3114SOL     OW20803   2.554   2.367   3.999  0.2148  0.5354 -0.1307
 3114SOL    HW120804   2.565   2.396   4.090  0.2567 -1.1428  0.4065
 3114SOL    HW220805   2.461   2.348   3.988 -0.4518  4.1393 -0.8096
 3115SOL     OW20806   1.945   2.098  10.964 -0.0922  0.0725  0.5052
 3115SOL    HW120807   2.026   2.100  11.015 -1.5291 -0.2637  2.7993
 3115SOL    HW220808   1.970   2.061  10.880  0.4069  1.6686 -0.0553
 3116SOL     OW20809   3.226   1.628   6.361  0.0184 -0.0701  0.0378
 3116SOL    HW120810   3.249   1.555   6.303  0.3365 -0.2275  0.3630
 3116SOL    HW220811   3.300   1.634   6.422 -0.4259  0.1217  0.5542
 3117SOL     OW20812   3.775   4.206   3.391 -0.6117  0.6130  0.5258
 3117SOL    HW120813   3.691   4.164   3.373 -0.1336  0.0883 -0.4508
 3117SOL    HW220814   3.752   4.294   3.359  0.7484 -0.4922 -3.4354
 3118SOL     OW20815   1.829   3.184   3.692  0.1679 -0.4914 -0.0320
 3118SOL    HW120816   1.867   3.201   3.605 -0.2920 -0.3337 -0.2026
 3118SOL    HW220817   1.741   3.217   3.673  0.6907  0.1382 -1.4078
 3119SOL     OW20818   1.599   4.241   6.997  0.2254 -0.3769 -0.0912
 3119SOL    HW120819   1.504   4.229   6.997  0.2163 -0.2408  2.3345
 3119SOL    HW220820   1.626   4.224   6.906  2.5697  0.7661  0.4076
 3120SOL     OW20821   2.901   2.828  13.618  0.0503  0.0677  0.3988
 3120SOL    HW120822   2.810   2.801  13.629 -0.0228  0.7133  1.3778
 3120SOL    HW220823   2.912   2.830  13.523 -1.7901  1.2966  0.2148
 3121SOL     OW20824   2.022   3.406  11.644 -0.0507  0.7400 -0.4674
 3121SOL    HW120825   2.099   3.364  11.606 -0.1647 -0.6438  0.8019
 3121SOL    HW220826   2.030   3.390  11.738  1.6382  0.3843 -0.6588
 3122SOL     OW20827   0.341   4.168  15.241  0.4024 -0.2563 -0.5210
 3122SOL    HW120828   0.411   4.233  15.242 -0.3524  0.5707 -2.6864
 3122SOL    HW220829   0.396   4.089  15.236 -0.3476 -0.9568  2.5784
 3123SOL     OW20830   2.600   0.104  12.116  0.1953 -0.7828 -0.0692
 3123SOL    HW120831   2.641   0.115  12.030 -0.5340 -0.5756 -0.3854
 3123SOL    HW220832   2.542   0.029  12.100  0.4160 -1.0613  0.4323
 3124SOL     OW20833   3.439   4.306   6.603 -0.0197 -0.1805 -0.6023
 3124SOL    HW120834   3.421   4.225   6.555  1.6892 -2.6906  3.0731
 3124SOL    HW220835   3.533   4.302   6.616  0.0524  0.1536 -0.9896
 3125SOL     OW20836   0.460   3.732   0.278 -0.2274  0.6712 -0.1191
 3125SOL    HW120837   0.399   3.799   0.308 -0.6258  0.1203  0.2861
 3125SOL    HW220838   0.484   3.689   0.359 -2.5700  0.7309  0.6056
 3126SOL     OW20839   0.996   1.313   1.971  0.1277 -0.7049  0.0827
 3126SOL    HW120840   1.078   1.339   2.014  0.5277 -1.8968  0.0410
 3126SOL    HW220841   1.017   1.223   1.946 -0.6104 -1.0053  0.5349
 3127SOL     OW20842   4.334   2.340   7.853 -0.1918 -0.3497  0.1937
 3127SOL    HW120843   4.285   2.305   7.779 -1.3216  1.8976 -0.1136
 3127SOL    HW220844   4.271   2.334   7.925  0.7361 -0.2144  1.0206
 3128SOL     OW20845   2.389   1.153   3.277  0.3857  0.2394 -0.2250
 3128SOL    HW120846   2.308   1.146   3.328  0.3841 -0.8495 -0.3855
 3128SOL    HW220847   2.347   1.212   3.214  0.9587  2.0567  1.0794
 3129SOL     OW20848   0.715   3.767   6.651 -0.0309  0.2538  0.3134
 3129SOL    HW120849   0.765   3.722   6.718  0.6510 -0.3171 -0.5774
 3129SOL    HW220850   0.788   3.770   6.589 -0.5347 -0.6996 -0.3287
 3130SOL     OW20851   3.236   4.322   6.796 -0.4478  0.0824 -0.1076
 3130SOL    HW120852   3.235   4.228   6.776  1.0956 -0.6076  3.0677
 3130SOL    HW220853   3.289   4.360   6.725  1.2822  0.4129  1.3513
 3131SOL     OW20854   2.869   2.817  16.126 -0.0328 -0.0969  0.4165
 3131SOL    HW120855   2.876   2.899  16.078 -0.5889  0.9470  2.1243
 3131SOL    HW220856   2.890   2.751  16.060 -2.3172 -0.1009 -0.3123
 3132SOL     OW20857   1.223   0.151  15.525 -0.4615  0.0994 -0.0873
 3132SOL    HW120858   1.315   0.171  15.542 -0.1006 -0.8736 -0.9130
 3132SOL    HW220859   1.177   0.211  15.585 -0.2048  1.3333 -1.1321
 3133SOL     OW20860   0.060   4.716   3.455  0.4992 -0.5237  0.2469
 3133SOL    HW120861   0.080   4.707   3.549 -0.9484  1.0448  0.7040
 3133SOL    HW220862   4.696   0.040   3.454  0.7879  0.0329  0.7856
 3134SOL     OW20863   1.037   0.201   6.683  0.1077 -0.1522 -0.1592
 3134SOL    HW120864   1.116   0.172   6.728 -0.7743  0.8927  2.0508
 3134SOL    HW220865   0.971   0.186   6.751  2.9289 -1.6587  2.2288
 3135SOL     OW20866   3.177   1.379   8.923  0.0126 -0.3817  0.7260
 3135SOL    HW120867   3.190   1.285   8.939 -0.9205 -0.7247 -0.4982
 3135SOL    HW220868   3.089   1.386   8.886 -0.9808 -0.7016  3.0957
 3136SOL     OW20869   1.072   4.092   9.572 -0.0661  0.1706  0.2857
 3136SOL    HW120870   1.124   4.151   9.518 -0.7513  0.4368 -0.0780
 3136SOL    HW220871   1.082   4.010   9.524  2.0187  0.5050  0.1397
 3137SOL     OW20872   3.162   4.447  15.374  0.1989  0.1197 -0.4129
 3137SOL    HW120873   3.212   4.510  15.425 -0.3692 -0.4874  0.9109
 3137SOL    HW220874   3.083   4.499  15.358  0.4829  0.4879 -0.6043
 3138SOL     OW20875   2.788   0.109   8.768 -0.0974  0.3797  0.5786
 3138SOL    HW120876   2.753   0.073   8.686 -1.0346 -0.6586  1.4453
 3138SOL    HW220877   2.800   0.201   8.746 -0.9726  0.8072  1.9574
 3139SOL     OW20878   4.627   1.605  12.413 -0.0293 -0.3662  0.0215
 3139SOL    HW120879   4.706   1.592  12.465  0.8962 -0.5754 -1.4322
 3139SOL    HW220880   4.567   1.559  12.471  0.1564  0.8661  1.1829
 3140SOL     OW20881   0.280   4.218   0.460 -0.0959  0.1975  0.2469
 3140SOL    HW120882   0.248   4.207   0.550 -0.5606  0.5930  0.1334
 3140SOL    HW220883   0.215   4.171   0.407  1.4882 -0.3860 -1.1685
 3141SOL     OW20884   0.586   0.458  17.002 -0.2715  0.0790  0.1685
 3141SOL    HW120885   0.570   0.423  17.090  0.0598  0.8848  0.5454
 3141SOL    HW220886   0.682   0.459  17.002 -0.2963  0.9337 -2.2589
 3142SOL     OW20887   4.541   0.784  17.558  0.1219  0.3021  0.0458
 3142SOL    HW120888   4.507   0.705  17.599 -0.1152  0.8118  0.8372
 3142SOL    HW220889   4.569   0.837  17.633  0.5530 -1.1938  0.9327
 3143SOL     OW20890   2.056   0.623   8.765  0.5274 -0.3853  0.3378
 3143SOL    HW120891   2.017   0.658   8.845 -1.3760  1.0687 -1.2036
 3143SOL    HW220892   1.981   0.614   8.706  1.0740 -2.6710  0.0063
 3144SOL     OW20893   0.425   1.001  13.785  0.3799 -0.1074  0.1522
 3144SOL    HW120894   0.352   0.943  13.808  0.9750  0.1940  2.8144
 3144SOL    HW220895   0.475   1.007  13.867 -0.4044 -1.3465  0.7383
 3145SOL     OW20896   2.836   3.166  14.416  0.1441 -0.1168 -0.3451
 3145SOL    HW120897   2.894   3.237  14.390 -1.7349  0.6059 -2.5829
 3145SOL    HW220898   2.753   3.213  14.405 -0.6690 -0.7470  2.9967
 3146SOL     OW20899   3.699   4.519   5.372  0.6973 -0.3163 -0.0488
 3146SOL    HW120900   3.616   4.539   5.328  0.6795 -0.1218  0.0715
 3146SOL    HW220901   3.667   4.505   5.461 -1.6018  0.8923 -0.6672
 3147SOL     OW20902   1.041   4.252   3.272 -0.1244  0.0060  0.0452
 3147SOL    HW120903   1.008   4.332   3.231  2.0660  1.1240  0.4838
 3147SOL    HW220904   1.118   4.219   3.226 -0.2505 -0.7207  0.3578
 3148SOL     OW20905   1.737   1.508  13.591 -0.1313 -0.0899  0.1999
 3148SOL    HW120906   1.706   1.510  13.681  0.4884  0.7454  0.3945
 3148SOL    HW220907   1.729   1.602  13.574  0.3548 -0.0171  0.3852
 3149SOL     OW20908   1.483   1.805   4.092  0.2656 -0.1339  0.0184
 3149SOL    HW120909   1.527   1.868   4.035 -0.6490  1.4791  1.0789
 3149SOL    HW220910   1.548   1.735   4.099 -0.4261 -0.7039  0.7000
 3150SOL     OW20911   1.210   2.281   6.339  0.3048  0.0999  0.2840
 3150SOL    HW120912   1.132   2.251   6.386 -1.2375  2.0186 -1.0504
 3150SOL    HW220913   1.215   2.213   6.272  0.1281 -1.1761  1.5548
 3151SOL     OW20914   0.511   2.982   4.340 -0.3982 -0.4285 -0.6089
 3151SOL    HW120915   0.497   3.009   4.431  1.5560 -0.6036 -0.2662
 3151SOL    HW220916   0.545   3.064   4.303  1.3292 -0.5367  0.7312
 3152SOL     OW20917   3.576   0.172  14.714 -0.1390 -0.3182 -0.4715
 3152SOL    HW120918   3.510   0.241  14.716 -0.0899 -0.2751 -0.3822
 3152SOL    HW220919   3.628   0.224  14.652  0.8486 -0.6769  0.0667
 3153SOL     OW20920   2.550   0.565   2.040  0.0637  0.2349 -0.4988
 3153SOL    HW120921   2.537   0.625   1.966  0.1467  1.8783  0.8377
 3153SOL    HW220922   2.641   0.580   2.063  0.8020 -0.3875 -3.0003
 3154SOL     OW20923   1.998   2.071   5.327  0.0179 -0.0662  0.0641
 3154SOL    HW120924   1.993   2.041   5.237 -1.6788  0.4919 -0.0420
 3154SOL    HW220925   1.908   2.102   5.335  0.4303  1.1015  0.1809
 3155SOL     OW20926   1.145   2.237   1.910 -0.0711  0.1701 -0.2564
 3155SOL    HW120927   1.170   2.282   1.828 -1.3461 -0.7700 -1.1628
 3155SOL    HW220928   1.107   2.156   1.877 -0.7718  1.4247 -2.5487
 3156SOL     OW20929   3.841   2.245  12.526 -0.0223 -0.0311  0.3456
 3156SOL    HW120930   3.758   2.272  12.487 -0.1948 -0.9757  0.0648
 3156SOL    HW220931   3.893   2.254  12.446 -2.4858 -0.6675 -1.3298
 3157SOL     OW20932   3.033   0.945   0.741 -0.2175 -0.3289  0.6563
 3157SOL    HW120933   3.117   0.899   0.742  0.8322  1.5365 -0.6203
 3157SOL    HW220934   3.028   0.989   0.825 -2.4893  0.9844 -0.1556
 3158SOL     OW20935   2.232   0.563  14.096 -0.3811  0.2780  0.3472
 3158SOL    HW120936   2.220   0.557  14.191  1.3723 -0.7212  0.4935
 3158SOL    HW220937   2.193   0.648  14.075  2.7245  1.4202 -0.7265
 3159SOL     OW20938   4.011   4.605   4.590 -0.0321 -0.2955 -0.0686
 3159SOL    HW120939   3.930   4.558   4.609  0.4709 -0.9905  0.3597
 3159SOL    HW220940   4.048   4.561   4.514  2.4370  1.0714  0.3439
 3160SOL     OW20941   0.711   4.321   4.334  1.3629  0.0532  0.7993
 3160SOL    HW120942   0.782   4.369   4.378 -0.5643  2.4006  1.3581
 3160SOL    HW220943   0.752   4.321   4.248  0.6884  0.7318  0.4843
 3161SOL     OW20944   0.023   3.170   4.898  0.4136  0.1612  0.7007
 3161SOL    HW120945   0.001   3.085   4.937  0.5265 -0.3463 -0.3527
 3161SOL    HW220946   0.118   3.156   4.894  1.0638  4.2432  1.6001
 3162SOL     OW20947   4.482   0.245   6.024 -0.0419  0.5519  0.1427
 3162SOL    HW120948   4.393   0.251   5.989  0.1455  1.1598 -0.2361
 3162SOL    HW220949   4.534   0.269   5.948 -0.7365  0.0216 -0.5056
 3163SOL     OW20950   2.829   2.117   7.558 -0.2144 -0.1564 -0.6748
 3163SOL    HW120951   2.767   2.121   7.484 -0.7521 -1.1186 -0.2852
 3163SOL    HW220952   2.786   2.048   7.609  0.0646 -0.5125 -0.9255
 3164SOL     OW20953   3.124   1.945   4.017 -0.3959 -0.3276  0.3979
 3164SOL    HW120954   3.153   1.854   4.009 -2.2676 -1.0343  1.8176
 3164SOL    HW220955   3.153   1.981   3.933 -0.7723 -0.0209  0.4023
 3165SOL     OW20956   2.449   1.412  14.221  0.1256 -0.4816  0.4543
 3165SOL    HW120957   2.456   1.369  14.137 -0.7608  1.0914 -0.4357
 3165SOL    HW220958   2.492   1.353  14.283  1.5944  0.4203  0.2799
 3166SOL     OW20959   2.652   0.406   8.751 -0.1260  0.3941 -0.0505
 3166SOL    HW120960   2.702   0.483   8.723  0.2941  0.5496  1.1262
 3166SOL    HW220961   2.583   0.402   8.685 -0.3058  0.7992  0.1105
 3167SOL     OW20962   0.010   2.293  11.200 -0.1746  0.2417  0.0884
 3167SOL    HW120963   4.683   2.299  11.117 -1.3083 -0.2993  0.6945
 3167SOL    HW220964   0.041   2.203  11.193  1.3176  0.6248  1.8096
 3168SOL     OW20965   0.223   3.315   7.166  0.2759 -0.8868  0.3900
 3168SOL    HW120966   0.299   3.345   7.115 -1.0563  0.7974 -0.6024
 3168SOL    HW220967   0.268   3.251   7.222  3.7056  2.7822  1.8031
 3169SOL     OW20968   4.551   2.819   7.987  0.3219  0.1490  0.5216
 3169SOL    HW120969   4.557   2.723   7.986  0.6020  0.1677  0.5061
 3169SOL    HW220970   4.468   2.832   7.940  0.7519 -0.7146 -0.4778
 3170SOL     OW20971   1.789   2.027  15.145 -0.4198 -0.1723  0.0301
 3170SOL    HW120972   1.842   2.104  15.126  0.8876 -1.6376 -2.2763
 3170SOL    HW220973   1.809   1.967  15.073  0.2986 -0.7591  0.7195
 3171SOL     OW20974   4.541   1.542  15.939 -0.6517 -0.2684 -0.0641
 3171SOL    HW120975   4.576   1.567  15.854  2.7048 -2.7795  0.5393
 3171SOL    HW220976   4.615   1.492  15.974 -2.3203 -2.1756  0.7794
 3172SOL     OW20977   2.913   4.646   8.544  0.2752  0.0927 -0.7681
 3172SOL    HW120978   2.915   4.553   8.565  1.7311  0.1923 -0.5160
 3172SOL    HW220979   2.822   4.672   8.527 -0.8360 -3.0089  0.4159
 3173SOL     OW20980   4.111   2.579   8.169 -0.1721  0.3933  0.3870
 3173SOL    HW120981   4.052   2.567   8.244  1.0697 -0.5395  1.2180
 3173SOL    HW220982   4.037   2.600   8.112  1.7090  1.1240 -1.7697
 3174SOL     OW20983   3.961   0.402   3.509 -0.5292  0.2865 -0.0764
 3174SOL    HW120984   3.943   0.438   3.596  0.4651  1.0337 -0.1840
 3174SOL    HW220985   4.023   0.468   3.478 -1.1925  0.7650 -0.3866
 3175SOL     OW20986   4.614   1.219  15.993 -0.0322  0.1020  0.4031
 3175SOL    HW120987   4.704   1.209  16.025 -0.1316 -1.1598  0.2929
 3175SOL    HW220988   4.565   1.234  16.074  0.8454  1.2057  0.7326
 3176SOL     OW20989   4.106   3.943  15.682 -0.3505  0.9070  0.8731
 3176SOL    HW120990   4.027   3.938  15.628 -1.1495  0.5164  2.1025
 3176SOL    HW220991   4.076   3.989  15.760 -1.0281 -0.5370  1.4383
 3177SOL     OW20992   4.020   2.532   2.880 -0.3465  0.4105  0.2415
 3177SOL    HW120993   3.990   2.447   2.849  0.9200 -0.2097  0.7306
 3177SOL    HW220994   3.978   2.540   2.966 -1.0999 -1.6077  0.0466
 3178SOL     OW20995   3.563   3.849   9.732  0.1196 -0.2397  0.1882
 3178SOL    HW120996   3.549   3.944   9.733 -0.0840 -0.2633 -0.1763
 3178SOL    HW220997   3.606   3.834   9.816 -0.1102  0.8637  0.4995
 3179SOL     OW20998   0.468   4.403  11.415 -0.2416 -0.3734  0.0986
 3179SOL    HW120999   0.466   4.468  11.485  0.1703 -0.9592  0.6510
 3179SOL    HW221000   0.523   4.331  11.446  1.1891  1.0091  0.7291
 3180SOL     OW21001   0.780   0.145  12.835 -0.4243 -0.2053  0.4764
 3180SOL    HW121002   0.852   0.128  12.896  0.3575  0.9780 -0.0933
 3180SOL    HW221003   0.702   0.107  12.874 -0.1164  1.0775  2.3304
 3181SOL     OW21004   2.516   2.639   9.004 -0.0037 -0.4186  0.3914
 3181SOL    HW121005   2.527   2.585   9.082 -0.4517 -0.7876  0.1981
 3181SOL    HW221006   2.583   2.705   9.022  1.0918 -0.5473 -3.2577
 3182SOL     OW21007   0.458   3.352  13.549 -0.2847 -0.3451 -0.6115
 3182SOL    HW121008   0.469   3.324  13.640 -0.3846  2.1011  0.1335
 3182SOL    HW221009   0.420   3.278  13.501 -0.5538 -1.0582  0.6812
 3183SOL     OW21010   2.645   2.462  13.648 -0.0248 -0.4553  0.1544
 3183SOL    HW121011   2.630   2.546  13.691  0.7339 -0.7049  0.9270
 3183SOL    HW221012   2.674   2.489  13.561 -2.2310 -0.9907 -0.7202
 3184SOL     OW21013   0.066   2.894   3.863  0.3553  0.1040 -0.6822
 3184SOL    HW121014   0.118   2.876   3.941 -0.0254  1.0505 -0.2080
 3184SOL    HW221015   4.711   2.934   3.907  0.0393 -1.2650  0.0113
 3185SOL     OW21016   3.514   0.405   6.559  0.1994  0.0098 -0.0205
 3185SOL    HW121017   3.501   0.374   6.469  1.3067  0.5255 -0.3598
 3185SOL    HW221018   3.472   0.490   6.545  1.5031  0.5852 -0.4478
 3186SOL     OW21019   0.131   0.527   8.135  0.1886 -0.3106  0.5648
 3186SOL    HW121020   0.154   0.528   8.042 -0.0630 -0.4613  0.5006
 3186SOL    HW221021   0.193   0.586   8.177  1.5158 -0.4908 -1.1213
 3187SOL     OW21022   3.442   3.106  10.855  0.5068  0.2655  0.1865
 3187SOL    HW121023   3.476   3.177  10.909  1.7889 -0.8069  0.7717
 3187SOL    HW221024   3.450   3.138  10.765  4.2226 -2.1175 -0.3102
 3188SOL     OW21025   0.266   0.280   8.862 -0.6381 -0.7810 -0.2823
 3188SOL    HW121026   0.273   0.250   8.953 -2.5359 -2.2885 -0.6345
 3188SOL    HW221027   0.206   0.211   8.835 -2.8111  1.1110 -0.2567
 3189SOL     OW21028   2.029   0.875   8.549 -0.3711 -0.3863  0.1158
 3189SOL    HW121029   2.089   0.803   8.529 -0.8210 -0.7620  0.1177
 3189SOL    HW221030   2.078   0.911   8.623 -1.3945  1.6145 -0.1564
 3190SOL     OW21031   3.851   2.525  14.115 -0.3197  0.0004  0.4242
 3190SOL    HW121032   3.940   2.493  14.103 -1.5903 -2.4805 -2.5038
 3190SOL    HW221033   3.811   2.508  14.029 -1.1295  0.5573  0.6885
 3191SOL     OW21034   0.512   2.461  13.927 -0.2269  0.0351 -0.2949
 3191SOL    HW121035   0.595   2.508  13.913  0.2174 -0.4003  0.9587
 3191SOL    HW221036   0.543   2.371  13.918 -0.8803 -0.1072 -1.1144
 3192SOL     OW21037   0.618   3.116  16.790 -0.2186 -0.2519 -0.5923
 3192SOL    HW121038   0.657   3.187  16.841  0.5870 -1.6172  0.6822
 3192SOL    HW221039   0.528   3.125  16.822  1.1363  1.9349  2.5461
 3193SOL     OW21040   0.463   0.708   8.452 -0.0878  0.3385 -0.6726
 3193SOL    HW121041   0.424   0.762   8.520  0.4082  0.0682 -0.1760
 3193SOL    HW221042   0.398   0.641   8.431  2.3276 -1.2538 -3.1045
 3194SOL     OW21043   0.396   4.383   1.194 -0.5475 -0.3146 -0.0626
 3194SOL    HW121044   0.307   4.419   1.182 -0.2516  1.0350  1.6950
 3194SOL    HW221045   0.452   4.452   1.158 -2.0364 -1.2576 -4.1710
 3195SOL     OW21046   3.766   1.098   3.622 -0.6992 -0.5024 -0.4117
 3195SOL    HW121047   3.825   1.023   3.626 -0.2100 -0.2998 -3.4748
 3195SOL    HW221048   3.686   1.055   3.652 -0.2735  1.1750  3.0593
 3196SOL     OW21049   0.256   0.906   2.183  0.0205  0.1638  0.8104
 3196SOL    HW121050   0.177   0.961   2.184  0.4658  0.8356 -2.6082
 3196SOL    HW221051   0.314   0.967   2.137 -0.2642  0.6260  1.0618
 3197SOL     OW21052   4.116   1.929  13.520  0.8723 -0.3205  0.1015
 3197SOL    HW121053   4.143   1.844  13.487 -1.0141 -1.2086  0.8397
 3197SOL    HW221054   4.157   1.988  13.456 -0.5857  2.6382  1.8661
 3198SOL     OW21055   2.180   3.619   5.504 -0.4959 -0.2417  0.4451
 3198SOL    HW121056   2.167   3.596   5.412 -1.1249  2.6806 -0.2140
 3198SOL    HW221057   2.254   3.680   5.499 -0.0566 -0.6706  1.7834
 3199SOL     OW21058   3.186   4.508   4.593  0.4715 -0.5599 -0.3333
 3199SOL    HW121059   3.179   4.413   4.596 -2.5753 -0.3506 -1.3656
 3199SOL    HW221060   3.128   4.543   4.660  0.3371 -0.0247 -0.7306
 3200SOL     OW21061   4.423   3.989   5.950 -0.4734 -0.0964  0.5497
 3200SOL    HW121062   4.416   4.064   6.008  1.7750 -1.3965  2.4851
 3200SOL    HW221063   4.395   4.029   5.868  3.5947  2.3473  0.3821
 3201SOL     OW21064   4.702   3.474  11.960 -0.3699  0.1012 -0.3458
 3201SOL    HW121065   4.656   3.531  12.022  1.9526 -0.1732  1.6422
 3201SOL    HW221066   4.657   3.392  11.982 -1.2888  1.1464  1.7713
 3202SOL     OW21067   2.645   2.524  11.154  0.0997  0.7792  0.3994
 3202SOL    HW121068   2.584   2.597  11.142 -0.6392  0.5417  2.7111
 3202SOL    HW221069   2.613   2.463  11.088  0.0980  0.9756  0.2172
 3203SOL     OW21070   1.487   2.929   7.885  0.0875  0.4317 -0.1262
 3203SOL    HW121071   1.414   2.870   7.867 -0.8393  1.0868  1.4635
 3203SOL    HW221072   1.535   2.875   7.947  0.2246  2.7517  1.7994
 3204SOL     OW21073   2.689   4.011   6.345 -0.1641 -0.4265  0.3889
 3204SOL    HW121074   2.652   4.048   6.426 -1.4169  1.0127 -0.8348
 3204SOL    HW221075   2.610   3.964   6.319  1.1628 -1.5695 -1.5790
 3205SOL     OW21076   3.758   0.391   7.378 -0.2446  0.1196  0.3050
 3205SOL    HW121077   3.772   0.471   7.329 -1.7057 -1.7648 -3.1747
 3205SOL    HW221078   3.840   0.384   7.427 -1.6023 -0.0386  2.6015
 3206SOL     OW21079   1.428   2.156   1.741 -0.1111  0.3186 -0.0816
 3206SOL    HW121080   1.465   2.194   1.821 -2.6431  1.0543  0.7649
 3206SOL    HW221081   1.415   2.244   1.705 -1.4547 -0.4501 -1.4742
 3207SOL     OW21082   0.484   4.327   8.117 -0.5688 -0.3191 -0.0911
 3207SOL    HW121083   0.554   4.286   8.166 -1.5140 -1.1283  0.5802
 3207SOL    HW221084   0.541   4.374   8.056 -0.9745 -1.2969 -1.2302
 3208SOL     OW21085   3.340   1.226   4.787 -0.3691 -0.2887 -0.4957
 3208SOL    HW121086   3.351   1.132   4.801  0.5890 -0.3572 -1.6598
 3208SOL    HW221087   3.247   1.223   4.808  0.4262 -1.6074  2.7477
 3209SOL     OW21088   4.120   3.140   5.668  0.7111 -0.2338  0.4169
 3209SOL    HW121089   4.058   3.168   5.600 -0.0166  0.8183  1.5220
 3209SOL    HW221090   4.175   3.217   5.681 -0.8294  0.4940  2.7638
 3210SOL     OW21091   0.142   0.551   2.438  0.2070  0.2414  0.1804
 3210SOL    HW121092   0.107   0.640   2.430  1.0015  0.4121 -1.6376
 3210SOL    HW221093   0.236   0.572   2.442  0.7306 -2.1678  0.2045
 3211SOL     OW21094   2.518   2.075   4.732  0.5533  0.0015 -0.7572
 3211SOL    HW121095   2.519   2.066   4.637  0.9640  0.5503 -0.8068
 3211SOL    HW221096   2.426   2.073   4.757  0.5218 -1.3064 -0.9854
 3212SOL     OW21097   0.315   4.520   5.708 -0.2544  0.0797 -0.4724
 3212SOL    HW121098   0.222   4.541   5.698 -0.2701 -0.0634 -0.6313
 3212SOL    HW221099   0.308   4.425   5.700 -0.1973  0.1987 -1.8079
 3213SOL     OW21100   0.473   2.163   4.589  0.4596  0.0843  0.2844
 3213SOL    HW121101   0.392   2.112   4.591 -0.2767  1.3268  1.9449
 3213SOL    HW221102   0.456   2.236   4.529  1.7068 -0.0732 -0.2722
 3214SOL     OW21103   2.006   1.531  16.689  0.3983  0.0101  0.2265
 3214SOL    HW121104   2.081   1.584  16.661 -0.2496  0.5063 -0.5926
 3214SOL    HW221105   1.982   1.493  16.604 -1.1109  0.6168  0.3736
 3215SOL     OW21106   0.492   3.738   6.435 -0.2543 -0.4623 -1.1672
 3215SOL    HW121107   0.575   3.750   6.480 -0.9555 -3.0467  0.8375
 3215SOL    HW221108   0.436   3.690   6.496  0.9090 -0.7998 -0.3877
 3216SOL     OW21109   0.308   0.488   8.431  0.5603 -0.1434 -0.0784
 3216SOL    HW121110   0.364   0.415   8.404 -0.5793 -1.3123  0.7401
 3216SOL    HW221111   0.229   0.435   8.440  0.1738  0.4376 -0.0596
 3217SOL     OW21112   3.750   1.652   6.545  0.0069  0.6299  0.0006
 3217SOL    HW121113   3.729   1.743   6.524  0.5530  0.7570  0.0041
 3217SOL    HW221114   3.768   1.613   6.460  0.6457 -0.8046  0.7954
 3218SOL     OW21115   4.394   4.396   3.622 -0.4057 -0.4644  0.1229
 3218SOL    HW121116   4.464   4.392   3.557 -2.9192  0.7833 -2.7157
 3218SOL    HW221117   4.306   4.400   3.585 -0.9326  0.9956  1.5375
 3219SOL     OW21118   3.737   0.234   8.342  0.3718  0.1854  0.4128
 3219SOL    HW121119   3.776   0.277   8.419  3.8909  1.2532 -1.9629
 3219SOL    HW221120   3.716   0.145   8.371 -2.6618  0.2693 -1.6194
 3220SOL     OW21121   1.424   1.696  11.581  0.6884  0.2586 -0.2615
 3220SOL    HW121122   1.406   1.787  11.605 -2.5937 -0.4841  0.0361
 3220SOL    HW221123   1.337   1.668  11.554 -0.5647  0.1815  3.8274
 3221SOL     OW21124   2.197   3.425   2.303 -0.2639  0.1609  0.5821
 3221SOL    HW121125   2.118   3.427   2.249 -0.0211 -0.5926  0.2065
 3221SOL    HW221126   2.154   3.376   2.373  2.2286 -1.0026  1.2667
 3222SOL     OW21127   3.723   4.010   1.816  0.0470  0.1088  0.0490
 3222SOL    HW121128   3.706   4.020   1.722  1.2940  0.9458 -0.0852
 3222SOL    HW221129   3.641   3.971   1.846  0.0882  0.2057  0.2869
 3223SOL     OW21130   1.380   1.835   6.062 -0.1343 -0.1420  0.3853
 3223SOL    HW121131   1.317   1.771   6.029  0.6646 -0.6446 -0.1631
 3223SOL    HW221132   1.392   1.894   5.988 -0.9991 -1.9876 -1.2298
 3224SOL     OW21133   4.536   2.252   6.794  0.2742  0.3462 -0.0036
 3224SOL    HW121134   4.481   2.177   6.819  0.3929  0.0886 -0.5315
 3224SOL    HW221135   4.620   2.233   6.837 -0.1093 -2.0763 -0.2921
 3225SOL     OW21136   2.448   4.705   5.374  0.1749  0.1127  0.9056
 3225SOL    HW121137   2.479   0.072   5.355 -1.4048  0.2174 -1.2303
 3225SOL    HW221138   2.486   4.673   5.292 -0.1850 -0.9143  1.1320
 3226SOL     OW21139   1.731   4.248   6.510  0.7212 -0.6005 -0.0119
 3226SOL    HW121140   1.673   4.178   6.479 -1.2659  0.9227  0.3241
 3226SOL    HW221141   1.687   4.323   6.471 -0.3515 -0.8319  0.7437
 3227SOL     OW21142   4.558   0.142   7.001  0.4830 -0.1522 -0.0411
 3227SOL    HW121143   4.647   0.158   7.034  0.1727  0.3754  0.5515
 3227SOL    HW221144   4.567   0.047   7.009  0.1737  0.0146  2.3044
 3228SOL     OW21145   2.958   1.671   4.104  0.0529 -0.1753 -0.3443
 3228SOL    HW121146   3.014   1.674   4.027  0.7808 -0.9928  0.1511
 3228SOL    HW221147   2.908   1.590   4.098 -0.6002 -0.0011  2.8453
 3229SOL     OW21148   3.204   3.480   9.570 -0.5073  0.3734  0.1479
 3229SOL    HW121149   3.216   3.473   9.665  1.4654 -1.3361 -0.2228
 3229SOL    HW221150   3.287   3.437   9.547 -0.0906  0.1616  2.0185
 3230SOL     OW21151   4.114   1.662   8.255  0.0389 -0.5209  0.2513
 3230SOL    HW121152   4.110   1.643   8.349  2.4165 -0.5263  0.3725
 3230SOL    HW221153   4.022   1.668   8.229  0.3890 -0.9659 -1.0907
 3231SOL     OW21154   4.452   1.489   3.962 -0.1615 -0.2470 -0.1349
 3231SOL    HW121155   4.357   1.495   3.962 -0.1726 -0.5153  1.0912
 3231SOL    HW221156   4.466   1.413   4.018 -1.6970 -0.0221  0.5564
 3232SOL     OW21157   1.473   2.973   9.671 -0.1479 -0.3914 -0.2412
 3232SOL    HW121158   1.529   2.897   9.659  1.2410  0.4418  0.8777
 3232SOL    HW221159   1.512   3.010   9.751  3.0397 -2.3070 -0.9220
 3233SOL     OW21160   1.338   2.197   5.992  0.0529  0.1644  0.0894
 3233SOL    HW121161   1.373   2.119   5.950  0.8780 -0.7254  2.4188
 3233SOL    HW221162   1.248   2.164   6.003  0.2858 -0.2545  0.7461
 3234SOL     OW21163   2.695   2.922   2.175  0.2455 -0.2561 -0.2867
 3234SOL    HW121164   2.606   2.957   2.172  0.5125  0.3251 -1.2879
 3234SOL    HW221165   2.689   2.829   2.152 -1.8168 -0.4720  1.0877
 3235SOL     OW21166   2.416   3.335   2.184  0.0466  0.1274 -0.3348
 3235SOL    HW121167   2.381   3.333   2.095 -1.4677 -0.4836  0.2744
 3235SOL    HW221168   2.349   3.390   2.225 -2.4439 -1.4019 -2.3554
 3236SOL     OW21169   3.796   3.337   4.742 -0.4818 -0.0706  0.3265
 3236SOL    HW121170   3.793   3.285   4.822  0.8704 -2.5188 -1.2341
 3236SOL    HW221171   3.704   3.332   4.717 -0.2272  1.6505 -0.9226
 3237SOL     OW21172   0.152   1.828   4.980  0.2705  0.3948  0.1347
 3237SOL    HW121173   0.106   1.805   4.899 -1.1714 -0.6230  1.2611
 3237SOL    HW221174   0.156   1.923   4.982 -2.0296  0.4909 -0.1150
 3238SOL     OW21175   4.182   3.837   0.091  0.1607  0.2814 -0.3215
 3238SOL    HW121176   4.161   3.857   0.000 -0.2921 -0.1565 -0.3096
 3238SOL    HW221177   4.272   3.870   0.093  0.4707 -0.5323 -0.8024
 3239SOL     OW21178   3.127   3.613   1.247 -0.1245 -0.2187  0.1181
 3239SOL    HW121179   3.216   3.639   1.268 -0.0104 -1.0534  0.6785
 3239SOL    HW221180   3.097   3.679   1.186 -0.7988 -1.3009 -0.7270
 3240SOL     OW21181   3.863   1.726   1.906 -0.6369 -0.2521  0.4791
 3240SOL    HW121182   3.807   1.803   1.898  1.4567  1.1453 -0.7905
 3240SOL    HW221183   3.798   1.660   1.931 -1.8991  0.1593 -1.6510
 3241SOL     OW21184   3.544   1.038   7.788 -0.1550 -0.5421 -0.3017
 3241SOL    HW121185   3.452   1.063   7.793 -0.1001 -0.5977  1.0817
 3241SOL    HW221186   3.594   1.114   7.819  1.2003 -1.4203 -0.3294
 3242SOL     OW21187   4.642   2.476   2.233  0.2125  0.1789  0.4189
 3242SOL    HW121188   0.011   2.459   2.261  0.8592  0.5898 -1.3967
 3242SOL    HW221189   4.637   2.571   2.248  0.6509  0.2382  0.1884
 3243SOL     OW21190   4.282   0.143   7.171  0.2491 -0.3450  0.0712
 3243SOL    HW121191   4.268   0.134   7.265 -0.0171 -3.4284 -0.2435
 3243SOL    HW221192   4.323   0.229   7.163 -1.4404  0.6097  1.7685
 3244SOL     OW21193   2.463   0.620   7.675  0.2270 -0.1817 -0.2974
 3244SOL    HW121194   2.486   0.571   7.754  1.9866  1.5870  0.2762
 3244SOL    HW221195   2.418   0.552   7.624  0.4809 -1.0890  0.6928
 3245SOL     OW21196   4.352   0.426  12.707 -0.2540 -0.0471  0.7443
 3245SOL    HW121197   4.277   0.392  12.658  1.3648 -0.7322 -1.2283
 3245SOL    HW221198   4.429   0.378  12.680 -1.0963 -0.0765 -1.6040
 3246SOL     OW21199   3.455   0.798  12.295  0.0487  0.9817 -0.6014
 3246SOL    HW121200   3.478   0.816  12.386  1.4443  1.7062 -1.1116
 3246SOL    HW221201   3.498   0.713  12.287 -4.0800 -1.1734 -0.1208
 3247SOL     OW21202   3.656   0.134   7.869  0.2232  0.0546 -0.0277
 3247SOL    HW121203   3.650   0.073   7.942  0.8664 -0.8570 -0.7259
 3247SOL    HW221204   3.602   0.204   7.904 -0.1300  0.5436 -1.5593
 3248SOL     OW21205   3.497   2.851   5.327  0.6845  0.7996 -0.6133
 3248SOL    HW121206   3.470   2.906   5.400 -1.6582  1.0442 -1.6438
 3248SOL    HW221207   3.455   2.891   5.251  0.6361  0.6239 -0.6806
 3249SOL     OW21208   3.504   1.572  15.933  0.3709  0.2926 -0.1505
 3249SOL    HW121209   3.424   1.619  15.906  0.2731 -0.4984 -1.2573
 3249SOL    HW221210   3.486   1.500  15.992  0.9126 -1.1905 -1.7875
 3250SOL     OW21211   1.273   4.307   4.273  0.4243 -0.0389 -0.7013
 3250SOL    HW121212   1.365   4.327   4.291 -0.0402  0.4167  1.1326
 3250SOL    HW221213   1.244   4.396   4.255 -2.7622 -0.5227  2.2118
 3251SOL     OW21214   1.379   4.350   0.083  0.0144  0.7750  0.1002
 3251SOL    HW121215   1.299   4.364   0.135  0.1906 -0.1021  0.6075
 3251SOL    HW221216   1.434   4.302   0.145  1.8932 -0.0958 -2.2488
 3252SOL     OW21217   2.901   0.550  10.644  0.5562 -0.0109  0.0404
 3252SOL    HW121218   2.988   0.529  10.676  0.9106 -1.8321 -2.1358
 3252SOL    HW221219   2.915   0.643  10.627  1.1848 -0.2202 -0.5525
 3253SOL     OW21220   2.676   0.924  11.017  0.4556 -0.0050  0.0904
 3253SOL    HW121221   2.598   0.886  11.058  1.1559  0.7002  2.0691
 3253SOL    HW221222   2.721   0.846  10.985  1.0381  0.2992  0.1723
 3254SOL     OW21223   0.351   4.180   2.660  0.5843 -0.3001  0.1984
 3254SOL    HW121224   0.281   4.244   2.671 -0.2449 -1.3056  0.8340
 3254SOL    HW221225   0.376   4.219   2.576  2.3576  0.3005  0.9857
 3255SOL     OW21226   1.553   1.984   3.883 -0.0114 -0.4539  0.2018
 3255SOL    HW121227   1.620   1.998   3.817 -0.7715  1.2493 -0.2108
 3255SOL    HW221228   1.474   1.960   3.835 -2.2173  1.1234  3.0557
 3256SOL     OW21229   4.016   4.190   9.402 -0.1634 -0.0356  0.2495
 3256SOL    HW121230   4.047   4.191   9.492  1.1145 -1.6652 -0.1625
 3256SOL    HW221231   4.078   4.248   9.358  0.6351  0.5295  2.1319
 3257SOL     OW21232   0.810   1.127  14.673 -0.0084  1.0634 -0.0441
 3257SOL    HW121233   0.781   1.071  14.601  0.0671  1.8497 -0.6798
 3257SOL    HW221234   0.903   1.126  14.648  0.2319 -1.7831  0.9044
 3258SOL     OW21235   4.506   0.470   6.262  0.4709 -0.4688  0.6168
 3258SOL    HW121236   4.447   0.462   6.337 -1.0052  0.8046 -0.4036
 3258SOL    HW221237   4.548   0.385   6.252  0.8218 -0.2178 -0.0612
 3259SOL     OW21238   2.681   1.086   5.292  0.1294  0.7391  0.5886
 3259SOL    HW121239   2.697   1.010   5.236 -2.9207  1.1237 -0.7974
 3259SOL    HW221240   2.706   1.060   5.380 -0.4537 -3.6048 -0.4898
 3260SOL     OW21241   1.139   3.756   2.693  0.0125 -0.3794 -0.1828
 3260SOL    HW121242   1.068   3.811   2.660  0.4612 -0.3800 -1.1490
 3260SOL    HW221243   1.188   3.824   2.738 -0.4515 -0.8472  1.0122
 3261SOL     OW21244   2.503   2.789   1.145  0.7225 -0.5179 -0.9709
 3261SOL    HW121245   2.514   2.796   1.240  2.1845  1.6794 -1.3030
 3261SOL    HW221246   2.407   2.788   1.149  0.6481  1.1364 -2.4625
 3262SOL     OW21247   3.141   1.512   4.664  0.2497 -0.8484  0.4597
 3262SOL    HW121248   3.178   1.567   4.596  1.5520 -0.2549  1.6429
 3262SOL    HW221249   3.129   1.423   4.632  1.4821 -0.2654 -1.6139
 3263SOL     OW21250   2.996   3.570   5.774  0.2698 -0.9386  0.5796
 3263SOL    HW121251   3.041   3.487   5.763  3.0030  0.7863 -1.1397
 3263SOL    HW221252   2.989   3.594   5.681 -0.2054 -1.7829  0.3954
 3264SOL     OW21253   3.102   2.521   4.731 -0.2449  0.3436 -0.1593
 3264SOL    HW121254   3.191   2.504   4.761 -1.0491 -2.4377  0.5973
 3264SOL    HW221255   3.058   2.451   4.778 -0.2466  1.1272  1.0043
 3265SOL     OW21256   2.797   1.783   2.604  0.1746  0.1357  0.7941
 3265SOL    HW121257   2.709   1.746   2.601  0.3148 -0.2089  0.9274
 3265SOL    HW221258   2.850   1.704   2.593 -1.1882 -0.9590  2.1198
 3266SOL     OW21259   4.426   2.859   9.220  0.5257  0.0039 -0.5282
 3266SOL    HW121260   4.518   2.851   9.243 -0.0084 -1.2742  1.1585
 3266SOL    HW221261   4.388   2.907   9.294  0.4857  0.4401 -0.8322
 3267SOL     OW21262   1.615   2.349   4.378 -0.0891 -0.2714 -0.1257
 3267SOL    HW121263   1.675   2.296   4.432  0.8485  0.4295 -0.4963
 3267SOL    HW221264   1.558   2.389   4.444 -1.2169 -0.3356 -1.0824
 3268SOL     OW21265   0.396   2.214   8.697  0.1859 -0.6189  0.4685
 3268SOL    HW121266   0.377   2.157   8.773 -1.4495  0.6766  1.0250
 3268SOL    HW221267   0.476   2.181   8.656  1.5385  1.0791  1.7766
 3269SOL     OW21268   0.838   2.012   6.132 -0.1747 -0.4093  0.0226
 3269SOL    HW121269   0.804   1.953   6.065  2.1825 -1.7251 -0.0464
 3269SOL    HW221270   0.902   1.952   6.170  1.3114 -0.2540 -2.2470
 3270SOL     OW21271   1.582   1.438  12.851 -0.2401  0.2497 -0.1678
 3270SOL    HW121272   1.637   1.482  12.916  0.1068 -1.7015  0.8556
 3270SOL    HW221273   1.523   1.390  12.908  0.4375 -1.4317 -0.8649
 3271SOL     OW21274   3.539   2.635  13.519  0.4909 -0.1338 -0.2573
 3271SOL    HW121275   3.589   2.580  13.579 -0.0226 -1.5655 -1.1488
 3271SOL    HW221276   3.505   2.700  13.581 -1.5660  0.2607 -1.8075
 3272SOL     OW21277   1.117   3.632   0.526  0.3242  0.0808 -0.3840
 3272SOL    HW121278   1.051   3.671   0.470 -0.6412 -0.7357  0.1916
 3272SOL    HW221279   1.070   3.604   0.604 -0.8799  0.1482 -1.0829
 3273SOL     OW21280   0.998   3.410  10.407 -0.5022 -0.3114 -0.6327
 3273SOL    HW121281   0.993   3.473  10.479  0.0321  0.0873 -0.9455
 3273SOL    HW221282   1.092   3.395  10.400 -0.3350  0.6148 -0.4099
 3274SOL     OW21283   4.158   1.478  14.253  0.3679  0.4263  0.3536
 3274SOL    HW121284   4.228   1.469  14.188 -0.7766 -0.9955 -0.6916
 3274SOL    HW221285   4.122   1.564  14.234  1.1104  0.3211 -1.5585
 3275SOL     OW21286   3.891   1.607   3.196 -0.1770 -0.4475  0.0876
 3275SOL    HW121287   3.864   1.577   3.283 -1.6312  1.2232  0.1996
 3275SOL    HW221288   3.946   1.680   3.226 -0.1576 -0.0331 -0.9526
 3276SOL     OW21289   4.562   3.646   5.728  0.3091  0.3766  0.1383
 3276SOL    HW121290   4.639   3.592   5.712 -1.3720 -1.6620 -1.2014
 3276SOL    HW221291   4.613   3.725   5.742  1.2549 -0.5474  1.8463
 3277SOL     OW21292   3.295   3.688  10.087 -0.2124  0.1256  0.3308
 3277SOL    HW121293   3.316   3.597  10.106  0.6869  0.2925  0.1391
 3277SOL    HW221294   3.381   3.726  10.103 -0.4473  0.5708  0.5536
 3278SOL     OW21295   2.707   1.426   1.473  0.4008  0.5384 -0.6067
 3278SOL    HW121296   2.709   1.486   1.398 -0.5963  1.2611 -0.0620
 3278SOL    HW221297   2.643   1.465   1.532  0.4421  0.3696 -0.4501
 3279SOL     OW21298   4.009   3.648   9.014  0.6493 -1.2263 -0.3351
 3279SOL    HW121299   3.991   3.695   8.932  2.1103 -2.1872 -1.2055
 3279SOL    HW221300   4.001   3.556   8.992 -2.0332 -1.0639  0.0265
 3280SOL     OW21301   1.301   1.557   4.230  0.4800  0.1583 -0.2600
 3280SOL    HW121302   1.211   1.575   4.257  0.2772 -3.1491  1.2342
 3280SOL    HW221303   1.293   1.507   4.149 -0.4944  0.9529 -0.6494
 3281SOL     OW21304   1.219   2.276   8.112  0.1401 -0.3583  0.9364
 3281SOL    HW121305   1.288   2.214   8.090 -0.7296 -1.2310  0.6845
 3281SOL    HW221306   1.269   2.357   8.117 -0.7460  0.2587 -0.0990
 3282SOL     OW21307   4.140   4.242   8.388 -0.1337  0.0013  0.3899
 3282SOL    HW121308   4.228   4.231   8.353 -0.3694 -1.0499  0.1343
 3282SOL    HW221309   4.160   4.226   8.480 -1.7873 -1.2744  0.5400
 3283SOL     OW21310   0.289   1.496   5.524 -0.1144  0.2725 -0.2281
 3283SOL    HW121311   0.220   1.439   5.557  0.0217  0.5548  0.5479
 3283SOL    HW221312   0.327   1.525   5.607  0.2826  1.1065 -0.6928
 3284SOL     OW21313   3.506   1.382   0.995  0.1219  0.7066  0.6967
 3284SOL    HW121314   3.537   1.321   1.063  1.1202  2.0030  1.4099
 3284SOL    HW221315   3.559   1.457   1.022 -0.4042  1.6160 -0.8141
 3285SOL     OW21316   3.530   0.432  15.107  0.2213 -0.0696 -0.5463
 3285SOL    HW121317   3.463   0.380  15.152  0.6767 -1.9791 -2.1062
 3285SOL    HW221318   3.602   0.408  15.166 -0.3989  0.0597  0.2768
 3286SOL     OW21319   1.384   1.328   0.259  0.3402 -0.4921 -0.1133
 3286SOL    HW121320   1.327   1.276   0.203  0.6355 -1.3765  0.4125
 3286SOL    HW221321   1.342   1.300   0.340 -0.6510  1.3960  0.0200
 3287SOL     OW21322   2.978   1.970  12.486 -0.2187  0.2180 -0.4275
 3287SOL    HW121323   3.032   2.050  12.481  1.1153 -0.5800  1.1530
 3287SOL    HW221324   2.901   2.008  12.529 -0.9934  0.6479 -2.1819
 3288SOL     OW21325   1.096   0.295   9.109 -0.7806  0.5830 -0.3503
 3288SOL    HW121326   1.082   0.385   9.083 -0.1751  1.0751  1.0102
 3288SOL    HW221327   1.039   0.299   9.186  1.8908 -1.2370  1.7530
 3289SOL     OW21328   0.857   3.596   6.786  0.5452  0.0852  0.4453
 3289SOL    HW121329   0.808   3.524   6.824  2.2900 -1.0702  0.5248
 3289SOL    HW221330   0.943   3.554   6.791  1.6115  2.1951 -0.1890
 3290SOL     OW21331   2.996   4.619   0.568  0.0441  0.4070  0.4334
 3290SOL    HW121332   2.985   4.702   0.614 -0.8112  1.0333 -0.8879
 3290SOL    HW221333   3.004   4.653   0.479  0.6044  0.4761  0.5077
 3291SOL     OW21334   4.669   4.341   5.695 -0.1519 -0.1909 -0.1067
 3291SOL    HW121335   4.599   4.332   5.760  1.1722 -2.0130  1.0838
 3291SOL    HW221336   4.632   4.296   5.619  0.2053 -1.2044  0.3159
 3292SOL     OW21337   0.808   0.519   8.057 -0.0494  0.4316 -0.3082
 3292SOL    HW121338   0.811   0.614   8.068 -1.1095 -0.0011  3.6833
 3292SOL    HW221339   0.721   0.497   8.092  0.2309 -1.9156 -1.0839
 3293SOL     OW21340   3.715   2.387   4.145 -0.9404  0.2732 -0.2524
 3293SOL    HW121341   3.634   2.372   4.097 -0.4188  0.9517 -1.3430
 3293SOL    HW221342   3.687   2.358   4.232 -0.0143  0.9964  0.2887
 3294SOL     OW21343   4.528   0.459   8.199 -0.1494  0.0408 -0.3507
 3294SOL    HW121344   4.611   0.497   8.226 -0.4918 -0.1530  0.9866
 3294SOL    HW221345   4.500   0.419   8.281 -1.3685 -0.2110 -0.8818
 3295SOL     OW21346   1.809   3.938   0.812  0.2090  0.5225 -0.0053
 3295SOL    HW121347   1.793   4.025   0.775  1.7714  0.0484 -1.7681
 3295SOL    HW221348   1.749   3.894   0.751 -1.5973 -0.2858  2.3361
 3296SOL     OW21349   1.787   3.515   6.706 -0.3425  0.1870  0.1489
 3296SOL    HW121350   1.787   3.463   6.787 -0.1698  0.9779  0.6529
 3296SOL    HW221351   1.735   3.589   6.736  1.2411  0.7990  1.3556
 3297SOL     OW21352   4.276   2.524   6.599 -0.0232  0.2832 -0.1100
 3297SOL    HW121353   4.310   2.562   6.680 -0.6622  1.4153 -0.3675
 3297SOL    HW221354   4.318   2.439   6.590  1.0142  0.5560  2.0947
 3298SOL     OW21355   1.728   2.179   8.569 -0.5998 -0.5962  0.3332
 3298SOL    HW121356   1.738   2.157   8.476  0.5172 -0.5261  0.4388
 3298SOL    HW221357   1.726   2.275   8.560  0.5446 -0.7481 -1.4258
 3299SOL     OW21358   4.288   4.513   3.087  0.2876 -0.1293  0.5665
 3299SOL    HW121359   4.203   4.555   3.097  0.7312  0.7340  0.7396
 3299SOL    HW221360   4.308   4.552   3.002 -0.1301 -2.5798 -0.6582
 3300SOL     OW21361   4.162   1.566   4.897 -0.6612 -0.2116  0.3001
 3300SOL    HW121362   4.165   1.662   4.901  2.2467 -0.1996 -2.0937
 3300SOL    HW221363   4.194   1.548   4.985  2.6754 -0.9913 -1.1019
 3301SOL     OW21364   2.251   0.653   9.185  0.0705  0.4383  0.1268
 3301SOL    HW121365   2.242   0.687   9.096 -1.5938 -1.3776 -0.4120
 3301SOL    HW221366   2.210   0.568   9.167  5.5989 -2.2490  0.3738
 3302SOL     OW21367   0.446   1.650   7.812 -0.0125 -0.4615 -1.0708
 3302SOL    HW121368   0.398   1.583   7.860 -0.3922 -2.6803 -4.5236
 3302SOL    HW221369   0.522   1.665   7.867 -1.6639  2.3860  0.4311
 3303SOL     OW21370   0.231   1.225  11.906  0.3382  0.6009 -0.3675
 3303SOL    HW121371   0.308   1.255  11.858  1.6984 -0.3301  1.2731
 3303SOL    HW221372   0.233   1.142  11.857  1.4952  1.2558 -1.4201
 3304SOL     OW21373   0.788   0.623  13.958  0.2020 -0.1299  0.1493
 3304SOL    HW121374   0.882   0.626  13.974  0.5419  0.1337 -1.9940
 3304SOL    HW221375   0.777   0.701  13.904 -0.3498  0.3263  0.9088
 3305SOL     OW21376   1.653   4.668   9.324  0.1181 -0.2051  0.5321
 3305SOL    HW121377   1.630   4.617   9.402 -0.8804  0.2494  0.5289
 3305SOL    HW221378   1.689   0.027   9.366 -0.5522 -0.3218  1.3339
 3306SOL     OW21379   3.028   1.163   7.904  0.4869  0.7469  0.1310
 3306SOL    HW121380   2.983   1.105   7.842  1.4876  0.8298 -0.6600
 3306SOL    HW221381   3.011   1.109   7.982  1.1343  1.2053  0.5833
 3307SOL     OW21382   4.030   1.615   0.104  0.3338  0.1025  0.5225
 3307SOL    HW121383   4.121   1.590   0.086  0.5272  0.4259  1.0625
 3307SOL    HW221384   4.017   1.577   0.191 -0.2163 -2.2219 -0.5402
 3308SOL     OW21385   1.977   3.338  11.916 -0.0286 -0.0362  0.2940
 3308SOL    HW121386   1.924   3.403  11.961  1.5783 -0.3005  2.5643
 3308SOL    HW221387   1.921   3.261  11.915 -2.5430  1.8123  0.9077
 3309SOL     OW21388   3.660   3.551   8.993 -0.6258  0.2936  0.4431
 3309SOL    HW121389   3.636   3.644   8.997  0.6066  0.6726 -0.8771
 3309SOL    HW221390   3.602   3.516   9.061 -2.0296  0.5865 -0.6179
 3310SOL     OW21391   3.383   0.982   6.509 -0.7295  0.6284 -0.2473
 3310SOL    HW121392   3.386   0.974   6.604  3.3335  2.0129 -0.2737
 3310SOL    HW221393   3.384   0.890   6.482 -0.5147  0.4268  0.4546
 3311SOL     OW21394   4.227   1.911   5.900 -0.6311 -0.4266  0.2697
 3311SOL    HW121395   4.280   1.959   5.836  1.6870 -3.3023  0.0215
 3311SOL    HW221396   4.298   1.870   5.950  0.2629  1.3409  0.4578
 3312SOL     OW21397   1.928   3.223  14.468 -0.0995  0.1655  0.4675
 3312SOL    HW121398   2.013   3.264  14.487 -1.9529  3.2629  2.1609
 3312SOL    HW221399   1.879   3.301  14.440 -1.2978 -1.1237 -1.0097
 3313SOL     OW21400   3.878   0.808   4.447 -0.1211  0.2106 -0.6491
 3313SOL    HW121401   3.789   0.841   4.464  0.0153  0.8256 -1.1017
 3313SOL    HW221402   3.933   0.883   4.423  2.0556 -1.0692  0.4188
 3314SOL     OW21403   1.347   2.548   8.959 -0.3361  0.4031  0.3567
 3314SOL    HW121404   1.304   2.536   9.044 -3.2697  1.3354 -0.9740
 3314SOL    HW221405   1.380   2.638   8.962  0.2091  0.2587 -1.2736
 3315SOL     OW21406   2.020   3.061   6.560  0.3629 -0.5308 -0.1623
 3315SOL    HW121407   2.043   3.112   6.638  0.0868  0.0074 -0.4314
 3315SOL    HW221408   1.929   3.041   6.585  1.2520 -2.3327  1.6781
 3316SOL     OW21409   4.223   0.718   6.897 -0.0630  0.1943  0.3092
 3316SOL    HW121410   4.311   0.753   6.911 -0.0678  0.6251 -0.7654
 3316SOL    HW221411   4.172   0.772   6.958 -0.4940  1.6677 -1.3558
 3317SOL     OW21412   0.861   3.874  14.930  0.6260 -0.3236 -0.6141
 3317SOL    HW121413   0.855   3.835  15.017 -1.4583 -0.4851 -0.8252
 3317SOL    HW221414   0.787   3.935  14.927  1.1110  0.2434 -0.9505
 3318SOL     OW21415   4.469   3.394   6.953  0.4830 -0.8437  0.1408
 3318SOL    HW121416   4.452   3.469   6.896  1.1828  0.1787  1.2774
 3318SOL    HW221417   4.557   3.406   6.987  0.6698  0.3753 -0.7596
 3319SOL     OW21418   2.260   3.281   0.240 -0.8588  0.0414  0.0784
 3319SOL    HW121419   2.297   3.368   0.256  0.1538 -0.7107  1.7346
 3319SOL    HW221420   2.246   3.250   0.330 -1.3341 -1.2938 -0.4697
 3320SOL     OW21421   0.933   0.500  14.938  0.5769  0.2029  0.2305
 3320SOL    HW121422   0.863   0.467  14.995  0.3520  1.7422  0.8363
 3320SOL    HW221423   0.890   0.486  14.854  0.0589  0.7544  0.4076
 3321SOL     OW21424   3.015   1.439   3.043 -0.1249  0.2349  0.5720
 3321SOL    HW121425   2.941   1.462   2.987 -0.1436  3.6884  1.9693
 3321SOL    HW221426   3.070   1.394   2.978 -0.9291 -1.1123  0.8427
 3322SOL     OW21427   0.992   1.704   2.404  0.0493  0.1646  0.2751
 3322SOL    HW121428   1.058   1.696   2.334 -1.5893  2.9590 -1.6127
 3322SOL    HW221429   0.917   1.658   2.365  1.1551  0.0958 -1.7879
 3323SOL     OW21430   0.969   4.492   5.205  0.2847 -0.8293  1.0608
 3323SOL    HW121431   1.019   4.568   5.233 -0.3435  0.6588 -1.9147
 3323SOL    HW221432   1.027   4.421   5.234  3.1128 -0.1438 -2.7621
 3324SOL     OW21433   1.673   2.307   4.826  0.4028  0.3703  0.5028
 3324SOL    HW121434   1.714   2.225   4.801  1.2721  0.8204  0.4578
 3324SOL    HW221435   1.678   2.311   4.922  0.5104 -1.7623  0.5686
 3325SOL     OW21436   3.090   0.349  10.796 -0.3361  0.4769 -0.3346
 3325SOL    HW121437   3.128   0.384  10.715  0.5835 -2.1636 -1.0540
 3325SOL    HW221438   3.067   0.259  10.771  3.3042 -1.0913  1.8253
 3326SOL     OW21439   2.097   2.402   2.797  0.3936  0.1942 -0.1430
 3326SOL    HW121440   2.152   2.354   2.859  0.8383  1.1735  0.2277
 3326SOL    HW221441   2.067   2.469   2.858 -0.1779 -0.8038  0.6473
 3327SOL     OW21442   4.374   4.156   1.164 -0.1541 -0.5690 -0.2197
 3327SOL    HW121443   4.439   4.177   1.097 -1.5081 -1.6752 -1.8779
 3327SOL    HW221444   4.296   4.149   1.110 -0.1252  0.2595 -0.3684
 3328SOL     OW21445   1.706   3.493   3.542  0.3778  0.0497  0.6915
 3328SOL    HW121446   1.666   3.416   3.582  2.1398 -0.6566  1.1178
 3328SOL    HW221447   1.648   3.493   3.467 -0.7531 -0.4364  1.5673
 3329SOL     OW21448   1.024   0.084   3.927  0.7870  0.2588 -0.6184
 3329SOL    HW121449   1.105   0.048   3.891  0.4689 -1.0157 -0.0559
 3329SOL    HW221450   0.971   0.004   3.926 -1.5911  1.8397  0.2074
 3330SOL     OW21451   1.230   2.378   4.367  0.0554  0.4232 -0.7216
 3330SOL    HW121452   1.166   2.378   4.439  1.7781 -2.5076  0.8217
 3330SOL    HW221453   1.278   2.296   4.372  1.9883  1.5691 -0.2897
 3331SOL     OW21454   3.299   0.014   1.432 -0.0600  0.0425 -0.0005
 3331SOL    HW121455   3.359   4.664   1.454  1.7549  1.6541  0.2618
 3331SOL    HW221456   3.347   0.068   1.370 -0.2937  1.1498  0.7616
 3332SOL     OW21457   4.159   4.159   3.794 -0.2354 -0.3662  0.0395
 3332SOL    HW121458   4.127   4.154   3.704 -1.1765  0.3805  0.3204
 3332SOL    HW221459   4.157   4.254   3.808 -2.1826 -0.3619 -0.2645
 3333SOL     OW21460   4.502   3.486   1.333 -0.0086 -0.6035 -0.0839
 3333SOL    HW121461   4.530   3.574   1.308 -2.1289 -0.7976 -3.1269
 3333SOL    HW221462   4.471   3.505   1.422 -0.9588  0.7130 -0.6961
 3334SOL     OW21463   1.836   0.583   7.083  0.4455 -0.1733 -0.3151
 3334SOL    HW121464   1.819   0.496   7.119 -0.4554  0.2408  0.2708
 3334SOL    HW221465   1.882   0.624   7.156  1.0047  0.3293 -0.9491
 3335SOL     OW21466   3.109   1.480   4.963 -0.0448  0.3913  0.4131
 3335SOL    HW121467   3.114   1.545   4.893 -0.1941 -0.1344 -0.0841
 3335SOL    HW221468   3.071   1.408   4.914 -0.2912  0.8645 -0.0893
 3336SOL     OW21469   2.936   0.446   2.616 -0.3564  0.0206 -0.3386
 3336SOL    HW121470   2.844   0.444   2.590 -0.8270  2.6786  1.1487
 3336SOL    HW221471   2.953   0.539   2.630 -0.1768 -0.0411 -0.1504
 3337SOL     OW21472   1.874   3.270   5.503 -0.7072 -0.3508  0.4229
 3337SOL    HW121473   1.898   3.353   5.546  0.9238 -0.5852 -0.0280
 3337SOL    HW221474   1.910   3.197   5.553 -0.6568  1.0091  2.3740
 3338SOL     OW21475   1.782   0.402   9.457  0.1247  0.4707  0.0211
 3338SOL    HW121476   1.705   0.354   9.426  0.2784  1.5921 -2.1576
 3338SOL    HW221477   1.742   0.473   9.507 -2.0005  0.4973 -1.6952
 3339SOL     OW21478   1.844   0.846   1.043  0.1004 -0.7215 -0.3077
 3339SOL    HW121479   1.912   0.796   1.089  2.2974  1.7932 -0.8567
 3339SOL    HW221480   1.895   0.896   0.979 -0.1870 -1.9280 -1.4680
 3340SOL     OW21481   2.921   0.742   1.252  0.2219  0.3972  0.6421
 3340SOL    HW121482   2.866   0.820   1.260 -1.3059 -0.6858  0.7611
 3340SOL    HW221483   2.997   0.789   1.220  1.0973 -2.0600 -0.8705
 3341SOL     OW21484   0.023   4.272   8.737 -0.7724  0.1374  0.5311
 3341SOL    HW121485   0.081   4.326   8.684 -1.8118  0.8499  0.1121
 3341SOL    HW221486   0.043   4.186   8.699 -1.9469  0.9653 -1.9595
 3342SOL     OW21487   1.006   3.024   6.315 -0.7160 -0.6327 -0.3677
 3342SOL    HW121488   0.950   3.045   6.240  1.6932  2.9041 -1.1894
 3342SOL    HW221489   0.977   3.085   6.383 -1.5361 -0.8776 -0.5037
 3343SOL     OW21490   2.265   2.469   3.347 -0.1658 -0.1963  0.4425
 3343SOL    HW121491   2.360   2.468   3.359  0.0187 -0.4549 -0.9757
 3343SOL    HW221492   2.237   2.443   3.434  0.3573 -0.1012  0.6377
 3344SOL     OW21493   2.122   1.093  16.943 -0.8022 -0.0838 -0.3638
 3344SOL    HW121494   2.107   1.163  16.879  1.0970 -0.0880 -0.7965
 3344SOL    HW221495   2.057   1.024  16.924 -2.3192  0.8813  1.3439
 3345SOL     OW21496   2.567   3.655   7.922 -0.4480 -0.2557  0.1676
 3345SOL    HW121497   2.525   3.669   8.007  1.9907 -1.2679  1.5385
 3345SOL    HW221498   2.523   3.717   7.863 -0.3707 -1.4584 -1.1287
 3346SOL     OW21499   1.453   2.470   7.946 -0.1290 -0.8999  0.2985
 3346SOL    HW121500   1.410   2.479   7.861  1.9851 -0.6886 -0.7414
 3346SOL    HW221501   1.542   2.445   7.921  0.2020  1.3416 -0.7331
 3347SOL     OW21502   3.005   3.349   6.058 -0.1755 -0.7579 -0.2920
 3347SOL    HW121503   2.996   3.257   6.083  0.9031 -1.1472 -1.3659
 3347SOL    HW221504   2.919   3.392   6.061 -0.1362 -0.5571 -2.0351
 3348SOL     OW21505   0.194   0.687   2.065  0.4973  0.0858 -0.1467
 3348SOL    HW121506   0.101   0.704   2.080  0.2691 -1.5966  0.3217
 3348SOL    HW221507   0.229   0.762   2.114  0.2551 -0.3931  0.7602
 3349SOL     OW21508   0.192   2.929  10.501  0.2223 -0.2272  0.1240
 3349SOL    HW121509   0.269   2.960  10.453 -0.4351  0.7036 -0.3330
 3349SOL    HW221510   0.121   2.972  10.453 -0.6166  0.7941  2.2592
 3350SOL     OW21511   2.516   2.002   1.215 -0.7150  0.6988 -0.2956
 3350SOL    HW121512   2.511   2.084   1.165  0.7982  2.1103  1.8739
 3350SOL    HW221513   2.450   2.016   1.283  1.3583 -0.2334  1.8620
 3351SOL     OW21514   1.024   3.126   8.054 -0.6901  0.5594 -0.3011
 3351SOL    HW121515   0.961   3.183   8.010 -1.0692  1.0293  0.8421
 3351SOL    HW221516   1.111   3.149   8.021 -1.3256  1.8420 -1.0811
 3352SOL     OW21517   1.637   4.066  17.181  0.0291  0.0149  0.1581
 3352SOL    HW121518   1.618   4.146  17.230  1.1738 -0.6707  1.7365
 3352SOL    HW221519   1.621   4.095  17.091  1.6723  1.4306  0.3152
 3353SOL     OW21520   3.824   4.087  11.634  0.0538  0.0671  0.3132
 3353SOL    HW121521   3.752   4.052  11.686  0.2241 -1.0634 -0.2163
 3353SOL    HW221522   3.882   4.011  11.636  0.3147  0.2118 -1.3183
 3354SOL     OW21523   4.508   3.800  14.841  0.3924 -0.3954  0.4935
 3354SOL    HW121524   4.538   3.876  14.892  0.0411 -0.0884  0.2483
 3354SOL    HW221525   4.414   3.805  14.859  0.1345  0.4558 -1.0512
 3355SOL     OW21526   3.014   3.860   6.735  0.8598 -0.6509  0.2031
 3355SOL    HW121527   2.957   3.782   6.737 -1.0089  0.7772  2.7748
 3355SOL    HW221528   2.984   3.893   6.650 -0.8880 -2.1213  0.2507
 3356SOL     OW21529   2.340   3.810   6.629 -0.3314  0.1876  0.4817
 3356SOL    HW121530   2.313   3.828   6.719 -1.3028  2.5400 -0.2512
 3356SOL    HW221531   2.392   3.886   6.601 -0.5501 -0.0383 -0.5436
 3357SOL     OW21532   2.441   4.582   0.330 -0.0999 -0.0147  0.3134
 3357SOL    HW121533   2.441   4.671   0.363 -0.2104  0.2130 -0.2919
 3357SOL    HW221534   2.523   4.544   0.361 -0.7605 -1.9749 -0.3065
 3358SOL     OW21535   2.980   1.974  17.296  0.0453 -0.4934  0.8171
 3358SOL    HW121536   2.903   1.919  17.282 -0.2422 -0.5966  2.7564
 3358SOL    HW221537   3.049   1.920  17.258 -0.6085 -0.1473 -0.8379
 3359SOL     OW21538   0.985   3.471  15.457 -0.2041  0.0547  0.4467
 3359SOL    HW121539   1.004   3.444  15.547 -0.7314 -1.8013 -0.0057
 3359SOL    HW221540   0.950   3.555  15.484 -3.5204 -0.3258 -2.7360
 3360SOL     OW21541   0.658   1.235   8.008  0.2713 -0.1875  0.4106
 3360SOL    HW121542   0.707   1.154   7.994 -2.5640 -2.0308  0.9642
 3360SOL    HW221543   0.695   1.284   7.935  0.3339  0.6046  0.9832
 3361SOL     OW21544   2.350   3.746  17.258 -0.2680 -0.3712 -0.0339
 3361SOL    HW121545   2.304   3.825  17.286  2.2112  1.5162 -1.2935
 3361SOL    HW221546   2.443   3.763  17.275 -0.1408 -0.1357 -0.9895
 3362SOL     OW21547   4.467   2.468   8.295 -0.0862 -0.0561 -0.0897
 3362SOL    HW121548   4.411   2.528   8.245 -0.4931 -0.1311  0.2855
 3362SOL    HW221549   4.404   2.398   8.311 -2.0377  1.6394 -0.3619
 3363SOL     OW21550   0.293   4.548   3.045  0.1562 -0.2311 -0.2416
 3363SOL    HW121551   0.233   4.558   3.119  0.7676 -1.0711  0.3609
 3363SOL    HW221552   0.245   4.598   2.979 -1.6604  1.2290  2.1850
 3364SOL     OW21553   3.019   1.864   2.749  0.2215  0.0089 -0.0289
 3364SOL    HW121554   2.935   1.846   2.707  1.0613 -0.8871 -1.3543
 3364SOL    HW221555   3.072   1.909   2.682 -0.4211 -0.6069 -0.9567
 3365SOL     OW21556   2.968   2.110   5.419 -0.4321 -0.5469  0.2065
 3365SOL    HW121557   2.941   2.036   5.365  0.5796 -1.2607  0.6807
 3365SOL    HW221558   3.001   2.172   5.354  0.1498 -0.8639  0.2020
 3366SOL     OW21559   4.356   0.859   7.886 -0.2470 -0.1872  0.5899
 3366SOL    HW121560   4.394   0.771   7.889  1.1765  0.4144  0.0678
 3366SOL    HW221561   4.319   0.841   7.800  0.8371  0.0427  0.0739
 3367SOL     OW21562   1.657   1.771   4.359  0.0416 -0.1348  0.6977
 3367SOL    HW121563   1.635   1.750   4.268  1.4753  1.1689  0.0614
 3367SOL    HW221564   1.743   1.729   4.366  0.1716  0.3691  2.1399
 3368SOL     OW21565   3.062   4.586   1.327  0.4231 -0.2259  1.0443
 3368SOL    HW121566   2.992   4.616   1.268  0.1941 -0.2787  1.2876
 3368SOL    HW221567   3.111   4.667   1.341  0.4203 -0.3506  1.7450
 3369SOL     OW21568   1.133   1.831  17.081 -0.3651  0.1684  0.0985
 3369SOL    HW121569   1.112   1.867  17.168  0.5165 -1.6431  1.0658
 3369SOL    HW221570   1.191   1.760  17.107  1.2925  0.5032 -2.7111
 3370SOL     OW21571   3.960   3.181  13.896 -0.0315 -0.0546 -0.5846
 3370SOL    HW121572   4.019   3.146  13.963 -1.6357  1.7128  1.7312
 3370SOL    HW221573   3.893   3.224  13.948  0.2411  1.3495 -1.3719
 3371SOL     OW21574   3.751   1.374   7.385  0.3746  0.3200 -0.3530
 3371SOL    HW121575   3.727   1.298   7.331 -0.7197  0.0989  0.4389
 3371SOL    HW221576   3.749   1.331   7.471  1.3161 -1.2154 -1.0956
 3372SOL     OW21577   1.419   1.678   9.849 -0.7425 -0.4658  0.2446
 3372SOL    HW121578   1.327   1.701   9.863 -0.7248  1.6145 -2.9870
 3372SOL    HW221579   1.456   1.763   9.823 -0.0443 -1.3072 -1.4536
 3373SOL     OW21580   3.038   3.964   5.487  0.4247 -0.0144  0.3356
 3373SOL    HW121581   2.968   3.899   5.477  0.0128  0.2699  1.3117
 3373SOL    HW221582   2.999   4.042   5.526 -1.9749 -1.0932  0.1517
 3374SOL     OW21583   4.200   0.992   2.632 -0.2382  0.6086  0.3756
 3374SOL    HW121584   4.146   0.965   2.557 -0.8099  2.6112  0.0684
 3374SOL    HW221585   4.185   1.085   2.618 -0.0144  0.5521 -0.2578
 3375SOL     OW21586   0.791   4.236   6.776  0.1943  0.7556  0.3173
 3375SOL    HW121587   0.810   4.169   6.710 -0.5387  0.0020  0.8682
 3375SOL    HW221588   0.730   4.289   6.725 -0.6135 -1.7734 -1.3252
 3376SOL     OW21589   0.277   2.971   6.222  0.0129 -0.0500  0.5522
 3376SOL    HW121590   0.373   2.968   6.225  0.0199  1.5110  1.8107
 3376SOL    HW221591   0.265   2.997   6.130  1.3097 -0.9508  0.1266
 3377SOL     OW21592   2.668   0.025  16.700 -0.3511 -0.0121 -0.0910
 3377SOL    HW121593   2.741   4.703  16.655 -1.2558 -1.0985 -0.5295
 3377SOL    HW221594   2.593   4.700  16.664 -0.6250 -0.1480  0.6453
 3378SOL     OW21595   1.659   0.872   8.321  0.2454 -0.3048  0.1678
 3378SOL    HW121596   1.663   0.885   8.415 -0.6904  0.1063  0.1568
 3378SOL    HW221597   1.681   0.779   8.314  1.0401 -0.0973 -0.0978
 3379SOL     OW21598   0.780   4.111   2.604  0.0321  0.0906  0.1136
 3379SOL    HW121599   0.775   4.021   2.635 -2.6565 -0.0269 -0.7244
 3379SOL    HW221600   0.862   4.139   2.647  0.3367 -0.6196 -0.0072
 3380SOL     OW21601   3.162   2.116   4.398 -0.1030  0.6090 -0.0456
 3380SOL    HW121602   3.116   2.107   4.314 -1.9931 -0.8831  1.1586
 3380SOL    HW221603   3.146   2.207   4.423  4.1512  1.9082 -2.0208
 3381SOL     OW21604   1.644   3.693   8.156 -0.8186  0.6222 -0.3468
 3381SOL    HW121605   1.649   3.604   8.189  2.2044  2.3004  3.6679
 3381SOL    HW221606   1.594   3.733   8.228  1.4640  1.1931  0.9010
 3382SOL     OW21607   3.034   3.211   9.558 -0.3571  0.7202 -0.4471
 3382SOL    HW121608   3.079   3.185   9.638  1.9498  0.0260 -1.9540
 3382SOL    HW221609   3.045   3.307   9.558  2.3148  0.4049 -0.3113
 3383SOL     OW21610   4.168   2.015   7.846  0.1111 -0.3333 -0.3841
 3383SOL    HW121611   4.143   2.020   7.939 -1.6935 -1.9343 -0.7643
 3383SOL    HW221612   4.245   1.958   7.856  0.1424 -0.1032  0.6992
 3384SOL     OW21613   0.408   1.507   4.080 -0.1928  0.1936  0.5044
 3384SOL    HW121614   0.403   1.412   4.074  1.4314  0.2986 -2.5381
 3384SOL    HW221615   0.322   1.525   4.042 -0.1639  0.2457  0.4639
 3385SOL     OW21616   0.547   2.633  10.702 -0.7613  0.0661 -0.1287
 3385SOL    HW121617   0.477   2.676  10.652  1.9418  2.4483 -1.8538
 3385SOL    HW221618   0.594   2.704  10.746 -0.5001 -0.1860 -0.0010
 3386SOL     OW21619   0.933   2.291   8.083  0.6971  0.1489 -0.0290
 3386SOL    HW121620   1.027   2.286   8.064  0.5515  0.2595 -0.7842
 3386SOL    HW221621   0.931   2.332   8.169 -0.9552 -0.9783  0.4739
 3387SOL     OW21622   1.608   1.032  10.874  0.3052 -0.2393 -0.0875
 3387SOL    HW121623   1.627   1.125  10.858 -3.3471  0.4180 -0.6148
 3387SOL    HW221624   1.671   1.023  10.945  2.1818  0.9646 -1.6107
 3388SOL     OW21625   3.306   3.098   6.233 -0.0897  0.6925 -0.1773
 3388SOL    HW121626   3.279   3.010   6.205  1.2835  0.8070 -1.9390
 3388SOL    HW221627   3.401   3.082   6.234 -0.4362 -1.3370  1.1352
 3389SOL     OW21628   2.414   4.415   2.977 -0.6225  0.5841 -0.3805
 3389SOL    HW121629   2.390   4.476   3.048 -0.3477 -0.2005  0.3923
 3389SOL    HW221630   2.340   4.401   2.918 -0.1923  0.4540 -0.8792
 3390SOL     OW21631   3.706   3.644  10.318  0.4398 -0.1328 -0.0508
 3390SOL    HW121632   3.659   3.563  10.300  0.9110  0.2504 -3.0986
 3390SOL    HW221633   3.773   3.602  10.372  0.8895 -1.3038 -1.5306
 3391SOL     OW21634   4.659   0.524   5.709  0.1553 -0.6826  0.4610
 3391SOL    HW121635   4.691   0.572   5.786  1.8202 -0.5307 -0.3219
 3391SOL    HW221636   0.002   0.452   5.706 -0.4227 -1.2089  0.8195
 3392SOL     OW21637   4.471   1.168  15.757  0.0447  0.1800  0.6138
 3392SOL    HW121638   4.529   1.182  15.832  4.7529 -0.7968 -2.7990
 3392SOL    HW221639   4.475   1.247  15.702  0.2347  0.6172  1.2532
 3393SOL     OW21640   4.541   3.759   1.286  0.5399  0.2188 -0.1471
 3393SOL    HW121641   4.487   3.827   1.245  0.1017  1.1316  1.9457
 3393SOL    HW221642   4.545   3.790   1.377  0.0451 -1.2204  0.3603
 3394SOL     OW21643   2.882   0.013  13.978  0.2664 -0.3586  0.0688
 3394SOL    HW121644   2.949   0.081  13.972 -1.7166  1.4742 -1.4334
 3394SOL    HW221645   2.858   0.027  14.069 -4.9664  2.4747 -1.7657
 3395SOL     OW21646   0.499   1.371  16.269 -0.9100 -0.2462  0.0121
 3395SOL    HW121647   0.446   1.314  16.325  0.4214 -1.5849 -0.0767
 3395SOL    HW221648   0.507   1.440  16.335 -1.6463 -0.8980  0.7813
 3396SOL     OW21649   3.480   1.119  14.820  0.2801 -0.0740 -0.2124
 3396SOL    HW121650   3.562   1.145  14.779  0.7890 -2.2821 -0.5816
 3396SOL    HW221651   3.421   1.182  14.778 -1.9057 -0.9402  1.5163
 3397SOL     OW21652   0.598   1.710   6.863 -0.1582  0.7263 -0.3900
 3397SOL    HW121653   0.635   1.647   6.924 -0.3839  0.4325 -0.5582
 3397SOL    HW221654   0.566   1.775   6.927 -0.4027  0.4120 -0.1947
 3398SOL     OW21655   3.014   0.352  14.968  0.7123  0.0056  1.1086
 3398SOL    HW121656   2.981   0.294  15.036 -0.6953 -1.6085 -0.9629
 3398SOL    HW221657   3.106   0.334  14.986  0.5027 -0.7889  1.3949
 3399SOL     OW21658   3.361   3.580   8.795 -0.0664  0.3818  0.3289
 3399SOL    HW121659   3.361   3.575   8.890  1.0253 -2.5968  0.1597
 3399SOL    HW221660   3.447   3.539   8.787 -0.8528 -1.5357  1.8759
 3400SOL     OW21661   0.667   3.899   7.407  0.5845  0.0097 -0.3733
 3400SOL    HW121662   0.632   3.946   7.332  0.6599 -0.4055 -0.6709
 3400SOL    HW221663   0.622   3.814   7.409 -0.6019  0.7076  1.8253
 3401SOL     OW21664   0.283   3.610  11.644 -0.2762 -0.0809 -0.3652
 3401SOL    HW121665   0.344   3.559  11.590 -0.4667 -1.6966  0.9518
 3401SOL    HW221666   0.352   3.651  11.696 -0.6420 -0.5002  0.4520
 3402SOL     OW21667   3.583   2.452   6.033 -0.1444  0.3855  0.6402
 3402SOL    HW121668   3.598   2.489   5.947 -1.4122 -0.6369 -0.0148
 3402SOL    HW221669   3.510   2.505   6.064 -0.6049  0.4356 -0.5642
 3403SOL     OW21670   0.220   0.060  16.010  0.0083 -0.4138  0.0510
 3403SOL    HW121671   0.295   0.072  16.067 -0.5599  1.5648  0.3666
 3403SOL    HW221672   0.254   4.714  15.950 -0.0447 -1.6926  1.4216
 3404SOL     OW21673   2.815   0.067   4.749  0.6775  0.1182 -0.9789
 3404SOL    HW121674   2.853   0.130   4.811  0.2591 -1.1018  0.5173
 3404SOL    HW221675   2.779   0.127   4.683 -0.4635  1.2356  0.6751
 3405SOL     OW21676   0.062   2.091   4.980  0.1150  0.3457  0.1611
 3405SOL    HW121677   0.105   2.141   4.910 -1.9555  1.2909 -0.4485
 3405SOL    HW221678   0.041   2.156   5.047  1.0841  1.0119 -0.1706
 3406SOL     OW21679   1.443   0.899   5.746  0.0814  0.0495  0.6342
 3406SOL    HW121680   1.531   0.863   5.758 -1.0577 -2.3672  1.7399
 3406SOL    HW221681   1.450   0.978   5.799  2.4283  0.7263 -0.6936
 3407SOL     OW21682   2.325   2.299   1.859 -0.2622 -0.6421  0.1142
 3407SOL    HW121683   2.305   2.283   1.767 -1.4708 -0.7564  0.3875
 3407SOL    HW221684   2.267   2.244   1.912 -2.1918  2.3029  1.0772
 3408SOL     OW21685   0.508   2.317   2.257  0.4444  0.0883 -0.0844
 3408SOL    HW121686   0.556   2.240   2.227  0.2235  0.5233 -1.5226
 3408SOL    HW221687   0.553   2.340   2.338  0.0077 -0.5852  0.3532
 3409SOL     OW21688   0.120   2.782   1.334  0.4501 -0.3068  0.3623
 3409SOL    HW121689   0.042   2.790   1.389  1.3112  3.4909  1.0227
 3409SOL    HW221690   0.153   2.872   1.333 -2.1598  0.6865  3.0027
 3410SOL     OW21691   2.012   2.193   4.158 -0.1402  0.3550 -0.0630
 3410SOL    HW121692   1.928   2.160   4.190 -1.1983  0.9964 -2.1268
 3410SOL    HW221693   2.008   2.184   4.062  0.0954 -1.0030  0.0608
 3411SOL     OW21694   3.990   4.624   6.313  0.4893 -0.7479  0.0647
 3411SOL    HW121695   4.084   4.621   6.334  0.5379 -0.5908 -0.1286
 3411SOL    HW221696   3.984   4.714   6.281 -0.6900 -0.4407  1.1493
 3412SOL     OW21697   1.514   0.040   8.814  0.0448 -0.0795 -0.1080
 3412SOL    HW121698   1.440   0.094   8.841  0.2294  0.7761 -1.2721
 3412SOL    HW221699   1.518   0.061   8.720  1.1599 -0.3442 -0.1158
 3413SOL     OW21700   3.148   3.713  10.942  0.2393 -0.0868  0.0926
 3413SOL    HW121701   3.237   3.725  10.910  1.0659 -1.6846  1.8089
 3413SOL    HW221702   3.130   3.620  10.935  0.9954 -0.2210 -0.1170
 3414SOL     OW21703   2.600   2.673  10.230  0.0102  0.5642 -0.2534
 3414SOL    HW121704   2.614   2.740  10.298  3.8958 -0.8186  0.3157
 3414SOL    HW221705   2.508   2.693  10.214 -0.4068  0.2052  1.6594
 3415SOL     OW21706   4.690   1.345   7.473 -0.2939 -0.0706  0.3904
 3415SOL    HW121707   4.646   1.323   7.556  0.4836  0.1485  0.8601
 3415SOL    HW221708   0.061   1.362   7.495 -0.9682  2.7756  0.9175
 3416SOL     OW21709   4.272   4.090   2.595  0.1954  0.1327  0.3456
 3416SOL    HW121710   4.279   4.080   2.690 -0.2104 -0.5952  0.2976
 3416SOL    HW221711   4.189   4.134   2.579 -0.4277 -0.2801  2.4102
 3417SOL     OW21712   2.643   0.568   8.333  0.1454  0.2580  0.2774
 3417SOL    HW121713   2.592   0.487   8.337 -0.0407  0.3046 -1.1529
 3417SOL    HW221714   2.673   0.560   8.243  1.7681  1.2361  0.7309
 3418SOL     OW21715   2.339   1.540   3.013 -0.3208 -0.1180 -0.3921
 3418SOL    HW121716   2.401   1.565   2.944 -0.8682  2.0784 -0.1023
 3418SOL    HW221717   2.276   1.494   2.957  0.1156 -0.0297 -0.9511
 3419SOL     OW21718   3.046   2.308   6.653  0.2253  0.0969 -0.0037
 3419SOL    HW121719   3.138   2.334   6.646  0.1517  0.2608 -0.3362
 3419SOL    HW221720   3.008   2.394   6.665  0.7216  0.4172 -0.7124
 3420SOL     OW21721   3.549   0.874   4.128 -0.6505 -0.1915  0.1340
 3420SOL    HW121722   3.545   0.858   4.222  1.2123 -0.3869  0.1876
 3420SOL    HW221723   3.514   0.963   4.122  0.5428  0.1765 -1.4353
 3421SOL     OW21724   2.636   4.687  13.022 -0.0247  0.2593 -0.4200
 3421SOL    HW121725   2.654   4.596  13.043 -0.3615  0.7486  2.0622
 3421SOL    HW221726   2.727   4.711  13.003 -0.6372  2.2064 -0.8960
 3422SOL     OW21727   2.056   4.120   4.967  0.7225 -0.5676 -0.4976
 3422SOL    HW121728   2.104   4.128   4.884  1.8482  0.3446  0.2418
 3422SOL    HW221729   2.009   4.037   4.965  0.5517 -0.5135  1.6804
 3423SOL     OW21730   2.511   1.686   1.884 -0.0468 -0.1113  0.4076
 3423SOL    HW121731   2.552   1.751   1.941 -2.8310  0.9469  1.2076
 3423SOL    HW221732   2.582   1.679   1.820 -0.7961 -0.2672 -0.3987
 3424SOL     OW21733   1.327   2.869  16.223 -0.4025 -0.0813  0.0190
 3424SOL    HW121734   1.380   2.944  16.197  0.6198 -1.4191 -1.7960
 3424SOL    HW221735   1.309   2.838  16.134  1.8093 -0.9221 -0.1568
 3425SOL     OW21736   0.277   2.597  16.297  0.8434 -0.2798 -0.1655
 3425SOL    HW121737   0.270   2.644  16.380 -1.4939 -0.2263 -0.3807
 3425SOL    HW221738   0.192   2.558  16.277  1.3268 -0.6925 -1.3853
 3426SOL     OW21739   0.542   4.669   3.715  0.9443  0.0742  0.5354
 3426SOL    HW121740   0.496   0.024   3.679  1.3513 -0.1865 -0.5342
 3426SOL    HW221741   0.488   4.654   3.792  0.6339  1.7374  0.6225
 3427SOL     OW21742   0.837   4.719   6.437 -0.2401  0.4512 -0.1827
 3427SOL    HW121743   0.775   0.069   6.456 -1.6942 -1.4777  2.2776
 3427SOL    HW221744   0.776   4.655   6.399 -0.9916  0.2286  1.3857
 3428SOL     OW21745   2.790   0.968   1.341  0.1075 -0.3372 -0.3147
 3428SOL    HW121746   2.800   1.014   1.258  0.7679 -2.4528 -1.3843
 3428SOL    HW221747   2.746   1.032   1.398  1.2062 -0.3250  0.5301
 3429SOL     OW21748   3.214   2.457   8.779 -0.5829  0.9434  0.3023
 3429SOL    HW121749   3.129   2.461   8.734  0.6819 -0.7833 -2.2236
 3429SOL    HW221750   3.222   2.363   8.794  0.6513  0.8613 -0.9452
 3430SOL     OW21751   0.975   4.426   6.242  0.2277  0.0774  0.0243
 3430SOL    HW121752   0.917   4.445   6.168  1.7924  0.8953 -0.9924
 3430SOL    HW221753   0.921   4.355   6.276 -1.3428  0.8360 -0.8609
 3431SOL     OW21754   1.889   1.831   7.555  0.0466  0.2205  0.1811
 3431SOL    HW121755   1.922   1.900   7.497 -0.0664  0.5001  0.4501
 3431SOL    HW221756   1.793   1.831   7.546  0.1695 -1.1837 -1.1552
 3432SOL     OW21757   0.202   3.377   2.243  0.1105 -0.1834 -0.2739
 3432SOL    HW121758   0.214   3.429   2.164  0.4736  0.8631  0.4806
 3432SOL    HW221759   0.292   3.371   2.275 -0.5346 -3.8718  0.9189
 3433SOL     OW21760   4.202   0.838   6.651 -0.1025  0.1721  0.1997
 3433SOL    HW121761   4.193   0.792   6.735 -1.8076  0.7690  0.3427
 3433SOL    HW221762   4.292   0.863   6.671  0.3202 -1.9003  0.8780
 3434SOL     OW21763   1.293   1.122  14.679  0.2033 -0.0487 -0.2746
 3434SOL    HW121764   1.339   1.047  14.640 -0.8146  1.1924 -3.8955
 3434SOL    HW221765   1.343   1.139  14.758 -1.6093  0.6707  0.7215
 3435SOL     OW21766   0.752   3.541   7.868  0.5382 -0.1232 -0.0307
 3435SOL    HW121767   0.666   3.534   7.828 -0.5513 -0.0911  2.3161
 3435SOL    HW221768   0.727   3.588   7.948 -1.1930 -1.9732  0.5113
 3436SOL     OW21769   2.111   4.436   5.272  0.7550  0.4296 -0.1906
 3436SOL    HW121770   2.145   4.443   5.183  1.5593 -1.7330 -0.0562
 3436SOL    HW221771   2.167   4.496   5.321  1.7622 -1.5809  1.0710
 3437SOL     OW21772   3.205   4.039   6.831  0.2700 -0.5632  0.4058
 3437SOL    HW121773   3.162   4.054   6.916  0.1403  0.0753  0.2285
 3437SOL    HW221774   3.138   3.981   6.796  0.6046 -0.0101 -1.1341
 3438SOL     OW21775   3.816   3.227  10.745 -0.4626 -0.0450  0.3644
 3438SOL    HW121776   3.773   3.309  10.768  1.1318  0.8492  0.1741
 3438SOL    HW221777   3.904   3.254  10.716 -0.5664 -0.1561 -0.0563
 3439SOL     OW21778   1.825   4.282   4.964  0.3162  0.3280 -0.6928
 3439SOL    HW121779   1.866   4.360   5.001 -0.8036 -0.0934  1.4053
 3439SOL    HW221780   1.897   4.219   4.958  0.5137  0.7222 -2.6959
 3440SOL     OW21781   3.067   1.503   8.365 -0.4672 -0.7325  1.1319
 3440SOL    HW121782   2.981   1.467   8.386 -0.9528  0.3202  0.9686
 3440SOL    HW221783   3.047   1.592   8.336  0.8652 -0.7205  0.1885
 3441SOL     OW21784   3.631   3.758  10.553  0.6578  0.1342 -0.2618
 3441SOL    HW121785   3.646   3.741  10.460  2.4785  0.8571 -0.1020
 3441SOL    HW221786   3.701   3.823  10.561  0.4016  0.2743  0.8797
 3442SOL     OW21787   4.488   3.684   8.239  0.1758 -0.2773 -0.0078
 3442SOL    HW121788   4.520   3.665   8.151  0.4541 -2.0036  0.4809
 3442SOL    HW221789   4.567   3.714   8.283  0.7684  0.8289 -1.8044
 3443SOL     OW21790   3.731   3.355   2.421 -0.1288  0.8452  0.2801
 3443SOL    HW121791   3.734   3.259   2.424  0.9370  0.8474 -0.5917
 3443SOL    HW221792   3.664   3.363   2.353  0.5708 -2.2122 -0.7776
 3444SOL     OW21793   3.180   3.424  11.395 -0.2417 -0.4042  0.1218
 3444SOL    HW121794   3.098   3.379  11.377 -0.8742  0.8272 -0.0742
 3444SOL    HW221795   3.198   3.465  11.310 -0.1921 -0.3734  0.1470
 3445SOL     OW21796   1.778   4.502   6.139 -0.5662 -0.0254 -0.2326
 3445SOL    HW121797   1.751   4.459   6.057  1.0308  0.6046 -1.0805
 3445SOL    HW221798   1.857   4.450   6.154 -0.3748  0.1494 -0.6168
 3446SOL     OW21799   2.501   0.676  10.724 -0.2655  0.1583  0.5560
 3446SOL    HW121800   2.446   0.747  10.756  0.2634  0.4088  0.9211
 3446SOL    HW221801   2.491   0.685  10.630  1.6612 -1.3721  0.1964
 3447SOL     OW21802   0.551   2.664   6.836  0.3739  0.4055  0.4832
 3447SOL    HW121803   0.559   2.731   6.768  1.6990  0.8728  1.1046
 3447SOL    HW221804   0.548   2.589   6.776  0.4893  0.6667  0.1447
 3448SOL     OW21805   4.072   1.734   3.891  0.2256 -0.3818  0.1887
 3448SOL    HW121806   4.019   1.806   3.924 -0.3869 -1.9167  2.5434
 3448SOL    HW221807   4.108   1.766   3.808 -1.8792  2.5309  0.3999
 3449SOL     OW21808   0.308   1.372   8.524  0.4365  0.0330  0.7398
 3449SOL    HW121809   0.264   1.380   8.609 -1.4491 -1.5664 -0.0923
 3449SOL    HW221810   0.250   1.404   8.455  0.3134 -1.5041  0.1426
 3450SOL     OW21811   2.491   0.256  16.043 -0.0113 -0.2677 -0.8191
 3450SOL    HW121812   2.428   0.190  16.012  0.7522 -2.5957  2.4994
 3450SOL    HW221813   2.531   0.281  15.960  1.3688 -0.3830 -0.1783
 3451SOL     OW21814   2.891   3.308   7.226 -0.3667 -0.6061 -0.1764
 3451SOL    HW121815   2.889   3.264   7.311  1.0664  0.0846  0.2095
 3451SOL    HW221816   2.892   3.397   7.260 -0.4317 -0.3914 -0.7373
 3452SOL     OW21817   0.487   0.741   4.808 -0.7876  0.0885 -0.0575
 3452SOL    HW121818   0.582   0.735   4.820 -0.5525  0.4026 -1.6695
 3452SOL    HW221819   0.474   0.833   4.784 -1.7944 -0.0605 -0.0786
 3453SOL     OW21820   3.781   2.802  14.733 -0.7552  0.1821 -0.3130
 3453SOL    HW121821   3.730   2.731  14.694 -0.0775  0.2220 -1.2686
 3453SOL    HW221822   3.718   2.863  14.769  0.4670  0.3476  1.5243
 3454SOL     OW21823   3.732   2.057   8.336 -0.0028  0.1069  0.6164
 3454SOL    HW121824   3.734   2.115   8.412 -1.4482  0.6722  0.2172
 3454SOL    HW221825   3.783   2.106   8.271  0.1712 -1.1374 -0.1934
 3455SOL     OW21826   4.529   0.159   2.430 -0.3370 -0.6336 -0.1041
 3455SOL    HW121827   4.512   0.180   2.338  0.4871  0.6150  0.0294
 3455SOL    HW221828   4.613   0.201   2.445 -0.7688 -0.3447  1.5353
 3456SOL     OW21829   1.949   3.616  16.224  0.0577 -0.1574  0.2424
 3456SOL    HW121830   1.881   3.553  16.250 -0.3435  0.0215 -0.3948
 3456SOL    HW221831   2.031   3.567  16.224  0.3199  0.3282 -2.5792
 3457SOL     OW21832   3.677   3.929   2.261  0.2049 -0.1391 -0.1753
 3457SOL    HW121833   3.702   3.915   2.353  1.5241  3.7752  0.0465
 3457SOL    HW221834   3.629   4.011   2.273 -0.6961 -0.4749 -1.5117
 3458SOL     OW21835   2.535   2.531   1.068 -0.8946  0.3993 -0.4267
 3458SOL    HW121836   2.492   2.616   1.060 -0.1589  0.8760  0.7982
 3458SOL    HW221837   2.579   2.544   1.152  0.2658 -1.3817 -0.7579
 3459SOL     OW21838   2.792   1.180   5.771  0.2848  0.5556 -0.0969
 3459SOL    HW121839   2.736   1.200   5.847  1.1677 -2.2817  1.3061
 3459SOL    HW221840   2.784   1.263   5.725 -1.4929  0.3030 -0.2518
 3460SOL     OW21841   2.641   3.417   0.306  0.3335  0.5990 -0.1588
 3460SOL    HW121842   2.572   3.462   0.355  1.1654  0.0176  1.5255
 3460SOL    HW221843   2.683   3.367   0.376  1.8724 -1.4130 -2.5316
 3461SOL     OW21844   2.663   1.255   0.396  0.4665  0.2111 -0.1814
 3461SOL    HW121845   2.583   1.304   0.377  1.1189  0.8245 -1.4225
 3461SOL    HW221846   2.642   1.174   0.349 -1.2037  0.3939  0.2547
 3462SOL     OW21847   4.448   3.809   0.837  0.6331 -0.0136 -0.0766
 3462SOL    HW121848   4.391   3.882   0.815 -1.8785 -1.3822  1.9680
 3462SOL    HW221849   4.437   3.750   0.762  1.7978 -1.5632  0.9667
 3463SOL     OW21850   3.180   1.989   7.089 -0.5085 -0.1765  0.2545
 3463SOL    HW121851   3.165   2.063   7.031  0.4103 -1.3311 -1.4484
 3463SOL    HW221852   3.181   1.906   7.041  0.4509 -0.1218  0.1740
 3464SOL     OW21853   2.260   1.634  15.917  0.1002  0.2552 -0.4757
 3464SOL    HW121854   2.327   1.703  15.920  1.3211 -1.1057  3.0122
 3464SOL    HW221855   2.182   1.671  15.874 -0.0864 -1.7867 -1.8758
 3465SOL     OW21856   2.499   4.034   7.601 -0.0925 -0.2798 -0.1184
 3465SOL    HW121857   2.511   4.064   7.511 -2.3763  0.8440 -0.0482
 3465SOL    HW221858   2.519   3.940   7.599 -1.9158 -0.6899  0.9064
 3466SOL     OW21859   1.566   4.555  15.153  0.0610  0.5000  0.2471
 3466SOL    HW121860   1.489   4.539  15.208  0.4541 -1.3701  0.2510
 3466SOL    HW221861   1.545   4.493  15.083 -0.5796  1.5411 -0.4972
 3467SOL     OW21862   1.382   1.639  12.768  0.2060 -0.2614 -0.2308
 3467SOL    HW121863   1.430   1.719  12.749 -1.9245  0.6357 -1.8569
 3467SOL    HW221864   1.453   1.576  12.766 -0.2398 -0.7759  0.1563
 3468SOL     OW21865   1.566   1.738  16.390  0.3534 -0.2741 -0.1488
 3468SOL    HW121866   1.642   1.790  16.364  1.2008 -1.2393  0.4145
 3468SOL    HW221867   1.508   1.811  16.408  0.2746 -0.7306  1.4410
 3469SOL     OW21868   2.990   3.049  13.059  0.3922 -0.4188  0.3687
 3469SOL    HW121869   2.919   2.987  13.072 -0.6844  0.6427 -0.4257
 3469SOL    HW221870   2.972   3.105  13.135  1.0061 -1.2079  1.0880
 3470SOL     OW21871   1.223   1.942  13.353 -0.1890  0.0242  0.2297
 3470SOL    HW121872   1.303   1.995  13.360 -0.9034  0.8330  2.1214
 3470SOL    HW221873   1.252   1.867  13.300 -0.2203  1.1544 -1.3940
 3471SOL     OW21874   4.355   2.208   3.741  0.6262 -0.0202 -0.3279
 3471SOL    HW121875   4.393   2.133   3.787  1.6839  1.3545  1.0402
 3471SOL    HW221876   4.434   2.219   3.688  1.0178  1.0703  0.4832
 3472SOL     OW21877   2.030   1.942  17.311  0.5544 -0.2011 -0.1207
 3472SOL    HW121878   1.953   1.953  17.257 -0.5579  0.8389  1.6723
 3472SOL    HW221879   2.070   1.856  17.300 -1.1196 -0.9671 -0.1118
 3473SOL     OW21880   0.348   2.712  10.521  0.0495 -0.0064 -0.5649
 3473SOL    HW121881   0.376   2.739  10.434  0.4132 -0.5127 -0.6051
 3473SOL    HW221882   0.290   2.785  10.541  0.8635  0.5399 -0.2296
 3474SOL     OW21883   4.349   3.249   8.998  0.3010  0.5360 -0.2319
 3474SOL    HW121884   4.257   3.226   8.992  0.2793  0.4854  0.3051
 3474SOL    HW221885   4.355   3.344   9.014 -2.1059  0.8525 -1.2145
 3475SOL     OW21886   3.959   0.801   5.244  0.3594  0.0749 -0.4190
 3475SOL    HW121887   4.034   0.846   5.206  0.3451  0.2668 -0.2209
 3475SOL    HW221888   4.006   0.734   5.294  0.4963 -0.0352 -0.6966
 3476SOL     OW21889   3.218   2.462   6.921 -0.1216  0.3800  0.2016
 3476SOL    HW121890   3.287   2.526   6.940 -1.4543  2.3117 -1.4954
 3476SOL    HW221891   3.235   2.451   6.827  0.6151 -1.0626  0.5034
 3477SOL     OW21892   0.880   3.064   0.407  0.0960  0.7479  0.1608
 3477SOL    HW121893   0.849   3.147   0.443  0.8382  1.8624 -1.7726
 3477SOL    HW221894   0.868   3.005   0.481 -0.2818 -0.2347 -0.6737
 3478SOL     OW21895   0.347   2.479   3.830  0.0106 -0.4331 -0.1605
 3478SOL    HW121896   0.373   2.525   3.750 -0.9779 -0.3976 -0.4511
 3478SOL    HW221897   0.406   2.404   3.829 -0.1552 -0.5673  0.1426
 3479SOL     OW21898   4.076   1.283  12.548 -0.0651  1.0271  0.1042
 3479SOL    HW121899   4.059   1.230  12.471 -0.0917  1.4851 -0.2012
 3479SOL    HW221900   4.107   1.364  12.509 -1.7015  1.7152  0.2633
 3480SOL     OW21901   1.956   0.961   7.175 -0.3671 -0.0760  0.1176
 3480SOL    HW121902   2.015   0.923   7.239  3.0641  2.8395 -1.3393
 3480SOL    HW221903   2.000   0.934   7.094  0.2084  2.8974 -0.5569
 3481SOL     OW21904   4.328   0.320   4.278  0.4108  0.2344  0.7241
 3481SOL    HW121905   4.262   0.332   4.346 -1.2490 -0.2196 -0.8153
 3481SOL    HW221906   4.343   0.398   4.224 -0.6592  0.1999  0.3943
 3482SOL     OW21907   3.791   1.310  16.614  0.2436 -0.0773 -0.7298
 3482SOL    HW121908   3.798   1.384  16.554  0.2680 -0.4168 -1.1517
 3482SOL    HW221909   3.877   1.270  16.601  0.0425 -0.9803  0.8257
 3483SOL     OW21910   3.546   4.093   9.042 -0.3053 -0.2846  0.2942
 3483SOL    HW121911   3.625   4.053   9.078  1.0483  2.6514  0.6270
 3483SOL    HW221912   3.575   4.175   9.001  1.1742 -0.4237  1.0562
 3484SOL     OW21913   1.790   4.236  15.048 -0.0008  0.2209 -0.0324
 3484SOL    HW121914   1.718   4.268  15.102  0.7835  1.9796 -0.0153
 3484SOL    HW221915   1.861   4.283  15.093 -0.6492 -0.7586  1.9925
 3485SOL     OW21916   0.844   1.365   6.760 -0.2781  0.2796 -0.2901
 3485SOL    HW121917   0.915   1.417   6.721 -0.4530  0.9647  0.3052
 3485SOL    HW221918   0.883   1.279   6.774 -0.8457  0.0457 -0.1307
 3486SOL     OW21919   1.226   3.147   7.673  0.0711  0.0350  0.3445
 3486SOL    HW121920   1.242   3.097   7.593 -0.7722 -0.2673  0.3633
 3486SOL    HW221921   1.175   3.085   7.725  1.3236 -0.6329  0.7700
 3487SOL     OW21922   0.660   0.054   6.193  0.1049  0.6307  0.3100
 3487SOL    HW121923   0.575   0.094   6.172 -0.4063 -0.3310  0.5612
 3487SOL    HW221924   0.627   4.698   6.240 -0.6860  0.2292 -0.9005
 3488SOL     OW21925   3.969   0.373  12.061  0.2151  0.0361 -0.1856
 3488SOL    HW121926   3.938   0.350  12.148  0.3259  0.1220 -0.1247
 3488SOL    HW221927   3.972   0.467  12.081 -0.4073  0.2085 -0.8815
 3489SOL     OW21928   4.480   3.405   3.372 -0.0117  0.4653  0.1023
 3489SOL    HW121929   4.466   3.372   3.283 -1.0904  2.8967 -0.6179
 3489SOL    HW221930   4.420   3.480   3.371 -0.3408  0.1698 -2.5218
 3490SOL     OW21931   2.037   3.632   2.835  0.2279  0.3270  0.2331
 3490SOL    HW121932   2.087   3.575   2.894  0.5795  0.8746  0.4678
 3490SOL    HW221933   2.015   3.574   2.762  1.0335 -0.3363  0.5103
 3491SOL     OW21934   1.869   0.777   8.956 -0.4486  0.1811  0.2452
 3491SOL    HW121935   1.780   0.786   8.990 -0.0597  0.7175  1.1301
 3491SOL    HW221936   1.843   0.819   8.873  2.4335  1.6543  0.0969
 3492SOL     OW21937   3.554   2.882  10.255 -0.5202 -0.3633 -0.1226
 3492SOL    HW121938   3.472   2.874  10.207 -0.9009  0.4938  0.3882
 3492SOL    HW221939   3.543   2.964  10.303  3.0756 -0.5466  0.9833
 3493SOL     OW21940   3.931   4.493  11.123 -0.6349 -0.5043  0.6279
 3493SOL    HW121941   3.867   4.476  11.055 -0.5697 -1.6826  0.8591
 3493SOL    HW221942   4.010   4.453  11.088  1.0783  1.8736  1.7115
 3494SOL     OW21943   0.036   2.318   1.150  0.1505  0.2604 -0.3972
 3494SOL    HW121944   0.126   2.289   1.136 -0.3663 -1.3813 -0.3136
 3494SOL    HW221945   4.709   2.236   1.138 -0.6409  0.5958  0.4570
 3495SOL     OW21946   0.582   4.028   2.377 -0.4265 -0.1245 -0.0638
 3495SOL    HW121947   0.515   4.097   2.383  0.6312  0.8503  0.6328
 3495SOL    HW221948   0.645   4.049   2.446 -1.2811  0.4317  0.5424
 3496SOL     OW21949   1.446   0.393   1.737  0.5242  0.8549 -0.4258
 3496SOL    HW121950   1.487   0.453   1.674  0.3378 -0.0217 -1.3942
 3496SOL    HW221951   1.506   0.385   1.810 -1.9956 -0.2804  1.5246
 3497SOL     OW21952   0.291   4.617   5.211  0.3939  0.7022  0.0119
 3497SOL    HW121953   0.251   4.530   5.200 -0.0557  1.0172 -0.8352
 3497SOL    HW221954   0.310   4.642   5.120 -1.4989  0.7826 -0.3548
 3498SOL     OW21955   3.592   3.747  11.323  0.0842  0.4811 -0.6271
 3498SOL    HW121956   3.557   3.700  11.247  1.3371  0.3250 -1.1038
 3498SOL    HW221957   3.597   3.675  11.385  0.2263  0.7471 -0.3336
 3499SOL     OW21958   2.884   1.691  17.427 -0.5083 -1.1389  0.6445
 3499SOL    HW121959   2.880   1.705  17.521  1.9720 -0.6753  0.6701
 3499SOL    HW221960   2.818   1.754  17.397 -0.4820 -1.2003  0.4524
 3500SOL     OW21961   0.772   0.872   9.005 -0.5590  0.4878 -0.0511
 3500SOL    HW121962   0.789   0.955   8.961  1.2391  1.1564  1.8835
 3500SOL    HW221963   0.701   0.829   8.957 -0.7375 -1.7674  2.2503
 3501SOL     OW21964   3.941   3.762   3.722  0.1206  0.7659  0.1363
 3501SOL    HW121965   3.980   3.795   3.803 -0.5891  2.3408 -0.1580
 3501SOL    HW221966   3.852   3.748   3.754  0.4739 -1.5663  0.0939
 3502SOL     OW21967   0.603   0.618   1.211 -0.7303  0.5599 -0.0508
 3502SOL    HW121968   0.665   0.665   1.267  2.1337 -0.3506 -2.4788
 3502SOL    HW221969   0.606   0.529   1.246  2.8224  0.0774 -1.5139
 3503SOL     OW21970   1.801   2.491  12.693  0.3458 -1.1238 -0.0893
 3503SOL    HW121971   1.756   2.575  12.691  0.1384 -1.1692  2.9465
 3503SOL    HW221972   1.874   2.513  12.750  0.2732 -2.5218  0.5554
 3504SOL     OW21973   1.638   1.291   3.770  0.0778 -0.0920  0.1611
 3504SOL    HW121974   1.675   1.377   3.789  1.4664 -0.4510 -0.9136
 3504SOL    HW221975   1.567   1.286   3.833 -0.9326  2.6449 -0.7736
 3505SOL     OW21976   3.169   2.954   8.291  0.4247  0.3277 -0.3963
 3505SOL    HW121977   3.146   3.042   8.321 -0.6362 -0.3013  0.6356
 3505SOL    HW221978   3.127   2.948   8.206 -1.1718  0.4544  0.3859
 3506SOL     OW21979   3.015   0.987   7.366  0.5305 -0.5125  0.6948
 3506SOL    HW121980   2.969   0.990   7.450  0.8360  0.6642  0.8194
 3506SOL    HW221981   2.968   1.055   7.318  0.6323 -2.1089 -1.6191
 3507SOL     OW21982   2.616   0.872   8.720  0.5112  0.2447  0.5186
 3507SOL    HW121983   2.586   0.843   8.807 -0.7601 -1.2398 -0.4007
 3507SOL    HW221984   2.711   0.875   8.723  0.4771  1.4876  0.3397
 3508SOL     OW21985   0.489   0.362   4.361 -0.0275 -0.3534  0.2628
 3508SOL    HW121986   0.408   0.340   4.409 -2.2014 -0.2933 -3.3983
 3508SOL    HW221987   0.465   0.414   4.285 -0.8036  0.8912  1.3504
 3509SOL     OW21988   2.904   2.665   8.255 -0.0270 -0.1803  0.3106
 3509SOL    HW121989   2.851   2.594   8.292 -1.3534  1.1485  0.9266
 3509SOL    HW221990   2.951   2.624   8.182  2.0914 -0.0160  1.5837
 3510SOL     OW21991   0.008   1.978   5.916 -0.2479 -0.4910  0.0844
 3510SOL    HW121992   4.706   1.956   6.007 -0.9359 -1.3779 -0.2955
 3510SOL    HW221993   4.696   1.897   5.875 -1.1884  0.0374 -0.2140
 3511SOL     OW21994   1.190   0.835  15.148 -0.2173  0.7337  0.8216
 3511SOL    HW121995   1.250   0.789  15.090 -2.4614  0.3214 -1.1799
 3511SOL    HW221996   1.194   0.924  15.112 -1.8812  0.6306  0.3762
 3512SOL     OW21997   1.556   4.329  17.559 -0.2199  0.0882  0.4204
 3512SOL    HW121998   1.489   4.346  17.625 -0.1838  1.9001 -0.0213
 3512SOL    HW221999   1.604   4.256  17.599 -0.9643  0.6072  2.2443
 3513SOL     OW22000   3.905   3.076   7.971 -0.5147  0.0502 -0.5653
 3513SOL    HW122001   3.938   2.987   7.963  0.3383  0.1817  1.7725
 3513SOL    HW222002   3.919   3.095   8.063 -0.2006 -1.1175 -0.3817
 3514SOL     OW22003   3.809   2.554   5.337 -0.1510 -0.2559  0.6927
 3514SOL    HW122004   3.846   2.528   5.422  0.3555  0.1732  0.6037
 3514SOL    HW222005   3.878   2.608   5.299 -0.4896 -0.7585 -0.6224
 3515SOL     OW22006   2.483   1.476   3.491 -0.0400 -0.5145  0.1716
 3515SOL    HW122007   2.532   1.504   3.414 -1.2794 -1.1101 -0.8468
 3515SOL    HW222008   2.418   1.425   3.442  1.4430 -2.1761 -0.0497
 3516SOL     OW22009   3.003   2.026   7.843 -0.3181  0.0673  0.2211
 3516SOL    HW122010   2.942   2.070   7.902  1.5526  2.2295  0.5672
 3516SOL    HW222011   2.935   1.975   7.798 -2.1848  1.8100  1.0702
 3517SOL     OW22012   2.532   0.411   7.861 -0.1299 -0.4034 -0.5679
 3517SOL    HW122013   2.584   0.339   7.895 -0.0579 -0.4919 -0.8605
 3517SOL    HW222014   2.482   0.360   7.796 -0.1136  0.2899 -1.1235
 3518SOL     OW22015   0.553   4.327   7.688  0.1759 -0.8015  0.4973
 3518SOL    HW122016   0.548   4.242   7.645 -1.8685  0.5965 -2.0217
 3518SOL    HW222017   0.460   4.349   7.700 -0.1570 -0.4083 -2.7898
 3519SOL     OW22018   2.891   2.572   6.663 -0.1641  0.1530 -0.4828
 3519SOL    HW122019   2.896   2.666   6.682 -0.3371 -0.2028  1.3053
 3519SOL    HW222020   2.803   2.545   6.689  0.1346  0.2996  0.6878
 3520SOL     OW22021   3.926   1.694   4.183  0.1634 -0.4727 -0.3583
 3520SOL    HW122022   3.938   1.615   4.131 -1.9781 -1.6193  0.9138
 3520SOL    HW222023   3.926   1.770   4.125  2.2093  0.6364  1.0975
 3521SOL     OW22024   3.270   0.809   0.863 -0.1637  0.2842 -0.2023
 3521SOL    HW122025   3.338   0.808   0.796  0.5434 -0.7513  0.5211
 3521SOL    HW222026   3.292   0.876   0.927  0.9099  0.6875 -1.0039
 3522SOL     OW22027   4.400   4.454   6.285 -0.1972 -0.5048  0.2303
 3522SOL    HW122028   4.333   4.400   6.242 -0.0823 -0.2310 -0.2879
 3522SOL    HW222029   4.421   4.521   6.221 -0.4767  0.4997  1.1989
 3523SOL     OW22030   2.740   0.973   7.008  0.2678  0.0973 -0.1067
 3523SOL    HW122031   2.663   1.021   7.039  1.2892  1.0127  0.9850
 3523SOL    HW222032   2.727   0.964   6.913 -1.2699  0.2852  0.0841
 3524SOL     OW22033   0.477   1.467   3.440 -0.1998 -0.6365 -0.0387
 3524SOL    HW122034   0.505   1.558   3.450  1.3961 -1.4255  2.8516
 3524SOL    HW222035   0.469   1.456   3.345 -0.2334 -1.0695  0.0167
 3525SOL     OW22036   4.343   4.537  10.237  0.6420 -0.3028 -0.5780
 3525SOL    HW122037   4.404   4.505  10.303 -0.6133 -0.9796  0.2616
 3525SOL    HW222038   4.352   4.496  10.151 -0.2813  0.8144 -1.2045
 3526SOL     OW22039   0.853   2.078   2.409  0.1770 -0.0498 -0.3367
 3526SOL    HW122040   0.939   2.038   2.395  0.5334  0.8372 -0.6983
 3526SOL    HW222041   0.875   2.169   2.429 -0.6879 -0.1303  1.0055
 3527SOL     OW22042   0.667   1.587   2.460  0.4649 -0.4271  0.0051
 3527SOL    HW122043   0.690   1.501   2.494 -0.8716 -0.2698  1.3201
 3527SOL    HW222044   0.640   1.554   2.374 -0.2403  2.1956 -0.7764
 3528SOL     OW22045   4.519   0.270  16.337  0.6445  0.1515 -0.8084
 3528SOL    HW122046   4.466   0.348  16.353  0.9406  0.4078 -1.0826
 3528SOL    HW222047   4.509   0.261  16.242 -1.0680  1.4314 -0.7585
 3529SOL     OW22048   1.326   0.598  14.043  0.2336 -0.1243 -0.1213
 3529SOL    HW122049   1.350   0.610  14.135  0.6852 -2.7656  0.0920
 3529SOL    HW222050   1.330   0.504  14.029 -0.0927  0.0338 -1.2888
 3530SOL     OW22051   2.175   4.344   2.853 -0.0169  0.0769 -0.3830
 3530SOL    HW122052   2.117   4.338   2.929 -0.9309  2.3662 -0.8994
 3530SOL    HW222053   2.114   4.324   2.782  0.8656 -2.2218 -0.4878
 3531SOL     OW22054   0.220   0.695   4.783  0.7122  0.5396 -0.4168
 3531SOL    HW122055   0.314   0.691   4.799  0.6772 -0.4721 -0.4767
 3531SOL    HW222056   0.190   0.767   4.838 -1.5536 -0.2990 -0.5458
 3532SOL     OW22057   3.367   2.407  10.422  0.1824  0.0719  0.5081
 3532SOL    HW122058   3.456   2.428  10.449 -0.1180  4.6124 -1.9869
 3532SOL    HW222059   3.357   2.467  10.348  0.1415  0.2098  0.6264
 3533SOL     OW22060   2.981   0.407   5.798 -1.4014  0.1402 -0.1557
 3533SOL    HW122061   3.039   0.411   5.721 -0.4559 -2.2117  0.4241
 3533SOL    HW222062   2.970   0.500   5.815  0.7841  0.1591  1.0836
 3534SOL     OW22063   0.545   1.291   6.667 -0.2111 -0.0631 -0.2357
 3534SOL    HW122064   0.618   1.232   6.651 -0.2749 -0.6530  1.6323
 3534SOL    HW222065   0.595   1.372   6.680 -0.3402  0.2345 -1.5731
 3535SOL     OW22066   2.061   1.556   2.056 -0.3289  0.5868  0.3808
 3535SOL    HW122067   2.032   1.477   2.100 -0.7752  0.5114 -0.0409
 3535SOL    HW222068   2.102   1.517   1.979  3.6321 -0.7327  3.2063
 3536SOL     OW22069   0.864   0.152   5.179  0.5831  0.2803  0.1522
 3536SOL    HW122070   0.880   0.148   5.273  1.0541 -0.7971  0.0226
 3536SOL    HW222071   0.780   0.198   5.187 -0.5333 -1.3580 -2.0665
 3537SOL     OW22072   4.668   4.579   7.856 -0.0900 -0.4235  0.6760
 3537SOL    HW122073   4.715   4.604   7.777  0.4839 -1.6936  0.6107
 3537SOL    HW222074   0.003   4.517   7.903  0.4801 -1.0936 -0.8898
 3538SOL     OW22075   3.925   3.875   6.235  0.1178  0.1153 -0.4771
 3538SOL    HW122076   3.851   3.874   6.175  0.7081 -2.4652 -1.1381
 3538SOL    HW222077   3.881   3.895   6.318  0.3035  1.7136 -0.7564
 3539SOL     OW22078   2.364   1.951   8.439  0.3632  0.8126 -0.5566
 3539SOL    HW122079   2.301   2.023   8.438 -0.5037  0.0365 -1.2079
 3539SOL    HW222080   2.406   1.970   8.523 -0.3669 -0.3188  0.0472
 3540SOL     OW22081   2.638   2.450   6.657  0.2129  0.1801  0.0101
 3540SOL    HW122082   2.614   2.407   6.575 -0.5305 -0.5623  0.6169
 3540SOL    HW222083   2.651   2.379   6.719 -0.1082  0.5939  0.5611
 3541SOL     OW22084   1.032   0.381   9.372  0.6192 -0.6012 -0.2161
 3541SOL    HW122085   1.111   0.398   9.422 -0.3009  2.3540  0.2134
 3541SOL    HW222086   0.974   0.454   9.394  1.3350  0.5472 -2.0894
 3542SOL     OW22087   0.774   1.277   1.471 -0.0724  0.0542 -0.1292
 3542SOL    HW122088   0.861   1.242   1.451  1.3522  3.5618 -0.1497
 3542SOL    HW222089   0.803   1.354   1.521 -2.0275  2.8803 -3.3812
 3543SOL     OW22090   4.020   4.322   7.085 -0.1719  0.4356  0.4079
 3543SOL    HW122091   3.944   4.341   7.141  0.5913 -1.7089  2.1629
 3543SOL    HW222092   3.971   4.283   7.012 -0.9222 -0.5323  1.4203
 3544SOL     OW22093   0.042   1.476   5.742  0.4621 -0.3192  0.1200
 3544SOL    HW122094   0.080   1.480   5.830  1.7734  2.0641 -0.5591
 3544SOL    HW222095   0.000   1.562   5.736  2.8183  0.7334 -1.2043
 3545SOL     OW22096   2.179   0.896   7.392  0.2740  0.4821  0.1933
 3545SOL    HW122097   2.225   0.820   7.356  2.4910  1.7554  0.2767
 3545SOL    HW222098   2.153   0.871   7.481  1.0108  1.3316  0.6585
 3546SOL     OW22099   1.569   3.992   1.092  0.0735  0.0856 -0.2225
 3546SOL    HW122100   1.522   3.917   1.056  2.7412 -1.4797 -0.3799
 3546SOL    HW222101   1.509   3.992   1.167  1.3431  2.7138  0.8099
 3547SOL     OW22102   2.065   1.996   5.689  0.0399 -0.5349 -0.2647
 3547SOL    HW122103   2.116   1.921   5.659  0.3509 -0.5009  0.1695
 3547SOL    HW222104   2.029   1.972   5.774  1.0718  1.1868  0.6566
 3548SOL     OW22105   3.420   2.106   5.491  0.4322 -0.1332  0.2711
 3548SOL    HW122106   3.381   2.034   5.441 -1.1310  0.4224  0.6913
 3548SOL    HW222107   3.512   2.089   5.472  0.0486 -2.4231  0.3697
 3549SOL     OW22108   2.690   1.855  11.370 -0.1979 -0.4949  0.3693
 3549SOL    HW122109   2.697   1.839  11.276  1.5863  1.7446  0.1141
 3549SOL    HW222110   2.769   1.907  11.382  0.5305 -1.8187  1.3025
 3550SOL     OW22111   4.186   1.140  16.221  0.5823 -0.2936  0.4444
 3550SOL    HW122112   4.255   1.132  16.156 -0.7743 -0.5946 -0.9622
 3550SOL    HW222113   4.192   1.051  16.257 -1.2589 -0.0149  1.4650
 3551SOL     OW22114   2.283   4.093   7.168  0.2998 -0.0062  0.0339
 3551SOL    HW122115   2.253   4.094   7.259 -3.1054  2.9287 -1.1479
 3551SOL    HW222116   2.331   4.010   7.167 -0.0985 -0.2407  1.2299
 3552SOL     OW22117   2.719   3.717   6.307  0.4615 -0.5871  0.2417
 3552SOL    HW122118   2.644   3.750   6.258  1.3421 -1.4794 -1.6817
 3552SOL    HW222119   2.687   3.714   6.398  1.7811 -3.1886  0.6127
 3553SOL     OW22120   1.496   1.177   7.524 -0.2806 -0.5552 -0.8390
 3553SOL    HW122121   1.464   1.170   7.614  0.3890  3.7187 -0.2977
 3553SOL    HW222122   1.429   1.126   7.479 -1.5226  0.5268 -0.2082
 3554SOL     OW22123   0.693   0.970   9.248 -0.2372  0.4163 -0.4175
 3554SOL    HW122124   0.703   0.929   9.162  0.4862 -0.7987  0.2593
 3554SOL    HW222125   0.717   1.059   9.222 -0.6291  0.6397 -0.0137
 3555SOL     OW22126   4.336   4.574   4.155  0.7274  0.0247 -0.2751
 3555SOL    HW122127   4.422   4.557   4.194  0.2345 -2.3307 -0.2531
 3555SOL    HW222128   4.361   4.637   4.087  3.6004 -3.2271 -2.2325
 3556SOL     OW22129   0.064   0.774   7.468  0.5997 -0.4708 -0.0809
 3556SOL    HW122130   0.015   0.693   7.458  1.3389 -0.8865 -0.2867
 3556SOL    HW222131   0.021   0.819   7.541 -0.2166 -1.7924  0.2442
 3557SOL     OW22132   3.378   3.289  16.346 -0.0356  0.1736  0.0170
 3557SOL    HW122133   3.313   3.337  16.293 -0.9647 -1.1646 -0.0501
 3557SOL    HW222134   3.457   3.286  16.292  0.6323  1.5103  0.9071
 3558SOL     OW22135   4.290   0.097   2.534  0.2940  0.0798  0.5936
 3558SOL    HW122136   4.309   0.024   2.594 -0.7836 -0.6384  0.0576
 3558SOL    HW222137   4.373   0.119   2.492 -0.2552 -1.8083 -1.4791
 3559SOL     OW22138   4.561   0.312   1.841  0.3083 -0.1756  0.1761
 3559SOL    HW122139   4.637   0.257   1.859  1.4815  1.4354  0.0983
 3559SOL    HW222140   4.517   0.267   1.768  1.6071  1.2080 -1.4467
 3560SOL     OW22141   1.608   0.001   1.988  0.7968  0.3783 -0.0296
 3560SOL    HW122142   1.531   0.045   1.953  1.4609  1.8357  0.3203
 3560SOL    HW222143   1.638   4.665   1.916 -1.8123 -0.3377 -0.5249
 3561SOL     OW22144   1.685   1.463   5.022 -0.1148 -0.3691 -0.3473
 3561SOL    HW122145   1.743   1.388   5.035  1.3304  0.6040 -1.1804
 3561SOL    HW222146   1.621   1.422   4.963 -0.1223  1.4478 -1.6243
 3562SOL     OW22147   0.290   2.487  12.070 -0.1181  0.2333 -1.0514
 3562SOL    HW122148   0.325   2.527  12.149  0.0825  0.1704 -1.1085
 3562SOL    HW222149   0.200   2.462  12.091  0.2840 -1.5604 -1.4926
 3563SOL     OW22150   1.512   3.100   1.371  0.3750 -0.1189  0.1175
 3563SOL    HW122151   1.487   3.016   1.331 -1.6184  0.6526 -0.2806
 3563SOL    HW222152   1.591   3.077   1.419 -0.6143  0.3093  1.9453
 3564SOL     OW22153   1.404   2.619   5.605 -0.4765  0.0790 -0.2692
 3564SOL    HW122154   1.462   2.696   5.607  0.5960 -0.7835  1.8670
 3564SOL    HW222155   1.389   2.616   5.700 -1.3165  0.7769 -0.3857
 3565SOL     OW22156   2.979   4.438  14.196  0.3337 -0.5497  0.2642
 3565SOL    HW122157   2.954   4.432  14.288  1.6088  0.9809  0.7122
 3565SOL    HW222158   2.953   4.350  14.171  0.5697 -0.1369 -1.4201
 3566SOL     OW22159   2.423   2.786  16.287 -0.8435  0.0945  0.0910
 3566SOL    HW122160   2.503   2.738  16.265  0.8147  2.0343  1.9988
 3566SOL    HW222161   2.370   2.715  16.324  0.3131 -0.8008  0.0317
 3567SOL     OW22162   0.812   2.933   7.834  0.1623  0.0817  0.0601
 3567SOL    HW122163   0.758   2.856   7.817 -1.1303  0.5193  2.1485
 3567SOL    HW222164   0.756   2.966   7.904  0.9509  0.1758  0.6490
 3568SOL     OW22165   0.416   2.921  13.524 -0.1008  0.0482 -0.2120
 3568SOL    HW122166   0.365   2.862  13.579 -1.2933  0.8860 -0.4320
 3568SOL    HW222167   0.357   2.994  13.504  0.6781  0.9886  0.8746
 3569SOL     OW22168   2.708   1.519   8.666 -0.6421  0.6206  0.3013
 3569SOL    HW122169   2.685   1.611   8.651 -1.0531  0.6049  0.8261
 3569SOL    HW222170   2.632   1.507   8.724  0.4784 -1.1229  1.3705
 3570SOL     OW22171   1.853   3.806   5.913  0.2480  0.7422 -0.3450
 3570SOL    HW122172   1.789   3.735   5.908  0.7616  0.3214 -0.8831
 3570SOL    HW222173   1.862   3.830   5.821  0.1371  0.0520 -0.5382
 3571SOL     OW22174   1.926   3.052   5.729  0.4611 -0.4217 -0.0663
 3571SOL    HW122175   1.988   2.988   5.694 -1.3886 -2.5632  0.6028
 3571SOL    HW222176   1.950   3.040   5.821  1.8088 -0.8183 -0.4590
 3572SOL     OW22177   1.957   0.630   3.870  0.0295  0.3682 -0.7064
 3572SOL    HW122178   2.049   0.648   3.889  0.3470  1.4091 -3.3202
 3572SOL    HW222179   1.949   0.692   3.798 -1.8232  1.3882  0.3625
 3573SOL     OW22180   1.471   2.567   6.646  0.2084  0.3727  0.2441
 3573SOL    HW122181   1.472   2.496   6.582 -1.7428  1.3248 -0.8213
 3573SOL    HW222182   1.531   2.523   6.707  0.6760  0.4333 -0.1730
 3574SOL     OW22183   1.567   2.449  16.310  0.2494  0.1883 -0.1769
 3574SOL    HW122184   1.613   2.379  16.263 -1.6279 -0.0604 -1.6794
 3574SOL    HW222185   1.600   2.523  16.259 -0.1593  1.5952  1.5875
 3575SOL     OW22186   0.914   0.537   8.354 -0.3125 -0.2518  0.4066
 3575SOL    HW122187   0.840   0.509   8.409 -1.0365 -1.3654 -1.1499
 3575SOL    HW222188   0.989   0.519   8.410  0.4673 -0.5037 -0.7257
 3576SOL     OW22189   3.324   4.404   5.595  0.3104 -0.7703  0.5358
 3576SOL    HW122190   3.340   4.314   5.625  0.6756 -0.3239  1.6797
 3576SOL    HW222191   3.354   4.396   5.505  0.3573 -0.7760  0.5522
 3577SOL     OW22192   0.439   4.656   6.978 -0.0654 -0.1117 -0.1988
 3577SOL    HW122193   0.389   0.016   6.992 -1.1180 -0.6444 -0.9737
 3577SOL    HW222194   0.516   4.656   7.036 -0.6867  2.1941  0.5983
 3578SOL     OW22195   0.915   1.876   2.628 -0.1400  0.8706  0.0317
 3578SOL    HW122196   0.891   1.954   2.578  3.4478  0.9565 -1.6085
 3578SOL    HW222197   0.956   1.818   2.562 -1.6098 -2.7435  2.2743
 3579SOL     OW22198   0.023   1.229   3.144 -0.2899  0.0478  0.5658
 3579SOL    HW122199   4.664   1.176   3.154  1.3223 -2.6251 -0.8908
 3579SOL    HW222200   0.085   1.166   3.179 -1.1208  0.6812  3.1693
 3580SOL     OW22201   1.344   1.791  14.976 -0.7088 -0.5848 -0.7677
 3580SOL    HW122202   1.307   1.856  14.916 -0.7438  0.4334  0.3463
 3580SOL    HW222203   1.421   1.772  14.923 -1.2131 -0.7979 -1.4265
 3581SOL     OW22204   1.672   2.505  13.396 -0.7717 -0.0103 -0.0333
 3581SOL    HW122205   1.726   2.565  13.345  0.1147 -1.5684 -0.9623
 3581SOL    HW222206   1.664   2.565  13.470  3.6349 -1.0688  1.3844
 3582SOL     OW22207   3.823   0.919   7.081  0.1323 -0.4327 -0.3159
 3582SOL    HW122208   3.916   0.909   7.062  0.2583 -3.0881  1.6956
 3582SOL    HW222209   3.819   0.934   7.176  2.1658 -0.2705 -0.2567
 3583SOL     OW22210   1.131   4.003   4.824 -0.2497  0.5691  0.1819
 3583SOL    HW122211   1.132   3.908   4.837 -0.4800  0.4316 -0.8405
 3583SOL    HW222212   1.041   4.031   4.838 -0.4609 -0.6476  1.2430
 3584SOL     OW22213   2.907   2.545   5.377  0.7255  0.1073  0.3659
 3584SOL    HW122214   2.838   2.575   5.437 -1.3027  1.5133 -2.6886
 3584SOL    HW222215   2.983   2.602   5.384  0.3829  0.4761  1.2215
 3585SOL     OW22216   4.220   3.687   4.526  0.1105  0.0993 -0.3648
 3585SOL    HW122217   4.234   3.595   4.506  3.5976  0.5644 -0.0768
 3585SOL    HW222218   4.173   3.712   4.447  3.2087  1.9374 -1.6442
 3586SOL     OW22219   1.486   4.374   4.932 -0.2493  0.1603 -0.4901
 3586SOL    HW122220   1.543   4.428   4.988 -2.1565  1.6741 -0.0123
 3586SOL    HW222221   1.453   4.305   4.989  0.2752 -0.2962 -0.7470
 3587SOL     OW22222   0.304   2.965  16.538  0.8249 -0.1807  0.5896
 3587SOL    HW122223   0.231   3.020  16.510  1.7794  0.3095 -0.9702
 3587SOL    HW222224   0.350   2.945  16.456 -1.0752  2.0649 -1.0192
 3588SOL     OW22225   2.456   3.857   5.917 -0.3077 -0.0650 -0.5447
 3588SOL    HW122226   2.510   3.931   5.945 -1.4871 -0.3457  2.4962
 3588SOL    HW222227   2.368   3.883   5.890 -0.3212  1.0117  0.5122
 3589SOL     OW22228   4.394   3.745   2.936  0.1521 -0.5889  0.6640
 3589SOL    HW122229   4.486   3.719   2.942  0.6410  0.9888  0.0984
 3589SOL    HW222230   4.405   3.748   2.841 -1.7666  0.5839  0.4813
 3590SOL     OW22231   0.148   4.599   6.858  0.3304  0.8023 -0.6797
 3590SOL    HW122232   0.125   4.581   6.949 -3.0808 -1.0815 -1.9183
 3590SOL    HW222233   0.235   4.559   6.853  0.2167  0.5402 -0.5779
 3591SOL     OW22234   2.322   3.987   3.969 -0.6412 -0.0372 -0.3480
 3591SOL    HW122235   2.233   4.019   3.955 -0.0624  1.7054 -0.0543
 3591SOL    HW222236   2.348   4.069   4.010 -0.3182 -0.1305 -0.3640
 3592SOL     OW22237   0.415   3.409   3.709  0.4005  0.4722 -0.9496
 3592SOL    HW122238   0.376   3.433   3.793 -1.0068 -2.0565 -0.8891
 3592SOL    HW222239   0.337   3.392   3.656  0.3122 -0.7434 -0.4216
 3593SOL     OW22240   3.651   3.997  11.423 -0.5162  0.0801  0.0870
 3593SOL    HW122241   3.643   3.912  11.378 -1.4503 -1.6432  3.4927
 3593SOL    HW222242   3.741   3.992  11.456 -0.7492 -2.1850  0.4224
 3594SOL     OW22243   0.537   1.632  11.522 -0.4649 -0.0928  0.8075
 3594SOL    HW122244   0.581   1.672  11.447 -0.1437 -1.1650  0.4279
 3594SOL    HW222245   0.582   1.672  11.596 -0.8574 -1.0119  1.5380
 3595SOL     OW22246   1.462   3.885  12.113 -0.1571 -0.2049  0.2945
 3595SOL    HW122247   1.471   3.919  12.024  0.8187  2.3242  1.3706
 3595SOL    HW222248   1.532   3.935  12.156  0.2020 -0.4157 -0.0494
 3596SOL     OW22249   4.579   0.320   6.567  0.5993 -0.3280  0.3140
 3596SOL    HW122250   4.541   0.312   6.655  1.0841 -0.3848  0.5135
 3596SOL    HW222251   4.544   0.236   6.539 -0.9047 -0.0761  1.4299
 3597SOL     OW22252   0.993   0.313  11.426 -0.1167  0.1543 -0.2196
 3597SOL    HW122253   1.024   0.358  11.505  0.4579 -0.2594 -0.2049
 3597SOL    HW222254   0.954   0.234  11.463  2.4068 -1.0422 -0.1218
 3598SOL     OW22255   3.330   2.761   2.451 -0.1464 -0.3666 -0.6706
 3598SOL    HW122256   3.353   2.854   2.454 -0.1708 -0.3592 -0.7198
 3598SOL    HW222257   3.266   2.753   2.521 -0.4292  2.3965 -0.5938
 3599SOL     OW22258   3.952   4.475   9.583  0.1094 -0.1414  0.1458
 3599SOL    HW122259   3.922   4.512   9.665 -2.5346 -0.1218 -0.8357
 3599SOL    HW222260   4.033   4.525   9.573  0.4705 -0.7120  0.1913
 3600SOL     OW22261   0.199   1.403   7.698 -0.3476  0.3124  0.2116
 3600SOL    HW122262   0.241   1.431   7.779 -0.0052  1.6162 -0.4300
 3600SOL    HW222263   0.207   1.308   7.697  0.8980  0.4117  1.7998
 3601SOL     OW22264   3.194   3.297   6.882 -0.1984  0.1340 -0.1131
 3601SOL    HW122265   3.178   3.301   6.788  1.2412  3.4952 -0.2239
 3601SOL    HW222266   3.161   3.381   6.912 -0.5366 -0.9348  2.5300
 3602SOL     OW22267   1.933   1.401   3.232  0.3623 -0.0610  0.0792
 3602SOL    HW122268   1.933   1.307   3.215 -1.4497 -0.1051  0.3538
 3602SOL    HW222269   1.991   1.418   3.158 -0.0426  0.1755 -0.1805
 3603SOL     OW22270   2.970   0.201   7.827  0.6139 -0.4682  0.2592
 3603SOL    HW122271   3.023   0.215   7.905 -1.2241 -2.1148  1.7920
 3603SOL    HW222272   3.024   0.144   7.771 -1.1903 -2.7976  0.8804
 3604SOL     OW22273   3.964   1.162   5.023 -0.4518 -0.1733 -0.1758
 3604SOL    HW122274   4.045   1.113   5.011 -0.9879 -0.9234 -0.7403
 3604SOL    HW222275   3.904   1.089   5.037  1.0581 -1.4645 -0.4474
 3605SOL     OW22276   1.397   2.870  13.123  0.3924  0.3622 -0.0797
 3605SOL    HW122277   1.316   2.862  13.072  0.0197 -0.1169  0.5879
 3605SOL    HW222278   1.457   2.907  13.058  1.3265 -1.1407 -0.0763
 3606SOL     OW22279   2.138   4.254  12.784 -0.2053  0.6382 -0.2059
 3606SOL    HW122280   2.082   4.201  12.727  1.5800 -1.4790  0.0352
 3606SOL    HW222281   2.082   4.256  12.862  0.0163  0.1495 -0.0342
 3607SOL     OW22282   1.671   0.752   6.057  0.4498  0.1104 -0.5516
 3607SOL    HW122283   1.742   0.772   5.996  1.4942  0.8250  0.8905
 3607SOL    HW222284   1.701   0.663   6.076  0.7427  0.0507 -1.2868
 3608SOL     OW22285   0.546   4.583  11.603 -0.2590  0.1158 -0.0868
 3608SOL    HW122286   0.600   4.533  11.665 -0.1997 -0.0858 -0.2989
 3608SOL    HW222287   0.545   4.673  11.635  2.2539 -0.5702  1.9208
 3609SOL     OW22288   1.552   4.067   9.673 -0.0437 -0.4130 -0.3379
 3609SOL    HW122289   1.613   3.998   9.700  0.5782 -0.3174 -1.5321
 3609SOL    HW222290   1.513   4.035   9.592 -1.9681 -1.9579  1.1937
 3610SOL     OW22291   4.533   0.047   2.171  0.4419 -0.1714 -0.6037
 3610SOL    HW122292   4.535   0.023   2.079  0.2790  0.1730 -0.7006
 3610SOL    HW222293   4.497   4.686   2.206  0.4584  0.6049  1.2517
 3611SOL     OW22294   1.520   1.097   0.448  0.0116  0.2210  0.0702
 3611SOL    HW122295   1.471   1.064   0.523 -0.0703  0.0452 -0.0629
 3611SOL    HW222296   1.542   1.186   0.477 -0.3288  0.0322  0.8930
 3612SOL     OW22297   3.475   3.316   3.886 -0.5216 -0.1594  0.0888
 3612SOL    HW122298   3.384   3.296   3.909 -0.1779 -0.8581  0.8553
 3612SOL    HW222299   3.472   3.346   3.796  0.5044  0.4607  0.2727
 3613SOL     OW22300   2.594   4.233   0.382  0.4768 -0.3161  0.0735
 3613SOL    HW122301   2.624   4.294   0.315  2.2918 -0.1084  1.0541
 3613SOL    HW222302   2.679   4.213   0.423 -0.2247 -1.1083  1.1435
 3614SOL     OW22303   0.994   0.087  13.029 -0.0011 -0.0394 -0.0827
 3614SOL    HW122304   1.075   0.127  13.062  0.4272 -2.4184  1.7739
 3614SOL    HW222305   0.956   0.058  13.112  1.6056  0.4852  0.8532
 3615SOL     OW22306   4.659   2.210   5.516  0.1196 -0.3486 -0.3070
 3615SOL    HW122307   4.642   2.268   5.591 -0.5992 -1.3145  0.2729
 3615SOL    HW222308   0.033   2.220   5.508  0.2577 -1.2966  0.1471
 3616SOL     OW22309   4.104   0.209   7.620  0.1107  0.4418  0.3490
 3616SOL    HW122310   4.180   0.177   7.669  0.4150  0.6726  0.0273
 3616SOL    HW222311   4.039   0.214   7.690 -1.1942  2.3345 -1.0042
 3617SOL     OW22312   4.056   3.307  10.644  0.1437 -0.0523  0.7190
 3617SOL    HW122313   4.096   3.314  10.558 -0.4087 -1.6649  0.3232
 3617SOL    HW222314   4.025   3.397  10.642  0.7628  0.1796  1.6776
 3618SOL     OW22315   2.193   3.355  13.838  0.1658  0.1549 -0.2094
 3618SOL    HW122316   2.115   3.300  13.840  0.1571  0.2393  1.4555
 3618SOL    HW222317   2.144   3.435  13.860  1.2820  0.8128 -0.1358
 3619SOL     OW22318   4.172   0.805   8.278  0.3321  0.0132 -0.3000
 3619SOL    HW122319   4.262   0.837   8.278  0.4275 -0.2661  0.1562
 3619SOL    HW222320   4.123   0.887   8.264  0.2074  0.4425  2.6244
 3620SOL     OW22321   3.046   2.736   5.784  0.1115  0.5971  0.0436
 3620SOL    HW122322   3.078   2.663   5.732  0.5299  1.2925 -0.6651
 3620SOL    HW222323   3.104   2.725   5.859 -1.2503 -2.2475  0.6930
 3621SOL     OW22324   4.341   2.860   2.434 -0.3019 -0.1369  0.4158
 3621SOL    HW122325   4.263   2.843   2.486  0.6170 -1.6669  1.2771
 3621SOL    HW222326   4.410   2.869   2.500 -0.0692  4.6769 -0.5028
 3622SOL     OW22327   1.225   3.726   6.139  0.4626 -0.2942  0.5547
 3622SOL    HW122328   1.281   3.802   6.125  0.3200 -0.2230  0.3783
 3622SOL    HW222329   1.163   3.726   6.067 -0.0727 -1.3004  1.0151
 3623SOL     OW22330   2.102   2.738   0.364  0.3509  0.4766  0.4444
 3623SOL    HW122331   2.153   2.662   0.393 -0.4133 -1.0006 -2.0966
 3623SOL    HW222332   2.109   2.726   0.270 -0.8661 -0.9537  0.5291
 3624SOL     OW22333   3.592   1.858   9.243 -0.1185 -0.5052  0.2682
 3624SOL    HW122334   3.515   1.890   9.289  1.3453  0.1077  2.2766
 3624SOL    HW222335   3.636   1.936   9.208  0.4004 -0.5637  0.7880
 3625SOL     OW22336   2.932   0.044   8.188  0.3511 -0.0126 -0.2156
 3625SOL    HW122337   2.852   0.095   8.201  0.8281  0.6517  0.1343
 3625SOL    HW222338   2.911   4.677   8.220 -1.1130 -0.1302 -1.5150
 3626SOL     OW22339   1.462   4.252   9.840  0.2882  0.2571  0.1700
 3626SOL    HW122340   1.498   4.181   9.787  0.5814  1.2401 -0.9237
 3626SOL    HW222341   1.432   4.307   9.768  1.6785 -1.5016 -1.7475
 3627SOL     OW22342   1.047   4.105  14.884 -0.0275  0.1952 -0.0112
 3627SOL    HW122343   1.044   4.151  14.801  1.9580 -0.0091 -0.1996
 3627SOL    HW222344   0.973   4.044  14.877  0.4016 -0.3392  0.1411
 3628SOL     OW22345   1.452   3.691   9.520 -0.0564  0.3226 -0.4449
 3628SOL    HW122346   1.442   3.603   9.486 -0.0598  0.0197  0.3409
 3628SOL    HW222347   1.376   3.710   9.575  2.2643 -0.0787  2.9310
 3629SOL     OW22348   2.717   2.878   8.134  0.0154 -0.2774 -0.3324
 3629SOL    HW122349   2.749   2.950   8.080 -2.3548  1.3516  0.4351
 3629SOL    HW222350   2.793   2.828   8.166 -1.0153  0.3540  3.1185
 3630SOL     OW22351   1.416   2.114   8.001 -0.2773 -0.3224 -1.0513
 3630SOL    HW122352   1.369   2.031   7.992  0.2328 -0.6657 -0.5249
 3630SOL    HW222353   1.502   2.095   8.039  0.6261  4.1279 -0.8689
 3631SOL     OW22354   2.376   3.457   7.211 -0.1118 -0.4401 -0.0669
 3631SOL    HW122355   2.325   3.512   7.152  1.6573  1.5500  0.2431
 3631SOL    HW222356   2.397   3.518   7.282 -1.3051  0.5006 -0.5250
 3632SOL     OW22357   3.262   0.913   3.789 -0.3574 -0.1309  0.5029
 3632SOL    HW122358   3.306   0.832   3.763 -2.3274 -1.7660  2.2613
 3632SOL    HW222359   3.177   0.876   3.766 -0.4369 -0.5837  1.5426
 3633SOL     OW22360   2.888   0.468   3.778 -0.3387  0.4653 -0.0411
 3633SOL    HW122361   2.812   0.410   3.771  1.1632 -1.3797 -1.0480
 3633SOL    HW222362   2.943   0.445   3.703  0.8728  2.6718  0.1719
 3634SOL     OW22363   0.364   3.075   2.408  0.2524  0.1212 -0.4430
 3634SOL    HW122364   0.388   3.065   2.500 -0.2740 -1.6537 -0.4971
 3634SOL    HW222365   0.304   3.147   2.425  1.2567  0.8730 -0.0916
 3635SOL     OW22366   2.463   2.313  12.340 -0.0044 -0.5764  0.0024
 3635SOL    HW122367   2.552   2.349  12.331 -0.0415 -0.0533  1.8397
 3635SOL    HW222368   2.492   2.223  12.355  1.2248  0.2587  2.6284
 3636SOL     OW22369   1.079   0.803   8.541  0.0184 -0.5461  0.1649
 3636SOL    HW122370   1.051   0.718   8.576  2.2230 -1.0336  0.6945
 3636SOL    HW222371   1.064   0.863   8.614 -1.6883 -2.3548  1.3115
 3637SOL     OW22372   3.359   2.578   6.430  0.2425  0.0675  0.1389
 3637SOL    HW122373   3.408   2.540   6.357 -0.5738 -0.5510 -0.0953
 3637SOL    HW222374   3.392   2.667   6.443 -1.2300  0.7188 -0.5043
 3638SOL     OW22375   3.242   3.612   8.386  0.6229 -0.1313 -0.1607
 3638SOL    HW122376   3.261   3.519   8.401  2.1896  0.4576  1.5379
 3638SOL    HW222377   3.185   3.619   8.309  2.5886 -1.0076 -1.6851
 3639SOL     OW22378   3.023   1.563   1.271  0.1154  0.2606  0.1850
 3639SOL    HW122379   3.019   1.659   1.263 -1.2436  0.1154 -0.8764
 3639SOL    HW222380   3.118   1.550   1.274 -0.0331 -0.7697  0.2685
 3640SOL     OW22381   4.591   2.446  13.649  0.3437 -1.1178 -0.3561
 3640SOL    HW122382   4.578   2.409  13.562 -0.9758 -0.0488 -0.6332
 3640SOL    HW222383   4.670   2.498  13.634 -0.5533 -0.1754 -1.8172
 3641SOL     OW22384   1.694   3.778  11.842  0.3419  0.1857  0.1245
 3641SOL    HW122385   1.643   3.858  11.835 -1.6807 -1.2773 -1.9416
 3641SOL    HW222386   1.702   3.753  11.750 -1.6064  0.6798 -0.1714
 3642SOL     OW22387   0.569   1.675   2.107  0.4239  0.3747 -0.0616
 3642SOL    HW122388   0.557   1.674   2.012  0.1372 -2.2723 -0.0085
 3642SOL    HW222389   0.656   1.713   2.119  0.4892  0.0749  0.4176
 3643SOL     OW22390   0.108   3.525   6.372 -0.3063 -0.0419 -0.6233
 3643SOL    HW122391   0.112   3.447   6.428  0.4748 -0.8811 -1.8698
 3643SOL    HW222392   0.094   3.490   6.284 -0.4623  0.2664 -0.7231
 3644SOL     OW22393   0.843   0.132   8.491  0.3597  0.1111 -0.2257
 3644SOL    HW122394   0.804   0.149   8.576 -0.4544 -0.1280 -0.5507
 3644SOL    HW222395   0.827   0.212   8.441  0.3048 -0.2851 -0.8416
 3645SOL     OW22396   3.922   1.266  13.318 -0.5577  0.7618  0.0164
 3645SOL    HW122397   3.965   1.194  13.273  1.6699  1.8351  0.4471
 3645SOL    HW222398   3.832   1.244  13.293 -0.2903 -1.5601  1.0632
 3646SOL     OW22399   1.698   0.646   4.454 -0.5182  0.1240  0.3467
 3646SOL    HW122400   1.762   0.711   4.483  0.8640 -0.9586 -0.3141
 3646SOL    HW222401   1.739   0.564   4.481 -1.0991  0.6484  2.8999
 3647SOL     OW22402   2.931   3.238   9.005 -0.0554 -0.1544  0.3357
 3647SOL    HW122403   2.883   3.201   9.080  0.4245 -1.2672  0.0978
 3647SOL    HW222404   2.979   3.311   9.044 -1.9116  0.3465  1.6857
 3648SOL     OW22405   1.610   0.402  13.763 -0.0059 -0.1614 -0.3660
 3648SOL    HW122406   1.595   0.496  13.776 -2.9634 -0.9026  1.6127
 3648SOL    HW222407   1.565   0.362  13.838  0.7883 -1.0768 -0.3826
 3649SOL     OW22408   2.706   1.500  13.019 -0.2856  0.0897 -0.3281
 3649SOL    HW122409   2.680   1.432  12.957 -0.8215 -2.0494  2.2516
 3649SOL    HW222410   2.762   1.568  12.981 -1.6976  1.8713  0.7805
 3650SOL     OW22411   1.768   0.264   4.291 -0.5820 -0.3202 -0.4069
 3650SOL    HW122412   1.798   0.309   4.211  0.5535 -0.7421 -0.2291
 3650SOL    HW222413   1.679   0.298   4.298 -0.0556  1.2166 -0.9399
 3651SOL     OW22414   0.437   3.292  14.050 -0.2363  0.2565 -0.2608
 3651SOL    HW122415   0.384   3.371  14.066 -1.1948  0.0007 -2.1295
 3651SOL    HW222416   0.388   3.231  14.105  0.9756 -1.7212 -1.4187
 3652SOL     OW22417   0.848   1.150   5.734  0.2790  0.4208 -0.4169
 3652SOL    HW122418   0.787   1.121   5.666 -1.0072 -0.0256  0.9168
 3652SOL    HW222419   0.835   1.244   5.742  2.0604  0.5799  0.7026
 3653SOL     OW22420   0.606   4.574   8.515 -0.5078 -0.1497  0.0958
 3653SOL    HW122421   0.561   4.636   8.459  0.1513 -0.0106 -0.2855
 3653SOL    HW222422   0.695   4.590   8.484 -0.8034  0.7551 -0.2789
 3654SOL     OW22423   2.313   1.491   1.918  0.4152  0.6041 -0.2664
 3654SOL    HW122424   2.369   1.454   1.987  1.5558  1.0247 -0.9548
 3654SOL    HW222425   2.364   1.564   1.884  1.0977  1.4137  2.5159
 3655SOL     OW22426   1.606   3.044   8.968 -0.1312  0.2758 -0.2086
 3655SOL    HW122427   1.690   3.090   8.966  0.2631 -0.4898 -1.3248
 3655SOL    HW222428   1.574   3.077   9.051 -2.6188  0.8390 -1.3887
 3656SOL     OW22429   1.005   1.877   8.668  0.0520 -0.2648  0.3505
 3656SOL    HW122430   0.992   1.859   8.575 -0.8656 -1.0735  0.6467
 3656SOL    HW222431   1.087   1.828   8.666  0.0814 -0.2346  1.0397
 3657SOL     OW22432   0.274   2.079   7.590 -0.0706  0.4509 -0.2425
 3657SOL    HW122433   0.190   2.123   7.586  0.1494  0.8129 -0.7956
 3657SOL    HW222434   0.258   2.019   7.664 -0.4954  0.5675 -0.2427
 3658SOL     OW22435   4.357   3.610   6.591  0.1557  0.0318  0.4677
 3658SOL    HW122436   4.265   3.624   6.568  0.4916  2.4156  0.6666
 3658SOL    HW222437   4.368   3.654   6.674  0.1954  1.3761 -0.2522
 3659SOL     OW22438   0.926   4.710   0.541  0.4832  0.2553 -0.3509
 3659SOL    HW122439   0.855   0.046   0.509  1.3844 -0.0154 -2.8186
 3659SOL    HW222440   0.941   0.029   0.627 -0.9178  1.6942 -0.7560
 3660SOL     OW22441   4.118   2.331   6.740 -0.2288  0.1880  0.3060
 3660SOL    HW122442   4.148   2.413   6.700 -1.6761  1.6747  2.2583
 3660SOL    HW222443   4.041   2.362   6.788 -0.8790  0.9007 -1.1627
 3661SOL     OW22444   1.791   3.162   0.482 -0.4220 -0.1285 -0.3472
 3661SOL    HW122445   1.742   3.088   0.518 -1.3030  1.5559  1.9143
 3661SOL    HW222446   1.840   3.187   0.560 -0.4865 -5.7677  1.4617
 3662SOL     OW22447   2.087   1.603   6.429 -0.5667 -0.2611 -0.5861
 3662SOL    HW122448   2.171   1.643   6.452 -0.7031 -1.3468  1.9035
 3662SOL    HW222449   2.048   1.678   6.385 -0.5334 -1.4936 -2.7244
 3663SOL     OW22450   1.645   3.327  17.487 -0.2051  0.2063 -0.6629
 3663SOL    HW122451   1.583   3.319  17.559 -0.2859  0.5989 -0.6882
 3663SOL    HW222452   1.654   3.422  17.479 -1.2307  0.3629  0.0671
 3664SOL     OW22453   0.508   3.144   7.744  0.2034  0.0318 -0.0050
 3664SOL    HW122454   0.540   3.121   7.657  0.6350  3.3304 -0.6940
 3664SOL    HW222455   0.428   3.091   7.744  0.7628 -0.8209 -1.5542
 3665SOL     OW22456   1.148   2.863   0.359  0.8686  0.0142  0.1715
 3665SOL    HW122457   1.125   2.871   0.452 -0.8907 -0.4678 -0.2299
 3665SOL    HW222458   1.216   2.927   0.338  2.0659 -0.4607  2.5820
 3666SOL     OW22459   4.028   1.504   6.006  0.1353 -0.3236 -0.1812
 3666SOL    HW122460   4.077   1.579   5.973  2.1671 -1.9340 -0.8550
 3666SOL    HW222461   4.010   1.454   5.926  2.9486 -1.0947 -0.3356
 3667SOL     OW22462   0.238   2.256  13.860  0.4032 -0.0218  0.7947
 3667SOL    HW122463   0.281   2.283  13.941 -0.2166 -0.9393  1.4270
 3667SOL    HW222464   0.189   2.179  13.889  2.0886 -1.9748 -1.5243
 3668SOL     OW22465   3.068   1.564   4.310  0.2770 -0.1554 -1.1244
 3668SOL    HW122466   3.026   1.606   4.234 -0.1626  1.0966 -0.1805
 3668SOL    HW222467   3.087   1.479   4.269 -1.0032 -0.1249 -1.8049
 3669SOL     OW22468   1.565   3.851   7.951 -0.7502 -0.3101 -0.1078
 3669SOL    HW122469   1.495   3.893   7.999 -1.4823 -1.5397 -0.0980
 3669SOL    HW222470   1.604   3.801   8.023  2.4174  0.9897 -0.9036
 3670SOL     OW22471   3.169   0.585   4.801 -0.3458 -0.4644 -0.4988
 3670SOL    HW122472   3.216   0.549   4.876 -2.3471  1.8895  1.8806
 3670SOL    HW222473   3.086   0.546   4.831 -2.1662  1.2281 -3.4083
 3671SOL     OW22474   2.810   0.773   9.984 -0.4277 -0.5118  0.1145
 3671SOL    HW122475   2.885   0.736   9.936 -0.6129  1.0585 -1.3964
 3671SOL    HW222476   2.836   0.865   9.982 -3.9195  0.4299 -2.0225
 3672SOL     OW22477   2.600   3.306  10.132 -0.6173  0.4015  0.0143
 3672SOL    HW122478   2.653   3.383  10.112  1.3208 -0.3343  2.2765
 3672SOL    HW222479   2.546   3.336  10.205 -2.7634 -0.4845 -1.2199
 3673SOL     OW22480   3.067   4.685   1.874 -0.4562 -0.2936 -0.1610
 3673SOL    HW122481   3.062   4.615   1.809  1.2716  0.5516 -1.2080
 3673SOL    HW222482   3.074   4.636   1.956  1.7630 -0.0537 -0.1900
 3674SOL     OW22483   0.932   0.270   5.899  0.3437  0.0203 -0.2371
 3674SOL    HW122484   0.938   0.288   5.993  0.4176 -1.9605  0.1437
 3674SOL    HW222485   0.893   0.183   5.908 -0.3354  0.3308 -0.1520
 3675SOL     OW22486   1.261   1.118   9.308  0.1841 -0.6596  0.8147
 3675SOL    HW122487   1.206   1.161   9.374 -1.5234  1.4645 -1.9694
 3675SOL    HW222488   1.288   1.193   9.255 -1.5455 -1.2112 -0.8556
 3676SOL     OW22489   1.302   0.071   4.105 -0.0365  0.3172  0.4589
 3676SOL    HW122490   1.385   0.028   4.083 -0.1357  0.1591  0.4022
 3676SOL    HW222491   1.283   0.034   4.191  1.3735 -0.6399  0.3629
 3677SOL     OW22492   3.047   1.615   8.036 -0.0353  0.6445 -0.4411
 3677SOL    HW122493   2.960   1.641   8.007 -0.4991  0.1524  0.4958
 3677SOL    HW222494   3.045   1.655   8.123 -1.6780 -0.8279  0.1889
 3678SOL     OW22495   0.142   4.156  14.156  0.0200  0.3966  0.3690
 3678SOL    HW122496   0.061   4.131  14.201  1.0515 -2.9238  0.3933
 3678SOL    HW222497   0.203   4.174  14.227  0.9521  0.1358 -0.3613
 3679SOL     OW22498   4.516   0.704   4.782 -0.0315  0.2360  0.4905
 3679SOL    HW122499   4.510   0.648   4.859  0.8700  0.9492  1.0738
 3679SOL    HW222500   4.422   0.719   4.773  0.0014 -0.5467 -1.1701
 3680SOL     OW22501   4.460   3.669   9.512 -0.3060 -0.1457 -0.3531
 3680SOL    HW122502   4.417   3.696   9.593  1.0145  0.1415  0.2569
 3680SOL    HW222503   4.458   3.574   9.514  2.5400 -0.2257 -0.5281
 3681SOL     OW22504   3.412   4.526   4.266  0.4468  0.1701 -0.4729
 3681SOL    HW122505   3.490   4.581   4.257  1.0661 -0.4475  1.1302
 3681SOL    HW222506   3.398   4.534   4.361  0.0256 -0.0756 -0.5149
 3682SOL     OW22507   3.073   0.519   9.165  0.4226  0.1213  0.2061
 3682SOL    HW122508   3.057   0.596   9.220  1.3484 -1.6533  2.9225
 3682SOL    HW222509   2.988   0.477   9.162 -0.5101  1.9120  1.4949
 3683SOL     OW22510   2.294   0.726   4.616  0.5682  0.3594 -0.1549
 3683SOL    HW122511   2.296   0.769   4.701 -0.1509 -1.1479  0.6028
 3683SOL    HW222512   2.202   0.740   4.594  0.6009 -0.0413 -0.5579
 3684SOL     OW22513   3.937   4.014   4.703 -0.2256  0.2153  0.1531
 3684SOL    HW122514   3.927   3.947   4.771 -2.2298  1.1883  0.8124
 3684SOL    HW222515   4.031   4.002   4.685 -0.2854 -0.3163  0.1984
 3685SOL     OW22516   1.749   0.388   6.557 -0.1952  0.3443  0.3131
 3685SOL    HW122517   1.757   0.313   6.615 -2.8657  0.7773  1.2174
 3685SOL    HW222518   1.672   0.362   6.506 -0.8240 -1.0725  2.0078
 3686SOL     OW22519   2.046   1.114   6.474 -0.0158 -0.2293  0.2039
 3686SOL    HW122520   2.077   1.138   6.387 -2.0131  0.3361 -0.3526
 3686SOL    HW222521   1.953   1.095   6.461  0.4109 -0.7646 -2.1394
 3687SOL     OW22522   3.053   4.103   5.993 -0.3475  0.5410 -0.0234
 3687SOL    HW122523   3.059   4.180   5.938 -2.0997 -0.0368 -1.0288
 3687SOL    HW222524   3.072   4.026   5.939  1.5342 -0.1356  1.5922
 3688SOL     OW22525   3.781   2.404   8.284  0.4130 -0.4215 -0.3527
 3688SOL    HW122526   3.776   2.498   8.300  0.8037 -0.1183 -1.9890
 3688SOL    HW222527   3.691   2.372   8.288  0.8788 -1.8041 -0.8439
 3689SOL     OW22528   4.380   4.051   3.174 -0.3904  0.0103  0.1839
 3689SOL    HW122529   4.469   4.018   3.183  0.6698  2.5605 -0.7975
 3689SOL    HW222530   4.387   4.132   3.225 -0.1120 -0.6050  1.1147
 3690SOL     OW22531   0.677   3.098   3.012  0.0399  0.8568  0.0267
 3690SOL    HW122532   0.728   3.103   3.093 -0.1491  0.6462  0.1595
 3690SOL    HW222533   0.733   3.054   2.948 -0.3058  1.1181 -0.4527
 3691SOL     OW22534   2.015   2.001   8.801  0.3085  0.2119  0.5393
 3691SOL    HW122535   2.109   1.980   8.800  0.7934  2.4268 -1.1885
 3691SOL    HW222536   2.007   2.040   8.887  1.9417  2.4302 -0.3056
 3692SOL     OW22537   2.864   0.704   3.899  0.3596  0.5926  0.3705
 3692SOL    HW122538   2.939   0.754   3.867  2.7705 -1.9196  2.0997
 3692SOL    HW222539   2.873   0.620   3.854 -1.0581 -0.0816  1.3658
 3693SOL     OW22540   1.168   0.400   3.970  0.1783  0.6138  0.1497
 3693SOL    HW122541   1.121   0.483   3.964 -1.9087 -0.6757 -1.4802
 3693SOL    HW222542   1.240   0.426   4.028 -0.6336 -0.1945  1.5110
 3694SOL     OW22543   1.968   0.301   3.758  0.1908  0.2451  0.7084
 3694SOL    HW122544   2.024   0.333   3.688 -0.1978 -2.4099 -0.7907
 3694SOL    HW222545   1.880   0.284   3.723 -0.7203  2.0667  2.1107
 3695SOL     OW22546   3.982   2.599   4.098 -0.2066  0.5162 -0.6536
 3695SOL    HW122547   4.028   2.657   4.159 -2.3917  1.3334  0.2259
 3695SOL    HW222548   3.902   2.650   4.084  0.2664  1.5955  0.6187
 3696SOL     OW22549   2.586   3.044   8.330  0.1087  0.0299 -0.6957
 3696SOL    HW122550   2.670   3.048   8.375  0.5505 -1.9061 -1.3604
 3696SOL    HW222551   2.604   2.963   8.284 -0.1650 -1.3666  1.6455
 3697SOL     OW22552   0.830   4.497  16.331 -0.4287 -0.3042  0.0414
 3697SOL    HW122553   0.805   4.482  16.422 -1.7633 -0.6661 -0.3789
 3697SOL    HW222554   0.746   4.511  16.287  0.2900  1.1191 -0.8597
 3698SOL     OW22555   2.225   2.353   0.254 -0.0910 -0.1403  0.3636
 3698SOL    HW122556   2.289   2.418   0.282  0.2737  0.8442 -2.7079
 3698SOL    HW222557   2.236   2.355   0.159 -0.6649  0.3486  0.3106
 3699SOL     OW22558   0.940   4.334   9.038  0.4209  0.4592 -0.5434
 3699SOL    HW122559   0.995   4.412   9.041  0.1575  0.4709  3.1350
 3699SOL    HW222560   0.936   4.305   9.129  2.2194  0.4041 -0.4867
 3700SOL     OW22561   3.531   1.049   8.436  0.4680  0.2574 -0.1765
 3700SOL    HW122562   3.458   1.021   8.381  0.3229  3.0649 -1.3958
 3700SOL    HW222563   3.486   1.037   8.520 -0.7243  0.6175 -0.7650
 3701SOL     OW22564   2.452   1.221   4.635 -0.5952  0.4263  0.2022
 3701SOL    HW122565   2.451   1.126   4.643  3.2118  0.2465 -1.9438
 3701SOL    HW222566   2.517   1.250   4.699  1.0387 -2.5345 -0.1344
 3702SOL     OW22567   0.279   3.616   3.288  0.0600 -0.1655 -0.3212
 3702SOL    HW122568   0.296   3.682   3.355  0.4539 -1.2037  0.6048
 3702SOL    HW222569   0.207   3.570   3.331 -0.9667 -0.1168 -1.9762
 3703SOL     OW22570   1.502   0.932   5.025 -0.5964  0.3760 -0.3255
 3703SOL    HW122571   1.476   0.858   4.970  0.0734 -0.6968  0.7896
 3703SOL    HW222572   1.431   0.951   5.087 -0.4842 -0.7588  0.1702
 3704SOL     OW22573   1.653   2.084   2.584 -0.1902  0.1814 -0.5984
 3704SOL    HW122574   1.575   2.124   2.623 -0.0329 -0.0977  0.0053
 3704SOL    HW222575   1.604   2.027   2.526  2.1180 -1.8872 -0.5062
 3705SOL     OW22576   4.410   0.423   0.907  0.1618  0.1387 -0.3107
 3705SOL    HW122577   4.379   0.382   0.988 -1.5152  1.0366 -0.4761
 3705SOL    HW222578   4.371   0.373   0.835 -1.4947 -0.4631  0.9936
 3706SOL     OW22579   2.445   0.313   3.465 -0.1722  0.8707  0.3689
 3706SOL    HW122580   2.431   0.277   3.553  0.9144 -1.4327 -0.4014
 3706SOL    HW222581   2.488   0.242   3.417 -2.4450 -0.6446  0.5988
 3707SOL     OW22582   1.175   3.575   4.491 -0.2168 -0.1510 -0.1707
 3707SOL    HW122583   1.200   3.653   4.441 -0.8581  0.1785  0.0264
 3707SOL    HW222584   1.180   3.515   4.416 -0.8710  1.3794 -1.4607
 3708SOL     OW22585   1.249   3.232  13.772 -0.3414 -0.0004 -0.4470
 3708SOL    HW122586   1.323   3.236  13.833  0.5713 -0.7631 -1.5161
 3708SOL    HW222587   1.190   3.295  13.814  1.4745  1.5789 -0.2389
 3709SOL     OW22588   2.662   0.318  11.404  0.4301 -1.1086 -0.8023
 3709SOL    HW122589   2.623   0.372  11.336  0.8105  1.9898  1.4858
 3709SOL    HW222590   2.676   0.245  11.343  0.5220 -2.8441  1.2862
 3710SOL     OW22591   0.200   3.011  17.232 -0.1726 -0.9904  0.2896
 3710SOL    HW122592   0.284   3.001  17.276  0.2606  4.8736  0.8198
 3710SOL    HW222593   0.154   2.930  17.252 -0.6701 -1.2374 -1.8178
 3711SOL     OW22594   3.083   3.624   7.732 -0.2457 -0.4963  0.4268
 3711SOL    HW122595   3.154   3.688   7.737 -0.3569 -0.3116 -0.3872
 3711SOL    HW222596   3.124   3.559   7.675  0.0497 -1.4730  1.7345
 3712SOL     OW22597   0.956   4.176   3.956  0.0568  0.1663 -0.3918
 3712SOL    HW122598   0.945   4.192   3.862  1.2592  3.3938  0.0324
 3712SOL    HW222599   0.911   4.093   3.971  0.8834  0.1078  1.7861
 3713SOL     OW22600   2.859   4.424   3.627  0.7952 -0.0584 -0.0357
 3713SOL    HW122601   2.948   4.416   3.593  0.1669 -1.5353 -1.3586
 3713SOL    HW222602   2.866   4.381   3.712 -2.1960  1.1645  0.8227
 3714SOL     OW22603   0.766   1.369   7.781  0.0540 -0.1728  0.0005
 3714SOL    HW122604   0.850   1.325   7.764  0.5508  0.5914  0.5067
 3714SOL    HW222605   0.799   1.457   7.797  1.0973 -0.3647 -1.0924
 3715SOL     OW22606   3.388   0.962   2.857  0.1395 -0.4861 -0.5177
 3715SOL    HW122607   3.472   1.008   2.857  0.2175 -0.6292  1.7752
 3715SOL    HW222608   3.412   0.887   2.803 -0.1402  0.9714 -2.6877
 3716SOL     OW22609   1.561   1.601   0.560  0.3571  0.2189 -0.0122
 3716SOL    HW122610   1.528   1.512   0.546 -0.5447  0.9327 -2.3222
 3716SOL    HW222611   1.610   1.632   0.485 -1.2933  1.2193 -0.6764
 3717SOL     OW22612   3.589   3.236   6.698  0.8521  0.5935 -0.0683
 3717SOL    HW122613   3.523   3.282   6.647  1.4565  0.6464 -0.8034
 3717SOL    HW222614   3.674   3.274   6.677  0.1393  2.4877  0.5504
 3718SOL     OW22615   2.001   2.986   4.325 -0.1871 -0.8198 -0.3042
 3718SOL    HW122616   2.014   3.079   4.342 -1.3689 -0.9502  1.3333
 3718SOL    HW222617   1.932   2.982   4.259 -1.2976  0.0227  0.7966
 3719SOL     OW22618   3.017   1.759   8.293  0.0057  0.1801  0.1188
 3719SOL    HW122619   3.013   1.799   8.380 -0.0092 -1.8553  1.0672
 3719SOL    HW222620   2.970   1.829   8.247  0.7242  0.6701  0.1401
 3720SOL     OW22621   3.802   2.791   5.619  0.1464 -0.4148 -0.0073
 3720SOL    HW122622   3.772   2.863   5.563 -2.0804 -1.1746  0.2259
 3720SOL    HW222623   3.868   2.832   5.675 -1.1149  0.2477  0.9892
 3721SOL     OW22624   4.479   3.778   2.003  0.5515 -0.2894  0.0136
 3721SOL    HW122625   4.394   3.783   2.048  1.2553 -2.5431  1.5992
 3721SOL    HW222626   4.515   3.866   2.015  1.7560 -0.7351 -0.3371
 3722SOL     OW22627   1.618   0.062   9.692 -0.3809  0.3757 -0.2597
 3722SOL    HW122628   1.636   0.017   9.774 -3.5292 -0.2123  0.1308
 3722SOL    HW222629   1.621   4.709   9.631 -2.4704  0.9977 -1.1380
 3723SOL     OW22630   0.197   1.832   6.519 -0.0021  0.4667  0.0402
 3723SOL    HW122631   0.113   1.791   6.502  0.4059 -0.4402  0.2417
 3723SOL    HW222632   0.233   1.784   6.594 -1.0173 -1.4360 -0.7083
 3724SOL     OW22633   2.443   3.889  16.383  0.5410  0.2869  0.5108
 3724SOL    HW122634   2.411   3.905  16.294 -0.2519  0.7771  0.8821
 3724SOL    HW222635   2.443   3.980  16.414 -1.3144  0.3577  0.3190
 3725SOL     OW22636   4.069   0.510   7.168 -0.0029  0.1116  0.1027
 3725SOL    HW122637   3.993   0.511   7.227 -1.2709  2.4841 -1.5624
 3725SOL    HW222638   4.131   0.557   7.224  0.2572  0.2510 -0.3035
 3726SOL     OW22639   3.372   0.531   5.823  0.0828  0.1002 -0.2013
 3726SOL    HW122640   3.347   0.472   5.753 -5.0237  1.1888  0.7062
 3726SOL    HW222641   3.309   0.503   5.890 -0.8130  1.4620 -0.4864
 3727SOL     OW22642   3.681   2.216  10.529 -0.4655  0.6907 -0.3597
 3727SOL    HW122643   3.634   2.187  10.451 -0.2134 -0.6233 -0.0209
 3727SOL    HW222644   3.657   2.309  10.526  0.3577  0.9338  0.7243
 3728SOL     OW22645   0.708   2.669  11.185 -0.7482 -0.0418 -0.0702
 3728SOL    HW122646   0.661   2.739  11.140  1.3487  1.8121  0.6160
 3728SOL    HW222647   0.646   2.597  11.180 -1.9080  1.0680 -1.8495
 3729SOL     OW22648   3.988   4.473   2.448  0.4973  0.3547 -0.0430
 3729SOL    HW122649   4.006   4.466   2.354  0.0490 -1.3533 -0.0050
 3729SOL    HW222650   3.898   4.504   2.443  0.1723 -0.1804  2.5679
 3730SOL     OW22651   3.232   1.035   0.025 -0.4233  0.1554 -0.3720
 3730SOL    HW122652   3.227   1.121  17.667  0.2647  1.9799  3.3041
 3730SOL    HW222653   3.152   1.042   0.077 -0.8262 -0.6264 -0.8826
 3731SOL     OW22654   4.174   1.331   8.732  0.0163  0.0411  0.7044
 3731SOL    HW122655   4.202   1.245   8.698  0.6190  0.0904  1.0877
 3731SOL    HW222656   4.122   1.302   8.807  0.2293  3.4781  2.1537
 3732SOL     OW22657   1.636   2.895   2.739  0.7608 -0.2767 -0.7561
 3732SOL    HW122658   1.644   2.830   2.670  1.5524 -0.0864 -0.8442
 3732SOL    HW222659   1.604   2.971   2.691  2.5652  0.4286 -0.8265
 3733SOL     OW22660   3.144   4.176  11.882  0.1736 -0.0583  0.5392
 3733SOL    HW122661   3.072   4.176  11.945 -0.1500  0.7899  0.1647
 3733SOL    HW222662   3.206   4.216  11.942 -0.2762 -0.1424  1.0546
 3734SOL     OW22663   1.303   4.312  15.309 -0.1013  0.2342  0.3639
 3734SOL    HW122664   1.283   4.220  15.291  0.0663  0.9246 -3.1649
 3734SOL    HW222665   1.218   4.345  15.338 -0.5223 -1.8266  1.5190
 3735SOL     OW22666   4.297   1.132  12.289  0.2607  0.6649  0.5302
 3735SOL    HW122667   4.352   1.195  12.336  0.7085 -0.0570  0.9676
 3735SOL    HW222668   4.283   1.065  12.356 -1.0417  0.7550  0.3438
 3736SOL     OW22669   3.085   3.755   4.036 -0.3672 -0.0300  0.0869
 3736SOL    HW122670   3.120   3.667   4.022  1.3949  0.6379  0.2808
 3736SOL    HW222671   3.160   3.815   4.039  0.6134 -1.2175 -0.8131
 3737SOL     OW22672   1.536   3.503  11.121  0.6845  0.0685  0.7975
 3737SOL    HW122673   1.448   3.521  11.088  0.7709 -0.8612  0.0588
 3737SOL    HW222674   1.516   3.477  11.211 -0.3037  1.4139  0.9700
 3738SOL     OW22675   3.255   1.472   1.009  0.1703 -0.0174 -0.5044
 3738SOL    HW122676   3.272   1.480   1.103  1.1366 -0.9302 -0.6013
 3738SOL    HW222677   3.335   1.428   0.982  1.1577  2.0670 -0.9129
 3739SOL     OW22678   2.533   0.936   7.889 -0.8023 -0.3462 -0.4013
 3739SOL    HW122679   2.445   0.934   7.927  0.9243  1.2370  3.6457
 3739SOL    HW222680   2.590   0.913   7.963 -1.1543 -3.1909 -0.9941
 3740SOL     OW22681   4.051   0.967  15.914 -0.8263  0.1987  0.6367
 3740SOL    HW122682   4.112   0.937  15.981 -0.1744 -0.7107 -0.3596
 3740SOL    HW222683   4.098   1.043  15.878  1.0810 -0.9393  0.6820
 3741SOL     OW22684   1.776   0.403   4.068 -0.1838 -0.1998  0.4739
 3741SOL    HW122685   1.831   0.479   4.085 -1.2196  0.1741  2.1690
 3741SOL    HW222686   1.753   0.426   3.978 -0.8594  0.7605  0.8784
 3742SOL     OW22687   4.038   1.199  16.465 -0.3080  0.2779 -0.1102
 3742SOL    HW122688   4.072   1.137  16.530  0.2202  0.4702 -0.2038
 3742SOL    HW222689   4.120   1.246  16.447  1.2938 -2.7861 -0.8305
 3743SOL     OW22690   2.436   4.404   5.643 -0.3137  0.1526 -0.0774
 3743SOL    HW122691   2.506   4.371   5.699 -1.1320  0.3465  1.0559
 3743SOL    HW222692   2.427   4.493   5.678 -1.1166  0.8180 -1.9701
 3744SOL     OW22693   1.933   3.085  17.164  0.4381 -0.0428 -0.0889
 3744SOL    HW122694   1.960   3.174  17.184 -0.9749 -0.3084  3.0311
 3744SOL    HW222695   1.905   3.053  17.251  1.4337  2.3057  1.0871
 3745SOL     OW22696   3.964   4.461   5.292  0.0651  0.2961 -0.1380
 3745SOL    HW122697   3.869   4.463   5.283  0.1621 -0.5063 -1.3294
 3745SOL    HW222698   3.990   4.474   5.201  2.1903 -2.6202  0.0466
 3746SOL     OW22699   2.508   2.480   4.983 -0.4968 -0.3816  0.0693
 3746SOL    HW122700   2.577   2.481   5.049 -1.6798  3.0392  1.2315
 3746SOL    HW222701   2.450   2.550   5.013 -0.4497 -0.1813 -0.3114
 3747SOL     OW22702   3.266   1.657   6.816 -0.3580 -0.1259 -0.1856
 3747SOL    HW122703   3.295   1.698   6.898  1.2238 -1.0410 -0.2852
 3747SOL    HW222704   3.237   1.734   6.768 -0.5644 -0.2122 -0.2009
 3748SOL     OW22705   4.531   2.482   5.546  0.2881 -0.4700 -0.2538
 3748SOL    HW122706   4.613   2.527   5.525  0.0695 -0.1639 -0.4454
 3748SOL    HW222707   4.541   2.460   5.638  4.9326 -0.5041 -0.7870
 3749SOL     OW22708   1.713   1.443   7.207 -0.9111  0.6594  0.2965
 3749SOL    HW122709   1.728   1.458   7.114 -0.1186 -1.1611  0.1176
 3749SOL    HW222710   1.748   1.354   7.221 -0.0229  0.9395 -0.1102
 3750SOL     OW22711   2.265   4.513  12.624  0.0320 -0.1218 -0.0702
 3750SOL    HW122712   2.293   4.476  12.540 -0.8458  1.4577 -1.0563
 3750SOL    HW222713   2.325   4.586  12.641  0.0232 -0.4180  1.1911
 3751SOL     OW22714   4.417   0.413   5.219  0.1196  0.3437  0.3680
 3751SOL    HW122715   4.423   0.324   5.185  0.8241  0.2510  0.7364
 3751SOL    HW222716   4.489   0.414   5.282  1.0706 -1.3913 -0.7030
 3752SOL     OW22717   2.122   3.055   3.596  0.6012 -0.0540 -1.0353
 3752SOL    HW122718   2.075   3.010   3.666 -1.0238  1.6545 -1.0137
 3752SOL    HW222719   2.048   3.070   3.538  2.1653  0.6596 -2.8551
 3753SOL     OW22720   3.455   0.902   3.222 -0.1465  0.4458 -0.1925
 3753SOL    HW122721   3.445   0.885   3.316  3.6386  1.0187  0.3008
 3753SOL    HW222722   3.392   0.971   3.199 -0.5699  0.1416  0.0386
 3754SOL     OW22723   4.245   2.945   6.790  0.3640 -0.1931 -0.0925
 3754SOL    HW122724   4.182   2.879   6.818  0.5884  0.0189  0.9016
 3754SOL    HW222725   4.184   3.004   6.746 -0.6809 -0.7837  0.5908
 3755SOL     OW22726   2.286   3.524   6.842 -0.2202  0.4280 -0.1179
 3755SOL    HW122727   2.373   3.564   6.844  0.3783 -0.9769  2.8490
 3755SOL    HW222728   2.297   3.447   6.787 -0.4715 -0.6057  1.2660
 3756SOL     OW22729   3.956   1.944   6.528 -0.7920 -0.8835 -0.7233
 3756SOL    HW122730   3.894   1.958   6.457 -2.2866 -0.2590  0.6912
 3756SOL    HW222731   3.929   2.007   6.595  1.1217 -1.5089  0.6551
 3757SOL     OW22732   2.540   4.435   8.576 -0.1110 -0.6981  0.3306
 3757SOL    HW122733   2.552   4.433   8.481 -2.0014 -2.5469  0.1321
 3757SOL    HW222734   2.579   4.351   8.603 -1.7610 -1.5908 -0.0812
 3758SOL     OW22735   4.285   4.443  17.252  0.0378 -0.1412 -0.2343
 3758SOL    HW122736   4.291   4.538  17.253  2.8241 -0.3246  0.0520
 3758SOL    HW222737   4.332   4.426  17.333  0.3788  1.8946 -0.0086
 3759SOL     OW22738   2.227   3.163  11.762 -0.2797  1.0609  0.4982
 3759SOL    HW122739   2.144   3.116  11.773 -0.6406  1.5180 -0.2620
 3759SOL    HW222740   2.224   3.195  11.671  0.7825  0.1766  0.1578
 3760SOL     OW22741   4.397   4.529   7.695 -0.0554  0.2928  0.3015
 3760SOL    HW122742   4.339   4.469   7.741  0.9755  0.1736  1.4566
 3760SOL    HW222743   4.480   4.525   7.742 -0.4480  0.1350  0.9811
 3761SOL     OW22744   1.106   3.176   5.830 -0.0535  0.2367 -0.1428
 3761SOL    HW122745   1.104   3.191   5.925 -0.2180 -2.6741  0.3265
 3761SOL    HW222746   1.109   3.267   5.800  1.5192  0.0665 -0.5055
 3762SOL     OW22747   4.044   3.277   9.637 -0.1495 -0.8123  0.1569
 3762SOL    HW122748   4.120   3.241   9.591 -2.0108 -2.9221 -1.3011
 3762SOL    HW222749   3.978   3.294   9.570  0.2964  0.3213  0.0039
 3763SOL     OW22750   1.557   1.004   8.091  0.7981 -0.5609  0.3269
 3763SOL    HW122751   1.602   0.965   8.166 -0.3012 -0.2725  1.1530
 3763SOL    HW222752   1.571   1.095   8.117  1.0028  0.0154 -1.8165
 3764SOL     OW22753   0.052   2.661   4.381 -0.2093 -0.4538 -0.0662
 3764SOL    HW122754   0.001   2.640   4.303 -0.8507 -0.2889  0.3110
 3764SOL    HW222755   4.709   2.694   4.444  0.8921 -1.6537  1.6483
 3765SOL     OW22756   0.963   0.748   5.456  0.2629  0.1733 -0.2708
 3765SOL    HW122757   0.963   0.814   5.526  1.0092 -1.8825  1.6517
 3765SOL    HW222758   1.011   0.675   5.494 -0.3311 -0.5852 -0.9876
 3766SOL     OW22759   3.753   0.803   3.763  0.2479 -0.4463  0.0688
 3766SOL    HW122760   3.778   0.824   3.853  0.4735  3.0976 -0.8196
 3766SOL    HW222761   3.666   0.842   3.755  0.7713  0.1804 -2.6173
 3767SOL     OW22762   3.370   2.241   0.937  0.0016  0.1060 -0.1970
 3767SOL    HW122763   3.317   2.219   1.014 -1.4797  2.6227 -0.4879
 3767SOL    HW222764   3.334   2.183   0.869 -4.2696  0.2453  1.9657
 3768SOL     OW22765   2.972   2.329  11.102  0.3154  0.0156 -0.0990
 3768SOL    HW122766   3.001   2.247  11.061 -2.3521 -1.6414  1.3352
 3768SOL    HW222767   2.880   2.319  11.077 -0.3193  0.8495  1.9283
 3769SOL     OW22768   1.682   1.668  11.472  0.1818 -0.1818 -0.4677
 3769SOL    HW122769   1.587   1.677  11.478  0.0083 -1.8713 -0.5319
 3769SOL    HW222770   1.702   1.748  11.519  0.1778  0.2778 -1.2556
 3770SOL     OW22771   0.602   3.313   3.414  0.4017  0.1033 -0.2498
 3770SOL    HW122772   0.679   3.275   3.371  0.2521  0.2458 -0.6528
 3770SOL    HW222773   0.584   3.372   3.341  0.0151  1.1189  0.6887
 3771SOL     OW22774   1.906   2.085   5.078  0.4059  0.3066  0.7575
 3771SOL    HW122775   1.820   2.081   5.036  0.4549 -2.8650  0.9535
 3771SOL    HW222776   1.953   2.028   5.017 -1.6788 -0.0482 -0.4839
 3772SOL     OW22777   2.535   1.807   9.375 -0.3561  0.7551 -0.4274
 3772SOL    HW122778   2.527   1.725   9.424  0.6411  0.1943 -1.1989
 3772SOL    HW222779   2.532   1.863   9.453 -1.4805  1.7045 -1.1685
 3773SOL     OW22780   0.267   4.297   9.199 -0.0124 -0.3363 -0.0450
 3773SOL    HW122781   0.248   4.302   9.105 -2.2128  0.2369  0.4377
 3773SOL    HW222782   0.304   4.209   9.200  2.0759  0.5291  1.0237
 3774SOL     OW22783   0.415   2.811  10.282  0.0589  0.6488  0.1483
 3774SOL    HW122784   0.337   2.853  10.245  0.3401  0.1492 -1.0024
 3774SOL    HW222785   0.432   2.742  10.218  0.2469 -1.2104  2.1987
 3775SOL     OW22786   0.275   0.130   9.105 -0.6384 -0.3003 -0.0681
 3775SOL    HW122787   0.205   0.186   9.140  0.4831  0.6534  0.6619
 3775SOL    HW222788   0.253   0.045   9.141 -0.5088 -0.2896  0.0346
 3776SOL     OW22789   1.308   0.303   8.420 -0.2923  1.0776 -0.3043
 3776SOL    HW122790   1.347   0.390   8.418  1.3249  0.3219 -1.1692
 3776SOL    HW222791   1.309   0.279   8.328 -1.1942  2.6055 -0.7069
 3777SOL     OW22792   3.121   2.893  10.738  0.1239  0.0827 -0.0037
 3777SOL    HW122793   3.043   2.877  10.685 -0.2065 -0.4104  0.6310
 3777SOL    HW222794   3.095   2.830  10.805 -1.6027  0.1382 -0.6259
 3778SOL     OW22795   3.255   1.534   7.486 -0.5006  0.1165  0.3895
 3778SOL    HW122796   3.228   1.621   7.514 -2.4727 -0.5044  0.4244
 3778SOL    HW222797   3.229   1.479   7.560 -2.3292 -0.0929 -0.3836
 3779SOL     OW22798   1.936   3.272  10.949  0.0034 -0.2647 -0.4089
 3779SOL    HW122799   1.917   3.247  10.859  0.4915 -0.2214 -0.5237
 3779SOL    HW222800   1.845   3.267  10.978  0.3970 -0.7398  0.7285
 3780SOL     OW22801   2.438   4.493   3.418 -0.0046 -0.0056 -0.1755
 3780SOL    HW122802   2.532   4.506   3.404 -0.0961 -0.6152 -1.3371
 3780SOL    HW222803   2.431   4.490   3.514  0.7842 -0.4378 -0.1253
 3781SOL     OW22804   4.395   0.259   8.375  0.3601 -0.1744  0.7198
 3781SOL    HW122805   4.300   0.244   8.374  0.4637 -0.9660  2.1984
 3781SOL    HW222806   4.427   0.232   8.289 -0.3716 -3.7128  1.5801
 3782SOL     OW22807   1.738   0.713   3.067  0.4525  0.1502 -0.2031
 3782SOL    HW122808   1.820   0.684   3.026  0.1629  0.3676 -0.9354
 3782SOL    HW222809   1.773   0.776   3.130 -1.1178  0.4870  0.3249
 3783SOL     OW22810   1.391   2.843   1.523  0.0570  0.4072  0.2049
 3783SOL    HW122811   1.373   2.838   1.429  1.9111  0.4297 -0.1420
 3783SOL    HW222812   1.416   2.755   1.549  2.2026  0.0015 -3.3119
 3784SOL     OW22813   3.067   1.767  13.670  0.1333  0.8698 -0.3224
 3784SOL    HW122814   3.059   1.807  13.757  4.0724  0.1670  0.3564
 3784SOL    HW222815   3.084   1.674  13.685  1.0938  0.7709 -2.0879
 3785SOL     OW22816   3.448   1.932   7.299 -0.5300 -0.1169 -0.9977
 3785SOL    HW122817   3.458   1.942   7.394 -1.4588 -1.1606 -0.7932
 3785SOL    HW222818   3.370   1.987   7.291  0.8989  2.1846  1.0140
 3786SOL     OW22819   4.425   1.935   9.936 -0.2853  0.5670  0.3024
 3786SOL    HW122820   4.392   1.875   9.870 -4.1911  0.3481  2.4614
 3786SOL    HW222821   4.502   1.884   9.961 -1.7531 -2.1398 -0.7116
 3787SOL     OW22822   0.718   4.082   0.171 -0.4610  0.4531  0.3825
 3787SOL    HW122823   0.749   4.148   0.233 -0.2394  1.3027 -0.6369
 3787SOL    HW222824   0.629   4.114   0.155 -0.9332 -1.6480 -1.2554
 3788SOL     OW22825   3.925   3.518   2.299 -0.0603 -0.2147 -0.3143
 3788SOL    HW122826   3.890   3.443   2.347 -2.2898 -0.5094 -2.4420
 3788SOL    HW222827   3.869   3.532   2.223 -0.1387  1.0741 -0.0109
 3789SOL     OW22828   3.048   4.662   6.353 -0.1060  0.5341  0.2432
 3789SOL    HW122829   3.124   4.714   6.327 -0.0330 -0.6211 -1.8914
 3789SOL    HW222830   3.088   4.582   6.386  0.2705  0.3940 -0.5555
 3790SOL     OW22831   4.627   3.691  17.473  0.6017 -0.1175 -0.1282
 3790SOL    HW122832   4.635   3.622  17.540 -0.6974  0.7304  0.8964
 3790SOL    HW222833   4.533   3.692  17.456  0.6481  1.3264 -0.2651
 3791SOL     OW22834   2.483   4.499   8.857  0.1607  0.1414  0.2225
 3791SOL    HW122835   2.504   4.484   8.764  0.8516 -0.3642  0.4642
 3791SOL    HW222836   2.547   4.451   8.908 -0.1802  0.2111  0.7209
 3792SOL     OW22837   0.012   1.041   8.606 -0.7817  0.3977  0.4426
 3792SOL    HW122838   0.036   0.980   8.676  1.4329  0.1663 -0.4994
 3792SOL    HW222839   0.093   1.027   8.556  0.1021  0.0316  1.9532
 3793SOL     OW22840   4.013   2.961  10.226 -0.4607 -0.0331 -0.7136
 3793SOL    HW122841   4.082   2.895  10.238  1.7216  2.5632  0.9796
 3793SOL    HW222842   4.066   3.034  10.195 -1.4025  0.8363 -0.2749
 3794SOL     OW22843   0.554   1.965   6.392 -0.2746 -0.2713  0.4816
 3794SOL    HW122844   0.532   1.968   6.485 -0.4455 -1.5962  0.4816
 3794SOL    HW222845   0.597   1.882   6.373 -2.5063 -0.6788 -2.8121
 3795SOL     OW22846   4.713   1.948   9.237  0.1490  0.1764  0.4411
 3795SOL    HW122847   4.684   1.916   9.322 -0.1141 -0.9281 -0.0613
 3795SOL    HW222848   4.695   1.875   9.178  1.7141  1.1171 -1.1975
 3796SOL     OW22849   3.179   3.321  12.553  0.0611  0.4959  0.3039
 3796SOL    HW122850   3.170   3.416  12.542 -2.2119  0.2400 -0.1901
 3796SOL    HW222851   3.098   3.299  12.599 -0.3849  1.1148 -0.1804
 3797SOL     OW22852   2.134   0.913   4.917  0.4411  0.1630  0.1441
 3797SOL    HW122853   2.072   0.956   4.976  1.8839  0.9810  1.0677
 3797SOL    HW222854   2.211   0.915   4.974 -0.0581 -2.4664  0.9243
 3798SOL     OW22855   4.216   0.625   6.446  0.1551 -0.3299  0.7075
 3798SOL    HW122856   4.227   0.689   6.375 -0.0358 -1.9174 -0.7693
 3798SOL    HW222857   4.252   0.677   6.518 -2.3011  1.6935  0.4516
 3799SOL     OW22858   0.869   2.957  16.130 -0.1655  0.1927  0.2180
 3799SOL    HW122859   0.881   2.944  16.036 -0.5285  1.0741  0.0436
 3799SOL    HW222860   0.836   2.874  16.163 -0.7654  0.7975  1.1368
 3800SOL     OW22861   3.750   3.721   2.818 -0.1977  0.2269  0.2311
 3800SOL    HW122862   3.793   3.717   2.732  1.3635 -0.1872  1.0429
 3800SOL    HW222863   3.663   3.751   2.790 -0.2358 -1.2814 -1.2545
 3801SOL     OW22864   0.551   3.344   3.009  0.0525 -0.4786  0.2404
 3801SOL    HW122865   0.574   3.253   3.024  2.1502  0.1091  0.5660
 3801SOL    HW222866   0.623   3.379   2.956 -1.1505 -0.6829 -1.5126
 3802SOL     OW22867   1.374   2.189   7.219 -0.1213  0.6331  0.3338
 3802SOL    HW122868   1.346   2.251   7.287 -2.4947  0.6459 -0.6417
 3802SOL    HW222869   1.297   2.199   7.163  0.4759 -0.1653 -0.6222
 3803SOL     OW22870   4.143   0.586  10.301  0.3881 -0.3340 -0.2135
 3803SOL    HW122871   4.210   0.654  10.299 -0.9084  0.9544  0.8220
 3803SOL    HW222872   4.193   0.509  10.273  1.2801 -0.7788  2.5903
 3804SOL     OW22873   1.373   3.902   2.375 -0.3562 -0.0723 -0.2632
 3804SOL    HW122874   1.357   3.978   2.430 -0.1063 -1.0021  1.0714
 3804SOL    HW222875   1.388   3.837   2.444 -0.9209  2.1793  1.9431
 3805SOL     OW22876   0.924   4.527   3.181 -0.6436  0.1262  0.5533
 3805SOL    HW122877   0.879   4.579   3.114  1.2214 -1.3325 -1.8217
 3805SOL    HW222878   0.879   4.552   3.261 -0.3530 -0.5968  0.9430
 3806SOL     OW22879   3.281   0.347   6.003 -0.5214  0.3237  0.0436
 3806SOL    HW122880   3.205   0.310   6.048  0.0807 -1.2667 -0.2292
 3806SOL    HW222881   3.330   0.267   5.982  0.6189  0.6986  1.2685
 3807SOL     OW22882   4.685   4.310  17.352 -0.3081  0.6197 -0.1478
 3807SOL    HW122883   0.055   4.311  17.321 -0.4828 -0.2557 -0.6876
 3807SOL    HW222884   4.680   4.386  17.410 -2.3756  0.0027  0.5030
 3808SOL     OW22885   4.073   3.801   3.952 -0.6395 -0.3155  0.2321
 3808SOL    HW122886   4.144   3.818   3.890  0.3123  0.0109  1.3929
 3808SOL    HW222887   4.099   3.852   4.029 -0.8381  0.3318 -0.1321
 3809SOL     OW22888   2.090   4.525  13.423  0.0491 -0.3838 -0.0525
 3809SOL    HW122889   2.102   4.451  13.364  0.6118  1.0351 -1.7436
 3809SOL    HW222890   1.995   4.538  13.432  0.0996 -0.2168  0.2152
 3810SOL     OW22891   4.339   3.715   4.237  0.5285 -0.0139 -0.1412
 3810SOL    HW122892   4.244   3.721   4.250  0.2805 -1.4078 -1.2285
 3810SOL    HW222893   4.351   3.622   4.254 -1.4047 -0.5645 -1.6419
 3811SOL     OW22894   4.251   3.528   7.423 -0.5112 -0.1289  0.0792
 3811SOL    HW122895   4.323   3.578   7.386 -1.0715  1.5921  1.3177
 3811SOL    HW222896   4.257   3.453   7.364  0.6451 -0.6260  0.8269
 3812SOL     OW22897   3.627   3.858   3.432  0.0592 -0.1204 -0.5171
 3812SOL    HW122898   3.715   3.890   3.455  0.0273 -0.5667  0.2313
 3812SOL    HW222899   3.577   3.940   3.429 -0.8589 -0.6875 -0.5282
 3813SOL     OW22900   0.768   4.181   1.392  0.2330 -0.1170 -0.5106
 3813SOL    HW122901   0.680   4.204   1.361 -0.1895  0.1214  0.9001
 3813SOL    HW222902   0.768   4.086   1.400  1.9022  0.1678  2.7166
 3814SOL     OW22903   1.700   4.575   4.577  0.4101  0.1948 -0.2215
 3814SOL    HW122904   1.775   4.633   4.565  1.3738 -0.5633  2.0948
 3814SOL    HW222905   1.679   4.592   4.669 -1.3521 -1.3033 -0.3466
 3815SOL     OW22906   0.084   3.508   0.355 -0.4145 -1.0193 -0.0758
 3815SOL    HW122907   0.071   3.600   0.379 -1.9179 -0.9172 -1.2535
 3815SOL    HW222908   0.151   3.504   0.287 -0.4435  1.5611 -0.2722
 3816SOL     OW22909   3.929   2.063   7.772 -0.2353 -0.0847  0.3075
 3816SOL    HW122910   4.020   2.046   7.795 -0.1288 -0.6135 -0.5094
 3816SOL    HW222911   3.900   1.978   7.740  0.2860  1.0386 -3.1828
 3817SOL     OW22912   3.197   3.276  10.131 -0.0229 -0.4628 -0.1172
 3817SOL    HW122913   3.132   3.319  10.187 -0.0245 -0.6283  0.0079
 3817SOL    HW222914   3.268   3.339  10.145 -0.8397 -0.0157  2.0012
 3818SOL     OW22915   1.402   3.983   2.117 -0.4519 -0.5385 -0.4931
 3818SOL    HW122916   1.330   4.046   2.115  0.6745  0.6843 -2.5199
 3818SOL    HW222917   1.390   3.938   2.201  1.6537 -0.3297 -0.1009
 3819SOL     OW22918   1.432   0.659  13.591  0.2910  0.0416 -0.1064
 3819SOL    HW122919   1.473   0.646  13.677 -0.4579 -0.4395  0.1797
 3819SOL    HW222920   1.340   0.654  13.616 -0.4117  0.0516 -2.6952
 3820SOL     OW22921   1.335   3.523   7.331 -0.3078  0.2502 -0.0070
 3820SOL    HW122922   1.321   3.479   7.415 -0.4162 -0.4524 -0.3992
 3820SOL    HW222923   1.275   3.598   7.329 -1.1944 -0.4575  0.5347
 3821SOL     OW22924   1.854   2.093  15.696 -0.1718 -0.0375 -0.3319
 3821SOL    HW122925   1.890   2.138  15.619 -1.2349 -0.9868 -1.3887
 3821SOL    HW222926   1.810   2.165  15.743  0.0119 -1.2983  1.7793
 3822SOL     OW22927   3.718   2.484   1.503 -0.3945 -0.4965 -0.6379
 3822SOL    HW122928   3.645   2.485   1.565 -0.0167 -1.3064 -0.1796
 3822SOL    HW222929   3.736   2.391   1.492  1.5039  0.1955 -3.5626
 3823SOL     OW22930   2.350   1.681   8.433  0.5379 -0.0275  0.0305
 3823SOL    HW122931   2.388   1.768   8.441 -0.4011  0.4291 -0.4982
 3823SOL    HW222932   2.296   1.687   8.354  0.0318 -1.2114  0.2832
 3824SOL     OW22933   2.541   0.843   9.211 -0.3978  1.0085 -0.3448
 3824SOL    HW122934   2.592   0.806   9.283 -0.0738  0.9884 -0.5828
 3824SOL    HW222935   2.523   0.763   9.163 -0.3115  1.0035 -0.3687
 3825SOL     OW22936   4.303   1.716   2.765  0.4445 -0.2765 -0.6575
 3825SOL    HW122937   4.387   1.719   2.718 -1.0949 -1.5927 -3.4685
 3825SOL    HW222938   4.250   1.658   2.711 -2.5114  0.8451  1.0319
 3826SOL     OW22939   3.673   4.153  14.350 -0.3878 -0.8855  0.3756
 3826SOL    HW122940   3.619   4.087  14.307 -0.7569  0.4473 -1.1815
 3826SOL    HW222941   3.758   4.108  14.347 -0.6009 -1.1997 -0.7929
 3827SOL     OW22942   3.702   2.760  13.750  0.5236 -0.0657  0.7280
 3827SOL    HW122943   3.718   2.783  13.659  0.7231 -1.2255  0.4764
 3827SOL    HW222944   3.725   2.837  13.802 -0.5836 -0.7520  2.2240
 3828SOL     OW22945   1.990   1.478   9.489 -0.5084  0.2823  0.5191
 3828SOL    HW122946   1.915   1.427   9.520 -0.5457 -0.1797 -0.3316
 3828SOL    HW222947   1.991   1.553   9.548  1.7934  0.3040  0.4505
 3829SOL     OW22948   0.293   0.741  17.288  0.2779  0.1119 -0.1613
 3829SOL    HW122949   0.207   0.699  17.284  1.1003 -1.4342 -2.0531
 3829SOL    HW222950   0.327   0.729  17.199 -2.6538 -2.1719 -0.9806
 3830SOL     OW22951   3.353   2.082   9.021  0.4429 -0.4585  0.4654
 3830SOL    HW122952   3.448   2.074   9.012  0.7449  1.2668  1.9803
 3830SOL    HW222953   3.342   2.151   9.087 -2.6090 -0.1743 -0.3378
 3831SOL     OW22954   3.311   0.149  16.225 -0.0479 -0.5690 -0.2230
 3831SOL    HW122955   3.232   0.172  16.274  1.2446  1.3847  0.9325
 3831SOL    HW222956   3.353   0.231  16.250  1.5869 -0.9476 -1.6881
 3832SOL     OW22957   1.343   3.148   4.623  0.1844  0.1644 -0.3236
 3832SOL    HW122958   1.312   3.120   4.710  0.5725 -0.0029 -0.2395
 3832SOL    HW222959   1.346   3.060   4.585  1.8489  1.1589 -2.4603
 3833SOL     OW22960   3.145   0.052  11.758 -0.6228  0.5719  0.7945
 3833SOL    HW122961   3.186   0.011  11.682 -0.1079 -0.5938  1.7106
 3833SOL    HW222962   3.218   0.109  11.782  1.2928 -2.2243  1.6330
 3834SOL     OW22963   4.042   3.547   5.354 -0.0806  0.7024  0.6890
 3834SOL    HW122964   4.024   3.607   5.426 -0.1648  2.4309 -0.7743
 3834SOL    HW222965   3.985   3.584   5.287 -1.3246 -0.6051  1.0368
 3835SOL     OW22966   0.405   4.289   2.409  0.1897  0.0488  0.1183
 3835SOL    HW122967   0.431   4.256   2.323 -0.1120  0.6097 -0.1845
 3835SOL    HW222968   0.332   4.345   2.382 -0.2938 -0.6959 -0.1229
 3836SOL     OW22969   2.238   1.270   9.704 -0.1412  0.5869 -0.2906
 3836SOL    HW122970   2.157   1.221   9.716  1.4922 -2.4985 -1.8449
 3836SOL    HW222971   2.234   1.292   9.611 -0.7658  0.6559 -0.2493
 3837SOL     OW22972   4.266   2.445   5.611 -0.3201 -0.0136 -0.3039
 3837SOL    HW122973   4.226   2.530   5.591 -0.1342  0.3399  0.8592
 3837SOL    HW222974   4.353   2.466   5.576 -0.0958  1.5583  1.1961
 3838SOL     OW22975   1.445   4.606   7.876 -0.1875 -0.4250  0.0987
 3838SOL    HW122976   1.490   4.627   7.794  1.0033  0.9123  1.0892
 3838SOL    HW222977   1.484   4.668   7.938 -0.2676  0.4793 -0.7482
 3839SOL     OW22978   1.537   2.103  17.178  0.3273  0.1925  0.1018
 3839SOL    HW122979   1.478   2.080  17.107  0.6572 -2.6306  0.7365
 3839SOL    HW222980   1.483   2.094  17.256 -2.3307 -2.4377 -2.0851
 3840SOL     OW22981   0.188   0.907   6.339  0.5791 -0.5203 -0.0065
 3840SOL    HW122982   0.194   0.890   6.433  2.2796 -2.2862 -0.4218
 3840SOL    HW222983   0.112   0.850   6.327  0.5838 -1.0750  2.6976
 3841SOL     OW22984   0.328   3.205   1.198  0.2956  0.2560 -0.1540
 3841SOL    HW122985   0.252   3.263   1.200 -1.6546 -2.2905  0.0674
 3841SOL    HW222986   0.304   3.134   1.257  0.8685  0.7516  0.6814
 3842SOL     OW22987   1.502   3.830   6.955 -0.1407 -0.0517  0.1513
 3842SOL    HW122988   1.411   3.857   6.962 -0.3146 -1.3238  2.7558
 3842SOL    HW222989   1.509   3.767   7.027 -1.7675 -0.1302  0.2303
 3843SOL     OW22990   1.475   0.816   7.605  0.2679  0.5777 -0.3447
 3843SOL    HW122991   1.489   0.875   7.680 -0.4667  0.1591  0.1208
 3843SOL    HW222992   1.423   0.871   7.546  1.9176  1.0577 -1.3597
 3844SOL     OW22993   3.035   0.270   2.814 -0.5426 -0.0814  0.0292
 3844SOL    HW122994   3.130   0.275   2.802 -0.6716  1.6348 -0.3572
 3844SOL    HW222995   2.995   0.315   2.739  0.7426  1.5561  0.3334
 3845SOL     OW22996   2.987   2.739   4.406  0.6907  0.7008 -0.3853
 3845SOL    HW122997   2.909   2.687   4.424  0.1985  0.6154 -2.7412
 3845SOL    HW222998   2.951   2.815   4.360 -0.2599  0.1468 -0.5555
 3846SOL     OW22999   4.682   2.877   9.310 -0.4928  0.1704  0.4928
 3846SOL    HW123000   4.684   2.903   9.402 -0.0870 -1.8954  1.0829
 3846SOL    HW223001   0.054   2.887   9.289 -0.3171  0.6487  1.5115
 3847SOL     OW23002   0.216   3.368   8.282 -0.0807 -0.4981  0.4685
 3847SOL    HW123003   0.280   3.435   8.258 -0.8108 -0.7950 -2.2863
 3847SOL    HW223004   0.147   3.425   8.315  0.0946  0.9030 -1.6020
 3848SOL     OW23005   4.567   1.560   3.334 -0.0380 -0.7428 -0.2925
 3848SOL    HW123006   4.527   1.647   3.332 -3.9267 -2.5304  1.2085
 3848SOL    HW223007   4.635   1.584   3.398  1.0187  1.9464 -2.4304
 3849SOL     OW23008   3.782   2.003   2.218  0.1086  0.0379  0.8155
 3849SOL    HW123009   3.767   2.084   2.169 -0.1336 -0.9751 -0.7820
 3849SOL    HW223010   3.876   1.990   2.205  0.2933  1.2301  0.8941
 3850SOL     OW23011   3.230   2.545  13.689 -0.4545 -0.3093  0.3593
 3850SOL    HW123012   3.221   2.608  13.760 -0.3826 -1.2288  1.1882
 3850SOL    HW223013   3.140   2.523  13.662 -0.7101  0.5141  0.5520
 3851SOL     OW23014   0.882   2.526  10.115  0.3121 -0.4509 -0.4445
 3851SOL    HW123015   0.817   2.460  10.136  1.1600 -1.5579 -1.3051
 3851SOL    HW223016   0.853   2.598  10.172  1.5877  0.6252 -1.1395
 3852SOL     OW23017   3.300   3.464   8.110  0.0616 -0.0472 -0.7252
 3852SOL    HW123018   3.341   3.466   8.196  0.7450  1.1386 -1.0934
 3852SOL    HW223019   3.254   3.380   8.119  2.8433 -1.4978  0.0592
 3853SOL     OW23020   0.984   3.208  17.109  0.0254 -0.1711 -0.8517
 3853SOL    HW123021   1.018   3.168  17.189  1.2923  0.5466 -1.0282
 3853SOL    HW223022   1.047   3.173  17.046 -0.6205 -1.8488 -0.5712
 3854SOL     OW23023   1.599   0.977   7.825  0.1546 -0.5801 -0.1136
 3854SOL    HW123024   1.537   1.042   7.792 -0.0994 -0.4805  0.5531
 3854SOL    HW223025   1.580   0.982   7.919 -0.3142  0.4545 -0.2595
 3855SOL     OW23026   1.995   3.199  13.838 -0.3308 -0.1765 -0.0986
 3855SOL    HW123027   2.005   3.185  13.744 -3.3513 -2.3950 -0.0766
 3855SOL    HW223028   1.927   3.133  13.851 -0.3327  0.0145  0.8551
 3856SOL     OW23029   0.987   3.789   0.352 -0.1186  0.1147  0.3875
 3856SOL    HW123030   0.956   3.876   0.377 -0.8352  0.3297 -1.2642
 3856SOL    HW223031   1.070   3.811   0.310 -0.8327  1.9555 -0.0797
 3857SOL     OW23032   0.800   2.423   9.177 -0.0019  0.4705 -0.0583
 3857SOL    HW123033   0.731   2.380   9.127 -0.8844  0.9555  0.7437
 3857SOL    HW223034   0.774   2.512   9.152 -1.6169 -0.4222 -1.4823
 3858SOL     OW23035   2.104   4.249   3.115 -0.2011  0.5309 -0.1484
 3858SOL    HW123036   2.145   4.166   3.090  0.4425  0.4978  1.0555
 3858SOL    HW223037   2.157   4.265   3.192  0.0855  2.8403 -0.8367
 3859SOL     OW23038   3.742   4.673  15.373  0.0839  0.1668  0.2387
 3859SOL    HW123039   3.697   0.029  15.409  0.4905  0.7415 -0.4795
 3859SOL    HW223040   3.821   4.669  15.429 -0.1473  1.3482  0.6487
 3860SOL     OW23041   1.329   2.775   3.881 -0.4426 -0.0429 -0.5678
 3860SOL    HW123042   1.403   2.716   3.894 -0.8927 -0.3002  0.9697
 3860SOL    HW223043   1.287   2.770   3.967 -1.2161  0.1394 -0.9340
 3861SOL     OW23044   2.608   2.231   1.919  0.0591 -0.3043  0.4267
 3861SOL    HW123045   2.646   2.303   1.869 -1.4119  0.4195  0.3578
 3861SOL    HW223046   2.517   2.238   1.889  0.2776  1.4939  0.1718
 3862SOL     OW23047   0.039   0.238  11.633 -0.0554 -0.1478  0.1779
 3862SOL    HW123048   4.681   0.209  11.679 -0.4568  3.0384  1.4680
 3862SOL    HW223049   0.005   0.226  11.544 -1.3317 -2.9072  1.0410
 3863SOL     OW23050   0.860   1.525   3.314 -0.0771  0.8499 -0.3153
 3863SOL    HW123051   0.908   1.557   3.237 -0.8417  1.4459 -0.5352
 3863SOL    HW223052   0.860   1.606   3.365 -0.1128  2.1837 -2.4231
 3864SOL     OW23053   0.294   3.899   5.663  0.1753  0.4800  0.6544
 3864SOL    HW123054   0.370   3.910   5.721  0.4331 -0.6091  0.5187
 3864SOL    HW223055   0.315   3.953   5.586  0.0150 -1.1357 -0.5190
 3865SOL     OW23056   4.701   4.700  17.279 -0.7892  0.5546  0.3789
 3865SOL    HW123057   4.648   4.663  17.209  0.6098 -1.3409  0.3267
 3865SOL    HW223058   0.048   4.633  17.292 -1.1652 -0.3327 -2.2124
 3866SOL     OW23059   1.698   0.131   2.245 -0.1998  0.2103 -0.5391
 3866SOL    HW123060   1.746   0.211   2.221  1.4571 -0.6060  0.0260
 3866SOL    HW223061   1.644   0.119   2.167 -1.6939  0.6747  0.4286
 3867SOL     OW23062   3.148   0.804   7.051  0.1776 -0.4339  0.3345
 3867SOL    HW123063   3.119   0.776   6.964 -1.3259  1.8735  0.0884
 3867SOL    HW223064   3.101   0.744   7.109  0.0782  1.0660  1.7675
 3868SOL     OW23065   3.742   2.054   6.955 -0.1454 -0.7232  0.1405
 3868SOL    HW123066   3.747   2.016   7.043 -1.2070  0.6620  0.8128
 3868SOL    HW223067   3.647   2.059   6.941 -0.3446 -0.9349  1.3929
 3869SOL     OW23068   0.012   0.619   4.603  0.0801  0.9071 -0.1276
 3869SOL    HW123069   0.084   0.647   4.659  1.0321  0.8264 -1.3225
 3869SOL    HW223070   4.656   0.629   4.660 -0.3893  0.2902 -0.6647
 3870SOL     OW23071   0.997   4.480   2.732  0.5953  0.1959  0.5632
 3870SOL    HW123072   1.050   4.536   2.789 -0.0332  0.8970  0.4535
 3870SOL    HW223073   0.951   4.547   2.682 -0.0647  0.1546  1.1297
 3871SOL     OW23074   0.949   4.145   2.031 -0.1435 -0.2155 -0.2796
 3871SOL    HW123075   0.962   4.164   2.124 -0.5401  0.8328 -0.4369
 3871SOL    HW223076   1.010   4.072   2.020  0.7068  0.3609  0.6100
 3872SOL     OW23077   2.161   1.188   3.082  0.2411 -0.5019  0.2551
 3872SOL    HW123078   2.092   1.157   3.022 -0.6395  0.8013  0.5882
 3872SOL    HW223079   2.156   1.129   3.156 -1.7538 -1.1706 -0.4181
 3873SOL     OW23080   1.473   3.638   6.778  0.4787 -0.3778 -0.0553
 3873SOL    HW123081   1.443   3.719   6.738  1.7912 -0.7039 -1.7468
 3873SOL    HW223082   1.519   3.673   6.854  1.8503 -1.1594 -0.5182
 3874SOL     OW23083   1.406   2.117   8.427 -0.1071 -0.6088  0.3195
 3874SOL    HW123084   1.458   2.154   8.355  0.1377 -1.4723  0.0468
 3874SOL    HW223085   1.408   2.023   8.412 -1.4220 -0.9217  2.1487
 3875SOL     OW23086   3.684   3.705  10.054  0.3827  0.4094  0.0346
 3875SOL    HW123087   3.684   3.697  10.150 -0.7571  1.0387  0.0870
 3875SOL    HW223088   3.631   3.785  10.048 -1.7807 -0.7340  3.5792
 3876SOL     OW23089   1.077   1.097   3.390  0.3545  0.1695  0.3161
 3876SOL    HW123090   1.006   1.078   3.328 -1.2103  1.8172  1.5853
 3876SOL    HW223091   1.063   1.191   3.403  3.0565  0.6996 -0.7898
 3877SOL     OW23092   2.347   4.649  10.402  0.4212  0.6803 -0.2592
 3877SOL    HW123093   2.312   4.686  10.321  0.9525  0.5790 -0.5301
 3877SOL    HW223094   2.349   0.012  10.450  3.3943 -0.7586  2.1145
 3878SOL     OW23095   3.647   2.436  14.368 -0.7418 -0.2476 -0.1132
 3878SOL    HW123096   3.725   2.459  14.319 -1.6908  2.2134 -0.4726
 3878SOL    HW223097   3.653   2.491  14.446 -3.0633 -1.5571  0.9976
 3879SOL     OW23098   3.184   2.409   4.056  0.6543  0.1158 -0.3530
 3879SOL    HW123099   3.104   2.368   4.024  0.7226 -1.5928  1.6630
 3879SOL    HW223100   3.148   2.498   4.051 -1.6567 -0.9308 -2.2035
 3880SOL     OW23101   3.863   0.346   9.345 -1.5893 -0.2900  0.4884
 3880SOL    HW123102   3.820   0.261   9.361  0.8580 -1.7988 -1.0137
 3880SOL    HW223103   3.808   0.379   9.274 -0.5076  0.1376 -0.1532
 3881SOL     OW23104   2.945   1.582   3.669  0.0188  0.5895  0.2182
 3881SOL    HW123105   3.033   1.620   3.670 -0.3740  1.4961  0.9341
 3881SOL    HW223106   2.898   1.666   3.676 -0.3990  0.3832 -0.1341
 3882SOL     OW23107   2.273   3.332  13.572 -0.2328  0.1689 -0.2184
 3882SOL    HW123108   2.341   3.399  13.566  0.3645 -0.2320  2.2277
 3882SOL    HW223109   2.246   3.345  13.663 -3.1288  1.4796 -1.2413
 3883SOL     OW23110   2.277   2.410   5.251 -0.3172  0.0625  0.4369
 3883SOL    HW123111   2.183   2.404   5.233  0.0667 -2.1694 -0.8839
 3883SOL    HW223112   2.308   2.341   5.192  0.8341  0.3325  0.7386
 3884SOL     OW23113   1.450   0.673   4.583  0.2170  0.1871  0.1422
 3884SOL    HW123114   1.406   0.681   4.498 -0.8482  2.2690  0.8899
 3884SOL    HW223115   1.543   0.675   4.559 -0.8206 -0.6742 -3.9445
 3885SOL     OW23116   1.275   0.467   3.471  0.2943 -0.3364  0.2274
 3885SOL    HW123117   1.348   0.528   3.462 -0.6791  0.9156  0.9923
 3885SOL    HW223118   1.296   0.409   3.397  0.0638 -0.8181  0.5351
 3886SOL     OW23119   2.813   3.596   1.052  0.7996 -0.2327 -0.2952
 3886SOL    HW123120   2.880   3.640   1.105  0.4920 -2.5165  1.9638
 3886SOL    HW223121   2.753   3.665   1.022  2.2751  0.9104 -0.6606
 3887SOL     OW23122   3.521   1.977   6.412 -0.5626  0.0687 -0.0121
 3887SOL    HW123123   3.501   1.985   6.319 -0.1825 -0.4976 -0.1357
 3887SOL    HW223124   3.440   1.971   6.464 -0.8970  1.2190 -0.3838
 3888SOL     OW23125   4.031   4.436   4.996 -0.4611 -0.0416 -0.2207
 3888SOL    HW123126   4.022   4.341   4.994  0.7874 -0.1814  0.8566
 3888SOL    HW223127   3.950   4.466   4.956  0.8833  1.9618 -1.4689
 3889SOL     OW23128   1.730   2.379  15.174 -0.2697  0.9279 -0.1074
 3889SOL    HW123129   1.665   2.335  15.119 -0.2830 -0.2067  0.8009
 3889SOL    HW223130   1.732   2.315  15.246 -0.9482  1.0156 -0.0069
 3890SOL     OW23131   4.197   4.228   0.399  0.0880  0.0056 -0.2927
 3890SOL    HW123132   4.158   4.186   0.322 -1.1519 -0.3736  0.5511
 3890SOL    HW223133   4.269   4.273   0.354  0.2472 -1.9805 -1.9907
 3891SOL     OW23134   0.062   0.713   3.187  0.3344 -0.2370  0.2422
 3891SOL    HW123135   0.109   0.796   3.185  2.6018 -1.5205 -0.3355
 3891SOL    HW223136   0.128   0.645   3.172  1.8559  1.2413  0.1873
 3892SOL     OW23137   0.912   3.598  11.036 -0.2961 -0.4274  0.5134
 3892SOL    HW123138   0.847   3.660  11.068 -0.1087  0.9271 -1.6879
 3892SOL    HW223139   0.972   3.579  11.108  0.2673 -2.6888 -0.5596
 3893SOL     OW23140   0.001   2.430   8.163  0.3259 -0.4544 -0.1782
 3893SOL    HW123141   4.644   2.458   8.212  1.0487  1.6191 -0.2056
 3893SOL    HW223142   4.689   2.417   8.074 -0.4466  0.6382 -0.0536
 3894SOL     OW23143   3.835   3.307   9.194 -0.3626  0.5914  0.2744
 3894SOL    HW123144   3.877   3.364   9.129  0.0545  0.3972  0.3689
 3894SOL    HW223145   3.886   3.229   9.173 -0.2321  1.0120 -0.9912
 3895SOL     OW23146   4.475   4.338   9.482  0.1625  0.4017 -0.0597
 3895SOL    HW123147   4.452   4.387   9.561  2.3852 -0.0600  0.8616
 3895SOL    HW223148   4.486   4.401   9.411 -0.9915  1.5685  0.7973
 3896SOL     OW23149   4.530   2.314   7.295  0.6400  0.3028 -0.1428
 3896SOL    HW123150   4.523   2.348   7.205  0.7610 -0.8718 -0.5947
 3896SOL    HW223151   4.481   2.231   7.297 -0.0852  0.7426  0.3211
 3897SOL     OW23152   2.148   3.085   7.505  0.1595  0.6072 -0.5594
 3897SOL    HW123153   2.113   3.011   7.554  1.0011  1.6323  1.6024
 3897SOL    HW223154   2.149   3.157   7.569  0.6149  0.0323  0.0815
 3898SOL     OW23155   4.573   2.807   3.702  0.4620 -0.7076 -0.5166
 3898SOL    HW123156   4.625   2.817   3.781  0.0101 -0.2535 -0.2749
 3898SOL    HW223157   4.595   2.721   3.664  0.3225 -1.0492  0.1853
 3899SOL     OW23158   0.723   1.468   9.145  0.0775  0.0480 -0.5452
 3899SOL    HW123159   0.760   1.553   9.120 -0.8835  0.4735 -0.5292
 3899SOL    HW223160   0.636   1.472   9.106  0.6649  2.3233 -1.6222
 3900SOL     OW23161   2.363   0.041   7.145 -0.1187  0.2866 -0.2351
 3900SOL    HW123162   2.269   0.027   7.136 -0.1993  0.5421  0.1995
 3900SOL    HW223163   2.390   0.094   7.070 -1.5742 -0.5020 -1.3149
 3901SOL     OW23164   2.282   0.048   1.747 -0.4638 -0.0409 -0.4725
 3901SOL    HW123165   2.263   0.129   1.793  2.5447  1.8925 -2.5625
 3901SOL    HW223166   2.360   0.022   1.796  0.0768  2.0520 -0.2259
 3902SOL     OW23167   4.007   3.585   8.659 -0.2469 -0.7196  0.1700
 3902SOL    HW123168   4.002   3.678   8.683 -0.8252 -0.2444 -1.7372
 3902SOL    HW223169   4.102   3.581   8.663 -0.1119 -1.1262 -3.5162
 3903SOL     OW23170   1.266   3.684   3.484 -0.2417 -0.2198  0.0911
 3903SOL    HW123171   1.232   3.613   3.430 -0.6229  0.5692 -0.7145
 3903SOL    HW223172   1.228   3.667   3.570 -0.6447 -1.1677 -0.2773
 3904SOL     OW23173   3.801   0.852   4.016  0.3374  0.1049 -0.4955
 3904SOL    HW123174   3.720   0.828   4.061  1.1061 -2.1588 -0.3498
 3904SOL    HW223175   3.853   0.887   4.088 -1.1813 -0.4768  0.8927
 3905SOL     OW23176   1.154   0.908   5.896  0.1364  0.0882  0.0288
 3905SOL    HW123177   1.095   0.861   5.956  0.0207 -1.2423 -1.1271
 3905SOL    HW223178   1.235   0.858   5.902 -0.0346 -0.3419 -1.3000
 3906SOL     OW23179   0.257   4.717   6.508  0.1915  0.1976  0.3317
 3906SOL    HW123180   0.175   0.013   6.554 -1.6510 -3.4127 -1.6749
 3906SOL    HW223181   0.301   0.079   6.490 -2.2420  0.8481 -2.6067
 3907SOL     OW23182   4.560   3.398   3.078  0.2730  0.3759  0.4401
 3907SOL    HW123183   4.616   3.384   3.001  0.6305  1.1728  0.5492
 3907SOL    HW223184   4.590   3.486   3.102 -1.6354  1.1328  0.0219
 3908SOL     OW23185   3.740   1.628   1.635  0.0186  0.1364  0.1401
 3908SOL    HW123186   3.747   1.680   1.715 -1.5668 -0.0586  0.3988
 3908SOL    HW223187   3.706   1.543   1.660 -0.1514 -0.0637 -0.7613
 3909SOL     OW23188   4.448   1.763   7.265 -0.3663 -0.1020 -0.5807
 3909SOL    HW123189   4.457   1.772   7.170 -1.7426 -2.0315 -0.8974
 3909SOL    HW223190   4.533   1.726   7.290 -0.8394 -0.7978  0.0166
 3910SOL     OW23191   0.678   2.342   6.753 -0.7325 -1.1964 -0.1224
 3910SOL    HW123192   0.704   2.260   6.711  0.2265 -0.3925 -1.0907
 3910SOL    HW223193   0.703   2.409   6.689 -2.4226  0.2164  0.6639
 3911SOL     OW23194   4.505   2.350   5.037 -0.5973  0.2992 -0.4987
 3911SOL    HW123195   4.501   2.315   5.126  0.8224 -0.6197 -0.7939
 3911SOL    HW223196   4.574   2.415   5.044  0.4019 -0.8909  0.8229
 3912SOL     OW23197   2.873   3.227   0.001  0.0666 -0.0207  0.2634
 3912SOL    HW123198   2.938   3.260   0.063  0.9171 -0.0393 -0.6151
 3912SOL    HW223199   2.807   3.297   0.007 -0.5231 -0.3486 -2.2357
 3913SOL     OW23200   2.317   2.140   1.373 -0.0686 -0.0497 -0.5483
 3913SOL    HW123201   2.272   2.137   1.288  0.5171 -0.3560 -0.8477
 3913SOL    HW223202   2.247   2.112   1.433 -0.5457 -0.1458 -1.1447
 3914SOL     OW23203   1.595   0.951   5.401  0.0186 -0.4571 -0.0353
 3914SOL    HW123204   1.589   0.956   5.496  2.1807 -0.5218  0.1038
 3914SOL    HW223205   1.549   0.873   5.370  0.0341  0.1746 -1.6564
 3915SOL     OW23206   4.022   1.556   9.010 -0.1659  0.4153 -0.2862
 3915SOL    HW123207   4.081   1.583   9.081  0.4516  1.6178 -1.2509
 3915SOL    HW223208   4.028   1.461   9.005 -1.1751  0.2168  2.1747
 3916SOL     OW23209   3.054   3.069   1.988 -0.3333  0.0333  0.2195
 3916SOL    HW123210   3.047   3.149   1.937  0.2286 -0.3987 -0.5468
 3916SOL    HW223211   2.963   3.042   1.996  0.0424 -0.2668  3.4626
 3917SOL     OW23212   0.553   2.105   9.610 -0.1338 -0.2564 -0.3491
 3917SOL    HW123213   0.567   2.016   9.641  0.5668 -0.5402 -1.4447
 3917SOL    HW223214   0.502   2.091   9.530  0.7119  2.2061 -1.3188
 3918SOL     OW23215   3.346   0.504   6.940  0.6288 -0.0481 -0.1786
 3918SOL    HW123216   3.350   0.501   6.844  0.9283 -1.2103 -0.1320
 3918SOL    HW223217   3.380   0.592   6.957  0.3576  0.2756 -1.3037
 3919SOL     OW23218   0.259   4.319   8.302  0.6632  0.7385 -0.3933
 3919SOL    HW123219   0.307   4.348   8.380  0.0719  0.9846 -0.1198
 3919SOL    HW223220   0.336   4.296   8.251 -0.8305 -3.1869 -0.9151
 3920SOL     OW23221   0.796   2.643  16.822  0.6323 -0.2683  0.1910
 3920SOL    HW123222   0.882   2.632  16.781  0.2843 -3.1941  0.2377
 3920SOL    HW223223   0.819   2.670  16.911 -3.8723 -0.2719  1.3708
 3921SOL     OW23224   0.961   0.744   2.032  0.3590 -0.8062  0.3924
 3921SOL    HW123225   1.051   0.774   2.045  0.4393 -1.8284  2.1415
 3921SOL    HW223226   0.971   0.679   1.963 -1.8992 -0.0308 -0.6898
 3922SOL     OW23227   2.549   4.110   4.510  0.1172  0.1326  0.1555
 3922SOL    HW123228   2.496   4.031   4.519 -0.3633  0.3930 -0.4044
 3922SOL    HW223229   2.588   4.096   4.597  0.6413 -1.1063 -0.2725
 3923SOL     OW23230   1.305   0.700   4.291 -0.4125 -0.1801 -0.1704
 3923SOL    HW123231   1.235   0.756   4.257 -0.2691 -0.2499 -0.5741
 3923SOL    HW223232   1.335   0.653   4.213 -0.3446 -1.1805  0.4653
 3924SOL     OW23233   2.529   0.521   2.581 -0.7669  0.3704  0.6159
 3924SOL    HW123234   2.546   0.465   2.657 -1.1335 -0.8662 -0.2220
 3924SOL    HW223235   2.616   0.545   2.550 -0.7255 -1.6971 -0.8565
 3925SOL     OW23236   1.663   3.268   5.919  0.1806  0.1225 -0.5450
 3925SOL    HW123237   1.582   3.281   5.969  1.3422 -1.0783  1.6618
 3925SOL    HW223238   1.730   3.256   5.987  1.7151  3.7355 -1.4523
 3926SOL     OW23239   2.653   3.464   2.238 -0.0942 -0.1197  0.2798
 3926SOL    HW123240   2.691   3.492   2.155 -1.0230  0.3609  0.0149
 3926SOL    HW223241   2.579   3.405   2.221  0.7476 -0.6385 -1.6131
 3927SOL     OW23242   3.217   0.335   3.828  0.4050 -0.2705  0.1667
 3927SOL    HW123243   3.157   0.291   3.767 -1.1660  3.3338 -0.9100
 3927SOL    HW223244   3.207   0.281   3.906  2.1415 -1.8682 -0.7100
 3928SOL     OW23245   3.201   0.854   2.194 -0.2019  0.4394  0.8674
 3928SOL    HW123246   3.285   0.885   2.161  0.0487  0.9554  2.0167
 3928SOL    HW223247   3.184   0.906   2.273 -1.8237 -0.4015  1.0774
 3929SOL     OW23248   1.007   3.554   0.752 -0.0143 -0.2454  0.2596
 3929SOL    HW123249   0.945   3.610   0.800  3.0779  2.5686  1.0173
 3929SOL    HW223250   1.076   3.578   0.815  0.6355 -3.8221  0.8848
 3930SOL     OW23251   1.932   2.863   7.573  0.2023  0.2162  0.0083
 3930SOL    HW123252   1.874   2.791   7.548  1.0604 -0.3545 -0.3259
 3930SOL    HW223253   1.871   2.937   7.569 -1.7002 -1.3127  0.5602
 3931SOL     OW23254   1.590   4.427   1.877  0.2488  0.5651 -0.3137
 3931SOL    HW123255   1.588   4.486   1.801 -1.1036 -0.3191 -0.9545
 3931SOL    HW223256   1.668   4.378   1.852 -0.3482 -0.2752 -0.4975
 3932SOL     OW23257   4.212   4.039   4.931 -0.5320 -0.3596  0.1572
 3932SOL    HW123258   4.211   3.994   4.846 -1.1386  1.7532 -0.9448
 3932SOL    HW223259   4.277   4.109   4.920  1.0978 -1.7789  0.7070
 3933SOL     OW23260   2.165   1.797   1.973  0.3525 -0.4140 -0.4992
 3933SOL    HW123261   2.158   1.708   2.007  0.2920 -0.2069  0.0245
 3933SOL    HW223262   2.190   1.843   2.053  0.4728 -2.4589  0.6461
 3934SOL     OW23263   1.232   0.188   3.239  0.0854 -0.0207 -0.4421
 3934SOL    HW123264   1.181   0.137   3.177  1.9588 -1.3897 -0.8724
 3934SOL    HW223265   1.259   0.265   3.189 -2.2163 -0.1899 -1.9173
 3935SOL     OW23266   0.078   3.360   1.516 -0.0301  0.3095  0.1367
 3935SOL    HW123267   0.027   3.438   1.541  0.6390  1.1004 -0.9524
 3935SOL    HW223268   0.134   3.358   1.593 -0.0588  0.2504  0.1558
 3936SOL     OW23269   1.262   2.042   3.397 -0.1059 -0.4242  0.4692
 3936SOL    HW123270   1.301   2.093   3.467 -0.0418  1.2294 -0.7851
 3936SOL    HW223271   1.275   2.101   3.323 -0.2471  0.0137  0.7972
 3937SOL     OW23272   2.666   0.141   6.866 -0.1907 -0.1282 -0.5386
 3937SOL    HW123273   2.673   0.112   6.957  1.6475  1.8994 -0.0158
 3937SOL    HW223274   2.747   0.192   6.854 -0.9265  0.9850 -0.7736
 3938SOL     OW23275   0.483   0.050   5.332 -0.2942 -0.6050 -0.0532
 3938SOL    HW123276   0.422   0.013   5.268 -2.0761 -1.2845  2.0526
 3938SOL    HW223277   0.547   4.700   5.325 -0.7746 -1.2171  1.7745
 3939SOL     OW23278   2.037   4.572   6.332  0.0226 -0.1200  0.0468
 3939SOL    HW123279   1.945   4.597   6.342 -0.0090 -0.8965  1.8798
 3939SOL    HW223280   2.064   4.663   6.321  0.6753 -0.4541 -1.0973
 3940SOL     OW23281   4.584   1.465  13.965  0.2755  0.7554 -0.4776
 3940SOL    HW123282   4.649   1.397  13.950  1.0625  1.3513  0.2349
 3940SOL    HW223283   4.620   1.509  14.042  1.7242 -3.6482  1.3638
 3941SOL     OW23284   3.087   4.191   3.709 -0.6095 -0.1715  0.1355
 3941SOL    HW123285   3.026   4.209   3.638  1.0590  1.7220 -0.8059
 3941SOL    HW223286   3.098   4.098   3.690  0.8030  0.6514 -3.0273
 3942SOL     OW23287   4.634   1.550   4.747 -0.3097  0.1098  0.7125
 3942SOL    HW123288   4.568   1.613   4.774 -0.5601  0.0113  0.3299
 3942SOL    HW223289   4.584   1.479   4.708 -0.8232 -0.4156  2.3503
 3943SOL     OW23290   1.421   1.062  16.257  0.0134 -0.2684  0.0865
 3943SOL    HW123291   1.461   0.988  16.212 -1.7129 -2.2799  1.9014
 3943SOL    HW223292   1.354   1.020  16.310  0.7459 -0.3238  0.9578
 3944SOL     OW23293   4.333   3.626   3.355 -0.0786 -0.9205 -0.5490
 3944SOL    HW123294   4.263   3.627   3.421 -0.9492 -1.6545 -1.4774
 3944SOL    HW223295   4.317   3.701   3.298 -1.5143 -0.1508  0.8769
 3945SOL     OW23296   4.631   4.043   2.832  0.2324  0.6274 -0.0474
 3945SOL    HW123297   4.644   4.133   2.804 -1.4021  0.6846 -0.5828
 3945SOL    HW223298   4.537   4.036   2.851 -0.0804 -2.0287 -2.5049
 3946SOL     OW23299   1.047   2.508   3.831  0.6608  0.7284  0.1432
 3946SOL    HW123300   1.091   2.554   3.903 -2.6618 -0.0358  2.6858
 3946SOL    HW223301   0.956   2.533   3.845  0.2861 -0.5474 -0.0687
 3947SOL     OW23302   4.307   1.935   2.158  0.5209  0.5577  0.0604
 3947SOL    HW123303   4.320   1.937   2.063 -2.8252  0.6569 -0.4186
 3947SOL    HW223304   4.343   1.849   2.180 -0.9411  0.2325  1.2259
 3948SOL     OW23305   0.300   3.299  16.378 -0.4174  0.0418  0.0358
 3948SOL    HW123306   0.261   3.223  16.335  1.2844 -0.7386 -0.1647
 3948SOL    HW223307   0.265   3.286  16.466 -2.7503 -0.0815 -0.9065
 3949SOL     OW23308   0.018   3.875  14.212 -0.0577 -0.2374  0.6330
 3949SOL    HW123309   4.650   3.903  14.188  0.3189  1.7274  1.5241
 3949SOL    HW223310   0.031   3.935  14.286 -3.0546  0.1301  0.8649
 3950SOL     OW23311   0.383   4.677   8.660 -0.4764  0.0677  0.4691
 3950SOL    HW123312   0.404   4.653   8.750 -2.6274 -0.4130  0.8505
 3950SOL    HW223313   0.428   4.611   8.608  2.1311  2.3561 -0.1612
 3951SOL     OW23314   1.842   4.186   0.529  0.0381  0.0541 -0.3997
 3951SOL    HW123315   1.909   4.117   0.533 -0.0317 -0.0205 -0.5013
 3951SOL    HW223316   1.902   4.261   0.532  1.2071 -0.8874  0.1336
 3952SOL     OW23317   3.323   4.271  16.344 -0.4566 -0.3869  0.7747
 3952SOL    HW123318   3.302   4.208  16.412  0.5504  0.8481  2.2348
 3952SOL    HW223319   3.274   4.226  16.275  1.8383 -1.3839 -0.2249
 3953SOL     OW23320   4.636   2.904   4.988  0.0148 -0.0647 -0.1292
 3953SOL    HW123321   4.652   2.942   5.074  1.3137  0.5555 -0.6381
 3953SOL    HW223322   4.695   2.829   4.984  0.7480  0.7238 -4.5210
 3954SOL     OW23323   2.379   1.957   3.075  0.2503  0.3592 -0.0620
 3954SOL    HW123324   2.293   1.916   3.075  0.3997  0.0428 -0.3206
 3954SOL    HW223325   2.405   1.948   2.983 -2.1082 -0.5079 -0.6327
 3955SOL     OW23326   2.968   1.988   3.672  1.5811  0.0834  0.0926
 3955SOL    HW123327   2.958   2.060   3.610  2.7553  0.2542  0.1057
 3955SOL    HW223328   2.884   1.970   3.714  1.8582  0.6240  0.8662
 3956SOL     OW23329   0.139   3.173   5.440 -1.1681 -0.6484  0.1701
 3956SOL    HW123330   0.220   3.179   5.491 -0.4004  0.8484 -1.2204
 3956SOL    HW223331   0.162   3.232   5.369  2.2772  1.1411  2.7472
 3957SOL     OW23332   0.671   1.822   9.317  0.1491 -0.2826  0.1884
 3957SOL    HW123333   0.711   1.907   9.335 -1.0207  0.3589 -0.2122
 3957SOL    HW223334   0.604   1.856   9.258  0.9115 -0.1807 -0.6014
 3958SOL     OW23335   3.396   3.235  11.946 -0.9463  0.1476  0.0596
 3958SOL    HW123336   3.390   3.142  11.970  0.3196  0.6392  2.3241
 3958SOL    HW223337   3.374   3.231  11.853  0.8335  1.1790 -0.4201
 3959SOL     OW23338   0.806   2.899   4.570  0.2025  0.2485 -0.2716
 3959SOL    HW123339   0.856   2.981   4.571  0.5477  0.0328  0.6735
 3959SOL    HW223340   0.820   2.873   4.662 -0.1940 -0.7116 -0.4807
 3960SOL     OW23341   0.443   3.287  10.163  0.2961 -0.1151 -0.0372
 3960SOL    HW123342   0.394   3.213  10.198 -0.1853 -1.9717 -4.6766
 3960SOL    HW223343   0.526   3.271  10.208  0.0232 -0.8320  0.2025
 3961SOL     OW23344   2.200   0.109   8.209 -0.0948  0.1305  0.3858
 3961SOL    HW123345   2.114   0.083   8.243  0.9178  0.0824  2.9499
 3961SOL    HW223346   2.240   0.026   8.185 -0.2611  0.6109 -1.5796
 3962SOL     OW23347   1.428   2.014  10.861  0.1037  0.2091  0.3526
 3962SOL    HW123348   1.433   2.065  10.780  0.4125  2.8094  1.9999
 3962SOL    HW223349   1.369   2.074  10.907  0.0450  0.1395  0.3676
 3963SOL     OW23350   0.698   0.951   4.172  0.3004  0.1877  0.0016
 3963SOL    HW123351   0.758   0.917   4.106 -2.4071 -4.0780 -0.2597
 3963SOL    HW223352   0.671   1.023   4.116 -0.7990  0.0259  0.3223
 3964SOL     OW23353   4.559   0.969   7.132 -0.2400 -0.1903 -0.1551
 3964SOL    HW123354   4.641   0.924   7.150 -1.4740 -2.5454 -0.4617
 3964SOL    HW223355   4.510   0.906   7.079 -0.3235  0.7664 -1.2381
 3965SOL     OW23356   1.830   4.375   3.385 -0.1677 -0.2819 -0.4531
 3965SOL    HW123357   1.752   4.405   3.337  0.5684 -0.2444 -1.6233
 3965SOL    HW223358   1.892   4.332   3.326  0.6208  2.3952 -1.6191
 3966SOL     OW23359   2.003   0.879   9.326 -0.1663 -0.7712  0.1605
 3966SOL    HW123360   1.912   0.895   9.352  0.4371 -0.4859  2.0816
 3966SOL    HW223361   2.000   0.783   9.327 -2.0667 -0.6919  2.6206
 3967SOL     OW23362   4.430   0.658   5.679 -0.2664  0.4572  0.4986
 3967SOL    HW123363   4.518   0.620   5.686 -1.6550 -2.2818  2.7583
 3967SOL    HW223364   4.427   0.742   5.724 -0.2346 -0.7158  2.6712
 3968SOL     OW23365   4.144   3.712   3.549  0.2231  0.3476 -0.3676
 3968SOL    HW123366   4.149   3.807   3.552 -2.9657  0.4971 -0.2879
 3968SOL    HW223367   4.050   3.694   3.542  0.1377 -0.1144  1.9163
 3969SOL     OW23368   0.299   4.434   7.760  0.3214  0.2632 -0.2882
 3969SOL    HW123369   0.338   4.512   7.718  0.2962 -0.1226 -1.0239
 3969SOL    HW223370   0.267   4.468   7.844  0.6365 -2.0157  0.7322
 3970SOL     OW23371   1.973   2.901   8.490 -0.2075  0.4168 -0.1894
 3970SOL    HW123372   1.942   2.953   8.416 -1.6144  0.6345  0.5571
 3970SOL    HW223373   2.068   2.906   8.476  0.1394 -2.1203  1.2342
 3971SOL     OW23374   2.412   0.042   6.440  0.4643 -0.1964  0.2541
 3971SOL    HW123375   2.339   0.077   6.491  0.4550  1.0974 -0.6484
 3971SOL    HW223376   2.467   0.120   6.431  0.5474 -0.2351  0.4196
 3972SOL     OW23377   2.893   0.041  13.069  0.0445  1.0997  0.2892
 3972SOL    HW123378   2.950   0.118  13.074 -1.3319  1.9672  2.3868
 3972SOL    HW223379   2.954   4.700  13.110 -0.4508 -1.1723 -2.3420
 3973SOL     OW23380   2.179   3.064   4.107  0.0474 -0.2602  0.0754
 3973SOL    HW123381   2.191   3.097   4.196 -1.4106  1.1640 -0.2682
 3973SOL    HW223382   2.095   3.103   4.084 -0.4151 -1.5132 -0.3809
 3974SOL     OW23383   4.550   1.234   4.199 -0.0018 -0.4565  0.1688
 3974SOL    HW123384   4.520   1.165   4.139 -0.0622 -0.4782  0.2243
 3974SOL    HW223385   4.638   1.244   4.164  0.5156  0.6871  1.8314
 3975SOL     OW23386   1.985   1.922   4.099 -0.5328 -0.3460  0.3647
 3975SOL    HW123387   1.921   1.945   4.167  1.4606  1.4260  1.6610
 3975SOL    HW223388   1.951   1.964   4.020 -1.0990 -1.6332 -0.0768
 3976SOL     OW23389   1.639   1.872   9.047 -0.7520 -0.0833  0.0630
 3976SOL    HW123390   1.550   1.905   9.061 -0.2980  0.2402  2.1645
 3976SOL    HW223391   1.672   1.935   8.982  0.2448 -0.4868  0.1933
 3977SOL     OW23392   3.138   0.248   1.121  0.1699 -0.4970 -0.2102
 3977SOL    HW123393   3.221   0.221   1.160  0.0162 -0.3164  0.2506
 3977SOL    HW223394   3.156   0.341   1.104  0.9754 -0.6946 -0.4312
 3978SOL     OW23395   1.963   2.384   0.309 -0.0678 -0.0402  0.0130
 3978SOL    HW123396   1.951   2.426   0.223  0.3210  0.0427  0.0009
 3978SOL    HW223397   2.058   2.387   0.321  0.0607 -0.1080 -0.9866
 3979SOL     OW23398   2.353   4.187  16.699 -0.5510  0.0069  0.9186
 3979SOL    HW123399   2.356   4.190  16.603  1.4438  1.8823  1.0246
 3979SOL    HW223400   2.266   4.210  16.731 -1.3897 -0.6575 -0.8774
 3980SOL     OW23401   0.709   1.678  15.373  0.7161  0.3429 -0.3566
 3980SOL    HW123402   0.616   1.657  15.385  1.2109 -0.7856  1.6133
 3980SOL    HW223403   0.698   1.773  15.375  1.6518  0.4125  1.4592
 3981SOL     OW23404   2.815   3.353   3.409 -0.1491  0.0591 -1.0779
 3981SOL    HW123405   2.891   3.303   3.379 -0.7994 -0.0727 -2.4632
 3981SOL    HW223406   2.800   3.318   3.497 -0.4980  0.1069 -1.1200
 3982SOL     OW23407   3.513   1.450   1.667  0.5109  0.4388 -0.4167
 3982SOL    HW123408   3.491   1.393   1.741  0.0338  0.1113 -0.8081
 3982SOL    HW223409   3.435   1.506   1.665  0.2159  0.0755  0.9078
 3983SOL     OW23410   1.001   1.620   1.918 -0.1342  0.5723  0.3236
 3983SOL    HW123411   1.077   1.562   1.920 -0.8428 -0.4160 -1.6318
 3983SOL    HW223412   1.045   1.692   1.965 -1.3726  1.1260  0.6375
 3984SOL     OW23413   0.665   3.333   4.079 -0.1163 -0.2359  0.5010
 3984SOL    HW123414   0.605   3.258   4.079 -0.8854  0.3768  2.3218
 3984SOL    HW223415   0.729   3.312   4.012 -1.4146 -1.2888 -0.4005
 3985SOL     OW23416   3.463   3.304  12.189  0.1349 -0.1191  0.3308
 3985SOL    HW123417   3.401   3.376  12.203 -1.2509 -1.4277  0.9277
 3985SOL    HW223418   3.455   3.304  12.094  0.2862  1.3126  0.3214
 3986SOL     OW23419   3.106   4.127   6.444  0.3121  0.1935 -0.2222
 3986SOL    HW123420   3.196   4.110   6.470 -0.1262  1.0725  1.8170
 3986SOL    HW223421   3.114   4.159   6.354 -2.2648 -1.1051 -0.8976
 3987SOL     OW23422   3.709   1.290   5.397 -0.7423  0.0770 -0.3565
 3987SOL    HW123423   3.629   1.328   5.359 -1.9916 -0.8973  1.2960
 3987SOL    HW223424   3.727   1.213   5.344  0.2552  0.7852 -1.0487
 3988SOL     OW23425   3.749   3.966   9.169  0.5468 -0.2521 -0.5986
 3988SOL    HW123426   3.809   3.892   9.164 -0.4270 -0.9897 -1.2462
 3988SOL    HW223427   3.763   3.990   9.261 -0.8614  1.1619 -0.7574
 3989SOL     OW23428   1.285   0.769   3.522 -0.2696  0.3645 -0.4921
 3989SOL    HW123429   1.286   0.783   3.427  2.6306 -0.9405 -0.6431
 3989SOL    HW223430   1.200   0.807   3.542  0.5157  1.1322  1.3159
 3990SOL     OW23431   0.691   1.922  15.932 -0.2689 -0.0244  0.0681
 3990SOL    HW123432   0.694   1.880  15.847 -1.2767  4.0140 -1.9921
 3990SOL    HW223433   0.681   2.014  15.905 -0.5930 -0.4386 -1.2152
 3991SOL     OW23434   3.947   2.210   2.445 -0.2003  0.1740  0.2261
 3991SOL    HW123435   3.993   2.246   2.369 -1.0705  0.9410  0.0673
 3991SOL    HW223436   4.008   2.143   2.477  1.1801  0.3616 -2.0312
 3992SOL     OW23437   1.849   1.141   3.390 -0.8831  0.3088 -0.2494
 3992SOL    HW123438   1.795   1.220   3.396  0.1272  0.9683  0.2299
 3992SOL    HW223439   1.844   1.108   3.479  0.7383  1.2590  0.1843
 3993SOL     OW23440   2.262   4.279   3.330  0.1709 -0.6059  0.2017
 3993SOL    HW123441   2.302   4.361   3.359 -1.2273  0.3142 -0.5211
 3993SOL    HW223442   2.335   4.225   3.298  1.1198  1.1204 -0.5120
 3994SOL     OW23443   0.082   0.296  16.092  0.1800  0.2975  0.6463
 3994SOL    HW123444   0.162   0.249  16.067  1.1381  1.5440  1.3897
 3994SOL    HW223445   0.091   0.292  16.187  1.0737 -0.9652  0.5033
 3995SOL     OW23446   3.582   1.633   5.363  0.0154  0.1463  0.1540
 3995SOL    HW123447   3.560   1.581   5.440  0.0937  0.8768  0.6749
 3995SOL    HW223448   3.676   1.651   5.370  0.2830 -1.7392  1.2071
 3996SOL     OW23449   1.168   3.399   4.867 -0.2575  0.4763  0.3058
 3996SOL    HW123450   1.175   3.489   4.899  2.2262  0.0610  0.9647
 3996SOL    HW223451   1.261   3.376   4.872 -1.0082 -2.3061  1.7174
 3997SOL     OW23452   1.703   1.210  12.780 -0.4313 -0.1772  0.2637
 3997SOL    HW123453   1.636   1.145  12.762 -0.7524 -0.1474  1.4002
 3997SOL    HW223454   1.641   1.282  12.793  0.0605  0.1406  0.8697
 3998SOL     OW23455   4.000   4.560   3.114 -0.4787  0.1096 -0.5706
 3998SOL    HW123456   3.935   4.595   3.053  0.4392  2.8514  0.0358
 3998SOL    HW223457   3.982   4.599   3.199  2.6306  0.1017  0.0989
 3999SOL     OW23458   4.343   0.784   0.734 -0.3002  0.1427 -0.3178
 3999SOL    HW123459   4.394   0.725   0.789 -0.6879 -0.2094 -0.3391
 3999SOL    HW223460   4.404   0.786   0.660 -0.6766  0.2350 -0.6287
 4000SOL     OW23461   1.325   3.510   6.326 -0.5137 -0.2870 -0.2412
 4000SOL    HW123462   1.289   3.582   6.274 -0.4018 -2.1466 -2.8588
 4000SOL    HW223463   1.419   3.531   6.330 -0.6320  0.0512  1.0791
 4001SOL     OW23464   1.372   1.035   0.681  0.2065 -0.0844  0.4123
 4001SOL    HW123465   1.278   1.019   0.668 -0.6173  2.7250  2.8339
 4001SOL    HW223466   1.389   0.973   0.752  1.1251 -1.2824 -0.8584
 4002SOL     OW23467   0.627   2.857   5.840 -0.4223 -0.3302 -0.5938
 4002SOL    HW123468   0.581   2.839   5.757 -0.3376  0.8277 -0.8968
 4002SOL    HW223469   0.615   2.772   5.882 -1.0496 -0.5623 -1.2299
 4003SOL     OW23470   3.733   1.602   8.966  0.2181  0.0441  0.1776
 4003SOL    HW123471   3.819   1.587   9.005  0.5402 -1.3960 -1.0656
 4003SOL    HW223472   3.726   1.521   8.916 -3.2326 -0.9672  2.3273
 4004SOL     OW23473   3.694   2.284   2.410  0.1958 -0.0366  0.7176
 4004SOL    HW123474   3.738   2.239   2.481  0.8583  0.4140  0.5877
 4004SOL    HW223475   3.746   2.260   2.333  0.9104  3.1280  0.2080
 4005SOL     OW23476   0.572   1.736  15.079  0.0939  0.1932 -0.3659
 4005SOL    HW123477   0.597   1.645  15.095 -0.3509  0.0252 -0.6243
 4005SOL    HW223478   0.630   1.753  15.005 -1.7808  1.3017 -1.5886
 4006SOL     OW23479   2.412   4.407   4.867  0.3928  0.1099 -0.1362
 4006SOL    HW123480   2.324   4.441   4.886 -0.3903 -2.9731  1.7322
 4006SOL    HW223481   2.459   4.488   4.846 -0.5671  1.0743  1.4112
 4007SOL     OW23482   2.981   1.978   8.741 -0.3165  0.2534 -0.1062
 4007SOL    HW123483   2.900   2.004   8.697 -0.2655 -2.3079 -1.6868
 4007SOL    HW223484   3.016   1.903   8.693  0.2474  0.1144  0.5133
 4008SOL     OW23485   3.800   1.851   2.851 -0.2532 -0.2761  0.7786
 4008SOL    HW123486   3.765   1.901   2.925 -1.0081  0.4019 -0.0337
 4008SOL    HW223487   3.745   1.876   2.777  0.6897 -0.4622  0.0036
 4009SOL     OW23488   2.077   2.844   7.837  0.6968  0.3687 -0.6074
 4009SOL    HW123489   2.024   2.823   7.760  3.8115  0.6373 -2.8372
 4009SOL    HW223490   2.019   2.824   7.911  1.3236 -0.5494 -0.3712
 4010SOL     OW23491   2.339   2.845   8.950 -0.4766  0.1665  0.6963
 4010SOL    HW123492   2.269   2.821   9.010 -0.3589  0.3248  0.9006
 4010SOL    HW223493   2.402   2.773   8.959 -0.4219 -0.3227 -3.5395
 4011SOL     OW23494   0.661   2.771   4.081  0.6547  0.5439 -0.9835
 4011SOL    HW123495   0.576   2.727   4.073  1.3714 -1.5125  2.6901
 4011SOL    HW223496   0.697   2.734   4.162 -2.9825  1.2077  0.9505
 4012SOL     OW23497   0.354   1.201   7.648  0.0151 -0.6372  0.1447
 4012SOL    HW123498   0.394   1.260   7.712 -2.6121  1.9720 -0.6402
 4012SOL    HW223499   0.432   1.164   7.606  1.6242  0.5978  2.0637
 4013SOL     OW23500   2.433   0.441   9.822  0.4457 -0.1228  0.1704
 4013SOL    HW123501   2.340   0.459   9.812  0.1667 -1.9356 -0.3967
 4013SOL    HW223502   2.451   0.494   9.900 -4.1698 -1.6922  2.3403
 4014SOL     OW23503   1.477   3.567   8.611  0.3218  0.4178  0.3324
 4014SOL    HW123504   1.567   3.539   8.591  0.1618 -0.7559  1.3194
 4014SOL    HW223505   1.496   3.642   8.667  0.6572  0.8469 -0.3551
 4015SOL     OW23506   4.082   1.444   7.935 -0.2842  0.1484 -0.0830
 4015SOL    HW123507   4.073   1.386   8.011  0.0747  0.6219  0.3228
 4015SOL    HW223508   4.123   1.515   7.986  1.9852 -1.0122 -0.2956
 4016SOL     OW23509   2.855   2.937   1.206  0.4291 -0.1575  0.2268
 4016SOL    HW123510   2.942   2.978   1.208 -0.7269  2.2717 -0.3825
 4016SOL    HW223511   2.827   2.945   1.297 -0.5944  2.2234 -0.2953
 4017SOL     OW23512   2.617   2.148  15.177  0.3831  0.5316  0.7554
 4017SOL    HW123513   2.633   2.243  15.177 -0.6155  0.6829 -1.1748
 4017SOL    HW223514   2.595   2.116  15.090  2.0880 -0.5195  0.6913
 4018SOL     OW23515   2.168   4.524   6.078 -0.1128  0.0253 -0.2268
 4018SOL    HW123516   2.088   4.498   6.032 -0.2156 -0.6962  0.3613
 4018SOL    HW223517   2.141   4.513   6.169  0.4097 -0.9096 -0.1947
 4019SOL     OW23518   1.134   4.443   2.180  0.0530 -0.2691  0.7570
 4019SOL    HW123519   1.130   4.360   2.228 -0.7929  0.8862  2.6803
 4019SOL    HW223520   1.210   4.421   2.127 -0.6812  0.4315 -0.6034
 4020SOL     OW23521   0.351   0.763   7.109  0.1189 -0.0733  0.3990
 4020SOL    HW123522   0.306   0.832   7.060 -2.1382 -1.3962  0.6205
 4020SOL    HW223523   0.425   0.821   7.132 -0.2385 -0.7286  3.2493
 4021SOL     OW23524   3.858   1.903   5.726 -0.0035  0.0483  0.4356
 4021SOL    HW123525   3.891   1.824   5.683  0.5618  0.6247 -0.1886
 4021SOL    HW223526   3.774   1.873   5.761 -0.4690 -2.3589 -2.7162
 4022SOL     OW23527   0.284   3.056   2.019 -0.4918  0.2877 -0.2742
 4022SOL    HW123528   0.284   2.989   2.087  2.2256 -1.0011 -1.5339
 4022SOL    HW223529   0.349   3.115   2.057 -1.3845 -0.5316  2.4774
 4023SOL     OW23530   3.824   1.541  16.428 -0.0446  0.5717 -1.0525
 4023SOL    HW123531   3.913   1.564  16.456 -0.0052  2.5453 -2.8131
 4023SOL    HW223532   3.828   1.539  16.332 -1.6793  0.5202 -1.1145
 4024SOL     OW23533   0.215   0.872   6.613  0.1571 -0.1120 -0.3130
 4024SOL    HW123534   0.159   0.932   6.662 -1.7377 -1.2929 -1.0551
 4024SOL    HW223535   0.189   0.787   6.649 -0.5334 -0.2207 -1.0686
 4025SOL     OW23536   3.011   4.081  16.410 -0.2518 -0.2842 -0.5366
 4025SOL    HW123537   2.934   4.133  16.434 -0.0508  0.2618 -1.0608
 4025SOL    HW223538   2.970   3.995  16.403 -1.4357  0.1615  0.9773
 4026SOL     OW23539   1.031   3.919   3.696  0.0827 -0.1699 -0.3957
 4026SOL    HW123540   1.034   3.848   3.759 -1.4916  0.2884  0.1845
 4026SOL    HW223541   1.104   3.977   3.718 -1.7415  1.1179  2.3000
 4027SOL     OW23542   2.325   4.121  17.601  0.0280 -0.3266 -0.5337
 4027SOL    HW123543   2.404   4.169  17.628 -1.8602  2.9705 -0.9168
 4027SOL    HW223544   2.316   4.066  17.678 -1.4723  1.8292  0.8468
 4028SOL     OW23545   3.688   3.328   4.345  0.2639 -0.3454 -0.5625
 4028SOL    HW123546   3.660   3.382   4.272 -1.2726 -0.1635  0.1736
 4028SOL    HW223547   3.782   3.318   4.327 -0.0725 -1.3115 -1.7729
 4029SOL     OW23548   4.416   1.367   8.034  0.2877  0.0676  0.0791
 4029SOL    HW123549   4.331   1.351   8.074  1.2443 -0.5035  1.8606
 4029SOL    HW223550   4.459   1.282   8.035  2.3432  1.1211  0.8466
 4030SOL     OW23551   2.898   1.391   0.388 -0.3854 -0.2441  0.3890
 4030SOL    HW123552   2.944   1.309   0.406 -0.6018  0.4432  4.1457
 4030SOL    HW223553   2.810   1.353   0.394 -0.7317 -0.0452 -3.5916
 4031SOL     OW23554   1.806   2.037   5.613  0.2444  0.2032  0.7244
 4031SOL    HW123555   1.900   2.024   5.628  0.0870 -1.9454 -0.1304
 4031SOL    HW223556   1.803   2.090   5.534 -3.3905  0.9961  1.3920
 4032SOL     OW23557   4.570   2.323  14.008 -0.0733  0.0113 -0.6857
 4032SOL    HW123558   4.612   2.237  14.009 -0.3546 -0.1344 -1.1939
 4032SOL    HW223559   4.528   2.319  13.922  0.8259 -0.8348 -1.0897
 4033SOL     OW23560   2.073   4.487   2.111 -0.2654 -0.1615  0.1428
 4033SOL    HW123561   2.024   4.430   2.171 -1.8807  1.2410  0.1293
 4033SOL    HW223562   2.008   4.557   2.108  0.1173  0.2325  1.1160
 4034SOL     OW23563   3.287   1.824   2.367  0.2941 -0.2133 -0.5606
 4034SOL    HW123564   3.288   1.829   2.272  0.5711 -0.5398 -0.5753
 4034SOL    HW223565   3.374   1.785   2.381 -1.1260 -2.5962  1.6021
 4035SOL     OW23566   0.543   2.391   9.071 -0.4714  0.0106 -0.4587
 4035SOL    HW123567   0.469   2.335   9.045  0.8348 -1.8562 -0.1785
 4035SOL    HW223568   0.593   2.383   8.990  1.8521  2.0215  0.7860
 4036SOL     OW23569   2.820   1.470   2.266  0.2632 -0.6232  0.1888
 4036SOL    HW123570   2.770   1.435   2.192 -0.6808 -0.6730  0.8613
 4036SOL    HW223571   2.856   1.392   2.307  1.3687 -0.2404 -0.0457
 4037SOL     OW23572   2.998   0.342   5.292 -0.2272 -0.1209 -0.0441
 4037SOL    HW123573   2.942   0.405   5.339  0.0138  1.0339 -1.2929
 4037SOL    HW223574   3.038   0.409   5.236  2.6781  0.4453  2.6703
 4038SOL     OW23575   0.749   0.492   6.282  0.6764  0.3532  0.2806
 4038SOL    HW123576   0.780   0.507   6.372  0.8580  0.4951  0.1952
 4038SOL    HW223577   0.800   0.416   6.255 -2.2971 -1.2817 -0.6778
 4039SOL     OW23578   1.610   2.006   3.532 -0.7042  0.2367 -0.3229
 4039SOL    HW123579   1.604   2.035   3.441  1.4565 -1.7617 -1.0734
 4039SOL    HW223580   1.603   2.088   3.582  0.1491 -0.0864  0.3210
 4040SOL     OW23581   1.077   2.548   6.397  0.0487  0.0816 -0.1074
 4040SOL    HW123582   1.098   2.464   6.356 -1.2656  0.6549 -1.9867
 4040SOL    HW223583   1.148   2.596   6.355 -0.0459 -1.3223 -1.8979
 4041SOL     OW23584   1.581   0.782   1.086 -0.3815  0.2928 -0.9512
 4041SOL    HW123585   1.528   0.825   1.153  1.2423  1.1049 -0.1816
 4041SOL    HW223586   1.661   0.833   1.073  1.2766 -2.3117 -0.9543
 4042SOL     OW23587   3.331   2.710   3.264 -0.2154  0.2052 -0.2295
 4042SOL    HW123588   3.424   2.734   3.274 -0.6063  1.4629  0.3383
 4042SOL    HW223589   3.307   2.686   3.354 -1.5862 -0.0324 -0.6586
 4043SOL     OW23590   3.495   3.920  10.993  0.2820  0.4183  0.1159
 4043SOL    HW123591   3.497   3.920  10.897  0.3082 -0.4832  0.1140
 4043SOL    HW223592   3.554   3.993  11.010 -0.4884  1.1126 -0.2186
 4044SOL     OW23593   4.078   0.271   3.039 -0.4172  0.3076  0.2600
 4044SOL    HW123594   3.996   0.272   3.089 -0.2928  0.1800  0.4652
 4044SOL    HW223595   4.109   0.360   3.057  0.3493 -0.0811  0.8471
 4045SOL     OW23596   0.213   2.707  16.564  0.0439  0.0156 -0.6233
 4045SOL    HW123597   0.296   2.717  16.611  0.7668  0.5342 -1.9941
 4045SOL    HW223598   0.176   2.794  16.556 -3.2693 -1.4006 -0.6070
 4046SOL     OW23599   3.086   0.180  15.486 -0.1665 -0.2566 -0.1668
 4046SOL    HW123600   3.131   0.244  15.541  0.1368 -0.4481 -0.1915
 4046SOL    HW223601   3.094   0.102  15.542  1.2651 -2.3179 -3.2269
 4047SOL     OW23602   0.563   0.142   3.167 -0.3717  0.7356 -0.3055
 4047SOL    HW123603   0.483   0.095   3.192 -1.5005  2.9161  0.1230
 4047SOL    HW223604   0.527   0.226   3.139  0.0926  0.4917 -1.6389
 4048SOL     OW23605   3.444   0.714   3.868  0.6278  0.1198  0.7470
 4048SOL    HW123606   3.452   0.806   3.893 -0.1495  0.1209  0.9726
 4048SOL    HW223607   3.493   0.666   3.935  0.7241 -0.2988  0.3832
 4049SOL     OW23608   0.128   3.815  11.458 -0.1090  0.2942  0.2229
 4049SOL    HW123609   0.212   3.837  11.418  0.9157  0.6334  2.5693
 4049SOL    HW223610   0.075   3.879  11.410  1.3277  1.9774  0.8844
 4050SOL     OW23611   1.453   0.703   3.150 -0.7317 -0.4437 -0.2130
 4050SOL    HW123612   1.543   0.701   3.116 -1.5563  1.3438 -2.5288
 4050SOL    HW223613   1.405   0.672   3.073 -1.9465  1.1978 -0.1086
 4051SOL     OW23614   3.486   2.726  14.049 -0.2051  0.2018  0.1509
 4051SOL    HW123615   3.513   2.771  14.129 -1.4234  0.5410  0.3615
 4051SOL    HW223616   3.420   2.666  14.081 -0.4635  1.1271  1.3274
 4052SOL     OW23617   0.900   3.539  15.022 -0.3980 -0.0250  0.2873
 4052SOL    HW123618   0.903   3.622  15.069  1.0733  0.5248 -0.7816
 4052SOL    HW223619   0.809   3.514  15.037 -0.1956  0.1192  1.7806
 4053SOL     OW23620   0.697   0.324   1.254  0.2159 -0.7690 -0.0696
 4053SOL    HW123621   0.617   0.324   1.306  0.8750 -1.9771  0.9654
 4053SOL    HW223622   0.659   0.320   1.167  1.3567 -2.4736 -0.5086
 4054SOL     OW23623   1.838   3.166   8.935  0.7436  0.1646  0.3291
 4054SOL    HW123624   1.891   3.203   9.006 -0.0306  0.4677  0.7472
 4054SOL    HW223625   1.852   3.228   8.863 -2.1583  2.0091  1.3609
 4055SOL     OW23626   4.507   2.941   2.622  0.0379  0.0272 -0.9887
 4055SOL    HW123627   4.570   2.968   2.689  1.6556 -1.5369 -1.8689
 4055SOL    HW223628   4.523   3.018   2.569 -1.2425  1.8406  1.2687
 4056SOL     OW23629   3.481   3.985   4.873  0.2825  0.3031 -0.3403
 4056SOL    HW123630   3.502   3.892   4.880  4.0267  1.1144 -1.1456
 4056SOL    HW223631   3.504   4.000   4.781 -2.1602 -0.4883 -1.0852
 4057SOL     OW23632   1.091   1.103   6.084 -0.0343 -0.6073  0.3935
 4057SOL    HW123633   1.100   1.036   6.017  0.4003 -1.3675  1.2047
 4057SOL    HW223634   1.165   1.081   6.141  0.2427  2.2843  1.1734
 4058SOL     OW23635   0.248   1.704   4.475  0.4321 -0.3104  0.2715
 4058SOL    HW123636   0.249   1.768   4.404  0.3641 -0.6827 -0.0606
 4058SOL    HW223637   0.320   1.648   4.446 -0.3606 -1.8928  1.3787
 4059SOL     OW23638   0.748   3.506  15.838  0.1335 -0.1755 -0.3491
 4059SOL    HW123639   0.739   3.467  15.925 -1.8431 -0.3821 -0.6597
 4059SOL    HW223640   0.832   3.548  15.855  0.5390 -0.2579 -2.1233
 4060SOL     OW23641   3.781   0.239   7.039  0.0833 -0.3446 -0.3039
 4060SOL    HW123642   3.758   0.332   7.029  4.5809  0.6019 -1.7333
 4060SOL    HW223643   3.875   0.243   7.023  0.5741 -1.5934  2.3947
 4061SOL     OW23644   3.846   4.318  12.813  0.0955 -0.0574  0.1613
 4061SOL    HW123645   3.778   4.360  12.760  0.8902 -2.2402 -2.5639
 4061SOL    HW223646   3.830   4.365  12.895 -2.1208 -0.9654  0.2453
 4062SOL     OW23647   0.293   0.046   3.317 -0.2080 -0.2253  0.8663
 4062SOL    HW123648   0.249   0.087   3.243  0.0702  0.4918  1.0950
 4062SOL    HW223649   0.214   0.020   3.363  0.8235 -1.9623  1.6668
 4063SOL     OW23650   4.649   2.899   1.484 -0.0554  0.2043 -0.4826
 4063SOL    HW123651   4.706   2.922   1.557  0.4433 -1.7467 -0.2693
 4063SOL    HW223652   4.626   2.987   1.452  0.9718 -0.5023 -3.1611
 4064SOL     OW23653   0.278   0.779   8.700 -0.1351 -0.4155 -0.1511
 4064SOL    HW123654   0.250   0.690   8.720 -2.5700  0.3433 -0.0496
 4064SOL    HW223655   0.200   0.825   8.734  0.0514  1.0383 -1.6998
 4065SOL     OW23656   1.198   4.337   5.802 -0.4066 -0.6970 -0.5192
 4065SOL    HW123657   1.170   4.342   5.894  0.5336  1.1021 -0.3372
 4065SOL    HW223658   1.221   4.244   5.798  3.2029  0.2188 -0.6507
 4066SOL     OW23659   2.502   4.255   2.386  0.6185  0.3530  0.4344
 4066SOL    HW123660   2.543   4.339   2.405  1.8942 -0.7801  2.5891
 4066SOL    HW223661   2.418   4.266   2.430  1.9898  0.2367  3.0470
 4067SOL     OW23662   3.818   2.145   6.690 -0.3284 -0.2553  0.5143
 4067SOL    HW123663   3.781   2.120   6.775  0.7687 -0.0917  1.0471
 4067SOL    HW223664   3.889   2.208   6.704  0.4691 -0.9873 -0.1495
 4068SOL     OW23665   4.026   0.165   3.719 -0.4967 -0.4159 -0.2676
 4068SOL    HW123666   3.954   0.133   3.773 -0.8328 -1.5577 -1.4068
 4068SOL    HW223667   4.036   0.249   3.765  1.1154 -0.0934 -1.2045
 4069SOL     OW23668   3.191   3.094   8.670  0.5461  0.0045  0.2541
 4069SOL    HW123669   3.256   3.094   8.599  0.4278 -0.5908  0.1441
 4069SOL    HW223670   3.121   3.154   8.645 -1.1121 -1.7220  0.8351
 4070SOL     OW23671   0.509   4.376   3.129 -0.2231 -0.6273  0.7651
 4070SOL    HW123672   0.450   4.451   3.127 -0.1946 -0.6280 -0.3084
 4070SOL    HW223673   0.505   4.345   3.038  0.4737 -0.2923  0.6129
 4071SOL     OW23674   1.943   0.553  12.110  0.3938  0.5300 -0.1023
 4071SOL    HW123675   2.038   0.560  12.116  0.3783  0.7620 -0.1399
 4071SOL    HW223676   1.913   0.643  12.099 -0.3826  0.4870  1.5922
 4072SOL     OW23677   1.329   3.406   2.449 -0.2429  0.0628  0.8642
 4072SOL    HW123678   1.268   3.430   2.519 -0.6475  0.4173  0.3895
 4072SOL    HW223679   1.407   3.434   2.497  0.8893 -0.3973 -0.7205
 4073SOL     OW23680   3.838   2.301   8.826 -0.2231 -0.0307  0.0336
 4073SOL    HW123681   3.932   2.291   8.809 -0.4070 -0.8416 -0.5217
 4073SOL    HW223682   3.849   2.351   8.907  0.2081 -1.0558  0.6159
 4074SOL     OW23683   1.299   2.878   2.488  0.6458 -0.2835 -0.1401
 4074SOL    HW123684   1.266   2.863   2.400  0.3814  1.7735 -0.3916
 4074SOL    HW223685   1.308   2.973   2.478  2.5839 -0.7438 -2.6195
 4075SOL     OW23686   3.807   1.257   4.622 -0.4133  0.3283  0.4484
 4075SOL    HW123687   3.735   1.277   4.682  0.3620  0.7787  1.2186
 4075SOL    HW223688   3.880   1.269   4.683  0.7789  0.5413 -1.0222
 4076SOL     OW23689   3.731   0.986  10.293  0.8164  0.0198 -0.4321
 4076SOL    HW123690   3.758   0.928  10.221 -0.9134 -1.0016 -0.2836
 4076SOL    HW223691   3.749   0.933  10.371 -2.2247  0.7848  0.8014
 4077SOL     OW23692   1.042   3.873   9.245  0.1465  0.3204 -0.1573
 4077SOL    HW123693   1.102   3.869   9.320 -0.2121  1.4545  0.1940
 4077SOL    HW223694   0.963   3.835   9.283 -0.0890  0.4917 -0.4837
 4078SOL     OW23695   1.109   1.860  16.767 -0.2715  0.0461  0.2529
 4078SOL    HW123696   1.116   1.850  16.672  1.5681 -1.3102  0.5266
 4078SOL    HW223697   1.167   1.796  16.810  0.4673 -0.1002 -0.9808
 4079SOL     OW23698   2.995   2.247   3.903  0.1583  0.0359 -0.1756
 4079SOL    HW123699   3.050   2.221   3.828 -0.0030  0.7962 -0.5521
 4079SOL    HW223700   2.907   2.222   3.874 -0.4212  1.5805  0.2761
 4080SOL     OW23701   2.566   1.226   6.361 -0.1593 -0.7509  0.7518
 4080SOL    HW123702   2.646   1.208   6.410  0.3547  1.4338  0.7081
 4080SOL    HW223703   2.563   1.320   6.342 -0.9509 -0.7007  1.1097
 4081SOL     OW23704   0.296   1.200   9.482  0.2219  0.1184  0.5986
 4081SOL    HW123705   0.217   1.214   9.429  0.7653 -0.2753 -0.3166
 4081SOL    HW223706   0.297   1.288   9.519 -0.7739  0.7038 -0.7687
 4082SOL     OW23707   3.054   1.505  13.773 -0.1256 -0.4191 -0.3391
 4082SOL    HW123708   3.054   1.411  13.757  0.6435 -0.5052  0.2070
 4082SOL    HW223709   3.115   1.510  13.846 -1.7369  1.3727  0.8896
 4083SOL     OW23710   2.483   2.026  12.373  0.1999 -0.3275 -0.4487
 4083SOL    HW123711   2.419   1.960  12.400  0.5016  0.2219  1.5328
 4083SOL    HW223712   2.566   1.977  12.370  1.6797  2.0445  1.5558
 4084SOL     OW23713   2.759   1.892   7.742 -0.5717  0.0336 -0.0746
 4084SOL    HW123714   2.703   1.951   7.792 -0.0948 -2.0630  2.9298
 4084SOL    HW223715   2.713   1.807   7.745  1.4445 -0.9669  2.1713
 4085SOL     OW23716   0.346   1.238  13.889 -0.0101  0.3743 -0.7584
 4085SOL    HW123717   0.309   1.217  13.975 -2.2989 -3.0108 -2.5645
 4085SOL    HW223718   0.344   1.152  13.847  2.6957 -0.1787  0.1936
 4086SOL     OW23719   0.843   3.496   8.494 -0.0294 -0.2550  0.1531
 4086SOL    HW123720   0.795   3.440   8.555 -0.5146  1.5696  1.4426
 4086SOL    HW223721   0.896   3.542   8.560 -0.9861  0.0516  0.7085
 4087SOL     OW23722   1.248   2.849   4.163 -0.2901 -0.4375 -0.0367
 4087SOL    HW123723   1.171   2.896   4.195  0.6207  0.9798  0.0848
 4087SOL    HW223724   1.250   2.773   4.220 -0.2002  0.4430  1.1386
 4088SOL     OW23725   0.751   3.548   1.146  0.0314 -0.3522 -0.6495
 4088SOL    HW123726   0.797   3.533   1.229 -0.9740  0.4951  0.0664
 4088SOL    HW223727   0.668   3.504   1.162 -1.0491  2.0803  0.5205
 4089SOL     OW23728   4.363   1.763  10.587 -0.7478  0.1108  0.7527
 4089SOL    HW123729   4.432   1.703  10.616  1.2874  2.0320 -0.1183
 4089SOL    HW223730   4.387   1.796  10.500 -0.5799  1.0292  1.1521
 4090SOL     OW23731   2.784   3.927   8.924 -0.1382  0.0527  0.1488
 4090SOL    HW123732   2.856   3.963   8.872 -1.8150  0.6010 -1.7917
 4090SOL    HW223733   2.752   3.998   8.980 -0.0491  1.2519 -1.3099
 4091SOL     OW23734   3.131   4.462   3.513 -0.1426 -0.3271  0.1255
 4091SOL    HW123735   3.153   4.484   3.604 -2.1151  0.9677  0.2651
 4091SOL    HW223736   3.165   4.539   3.468 -2.1979  0.2788 -0.3519
 4092SOL     OW23737   0.640   0.267   9.480 -0.1250 -0.3026 -0.0093
 4092SOL    HW123738   0.620   0.324   9.554  0.5632 -1.2325  0.8913
 4092SOL    HW223739   0.562   0.212   9.481 -0.7044  0.5673  1.9494
 4093SOL     OW23740   1.015   2.209   4.047 -0.0737  0.1024  0.1202
 4093SOL    HW123741   1.065   2.154   4.108  1.5033  0.9932 -0.3702
 4093SOL    HW223742   0.966   2.268   4.104 -0.5831  0.9057 -1.1477
 4094SOL     OW23743   3.079   1.616   0.858 -0.5754  0.1459  0.2520
 4094SOL    HW123744   3.133   1.586   0.932  0.2557  0.6627 -0.1463
 4094SOL    HW223745   3.050   1.531   0.824 -0.5542  0.1905  0.1225
 4095SOL     OW23746   4.668   1.619  12.759 -0.0053  0.1696 -0.0732
 4095SOL    HW123747   4.600   1.607  12.693 -1.1940 -1.0579  1.3887
 4095SOL    HW223748   4.632   1.553  12.817  3.4240 -1.1734  0.5516
 4096SOL     OW23749   4.092   0.685  12.753 -0.0947  0.4709 -0.2783
 4096SOL    HW123750   4.131   0.649  12.673  2.3341  1.0354  0.6556
 4096SOL    HW223751   4.073   0.770  12.715  2.0054  1.6695  1.3656
 4097SOL     OW23752   2.222   0.291   7.916 -0.3492  0.3889  0.0402
 4097SOL    HW123753   2.162   0.233   7.869  0.1411 -0.9087  0.9890
 4097SOL    HW223754   2.307   0.253   7.892  0.0826  1.7580 -0.6000
 4098SOL     OW23755   0.046   3.581  11.271  0.0443 -0.2085 -0.1341
 4098SOL    HW123756   4.707   3.622  11.208 -0.1468  2.5747  1.8595
 4098SOL    HW223757   0.056   3.499  11.222 -0.6381 -0.9568  0.9796
 4099SOL     OW23758   3.768   1.504   3.427  0.1728 -0.4925 -0.0230
 4099SOL    HW123759   3.699   1.571   3.434  0.2414 -0.3807 -0.4110
 4099SOL    HW223760   3.731   1.439   3.486  0.1140 -2.1041 -1.8354
 4100SOL     OW23761   3.802   2.849  16.043  0.3643 -0.1877 -0.2895
 4100SOL    HW123762   3.737   2.821  15.979 -0.4570  2.0881 -0.4465
 4100SOL    HW223763   3.867   2.904  16.001  1.8364 -1.1929  0.6687
 4101SOL     OW23764   0.528   4.624   2.886 -0.0950  0.0065  0.4637
 4101SOL    HW123765   0.500   4.633   2.795  0.7671  0.0904  0.2122
 4101SOL    HW223766   0.454   4.586   2.934 -0.1889 -0.5860 -0.1474
 4102SOL     OW23767   0.343   3.092   7.230 -0.6234 -0.4677  0.2320
 4102SOL    HW123768   0.424   3.078   7.181 -0.5814  1.9201 -0.3788
 4102SOL    HW223769   0.363   3.049   7.313 -0.5379  0.1154  0.5137
 4103SOL     OW23770   0.223   3.607   5.638  0.4193  0.5405  0.5989
 4103SOL    HW123771   0.268   3.690   5.655  1.2399  0.5810 -1.8553
 4103SOL    HW223772   0.289   3.559   5.589 -2.1261 -0.4393 -1.8660
 4104SOL     OW23773   4.581   4.203   7.390 -0.2039  0.9481  0.8609
 4104SOL    HW123774   4.655   4.157   7.430 -0.1722  0.1381 -0.1385
 4104SOL    HW223775   4.513   4.200   7.458 -2.6628 -0.4761 -1.6622
 4105SOL     OW23776   1.162   3.490  14.200  0.5167  0.6625 -0.3045
 4105SOL    HW123777   1.111   3.544  14.260 -0.8562 -0.8621 -0.1104
 4105SOL    HW223778   1.152   3.545  14.122 -0.0001 -0.1682 -0.8132
 4106SOL     OW23779   0.658   1.305  16.544 -0.4245  0.1010 -0.2174
 4106SOL    HW123780   0.702   1.388  16.559 -1.2599  0.3113  1.0367
 4106SOL    HW223781   0.701   1.261  16.470 -0.2036  1.8396 -1.1160
 4107SOL     OW23782   3.456   3.676  11.624  0.2453  0.6321  0.7624
 4107SOL    HW123783   3.394   3.651  11.692  0.6658 -2.5634 -0.0134
 4107SOL    HW223784   3.460   3.594  11.575  1.2428  1.3177 -0.3014
 4108SOL     OW23785   0.970   4.035  12.591 -0.8415 -0.4661  0.1718
 4108SOL    HW123786   0.959   4.130  12.592 -1.3697 -0.5106 -0.6315
 4108SOL    HW223787   1.065   4.026  12.587 -0.7047  1.3018 -0.8635
 4109SOL     OW23788   4.588   2.049  10.736 -0.1731  0.4492 -0.5198
 4109SOL    HW123789   4.592   1.972  10.794  1.5290 -0.0000 -1.2301
 4109SOL    HW223790   4.594   2.015  10.647 -0.8241 -1.5038  0.1595
 4110SOL     OW23791   2.766   3.022  16.810 -0.3888  0.0388 -0.1726
 4110SOL    HW123792   2.858   3.050  16.806 -0.2154 -0.6368 -0.8339
 4110SOL    HW223793   2.766   2.928  16.828 -0.8109  0.1327  0.3433
 4111SOL     OW23794   0.050   1.958   7.017 -0.7294 -0.1803  0.2047
 4111SOL    HW123795   0.075   2.046   6.989 -2.7561  0.6086  0.8894
 4111SOL    HW223796   0.087   1.980   7.102  0.3674 -2.3528  0.2855
 4112SOL     OW23797   3.438   1.490   3.597 -0.3168 -0.3397  0.1898
 4112SOL    HW123798   3.487   1.442   3.531  1.4397  0.1545  1.1082
 4112SOL    HW223799   3.440   1.435   3.675 -0.2467  1.7369  1.6800
 4113SOL     OW23800   4.216   4.310   6.152 -0.0430  0.3910  0.1289
 4113SOL    HW123801   4.181   4.276   6.234 -1.6748  4.3983  1.1166
 4113SOL    HW223802   4.131   4.344   6.123  0.6523  0.9044 -1.3117
 4114SOL     OW23803   4.422   1.829  10.325 -0.5626  0.4367 -0.7520
 4114SOL    HW123804   4.350   1.768  10.314 -1.4743  1.2561  0.6512
 4114SOL    HW223805   4.490   1.774  10.286  0.0752 -0.0455  1.0315
 4115SOL     OW23806   0.847   1.262   8.618  0.1833  0.0077  0.2052
 4115SOL    HW123807   0.796   1.341   8.637 -0.6007 -0.1787 -1.1483
 4115SOL    HW223808   0.835   1.254   8.523  0.9560  2.3471 -0.1085
 4116SOL     OW23809   2.773   3.501   4.521 -0.1321 -0.2125 -0.1690
 4116SOL    HW123810   2.779   3.574   4.583 -1.0610  0.1260 -0.4664
 4116SOL    HW223811   2.712   3.441   4.564 -0.3187  0.6503  0.7949
 4117SOL     OW23812   1.191   3.875   3.940 -0.9864  0.1643  0.0866
 4117SOL    HW123813   1.201   3.966   3.968 -1.8812 -0.1394  1.4305
 4117SOL    HW223814   1.252   3.862   3.868 -0.7100 -0.1558  0.3787
 4118SOL     OW23815   2.344   3.234  11.206 -0.4487  0.2731  1.0402
 4118SOL    HW123816   2.437   3.236  11.183 -1.0017 -3.1370 -1.5544
 4118SOL    HW223817   2.336   3.143  11.233 -1.3433  0.4762  1.4539
 4119SOL     OW23818   0.084   4.355   0.831 -0.5265  0.3098 -0.3035
 4119SOL    HW123819   0.176   4.326   0.833 -0.9228 -0.7728  1.6738
 4119SOL    HW223820   0.050   4.317   0.750 -0.3716 -1.0347  0.2538
 4120SOL     OW23821   4.038   2.579  17.169  0.2910 -0.0725  0.9020
 4120SOL    HW123822   3.945   2.558  17.158  0.5824 -1.3542  0.7846
 4120SOL    HW223823   4.051   2.587  17.264  0.6919 -1.3584  0.9682
 4121SOL     OW23824   0.436   3.447  11.470 -0.4249 -0.0724 -0.4913
 4121SOL    HW123825   0.492   3.524  11.459 -0.9263  0.2606 -0.6683
 4121SOL    HW223826   0.482   3.387  11.412  2.2793  0.3458  1.1740
 4122SOL     OW23827   4.271   4.144  15.448 -0.4226  0.0488 -0.0476
 4122SOL    HW123828   4.274   4.119  15.356 -1.3169  2.8413 -0.8363
 4122SOL    HW223829   4.273   4.238  15.433 -0.2918 -0.3300 -2.3863
 4123SOL     OW23830   1.442   0.907  14.625 -0.2161  0.1988  0.2220
 4123SOL    HW123831   1.509   0.949  14.679  0.8352  0.4562 -1.2912
 4123SOL    HW223832   1.500   0.851  14.574 -1.5246  0.5161 -1.5861
 4124SOL     OW23833   3.230   2.097   0.683  0.1951 -0.2315  0.1589
 4124SOL    HW123834   3.145   2.140   0.689 -0.6613 -1.5952 -2.0280
 4124SOL    HW223835   3.282   2.175   0.665  0.8301 -1.0733 -1.6628
 4125SOL     OW23836   4.664   3.734   3.500 -0.0994  0.5793 -0.1465
 4125SOL    HW123837   0.013   3.795   3.527 -0.4927  0.2038  1.7583
 4125SOL    HW223838   4.698   3.676   3.433  0.1664 -1.0284  1.3746
 4126SOL     OW23839   2.965   2.464  15.193  0.2615 -0.3424  0.0534
 4126SOL    HW123840   3.035   2.511  15.147  0.3005 -1.8929 -1.4410
 4126SOL    HW223841   3.019   2.392  15.225  0.6660 -0.3407 -0.6295
 4127SOL     OW23842   1.614   1.809   6.196  0.4002  0.2953 -0.8268
 4127SOL    HW123843   1.659   1.751   6.135 -1.1757 -2.6375  0.8049
 4127SOL    HW223844   1.525   1.809   6.160 -0.2266  0.0053  0.7299
 4128SOL     OW23845   3.334   1.163  15.578 -0.5592  0.6684  0.2538
 4128SOL    HW123846   3.402   1.230  15.589  1.8169 -1.3559 -1.9399
 4128SOL    HW223847   3.371   1.091  15.527 -0.2333 -0.2068  1.7416
 4129SOL     OW23848   3.388   1.598  16.958  0.3600  0.3617 -0.5181
 4129SOL    HW123849   3.305   1.643  16.969 -0.1684 -0.3796 -1.4816
 4129SOL    HW223850   3.446   1.633  17.025 -1.4945  0.7831  0.8670
 4130SOL     OW23851   3.589   2.960   6.641  0.4226 -0.1822  0.1964
 4130SOL    HW123852   3.609   3.053   6.654  4.0801 -0.7782 -1.3087
 4130SOL    HW223853   3.582   2.940   6.734 -0.2107  0.5612  0.3061
 4131SOL     OW23854   1.361   0.938   2.929  0.0701  0.1208  0.3061
 4131SOL    HW123855   1.289   0.982   2.885  0.5058  0.0385 -0.5029
 4131SOL    HW223856   1.345   0.846   2.905  0.7819  0.1417 -0.2464
 4132SOL     OW23857   0.921   0.448  12.935  0.4555 -0.1544 -0.1235
 4132SOL    HW123858   0.864   0.380  12.972 -2.7158  1.7237 -1.4854
 4132SOL    HW223859   1.007   0.420  12.965 -0.5834 -1.4849  1.5699
 4133SOL     OW23860   3.220   4.465   4.054  0.2628  0.0204  0.3728
 4133SOL    HW123861   3.280   4.496   4.122  1.5043  0.4439 -0.9291
 4133SOL    HW223862   3.260   4.378   4.052 -1.8341 -0.8927 -1.3813
 4134SOL     OW23863   3.115   3.786  13.398  0.2193  0.3180  0.5060
 4134SOL    HW123864   3.208   3.766  13.390 -0.3222 -1.2700 -1.7189
 4134SOL    HW223865   3.093   3.798  13.491  0.4553 -0.4823  0.6659
 4135SOL     OW23866   2.538   2.404  16.307  0.3353 -0.2991  0.4505
 4135SOL    HW123867   2.594   2.481  16.297  0.7938 -0.5543  1.1200
 4135SOL    HW223868   2.459   2.436  16.351  0.9610  0.8603  0.7265
 4136SOL     OW23869   0.152   1.408   1.977 -0.0371 -0.4849 -0.5843
 4136SOL    HW123870   0.164   1.323   1.934 -0.1913 -0.9760  0.3233
 4136SOL    HW223871   0.203   1.405   2.059 -0.6059  4.5210 -0.0389
 4137SOL     OW23872   1.695   1.197  13.705 -0.3241  0.3217 -0.6768
 4137SOL    HW123873   1.724   1.113  13.669 -1.0362  0.4642 -1.5956
 4137SOL    HW223874   1.601   1.202  13.686  0.0299  3.0752 -1.7919
 4138SOL     OW23875   0.165   4.540   5.460  0.3754 -0.0770 -0.0540
 4138SOL    HW123876   0.213   4.600   5.403 -1.3988 -1.0430 -2.5789
 4138SOL    HW223877   0.076   4.576   5.464  0.9996  1.5782 -1.0371
 4139SOL     OW23878   0.708   4.041   6.587  0.8176 -0.1946  0.1030
 4139SOL    HW123879   0.729   3.959   6.632  0.1090 -0.3101  0.2331
 4139SOL    HW223880   0.617   4.034   6.558  0.7652  0.9441 -0.0072
 4140SOL     OW23881   2.113   2.161  14.680 -0.5611  0.2008 -0.1724
 4140SOL    HW123882   2.028   2.197  14.654  0.1319 -0.8721 -4.0467
 4140SOL    HW223883   2.081   2.103  14.749  3.3533  0.2876  1.6889
 4141SOL     OW23884   4.062   0.239   5.597 -0.7178 -0.0204  0.8817
 4141SOL    HW123885   4.114   0.314   5.627  3.0903 -1.4106 -2.3904
 4141SOL    HW223886   4.117   0.209   5.525 -1.4794  1.3672 -0.3005
 4142SOL     OW23887   4.485   0.200  10.963  0.7238  0.3158  0.0477
 4142SOL    HW123888   4.426   0.134  10.998 -0.1113  0.7907 -0.4659
 4142SOL    HW223889   4.533   0.224  11.042 -0.1654  0.6072  0.4893
 4143SOL     OW23890   4.084   4.068   0.200  0.2514 -0.0193 -0.0276
 4143SOL    HW123891   4.107   3.981   0.167 -2.6824 -0.3916 -1.1276
 4143SOL    HW223892   3.992   4.058   0.227 -0.2356 -0.5226 -1.8342
 4144SOL     OW23893   0.653   3.331   6.372 -0.1584  0.4011  0.6207
 4144SOL    HW123894   0.684   3.381   6.448 -1.5441  0.3779  1.2006
 4144SOL    HW223895   0.573   3.380   6.353 -0.1922  0.3869  0.7282
 4145SOL     OW23896   0.561   1.272  15.844  0.1309 -0.3221 -0.0776
 4145SOL    HW123897   0.498   1.224  15.791 -0.9108 -0.4224  1.2466
 4145SOL    HW223898   0.626   1.289  15.775 -0.0007  1.5581  0.2874
 4146SOL     OW23899   1.543   0.310   9.394 -0.1963  0.4376  0.1220
 4146SOL    HW123900   1.457   0.351   9.381 -0.8220 -1.0051 -0.3138
 4146SOL    HW223901   1.535   0.247   9.323  1.0662 -0.8492  1.1274
 4147SOL     OW23902   1.995   3.636   7.958 -0.2007  0.8674 -0.0217
 4147SOL    HW123903   2.080   3.591   7.969 -1.2701 -1.2658 -0.4294
 4147SOL    HW223904   1.981   3.684   8.039 -2.6542  0.2032 -0.0530
 4148SOL     OW23905   0.873   3.018   7.570  1.0953 -0.5256 -0.5958
 4148SOL    HW123906   0.863   3.005   7.664  0.9533  1.0496 -0.3887
 4148SOL    HW223907   0.791   3.056   7.539 -0.2601 -2.8384  0.1564
 4149SOL     OW23908   1.287   0.964  12.722 -0.0885 -0.0781 -0.0898
 4149SOL    HW123909   1.224   0.945  12.653 -1.0194  0.3103  0.6547
 4149SOL    HW223910   1.244   0.928  12.799  0.6755  1.2876  0.9814
 4150SOL     OW23911   1.204   4.389   5.297 -1.0415 -1.0056 -0.7782
 4150SOL    HW123912   1.170   4.315   5.348  0.9476 -1.4147 -0.0741
 4150SOL    HW223913   1.278   4.343   5.259 -0.4527 -1.9564  1.5492
 4151SOL     OW23914   0.518   1.863   0.150 -0.3268 -0.1086  0.3800
 4151SOL    HW123915   0.528   1.856   0.244  0.3902  1.0714  0.3919
 4151SOL    HW223916   0.439   1.915   0.138  0.0781  0.6279  0.9248
 4152SOL     OW23917   2.358   3.518   2.710  0.1623  0.3714  0.1871
 4152SOL    HW123918   2.311   3.601   2.716  1.2866  0.8313  2.4964
 4152SOL    HW223919   2.441   3.558   2.682  0.2451  0.3656  0.4279
 4153SOL     OW23920   2.739   4.319   0.698  0.3794  0.1559 -0.3721
 4153SOL    HW123921   2.829   4.352   0.699  0.4589 -0.0486 -0.7426
 4153SOL    HW223922   2.688   4.389   0.737 -0.0066  0.3516 -1.2264
 4154SOL     OW23923   1.873   0.735   1.495 -0.2647 -0.4340  0.0898
 4154SOL    HW123924   1.824   0.792   1.436  0.2680  0.0301  0.0856
 4154SOL    HW223925   1.956   0.727   1.447  0.3872  0.6836  1.0092
 4155SOL     OW23926   3.307   2.359   1.560  0.3508 -0.1493 -0.3600
 4155SOL    HW123927   3.352   2.398   1.634  1.2384 -1.5389 -0.1782
 4155SOL    HW223928   3.222   2.324   1.587  0.8210 -1.7115 -0.9148
 4156SOL     OW23929   0.500   2.443  16.270  0.2768 -0.0160  0.7276
 4156SOL    HW123930   0.461   2.376  16.325  0.5419 -2.5544 -2.1896
 4156SOL    HW223931   0.435   2.513  16.265  1.8009  1.4357  1.0918
 4157SOL     OW23932   1.217   3.539   3.725 -0.5004  0.3705  0.0015
 4157SOL    HW123933   1.235   3.452   3.689 -1.6674  0.6511 -1.2524
 4157SOL    HW223934   1.234   3.521   3.818  1.2959  3.0851  0.1925
 4158SOL     OW23935   4.493   3.227   4.708 -0.3900  0.1774 -0.3905
 4158SOL    HW123936   4.581   3.193   4.722 -0.5159  0.6956  1.5466
 4158SOL    HW223937   4.477   3.265   4.794  1.1427 -2.0243  0.8609
 4159SOL     OW23938   1.410   2.510   9.419  0.1944  0.0711  0.0789
 4159SOL    HW123939   1.478   2.552   9.366  0.1223  0.7805  0.5451
 4159SOL    HW223940   1.374   2.586   9.465 -0.6913 -0.2307 -0.1223
 4160SOL     OW23941   0.131   1.105   5.360  0.3391  0.3626 -0.2590
 4160SOL    HW123942   0.136   1.158   5.281 -0.2321 -0.0414 -0.5718
 4160SOL    HW223943   0.115   1.173   5.425  2.9906  0.4551  0.3108
 4161SOL     OW23944   1.117   3.450  13.870 -0.1666 -0.2134 -0.0732
 4161SOL    HW123945   1.167   3.526  13.899 -1.1264  0.7672 -0.9968
 4161SOL    HW223946   1.040   3.498  13.840 -1.2910 -1.9598 -0.0024
 4162SOL     OW23947   0.870   0.308   7.509 -0.3259 -0.5807 -0.4806
 4162SOL    HW123948   0.953   0.352   7.526 -0.4053  0.1259 -1.8893
 4162SOL    HW223949   0.902   0.220   7.528  0.8600 -0.0452  0.0133
 4163SOL     OW23950   2.325   0.096  15.911  0.1623 -0.1546 -0.5963
 4163SOL    HW123951   2.361   0.008  15.903  1.0225  0.1668 -0.3168
 4163SOL    HW223952   2.286   0.087  15.825  1.6169  0.9962 -1.3628
 4164SOL     OW23953   3.532   3.092   9.521  0.2244 -0.6675 -0.1717
 4164SOL    HW123954   3.602   3.043   9.565  0.3294  1.2975  1.8724
 4164SOL    HW223955   3.575   3.121   9.441 -0.1325  2.1579  0.6451
 4165SOL     OW23956   0.026   4.151  13.108  0.9255 -0.1156  0.0622
 4165SOL    HW123957   0.078   4.214  13.058 -0.4793  0.2877 -0.8708
 4165SOL    HW223958   0.028   4.068  13.060  0.7434  0.2214 -0.5270
 4166SOL     OW23959   1.630   0.002   3.016  0.2517 -0.2754  0.3940
 4166SOL    HW123960   1.657   4.640   3.055  2.3848 -0.0647 -0.6369
 4166SOL    HW223961   1.717   0.035   2.996  0.5037 -0.6241  0.9479
 4167SOL     OW23962   3.274   4.463   0.219  0.8449  0.6923  0.3968
 4167SOL    HW123963   3.283   4.455   0.124  0.8263  1.3923  0.3363
 4167SOL    HW223964   3.213   4.537   0.219 -1.5553 -1.2922  2.3110
 4168SOL     OW23965   0.892   0.290   4.150 -0.2119  0.1683 -0.0189
 4168SOL    HW123966   0.865   0.199   4.162  0.9509 -0.1076  0.4831
 4168SOL    HW223967   0.838   0.336   4.213 -0.7377 -0.6207  0.0955
 4169SOL     OW23968   4.643   1.531   1.884  0.0540 -0.0208 -0.5013
 4169SOL    HW123969   4.643   1.458   1.821  0.5588 -0.8531  0.4613
 4169SOL    HW223970   4.720   1.501   1.931  1.0371  1.8353 -0.9358
 4170SOL     OW23971   3.989   3.999  13.387 -0.0616  0.3251 -0.0722
 4170SOL    HW123972   4.015   4.034  13.302  1.4125  0.2051  0.3321
 4170SOL    HW223973   3.912   4.054  13.392 -0.1404  0.2531 -0.4366
 4171SOL     OW23974   1.455   0.049  13.786 -0.1915  0.3373 -0.0087
 4171SOL    HW123975   1.460   0.030  13.880  1.1657  0.0798 -0.1223
 4171SOL    HW223976   1.382   0.108  13.772  0.7521  1.7518  0.9355
 4172SOL     OW23977   4.635   0.396   4.235 -0.5985 -0.5109 -0.7870
 4172SOL    HW123978   4.646   0.343   4.313  1.0640  1.0125  0.0160
 4172SOL    HW223979   4.584   0.465   4.277  0.1775 -0.3988 -0.0286
 4173SOL     OW23980   3.700   2.203  14.847 -0.1168  0.0056 -0.4806
 4173SOL    HW123981   3.639   2.183  14.776  0.3747  1.7224 -1.3978
 4173SOL    HW223982   3.779   2.153  14.828 -2.3041 -3.0821 -1.3916
 4174SOL     OW23983   0.074   4.283   5.389  0.0354 -0.0554 -0.9158
 4174SOL    HW123984   0.090   4.368   5.431  0.8939 -0.5742 -0.1954
 4174SOL    HW223985   4.718   4.243   5.431  0.6927  1.1616  1.4635
 4175SOL     OW23986   1.430   3.823   6.501  0.3768  0.1223  0.3426
 4175SOL    HW123987   1.399   3.871   6.578  0.2995  1.1505 -0.3368
 4175SOL    HW223988   1.406   3.875   6.425 -0.4917  0.0599  0.5647
 4176SOL     OW23989   1.887   4.508   0.353 -0.2578 -0.0607  0.6144
 4176SOL    HW123990   1.832   4.568   0.404  1.9238  2.0036  0.5478
 4176SOL    HW223991   1.953   4.561   0.308  0.6661  0.8699  3.0813
 4177SOL     OW23992   3.440   2.000   4.453 -0.2992  0.1159 -0.6936
 4177SOL    HW123993   3.460   1.945   4.377 -0.0021  0.8225 -1.1216
 4177SOL    HW223994   3.347   2.021   4.446 -0.2620  0.3944 -0.3318
 4178SOL     OW23995   3.556   2.950   7.338  0.2633 -0.3225 -0.2703
 4178SOL    HW123996   3.501   3.028   7.343  0.7131 -0.1390  2.1888
 4178SOL    HW223997   3.562   2.918   7.428  1.1961  2.6553  0.7204
 4179SOL     OW23998   3.013   2.435   5.061 -0.2453 -0.8418 -0.0181
 4179SOL    HW123999   2.994   2.356   5.011 -2.2493 -0.2939 -0.1409
 4179SOL    HW224000   3.027   2.379   5.138  2.9063 -0.1374 -0.0865
 4180SOL     OW24001   0.902   0.586   5.701 -0.2694 -0.1535  0.2849
 4180SOL    HW124002   0.979   0.533   5.722 -0.5215  0.2499  2.3078
 4180SOL    HW224003   0.901   0.643   5.778  1.4083  0.1752  0.0644
 4181SOL     OW24004   0.731   0.927   6.409  0.5680  0.0144 -0.3866
 4181SOL    HW124005   0.674   0.883   6.472  0.6997  1.6526  0.8703
 4181SOL    HW224006   0.818   0.895   6.433 -0.2027 -2.1161 -0.4237
 4182SOL     OW24007   0.218   3.290   4.656 -0.1590  0.3035 -0.0678
 4182SOL    HW124008   0.137   3.335   4.633  0.6410  2.1727  0.7684
 4182SOL    HW224009   0.272   3.365   4.682  0.2384  0.2926 -0.8712
 4183SOL     OW24010   4.634   4.677   5.453 -0.0171  0.4674  0.0262
 4183SOL    HW124011   4.580   4.654   5.377  2.0776  0.4881 -1.4596
 4183SOL    HW224012   4.617   0.050   5.465 -0.7654  0.4983 -1.2814
 4184SOL     OW24013   3.355   3.357   8.405 -0.0980 -0.6215 -0.4069
 4184SOL    HW124014   3.441   3.398   8.415  1.2106 -2.8272 -2.5397
 4184SOL    HW224015   3.364   3.296   8.478  1.8051  0.0522 -0.0742
 4185SOL     OW24016   3.760   1.546   4.749 -0.3192  0.2134 -0.3967
 4185SOL    HW124017   3.816   1.473   4.777 -0.7771  0.2604  0.6603
 4185SOL    HW224018   3.767   1.560   4.655 -0.2267  3.8307  0.1561
 4186SOL     OW24019   3.576   0.272   4.682  0.1214 -0.2905  0.5053
 4186SOL    HW124020   3.552   0.231   4.599  1.5795 -0.2582  0.0676
 4186SOL    HW224021   3.613   0.201   4.734 -1.3694 -0.2865  1.5664
 4187SOL     OW24022   0.999   3.382  15.722  0.0930 -0.1994  0.3471
 4187SOL    HW124023   0.904   3.384  15.729  0.2607  3.4751  1.5553
 4187SOL    HW224024   1.014   3.297  15.765 -4.3466 -1.3295 -0.3330
 4188SOL     OW24025   3.226   1.148   6.369  0.0217  0.0703 -0.6184
 4188SOL    HW124026   3.175   1.076   6.331 -1.8696  0.0095  2.0391
 4188SOL    HW224027   3.271   1.108   6.443  0.9723  0.5104 -0.9539
 4189SOL     OW24028   2.639   3.753   6.579  0.1470  0.0610  0.1204
 4189SOL    HW124029   2.567   3.753   6.642 -2.6429 -0.2134 -3.0387
 4189SOL    HW224030   2.672   3.842   6.591  1.1131  0.0777 -2.6808
 4190SOL     OW24031   1.212   0.907  13.561  0.1211 -0.1265  0.2419
 4190SOL    HW124032   1.304   0.934  13.560 -0.0179  0.3704  0.6734
 4190SOL    HW224033   1.211   0.812  13.570  1.5594 -0.4634 -3.5360
 4191SOL     OW24034   3.978   0.514   6.553  0.5832 -0.1539 -0.4796
 4191SOL    HW124035   3.919   0.534   6.481 -1.1862  0.1100  1.0351
 4191SOL    HW224036   4.047   0.580   6.556  0.1121  0.3174 -0.2206
 4192SOL     OW24037   1.344   4.414   9.629  1.1093  0.7127 -0.0752
 4192SOL    HW124038   1.259   4.459   9.628 -0.2249 -1.8823 -2.6658
 4192SOL    HW224039   1.327   4.354   9.556 -2.2988  2.7883 -0.9760
 4193SOL     OW24040   3.031   1.455   9.132 -0.3984  0.1756  0.3300
 4193SOL    HW124041   3.105   1.414   9.087  0.4839  0.0802  1.8796
 4193SOL    HW224042   3.033   1.546   9.104  2.3356  0.4555  1.4342
 4194SOL     OW24043   3.111   1.039   9.419  0.4818 -0.1795 -0.3724
 4194SOL    HW124044   3.069   1.121   9.446 -0.0689 -0.4809 -0.3295
 4194SOL    HW224045   3.064   0.979   9.475  1.5911 -0.0004  0.7577
 4195SOL     OW24046   2.265   3.983   1.878 -0.5398 -0.2787 -0.3813
 4195SOL    HW124047   2.317   4.010   1.954  1.7120  1.0944 -2.3948
 4195SOL    HW224048   2.309   4.032   1.809 -0.8732  0.6252  0.0399
 4196SOL     OW24049   3.087   2.947   9.451 -0.4110  0.2161  0.4532
 4196SOL    HW124050   3.047   3.022   9.495 -0.8763  0.6459 -0.6990
 4196SOL    HW224051   3.145   2.920   9.521  1.6046  3.8700  0.2059
 4197SOL     OW24052   1.658   2.519   2.820 -0.3297  0.3728  0.1302
 4197SOL    HW124053   1.653   2.560   2.906  0.6211  0.7169  0.0221
 4197SOL    HW224054   1.651   2.427   2.843 -1.0779  0.9174  2.1095
 4198SOL     OW24055   3.358   1.146   3.544 -0.0239 -0.1607 -0.1724
 4198SOL    HW124056   3.299   1.108   3.479  0.3065  2.1618 -1.8471
 4198SOL    HW224057   3.305   1.165   3.621 -0.2525 -0.5658 -0.2296
 4199SOL     OW24058   0.771   3.505   5.964 -0.4213  0.2938 -0.5141
 4199SOL    HW124059   0.811   3.499   6.050 -1.3788  0.2345 -0.0739
 4199SOL    HW224060   0.785   3.416   5.933  0.2327  0.7923 -1.6667
 4200SOL     OW24061   3.923   4.345  13.470  0.0668 -0.0066  0.6125
 4200SOL    HW124062   4.015   4.365  13.452  0.2042 -0.8716  0.3495
 4200SOL    HW224063   3.887   4.403  13.403 -3.7714 -1.9277  0.9786
 4201SOL     OW24064   1.559   4.138   0.840 -0.0546  0.2648 -0.3821
 4201SOL    HW124065   1.572   4.085   0.918 -0.5745  0.0584 -0.4389
 4201SOL    HW224066   1.489   4.087   0.799  1.4201 -0.6622 -1.7742
 4202SOL     OW24067   4.313   2.223  13.566 -0.3062  0.2310 -0.1245
 4202SOL    HW124068   4.385   2.257  13.511  0.1104 -0.6425 -0.1267
 4202SOL    HW224069   4.249   2.194  13.501  0.0918 -0.2952 -0.2782
 4203SOL     OW24070   2.912   3.575   6.763 -0.4496 -0.4416  0.0229
 4203SOL    HW124071   2.989   3.591   6.709  0.7831 -2.0427  1.2980
 4203SOL    HW224072   2.853   3.541   6.697 -1.0797  0.7576 -0.0420
 4204SOL     OW24073   0.592   1.371  11.310 -0.6723  1.0375  0.7104
 4204SOL    HW124074   0.625   1.368  11.400  0.7929  2.8190  0.2242
 4204SOL    HW224075   0.515   1.428  11.309 -1.6021 -0.2203  0.2330
 4205SOL     OW24076   2.614   3.801  16.660 -0.0509  0.0287 -0.0635
 4205SOL    HW124077   2.534   3.798  16.607 -1.1613 -0.3245  1.6076
 4205SOL    HW224078   2.665   3.742  16.605  3.1455  1.6399  1.1916
 4206SOL     OW24079   1.600   0.221   4.657  0.4244 -0.4420 -0.1359
 4206SOL    HW124080   1.578   0.154   4.721 -0.3393 -0.4992 -0.4567
 4206SOL    HW224081   1.515   0.237   4.616  0.3827  0.9386  0.4643
 4207SOL     OW24082   1.770   2.586   4.818  0.0099 -0.1390 -0.5925
 4207SOL    HW124083   1.755   2.492   4.819 -0.0959 -0.0931  1.2828
 4207SOL    HW224084   1.857   2.584   4.778  0.4005  2.1502  0.1631
 4208SOL     OW24085   0.592   2.977   4.874 -0.0506 -0.4617  0.1421
 4208SOL    HW124086   0.639   3.056   4.845 -1.1766  0.8628  1.8904
 4208SOL    HW224087   0.660   2.912   4.859  0.9551  0.7839 -0.7175
 4209SOL     OW24088   4.375   4.390   5.751  0.6103  0.2391 -0.1202
 4209SOL    HW124089   4.280   4.395   5.745  0.6431  2.3758  1.3357
 4209SOL    HW224090   4.404   4.477   5.727  0.3710  0.4447  0.3379
 4210SOL     OW24091   4.062   3.897   7.205 -0.1788  0.2069 -0.3747
 4210SOL    HW124092   4.099   3.873   7.120 -0.8818 -0.8896 -0.3691
 4210SOL    HW224093   3.987   3.837   7.207  0.9916 -1.1609  2.8883
 4211SOL     OW24094   3.851   0.794   5.897  0.4966  0.0879  0.0726
 4211SOL    HW124095   3.768   0.834   5.870 -0.1387 -1.6063 -0.4679
 4211SOL    HW224096   3.917   0.855   5.865  1.0620  1.1086  3.1861
 4212SOL     OW24097   1.144   2.555   5.559 -0.2357  0.0163  0.2137
 4212SOL    HW124098   1.123   2.560   5.652 -1.3017  0.9753 -0.0873
 4212SOL    HW224099   1.236   2.582   5.557 -0.4364  0.6016 -1.1332
 4213SOL     OW24100   3.641   3.583   3.555 -0.2842 -0.6713  0.3615
 4213SOL    HW124101   3.655   3.489   3.552  1.7070 -0.3284 -0.6718
 4213SOL    HW224102   3.561   3.589   3.502 -1.1530  2.2715  1.9665
 4214SOL     OW24103   0.336   0.898   3.941 -0.6160 -0.9796  0.4042
 4214SOL    HW124104   0.344   0.935   4.029  1.6038 -2.2726  0.7489
 4214SOL    HW224105   0.284   0.819   3.959  0.4804 -1.5220  1.2104
 4215SOL     OW24106   3.422   0.899   2.425  0.0681  0.2708 -0.0688
 4215SOL    HW124107   3.331   0.880   2.446 -0.0983  0.8914 -0.2206
 4215SOL    HW224108   3.446   0.829   2.364  0.3140  0.5207 -0.2619
 4216SOL     OW24109   2.866   0.319   8.421  0.1067 -0.5110 -0.2273
 4216SOL    HW124110   2.816   0.284   8.348  1.1558  1.1960 -1.7659
 4216SOL    HW224111   2.792   0.356   8.469  0.2272  0.1393 -0.5434
 4217SOL     OW24112   3.104   0.022   7.651  0.1660  0.1996  0.0398
 4217SOL    HW124113   3.106   4.677   7.581  1.5856  0.2031  0.0729
 4217SOL    HW224114   3.197   0.029   7.673  0.1263 -1.4090  0.7268
 4218SOL     OW24115   2.436   1.049   9.694  0.0882  0.4325  0.6787
 4218SOL    HW124116   2.397   1.039   9.781  0.5274 -0.5053  0.7685
 4218SOL    HW224117   2.370   1.111   9.663  0.4836 -0.7110 -2.3986
 4219SOL     OW24118   2.146   0.105   8.769 -0.2753  0.0514 -0.0063
 4219SOL    HW124119   2.069   0.080   8.820 -2.1387  2.0961 -1.8390
 4219SOL    HW224120   2.119   0.184   8.723 -0.4942 -0.7763 -1.3062
 4220SOL     OW24121   2.319   2.604   3.947 -0.5553  0.0938 -0.6725
 4220SOL    HW124122   2.400   2.642   3.915  0.2001 -0.5389  0.4804
 4220SOL    HW224123   2.291   2.680   3.997  1.4960  0.4893 -0.1180
 4221SOL     OW24124   0.409   4.625   8.904 -0.4260 -0.3462  0.0945
 4221SOL    HW124125   0.459   4.640   8.984  1.2136  1.9617 -1.3700
 4221SOL    HW224126   0.343   4.559   8.923  0.0911 -1.2152 -1.1370
 4222SOL     OW24127   0.700   2.417   5.054 -0.1460  0.2888 -0.3293
 4222SOL    HW124128   0.621   2.381   5.095 -0.4398  0.9019 -0.3484
 4222SOL    HW224129   0.688   2.394   4.962  1.6925 -0.1985 -0.4423
 4223SOL     OW24130   1.657   1.636   0.298 -0.1169  0.8003  0.0925
 4223SOL    HW124131   1.627   1.658   0.210 -1.3334 -2.5605 -0.3360
 4223SOL    HW224132   1.729   1.698   0.312  0.8673 -0.3247 -0.0053
 4224SOL     OW24133   4.474   3.694   5.060 -0.6183  0.3336  0.3261
 4224SOL    HW124134   4.474   3.666   4.969  0.0805  0.0851  0.4032
 4224SOL    HW224135   4.537   3.641   5.109 -1.1368 -1.3195 -0.7967
 4225SOL     OW24136   2.692   2.513   3.791 -0.7518  0.1734 -0.2155
 4225SOL    HW124137   2.686   2.606   3.812  0.7879  0.3848 -0.7641
 4225SOL    HW224138   2.670   2.468   3.873 -0.2806  0.0938 -0.1361
 4226SOL     OW24139   0.082   0.258   5.152 -0.2361  0.8792 -0.0637
 4226SOL    HW124140   0.139   0.224   5.220 -1.2973  0.7505  0.7606
 4226SOL    HW224141   0.080   0.181   5.094  0.9917  0.8943 -0.1268
 4227SOL     OW24142   3.861   1.083  16.086  0.2963  0.0771 -0.4335
 4227SOL    HW124143   3.914   1.032  16.024 -0.8524  0.6677 -1.8939
 4227SOL    HW224144   3.798   1.128  16.030  0.9843 -1.1780 -2.2546
 4228SOL     OW24145   2.329   2.337   2.999 -0.3380  0.0990  0.5220
 4228SOL    HW124146   2.373   2.304   3.077 -0.0668 -2.5725 -0.7479
 4228SOL    HW224147   2.268   2.398   3.039 -1.9013 -0.8784 -0.3684
 4229SOL     OW24148   0.314   0.410   4.080 -0.1241  0.7086  0.5151
 4229SOL    HW124149   0.312   0.384   3.988 -0.3454  2.2758  0.0848
 4229SOL    HW224150   0.253   0.342   4.109 -0.4904  1.3468  1.2402
 4230SOL     OW24151   4.313   3.458   4.357 -0.0751 -0.1760 -0.0462
 4230SOL    HW124152   4.291   3.424   4.270 -0.9206  1.1191 -0.3304
 4230SOL    HW224153   4.278   3.389   4.415  0.6175 -2.7301 -2.6730
 4231SOL     OW24154   3.184   0.162   3.208 -0.9116  0.6865 -0.3429
 4231SOL    HW124155   3.211   0.211   3.285 -0.5271  1.9711 -1.2826
 4231SOL    HW224156   3.256   0.101   3.195 -1.2125 -0.0690  1.5296
 4232SOL     OW24157   1.903   0.466   1.540 -0.3038  0.1279 -0.1001
 4232SOL    HW124158   1.993   0.469   1.506 -0.9801  0.9384 -1.7959
 4232SOL    HW224159   1.880   0.558   1.525  0.2273  0.3651  0.4902
 4233SOL     OW24160   2.834   3.824   3.821  0.4493 -1.1026 -0.0701
 4233SOL    HW124161   2.843   3.882   3.897 -0.9597  1.7684 -2.0916
 4233SOL    HW224162   2.892   3.873   3.763  0.7700 -3.4655 -1.7310
 4234SOL     OW24163   1.639   3.405   7.544 -0.5197  0.5067 -0.1752
 4234SOL    HW124164   1.597   3.322   7.521  0.9078 -1.5287  4.5016
 4234SOL    HW224165   1.672   3.441   7.462  0.5101 -0.3700 -0.1509
 4235SOL     OW24166   2.283   0.733   2.645 -0.1535  0.2533  0.6498
 4235SOL    HW124167   2.315   0.690   2.724  0.3829 -1.2291 -0.3741
 4235SOL    HW224168   2.262   0.661   2.586  0.7473 -0.4051  1.1336
 4236SOL     OW24169   3.514   2.128  14.645  0.3076 -0.6571 -0.3859
 4236SOL    HW124170   3.479   2.040  14.653 -0.5933 -0.1965  0.8177
 4236SOL    HW224171   3.554   2.124  14.558  0.6970 -1.3903 -0.1679
 4237SOL     OW24172   4.484   1.984   0.853 -0.2908 -0.0856  0.1834
 4237SOL    HW124173   4.490   1.922   0.926  0.4779 -0.7203 -0.4294
 4237SOL    HW224174   4.572   2.000   0.820 -0.2403 -0.8606 -0.0541
 4238SOL     OW24175   1.912   3.147   3.421 -0.2187  0.2164 -0.5745
 4238SOL    HW124176   1.918   3.218   3.357  0.6514  0.7977  0.1416
 4238SOL    HW224177   1.857   3.084   3.374 -0.1067  0.2630 -0.7691
 4239SOL     OW24178   1.191   0.634  13.670  0.0124  0.0646 -0.1779
 4239SOL    HW124179   1.141   0.674  13.741 -0.9819 -0.8308 -0.3771
 4239SOL    HW224180   1.151   0.548  13.656 -1.3106  0.5865  0.3612
 4240SOL     OW24181   0.617   4.047   4.096 -0.1049  0.0735 -0.4494
 4240SOL    HW124182   0.698   4.027   4.048  0.8376 -0.7407  1.4530
 4240SOL    HW224183   0.606   4.140   4.077 -2.5376 -0.3307 -0.9754
 4241SOL     OW24184   3.339   3.487  16.078 -0.2903  0.0717 -0.5425
 4241SOL    HW124185   3.429   3.455  16.087  0.6660  2.9455 -0.1610
 4241SOL    HW224186   3.297   3.408  16.044 -0.5558 -0.8531  1.9507
 4242SOL     OW24187   2.000   1.585   7.233  0.0432 -0.4392  0.4616
 4242SOL    HW124188   1.907   1.584   7.252 -0.3694  3.2225 -1.3153
 4242SOL    HW224189   2.040   1.582   7.320 -0.5281  1.5163  0.7822
 4243SOL     OW24190   2.900   3.779   8.412  1.0775  0.1763  0.5712
 4243SOL    HW124191   2.938   3.745   8.331  1.4108  0.8000  0.4639
 4243SOL    HW224192   2.976   3.803   8.464  1.6966 -1.2342  0.2993
 4244SOL     OW24193   0.870   3.005   2.851 -0.0664  0.5901 -0.2273
 4244SOL    HW124194   0.902   2.915   2.862 -2.6087 -0.2822  0.0546
 4244SOL    HW224195   0.892   3.021   2.760 -0.9411  0.3736 -0.4793
 4245SOL     OW24196   3.870   2.461   5.835 -0.6964  0.1528 -0.0165
 4245SOL    HW124197   3.903   2.401   5.902 -0.5021 -1.6794 -1.7362
 4245SOL    HW224198   3.797   2.403   5.813  0.2539 -1.1218  0.1495
 4246SOL     OW24199   0.165   0.910   4.332  0.1992 -0.6160  0.2144
 4246SOL    HW124200   0.163   0.818   4.360 -0.2340 -0.5458  0.4183
 4246SOL    HW224201   0.173   0.951   4.419  2.7619  1.7898 -1.1546
 4247SOL     OW24202   0.384   4.212   3.331 -0.0484 -0.0637 -0.2234
 4247SOL    HW124203   0.417   4.284   3.277 -1.8276  1.1952  0.3661
 4247SOL    HW224204   0.317   4.177   3.272  1.7290 -1.6726 -1.3075
 4248SOL     OW24205   2.756   1.910   0.014 -0.8888 -0.1736  0.1403
 4248SOL    HW124206   2.791   1.920   0.102 -0.3416  0.9319 -0.1996
 4248SOL    HW224207   2.795   1.980  17.646  1.3976  0.0773  2.1903
 4249SOL     OW24208   4.331   0.700  15.226  0.2170  0.2643  0.3427
 4249SOL    HW124209   4.425   0.686  15.227  0.3365  1.1218  0.4794
 4249SOL    HW224210   4.307   0.714  15.318 -0.5298 -0.6599  0.2979
 4250SOL     OW24211   0.747   2.610   9.860  0.2127  0.4552 -0.3499
 4250SOL    HW124212   0.823   2.567   9.900 -0.7480 -2.3887 -1.5930
 4250SOL    HW224213   0.732   2.685   9.918 -0.4940  0.5319 -0.6359
 4251SOL     OW24214   2.224   4.112   4.751 -0.8071  0.1334 -0.5329
 4251SOL    HW124215   2.146   4.080   4.706 -1.0023  3.2147 -2.3883
 4251SOL    HW224216   2.287   4.049   4.716  1.6445  2.1333  0.2812
 4252SOL     OW24217   4.702   4.419   6.708  0.1308  0.1976 -0.4491
 4252SOL    HW124218   0.040   4.375   6.647 -0.1637 -1.7362  0.6758
 4252SOL    HW224219   0.043   4.482   6.745 -0.3713  0.4919 -0.1037
 4253SOL     OW24220   2.258   0.574   7.285  0.3906  0.7382  0.3308
 4253SOL    HW124221   2.172   0.581   7.244  0.2342  0.6247  0.6362
 4253SOL    HW224222   2.322   0.527   7.232  2.3122  1.6304  1.8636
 4254SOL     OW24223   2.495   4.485  11.167 -0.6103  0.9706 -0.3710
 4254SOL    HW124224   2.472   4.530  11.248 -1.1967 -0.5118  0.2842
 4254SOL    HW224225   2.524   4.405  11.210 -3.0343  1.7012  2.5954
 4255SOL     OW24226   3.790   4.025   9.426 -0.2113 -0.2641 -0.5305
 4255SOL    HW124227   3.879   4.060   9.424 -0.0857 -0.5881 -0.5649
 4255SOL    HW224228   3.748   4.099   9.471 -0.1559 -0.2525 -0.4986
 4256SOL     OW24229   2.847   1.133   4.940 -0.4643 -0.1429  0.2514
 4256SOL    HW124230   2.845   1.087   5.024  2.6555  3.0624  2.0756
 4256SOL    HW224231   2.838   1.063   4.875 -0.0106  0.9346 -0.9816
 4257SOL     OW24232   4.280   3.270   4.533 -0.2554 -0.8051  0.3893
 4257SOL    HW124233   4.198   3.260   4.581 -0.0836 -5.6770 -0.2776
 4257SOL    HW224234   4.337   3.244   4.605 -0.3936  0.2776  0.8952
 4258SOL     OW24235   3.616   1.086   0.868 -0.0716  0.0333 -0.1897
 4258SOL    HW124236   3.679   1.108   0.800 -0.3877 -1.4122 -0.9455
 4258SOL    HW224237   3.567   1.168   0.859 -1.8791 -0.9820  0.4040
 4259SOL     OW24238   0.992   4.386   5.650 -0.3930 -0.0805  0.5180
 4259SOL    HW124239   1.064   4.387   5.713 -0.5691 -1.2027  0.7311
 4259SOL    HW224240   0.942   4.461   5.684  0.1344  0.3389  0.3693
 4260SOL     OW24241   1.195   3.771   8.815 -0.0342  0.6889 -0.5580
 4260SOL    HW124242   1.250   3.767   8.894  0.4735 -1.4122 -1.0434
 4260SOL    HW224243   1.243   3.844   8.774  1.3951 -0.7109 -1.3536
 4261SOL     OW24244   4.406   0.419   7.557  0.1762 -0.2706  0.2116
 4261SOL    HW124245   4.451   0.421   7.642  0.2312 -2.5524  0.2523
 4261SOL    HW224246   4.336   0.481   7.578  1.5670  0.1957  3.4093
 4262SOL     OW24247   0.845   2.913   7.126  0.2791 -0.0589 -0.0226
 4262SOL    HW124248   0.876   2.844   7.185  0.0199  1.7926  2.2693
 4262SOL    HW224249   0.851   2.876   7.038 -1.9334 -0.9433  0.2060
 4263SOL     OW24250   0.595   1.139   6.943  0.4440  0.6107  0.5594
 4263SOL    HW124251   0.621   1.104   6.858 -2.1491  1.8798 -0.7285
 4263SOL    HW224252   0.520   1.196   6.927 -0.5770 -0.2572  2.1989
 4264SOL     OW24253   1.231   3.239   3.726 -0.1651  0.2497 -0.3776
 4264SOL    HW124254   1.194   3.223   3.639 -0.3274  1.6958 -0.5758
 4264SOL    HW224255   1.197   3.162   3.771 -0.7536  1.8658  1.9679
 4265SOL     OW24256   4.042   2.256   2.151 -0.0137 -0.1132  0.2304
 4265SOL    HW124257   4.047   2.169   2.192  0.9980  0.5514  1.4924
 4265SOL    HW224258   3.952   2.269   2.119  0.3721  1.7446 -0.0769
 4266SOL     OW24259   2.778   0.236   4.290  0.1212  0.1245  0.4623
 4266SOL    HW124260   2.757   0.316   4.242  0.1861 -0.7612 -1.0285
 4266SOL    HW224261   2.695   0.197   4.317  0.5359 -0.8577  0.3189
 4267SOL     OW24262   3.361   0.978  11.600 -0.6487  0.2717 -0.4193
 4267SOL    HW124263   3.343   1.070  11.583 -1.5447 -0.3628 -2.9674
 4267SOL    HW224264   3.442   0.961  11.552 -1.1852 -2.1193 -0.4864
 4268SOL     OW24265   4.690   0.957  10.250  0.5047 -0.1102  0.3473
 4268SOL    HW124266   0.059   0.944  10.216  0.2789  0.7372 -0.5852
 4268SOL    HW224267   4.705   0.998  10.335 -1.4054  0.2759  0.4936
 4269SOL     OW24268   1.205   3.752   5.114 -0.2394  0.8413 -0.4644
 4269SOL    HW124269   1.186   3.823   5.177 -0.7401 -0.5087  0.9234
 4269SOL    HW224270   1.141   3.779   5.048 -1.1926 -0.8893 -0.2499
 4270SOL     OW24271   3.968   1.991   5.951  0.3178  0.6594 -0.2097
 4270SOL    HW124272   3.949   1.939   5.873  1.3335  0.8162 -0.5645
 4270SOL    HW224273   4.062   1.975   5.947  0.4798  1.5493 -0.1400
 4271SOL     OW24274   0.359   2.461   3.104  0.1494  0.2333 -0.3358
 4271SOL    HW124275   0.352   2.482   3.011  1.7805 -2.2939 -1.0224
 4271SOL    HW224276   0.403   2.376   3.097  1.5328  1.1297 -2.3584
 4272SOL     OW24277   4.160   0.836  12.234 -0.2616 -0.0910 -0.0387
 4272SOL    HW124278   4.192   0.868  12.318 -1.1223 -1.4947  0.8283
 4272SOL    HW224279   4.243   0.800  12.201 -0.0660  1.1466 -0.8713
 4273SOL     OW24280   0.272   4.573  15.843 -0.1284 -0.1069  0.1938
 4273SOL    HW124281   0.196   4.525  15.809 -0.0281  0.8749 -1.4129
 4273SOL    HW224282   0.340   4.506  15.836  0.1789  0.1181  1.1038
 4274SOL     OW24283   1.895   4.410   4.334  0.2679  0.1732  0.0054
 4274SOL    HW124284   1.826   4.457   4.288 -0.6651 -2.6154 -1.4679
 4274SOL    HW224285   1.974   4.453   4.303  2.3370 -2.3034  1.8472
 4275SOL     OW24286   0.676   4.133   1.997 -0.3549  0.4253 -0.3263
 4275SOL    HW124287   0.650   4.155   1.907  0.2296 -0.8692 -0.8181
 4275SOL    HW224288   0.768   4.154   1.988  0.0010 -1.1386 -0.3481
 4276SOL     OW24289   3.444   0.337   3.643 -0.0188 -0.0414  0.1708
 4276SOL    HW124290   3.408   0.336   3.732 -1.1563 -0.4128 -0.2957
 4276SOL    HW224291   3.493   0.256   3.630 -0.9489 -0.6606  0.5223
 4277SOL     OW24292   4.123   3.553   4.032  0.0831  1.1036 -0.5499
 4277SOL    HW124293   4.087   3.641   4.025  1.5445  1.6281 -1.4205
 4277SOL    HW224294   4.178   3.563   3.955  0.3019 -0.3093 -0.5746
 4278SOL     OW24295   0.840   3.846   2.635  0.3278  0.4645 -0.2341
 4278SOL    HW124296   0.793   3.778   2.683  0.0052  1.9967  1.6333
 4278SOL    HW224297   0.837   3.805   2.548 -2.0561  2.1057 -0.9438
 4279SOL     OW24298   2.069   2.778   6.197  0.4386  0.2930 -0.6746
 4279SOL    HW124299   2.095   2.711   6.260  1.8904 -0.6709 -2.3079
 4279SOL    HW224300   2.120   2.849   6.235 -0.3063 -0.2142  1.3170
 4280SOL     OW24301   0.559   1.833   5.445 -0.2165  0.1789 -0.5278
 4280SOL    HW124302   0.604   1.818   5.528  1.2233 -1.1808 -1.5583
 4280SOL    HW224303   0.630   1.848   5.382  0.6096  1.0185  0.6005
 4281SOL     OW24304   0.514   4.358   0.515 -0.0766  0.1450 -0.6692
 4281SOL    HW124305   0.508   4.382   0.607 -2.4567  0.8882 -1.0243
 4281SOL    HW224306   0.436   4.302   0.510 -0.4639  0.5628  0.7243
 4282SOL     OW24307   2.958   1.428   5.405 -0.0815  0.1941 -0.4023
 4282SOL    HW124308   2.929   1.405   5.317  0.5059  1.8110 -1.0247
 4282SOL    HW224309   2.948   1.523   5.409 -1.0140  0.0559  0.3598
 4283SOL     OW24310   4.197   4.678   6.511 -0.2376  0.1385 -0.0131
 4283SOL    HW124311   4.134   0.003   6.567 -0.3807  0.7348 -0.6627
 4283SOL    HW224312   4.209   4.597   6.560 -2.3693 -0.0050  0.2785
 4284SOL     OW24313   3.073   3.933   8.084  0.6787  0.0400 -0.3966
 4284SOL    HW124314   3.115   3.880   8.017 -1.2910 -2.3830  0.2721
 4284SOL    HW224315   3.013   3.988   8.034  0.4147  1.8810  1.9572
 4285SOL     OW24316   0.063   4.070  17.542 -0.0412 -0.6174  0.1783
 4285SOL    HW124317   0.004   4.037  17.474  0.5681 -0.4050 -0.4548
 4285SOL    HW224318   0.116   4.120  17.480  0.1217  0.7088  1.3927
 4286SOL     OW24319   0.345   0.382   7.268  0.5272  0.2054 -0.0117
 4286SOL    HW124320   0.336   0.473   7.294 -2.5060 -0.2527  0.5270
 4286SOL    HW224321   0.355   0.333   7.350 -0.3110  1.6713  0.9612
 4287SOL     OW24322   1.188   4.430  10.934 -0.1924 -0.2268  0.8229
 4287SOL    HW124323   1.127   4.424  10.861 -0.6683  2.3012  1.0241
 4287SOL    HW224324   1.193   4.525  10.943  0.6984 -0.2933  1.0758
 4288SOL     OW24325   1.591   2.812   5.652 -0.6704  0.4819  0.0374
 4288SOL    HW124326   1.611   2.890   5.704  2.5549 -0.2503 -0.1040
 4288SOL    HW224327   1.680   2.792   5.622 -0.5500  0.5449  0.3422
 4289SOL     OW24328   4.284   3.076   3.876 -0.2767  0.7518 -0.3839
 4289SOL    HW124329   4.226   3.027   3.933 -0.9689  1.0938 -0.7892
 4289SOL    HW224330   4.249   3.050   3.791  1.2692  0.4167 -0.9264
 4290SOL     OW24331   3.570   4.036   5.911  0.2180 -0.2776  0.0386
 4290SOL    HW124332   3.636   3.985   5.957  1.9268  0.8972 -1.1147
 4290SOL    HW224333   3.616   4.120   5.906  0.7105 -0.4160  2.3327
 4291SOL     OW24334   2.611   2.758   4.202  0.1888  0.0269 -0.3300
 4291SOL    HW124335   2.569   2.810   4.271 -0.9488  0.7633 -1.5650
 4291SOL    HW224336   2.559   2.752   4.122 -1.3152  0.2867  0.6154
 4292SOL     OW24337   0.406   2.648   5.296  0.4156  0.7400  0.8704
 4292SOL    HW124338   0.475   2.636   5.231 -2.8302 -0.6243 -2.3581
 4292SOL    HW224339   0.415   2.562   5.336  0.3170 -0.0786 -0.8503
 4293SOL     OW24340   0.354   3.480   7.383  0.3745  0.4655  0.7400
 4293SOL    HW124341   0.259   3.490   7.376  0.4245  0.5815  0.2638
 4293SOL    HW224342   0.346   3.418   7.456 -2.3046 -0.2669 -0.1621
 4294SOL     OW24343   0.744   0.458   4.890 -0.2900 -0.2421  0.2908
 4294SOL    HW124344   0.706   0.419   4.812 -0.3847  0.9838 -0.2710
 4294SOL    HW224345   0.756   0.545   4.851 -0.0192 -0.2084  0.4510
 4295SOL     OW24346   0.349   4.240   6.162  0.4255 -0.2063  0.4642
 4295SOL    HW124347   0.260   4.213   6.139  0.3034  0.1246  0.5557
 4295SOL    HW224348   0.355   4.326   6.122 -2.1446  0.4759  1.5497
 4296SOL     OW24349   0.694   3.248  15.525  0.7137  0.4835  0.4947
 4296SOL    HW124350   0.683   3.263  15.431 -1.6901  0.9455  0.8527
 4296SOL    HW224351   0.748   3.170  15.535  1.5223  1.0589  0.6220
 4297SOL     OW24352   1.800   1.805   5.384 -0.3238 -0.6624 -0.0126
 4297SOL    HW124353   1.794   1.779   5.292  0.5022 -0.1221 -0.2194
 4297SOL    HW224354   1.888   1.842   5.382 -1.4744  2.1909  2.8945
 4298SOL     OW24355   1.715   1.656  14.117 -0.3601  0.0708  0.3462
 4298SOL    HW124356   1.631   1.648  14.072  1.1122  0.9043 -2.5754
 4298SOL    HW224357   1.740   1.566  14.138  0.1986  0.1654  0.1038
 4299SOL     OW24358   0.545   1.173   6.049 -0.4270 -0.3988 -0.3128
 4299SOL    HW124359   0.539   1.135   6.137  0.4820  0.0955 -0.0387
 4299SOL    HW224360   0.639   1.174   6.030 -0.9450 -1.2731 -2.8902
 4300SOL     OW24361   4.691   1.905   9.962 -0.4353 -0.4677  0.7632
 4300SOL    HW124362   4.704   1.966  10.035  0.7832 -1.1181  1.1020
 4300SOL    HW224363   0.007   1.955   9.889 -1.5382 -0.2959  0.3448
 4301SOL     OW24364   1.334   0.410   4.584 -0.2875 -0.3013  0.0961
 4301SOL    HW124365   1.322   0.505   4.581  0.1803 -0.2661 -0.7655
 4301SOL    HW224366   1.241   0.388   4.592 -0.0485 -0.7111  1.6587
 4302SOL     OW24367   3.978   2.696   2.688  0.5156 -0.4052  0.0940
 4302SOL    HW124368   4.059   2.742   2.708  0.2608 -0.3379  0.9444
 4302SOL    HW224369   3.985   2.631   2.758 -0.7742 -0.2023  0.4047
 4303SOL     OW24370   2.385   2.405   1.496  0.5071 -0.2163 -0.4338
 4303SOL    HW124371   2.441   2.454   1.436  0.3751  1.1257  0.5280
 4303SOL    HW224372   2.359   2.325   1.449  0.0464 -0.4654  0.2511
 4304SOL     OW24373   0.538   3.088   4.036  0.0058  0.5248 -0.2069
 4304SOL    HW124374   0.594   3.014   4.059 -0.1722  0.5520  0.3150
 4304SOL    HW224375   0.478   3.053   3.970 -2.5590 -1.1092  2.9625
 4305SOL     OW24376   3.673   1.461   4.462  0.2683 -0.3024  0.2555
 4305SOL    HW124377   3.740   1.400   4.492  0.3673  0.7847  2.2560
 4305SOL    HW224378   3.729   1.538   4.451 -0.5955  0.6035  2.0478
 4306SOL     OW24379   0.738   2.306   9.657 -0.4157  0.0674 -0.3615
 4306SOL    HW124380   0.791   2.280   9.733 -1.4456 -0.2048  0.2621
 4306SOL    HW224381   0.680   2.231   9.652  1.5580 -1.5224  0.6702
 4307SOL     OW24382   0.814   2.508   3.198 -0.4078  0.4372 -0.4225
 4307SOL    HW124383   0.815   2.481   3.106  3.6298  0.3874 -0.3452
 4307SOL    HW224384   0.805   2.603   3.186 -0.3608  0.1891 -2.4562
 4308SOL     OW24385   2.193   1.284   5.168  0.1269  0.3158  0.2663
 4308SOL    HW124386   2.149   1.200   5.176 -0.2741  0.1620 -3.4871
 4308SOL    HW224387   2.261   1.261   5.104 -0.7196  0.2814 -0.6204
 4309SOL     OW24388   3.223   1.196   8.360 -0.3880  0.4097  0.1131
 4309SOL    HW124389   3.230   1.273   8.415  0.2045 -0.8050  1.7353
 4309SOL    HW224390   3.140   1.218   8.317  0.6284  0.3565 -1.9204
 4310SOL     OW24391   1.536   2.644   7.107  0.3021  0.0938 -0.2293
 4310SOL    HW124392   1.483   2.605   7.037  0.8828 -0.0890 -0.5623
 4310SOL    HW224393   1.533   2.585   7.183  1.0214  0.3977  0.0278
 4311SOL     OW24394   0.276   3.567   4.155  0.2574  0.3940  0.5380
 4311SOL    HW124395   0.300   3.534   4.241  3.0119  1.4008  0.1500
 4311SOL    HW224396   0.314   3.655   4.158 -0.6663  0.8007  0.3664
 4312SOL     OW24397   4.031   0.951   1.693 -0.0143 -0.0525  0.3521
 4312SOL    HW124398   4.125   0.958   1.677  0.1903  0.0514  1.5430
 4312SOL    HW224399   4.002   0.963   1.603  0.7983  0.2193  0.1346
 4313SOL     OW24400   4.710   4.190   3.970  0.3392 -0.3208 -0.1335
 4313SOL    HW124401   0.010   4.278   4.002  1.9761 -0.5292 -0.6021
 4313SOL    HW224402   4.639   4.211   3.909 -0.2254 -0.2295  0.5613
 4314SOL     OW24403   4.473   4.649  14.729 -0.0594  0.4743 -0.1554
 4314SOL    HW124404   4.477   4.717  14.797 -0.9320  0.0176  0.3486
 4314SOL    HW224405   4.387   4.606  14.733  0.4498 -0.5865 -0.6834
 4315SOL     OW24406   4.615   1.979   6.195  0.4001  0.2609 -0.1212
 4315SOL    HW124407   4.612   1.949   6.286 -2.5703 -0.2101 -0.3846
 4315SOL    HW224408   4.586   2.068   6.216 -0.0093  0.3681 -1.1509
 4316SOL     OW24409   4.505   3.278  13.573 -0.3948 -0.5329 -0.4320
 4316SOL    HW124410   4.471   3.338  13.507  0.9663  1.1997  0.4299
 4316SOL    HW224411   4.425   3.233  13.600 -0.4057  0.4540  1.1989
 4317SOL     OW24412   4.076   2.585   9.008  0.0672  0.5738 -0.0071
 4317SOL    HW124413   4.162   2.587   9.049  0.4917  2.5319 -1.0300
 4317SOL    HW224414   4.029   2.517   9.058  1.2466  0.5460  1.0657
 4318SOL     OW24415   3.302   4.628  15.502  0.5248 -0.0708  0.1735
 4318SOL    HW124416   3.386   4.587  15.484  1.8885  3.0304 -0.4908
 4318SOL    HW224417   3.317   4.713  15.461  1.0944 -0.2831 -0.0569
 4319SOL     OW24418   1.390   1.001   3.908 -0.3158 -0.1349  0.2202
 4319SOL    HW124419   1.341   1.019   3.828  1.0788  2.1191 -0.1346
 4319SOL    HW224420   1.333   1.029   3.980  0.4156  0.0452  0.7412
 4320SOL     OW24421   3.337   1.293   9.315 -0.4366  0.6980 -0.1832
 4320SOL    HW124422   3.251   1.293   9.357 -0.5630 -0.4425 -0.4486
 4320SOL    HW224423   3.342   1.207   9.273 -0.4056  0.4052  0.4251
 4321SOL     OW24424   4.677   3.615   1.905 -0.2248  0.1938  0.0808
 4321SOL    HW124425   4.671   3.543   1.968 -2.0393  0.0913 -0.2326
 4321SOL    HW224426   4.619   3.678   1.948 -0.6847  0.4443 -0.9175
 4322SOL     OW24427   0.534   1.176   8.817 -0.5784 -0.1187  0.2048
 4322SOL    HW124428   0.519   1.267   8.791  0.0212 -0.9464 -3.1386
 4322SOL    HW224429   0.538   1.198   8.910 -0.2391  2.1186 -0.3527
 4323SOL     OW24430   0.086   0.387   1.582 -0.4864 -0.1933  0.1768
 4323SOL    HW124431   0.034   0.361   1.506 -0.9315 -0.0625  0.4381
 4323SOL    HW224432   0.043   0.468   1.609  0.9640  0.4946  0.4377
 4324SOL     OW24433   0.660   0.591   5.529 -0.0260  0.2485  0.4704
 4324SOL    HW124434   0.733   0.643   5.498 -1.2843  1.4219 -0.5462
 4324SOL    HW224435   0.659   0.596   5.625 -0.1648  2.5263  0.3389
 4325SOL     OW24436   4.555   3.597   7.987 -0.1694  0.3055 -0.4838
 4325SOL    HW124437   4.505   3.522   7.956  2.8458 -1.5754 -0.7900
 4325SOL    HW224438   4.641   3.562   8.008  0.9095  2.8043 -0.6514
 4326SOL     OW24439   0.466   3.770   6.760  0.2085  0.4006  0.1462
 4326SOL    HW124440   0.548   3.792   6.716 -1.5235  2.0458 -2.2998
 4326SOL    HW224441   0.402   3.802   6.695  1.4833 -0.0479 -1.3237
 4327SOL     OW24442   0.018   1.684   3.486  0.0630  0.6414 -0.5097
 4327SOL    HW124443   0.072   1.642   3.553  0.2987  1.6121 -0.1023
 4327SOL    HW224444   0.038   1.775   3.504 -2.6515  1.2798 -0.6894
 4328SOL     OW24445   1.696   1.951   0.961  0.0625 -0.4954 -0.9409
 4328SOL    HW124446   1.604   1.962   0.935 -0.0719  3.3763  1.1013
 4328SOL    HW224447   1.707   1.860   0.933 -0.9960 -1.6216  2.1937
 4329SOL     OW24448   0.099   0.924   8.840  0.3317 -0.6445 -0.4112
 4329SOL    HW124449   0.172   0.957   8.893 -0.2219  3.3520 -2.1555
 4329SOL    HW224450   0.022   0.929   8.895  0.5129  2.3487 -0.4177
 4330SOL     OW24451   0.225   2.957   3.123  0.0892 -0.0180 -0.4111
 4330SOL    HW124452   0.279   2.904   3.182  2.4072  1.6187 -1.0497
 4330SOL    HW224453   0.140   2.914   3.113  0.4664 -0.9947  0.5432
 4331SOL     OW24454   0.649   0.922  14.563  0.1367 -0.1976  0.0806
 4331SOL    HW124455   0.564   0.919  14.519  1.0477  1.2201 -1.7935
 4331SOL    HW224456   0.698   0.882  14.491  0.4638  0.2084  0.0808
 4332SOL     OW24457   1.308   4.513   7.487 -0.5124 -0.4461 -0.1923
 4332SOL    HW124458   1.351   4.439   7.530 -1.8981 -1.2519 -0.2228
 4332SOL    HW224459   1.293   4.453   7.414  1.8174 -1.6962  0.3562
 4333SOL     OW24460   0.686   0.381  15.099 -0.4999  0.4226  1.0540
 4333SOL    HW124461   0.633   0.400  15.021  0.1415  0.5382  0.6518
 4333SOL    HW224462   0.677   0.287  15.111  0.5495  0.3027  0.8384
 4334SOL     OW24463   2.092   2.700   5.169  0.0948 -0.2270 -0.1000
 4334SOL    HW124464   2.022   2.640   5.193 -0.7586  0.8222  0.0473
 4334SOL    HW224465   2.141   2.653   5.101 -0.3082  0.4972 -0.8935
 4335SOL     OW24466   4.250   2.937   3.134  0.4874  0.3199 -0.1236
 4335SOL    HW124467   4.258   3.015   3.080  2.4556  0.3478  0.2054
 4335SOL    HW224468   4.317   2.960   3.198 -0.1647  0.0470  0.6565
 4336SOL     OW24469   3.012   3.578   9.098 -0.1994 -0.3324 -0.7317
 4336SOL    HW124470   2.988   3.570   9.191  1.2255 -1.7995 -0.4906
 4336SOL    HW224471   2.927   3.601   9.063  0.4758  1.5574 -1.1179
 4337SOL     OW24472   2.812   4.052   4.014 -0.3130 -0.0822  1.1508
 4337SOL    HW124473   2.764   4.030   4.094  1.0539 -0.6247  1.8281
 4337SOL    HW224474   2.872   4.122   4.041 -1.0059  0.7036  0.6305
 4338SOL     OW24475   2.754   1.566   6.655  0.4729  0.4507  0.0902
 4338SOL    HW124476   2.846   1.558   6.681  0.1347 -0.3713  1.0572
 4338SOL    HW224477   2.729   1.610   6.737  1.3336 -1.8729  1.6125
 4339SOL     OW24478   2.635   3.520   1.387 -0.5424 -0.3229  0.0204
 4339SOL    HW124479   2.561   3.581   1.391 -0.1351  0.1193  0.9296
 4339SOL    HW224480   2.708   3.577   1.365 -0.2631 -0.5008  0.4739
 4340SOL     OW24481   0.389   2.893   2.896  0.2694 -0.2365 -0.0421
 4340SOL    HW124482   0.367   2.938   2.978 -1.5417  1.2287 -1.3393
 4340SOL    HW224483   0.303   2.873   2.858 -1.0463 -1.2221  3.4246
 4341SOL     OW24484   0.936   3.335   4.958 -0.0357 -0.0508  0.1295
 4341SOL    HW124485   0.909   3.423   4.983  1.0468 -0.1354  1.5745
 4341SOL    HW224486   1.021   3.339   4.913  1.0072 -1.1052  2.0202
 4342SOL     OW24487   4.199   1.818   7.139 -0.2076 -0.3217 -0.1320
 4342SOL    HW124488   4.283   1.797   7.181 -0.3430  0.1564  0.3753
 4342SOL    HW224489   4.182   1.745   7.080  2.0208 -1.3665  0.4986
 4343SOL     OW24490   1.943   3.673   3.526  0.2510  0.4069  0.0341
 4343SOL    HW124491   1.887   3.597   3.509 -0.0248 -0.0753  3.0841
 4343SOL    HW224492   1.917   3.738   3.461 -1.3474 -0.6588 -0.4014
 4344SOL     OW24493   1.394   4.591  10.041  0.4108  0.3098 -0.0077
 4344SOL    HW124494   1.309   4.605   9.998 -0.2228  0.6727  1.3386
 4344SOL    HW224495   1.386   4.514  10.097  0.8130 -0.5969 -1.2076
 4345SOL     OW24496   2.764   0.828   4.129  0.5019  0.0152  0.0419
 4345SOL    HW124497   2.787   0.918   4.104  0.7922  0.2821  1.2727
 4345SOL    HW224498   2.798   0.781   4.053 -0.5549 -0.7465  0.0422
 4346SOL     OW24499   1.734   3.294   2.209 -0.4908 -0.5755  0.4312
 4346SOL    HW124500   1.747   3.199   2.200  0.0681 -0.4701  0.1483
 4346SOL    HW224501   1.641   3.296   2.231 -0.7970  2.1262 -1.1507
 4347SOL     OW24502   1.570   4.009   9.082  0.0239 -0.8632  0.4134
 4347SOL    HW124503   1.655   4.036   9.047 -1.2660  0.0417 -2.0110
 4347SOL    HW224504   1.572   4.071   9.156  0.9554 -0.2769 -0.1008
 4348SOL     OW24505   0.131   4.062   2.187  0.8202  0.1826  0.1977
 4348SOL    HW124506   0.190   4.055   2.111  1.2844 -0.8460  0.6477
 4348SOL    HW224507   0.148   3.972   2.217 -1.0431 -0.6329 -1.1990
 4349SOL     OW24508   2.028   0.598   3.296  0.0435  0.1512  0.4435
 4349SOL    HW124509   2.074   0.517   3.321 -1.6761 -1.3445 -1.3458
 4349SOL    HW224510   2.092   0.632   3.234 -1.0869  0.9393 -0.2886
 4350SOL     OW24511   1.200   2.565   7.967  0.1422 -0.3424  0.3061
 4350SOL    HW124512   1.293   2.549   7.955  0.8762  3.4653  1.0898
 4350SOL    HW224513   1.191   2.580   8.061  1.0641  0.6821  0.2230
 4351SOL     OW24514   2.703   0.240  12.951 -0.1919 -0.0260 -0.2058
 4351SOL    HW124515   2.637   0.182  12.989 -0.4103  1.0132  1.0285
 4351SOL    HW224516   2.786   0.198  12.971  0.5133  1.5591  0.2331
 4352SOL     OW24517   3.827   3.077   4.122  0.0183  0.1850 -0.2041
 4352SOL    HW124518   3.732   3.087   4.126 -0.2890 -2.1672 -1.7954
 4352SOL    HW224519   3.842   2.994   4.166  0.8444 -0.5456 -1.8868
 4353SOL     OW24520   2.569   4.499  10.884 -0.2127 -0.0568 -0.5563
 4353SOL    HW124521   2.638   4.564  10.877  0.0062 -0.1377  0.9508
 4353SOL    HW224522   2.543   4.512  10.975  0.4548  0.7214 -0.4739
 4354SOL     OW24523   1.511   1.172   3.255  0.1558  0.5640  0.1080
 4354SOL    HW124524   1.464   1.124   3.323  2.4732 -0.1727  1.1964
 4354SOL    HW224525   1.492   1.263   3.279 -0.7855  0.7037 -1.1558
 4355SOL     OW24526   4.596   2.332  16.182  0.5366  0.6721  0.1362
 4355SOL    HW124527   4.533   2.368  16.120 -0.5432  0.8435  1.3363
 4355SOL    HW224528   4.645   2.410  16.208  1.2047  0.0066  0.8713
 4356SOL     OW24529   0.441   0.069  12.464  0.5226  0.2828 -0.5261
 4356SOL    HW124530   0.396   0.081  12.548 -0.3248  0.9754 -1.0825
 4356SOL    HW224531   0.406   4.705  12.435  2.9687 -0.5418 -1.1072
 4357SOL     OW24532   4.223   3.473   1.228 -0.3127  0.1474  0.1530
 4357SOL    HW124533   4.316   3.460   1.247 -0.4658  0.9292  1.4463
 4357SOL    HW224534   4.183   3.391   1.256  2.1378 -0.6547  1.2393
 4358SOL     OW24535   2.253   0.759   3.247  0.2864 -0.1613  0.0528
 4358SOL    HW124536   2.316   0.828   3.228  3.4498 -3.0726 -0.1965
 4358SOL    HW224537   2.251   0.758   3.343  1.3991 -0.9886  0.0724
 4359SOL     OW24538   1.595   3.378  14.479 -0.4153  0.5121 -0.1774
 4359SOL    HW124539   1.599   3.457  14.425 -0.1686 -0.3097 -1.3559
 4359SOL    HW224540   1.592   3.419  14.565 -1.4817 -0.8193  0.4219
 4360SOL     OW24541   1.727   1.095   2.455 -0.4861  0.1885  0.2764
 4360SOL    HW124542   1.733   1.179   2.501 -2.3168 -0.5492  1.8782
 4360SOL    HW224543   1.638   1.064   2.473  0.0135 -1.6214 -0.3205
 4361SOL     OW24544   1.192   4.025  15.255 -0.0735  0.0096  0.2926
 4361SOL    HW124545   1.258   3.986  15.313  0.2062 -0.3825 -0.2942
 4361SOL    HW224546   1.121   3.979  15.300 -0.2098  2.1224  2.2566
 4362SOL     OW24547   1.823   1.226   4.035  0.2423  0.5556  0.1779
 4362SOL    HW124548   1.736   1.251   4.065  0.2447 -1.1616  1.6229
 4362SOL    HW224549   1.819   1.131   4.045 -0.5026  0.5816  0.1241
 4363SOL     OW24550   1.012   3.315   8.322  0.1927  0.1941 -0.4924
 4363SOL    HW124551   0.961   3.385   8.364  0.1419 -0.1312 -0.0091
 4363SOL    HW224552   0.977   3.328   8.234  0.8656 -1.1209 -0.9549
 4364SOL     OW24553   3.000   4.599   4.363 -0.3956  1.0395  0.7121
 4364SOL    HW124554   2.973   4.560   4.279  1.8224 -0.4128  0.6759
 4364SOL    HW224555   3.077   4.543   4.375 -0.9642  0.1723  0.3684
 4365SOL     OW24556   1.179   3.105   3.479  0.5379 -0.1786 -0.3583
 4365SOL    HW124557   1.204   3.030   3.533 -2.1568 -1.1321 -0.4509
 4365SOL    HW224558   1.115   3.063   3.421  1.2797 -0.5906 -0.8825
 4366SOL     OW24559   2.596   0.216   1.011  0.3288  0.0009 -0.2731
 4366SOL    HW124560   2.652   0.283   1.049  1.2235 -0.3240 -1.0223
 4366SOL    HW224561   2.513   0.263   1.016  0.6323  0.5206 -0.0957
 4367SOL     OW24562   0.887   1.091   2.372 -0.8119  0.4586 -0.1198
 4367SOL    HW124563   0.952   1.126   2.311 -0.6662  1.2609  0.5008
 4367SOL    HW224564   0.823   1.162   2.383 -1.3240 -0.3743  2.2067
 4368SOL     OW24565   2.804   1.884   4.215  0.0718 -0.0092 -0.0207
 4368SOL    HW124566   2.857   1.832   4.155 -0.8976  1.0347 -1.8115
 4368SOL    HW224567   2.850   1.968   4.219  0.5825 -0.2791 -0.3196
 4369SOL     OW24568   0.160   3.744   4.791  0.0754  0.1885 -0.0522
 4369SOL    HW124569   0.081   3.794   4.770  0.0647  0.1939 -0.0007
 4369SOL    HW224570   0.162   3.698   4.707  0.8751  0.1138  0.0048
 4370SOL     OW24571   0.485   2.429   5.426  0.3665 -0.2523  0.5764
 4370SOL    HW124572   0.574   2.407   5.398  1.3686  1.5247  2.4080
 4370SOL    HW224573   0.480   2.415   5.520  3.2795 -2.3692  0.4043
 4371SOL     OW24574   1.890   2.354   8.750 -0.0089  0.5555  0.0187
 4371SOL    HW124575   1.985   2.368   8.754 -0.3778  3.9734 -2.8621
 4371SOL    HW224576   1.869   2.402   8.670 -0.2653  0.0972 -0.1883
 4372SOL     OW24577   3.597   4.413   0.013  0.3731 -0.5669  0.2106
 4372SOL    HW124578   3.570   4.322   0.001 -1.1436 -0.0632 -0.1700
 4372SOL    HW224579   3.668   4.412  17.633 -0.4601  0.5818 -0.7298
 4373SOL     OW24580   4.313   2.883   4.583  0.1851 -0.6291 -0.4525
 4373SOL    HW124581   4.332   2.859   4.674 -1.1568  0.9066  0.2452
 4373SOL    HW224582   4.227   2.843   4.580 -0.3336  0.1128  4.7723
 4374SOL     OW24583   4.132   4.266   7.498  0.6172 -0.3385 -0.0388
 4374SOL    HW124584   4.187   4.343   7.480 -0.1834  0.3745  0.5754
 4374SOL    HW224585   4.135   4.212   7.419  1.2075 -2.7755  1.6521
 4375SOL     OW24586   1.014   4.597   1.935 -0.6078 -0.4947 -0.1774
 4375SOL    HW124587   1.051   4.660   1.874  0.7578  0.0040  1.1688
 4375SOL    HW224588   1.097   4.577   1.978 -1.3565  1.1047  2.0429
 4376SOL     OW24589   2.029   3.990   4.626  0.4491 -0.1812 -0.0277
 4376SOL    HW124590   1.976   3.911   4.639 -1.8954  1.4892  0.5261
 4376SOL    HW224591   1.965   4.038   4.573 -0.4256 -2.1235 -0.7620
 4377SOL     OW24592   4.353   3.539   9.054 -0.4449  0.3247  0.3154
 4377SOL    HW124593   4.448   3.535   9.065 -0.1673  2.8337 -1.1577
 4377SOL    HW224594   4.318   3.511   9.138  1.6170  0.6943  1.3141
 4378SOL     OW24595   3.078   2.839   1.419  0.2606 -0.7274  0.6665
 4378SOL    HW124596   2.992   2.832   1.459  1.7051 -0.1710  3.8392
 4378SOL    HW224597   3.120   2.764   1.460  2.6233 -0.5114 -1.2864
 4379SOL     OW24598   4.036   0.774   3.053  0.3655 -0.5671  0.8470
 4379SOL    HW124599   3.979   0.846   3.078  2.0753  1.1446 -0.1469
 4379SOL    HW224600   4.111   0.809   3.005 -0.2291 -0.7078 -0.1826
 4380SOL     OW24601   2.632   0.233   3.114 -0.0360 -0.4141 -0.2114
 4380SOL    HW124602   2.648   0.184   3.194  1.3492 -2.0304 -1.4678
 4380SOL    HW224603   2.720   0.253   3.081 -0.3516 -0.5920 -1.1857
 4381SOL     OW24604   4.213   2.501   3.958 -0.3038 -0.3161 -0.2236
 4381SOL    HW124605   4.272   2.512   4.033 -1.4239 -1.3584  0.8083
 4381SOL    HW224606   4.125   2.499   3.996 -0.2585  0.1288 -0.0900
 4382SOL     OW24607   0.853   1.227   4.741  0.0440 -0.4123  0.0574
 4382SOL    HW124608   0.774   1.188   4.705  0.4079 -1.0524 -0.0535
 4382SOL    HW224609   0.809   1.248   4.823 -1.4034  1.9070 -1.3062
 4383SOL     OW24610   3.209   0.071   4.885  0.0059  0.0188 -0.2418
 4383SOL    HW124611   3.183   0.130   4.956 -0.8731 -1.3068  0.5412
 4383SOL    HW224612   3.136   0.009   4.887  1.1652 -1.3138  1.0465
 4384SOL     OW24613   0.299   3.284   7.586 -0.1941 -0.2395  0.0674
 4384SOL    HW124614   0.288   3.190   7.575  2.8859 -0.5765 -0.0794
 4384SOL    HW224615   0.223   3.309   7.638 -0.7841  0.1401 -0.9801
 4385SOL     OW24616   4.647   3.267   7.276  0.2429  0.3065  0.5979
 4385SOL    HW124617   4.585   3.262   7.203  1.3700  1.7294 -0.4876
 4385SOL    HW224618   0.007   3.281   7.225 -0.1899  0.9267  0.0896
 4386SOL     OW24619   3.035   4.321   5.811 -0.1559  0.2856  0.5105
 4386SOL    HW124620   3.121   4.311   5.771 -0.4835  0.6809 -0.3021
 4386SOL    HW224621   3.002   4.406   5.780  0.0060  0.3570  0.5355
 4387SOL     OW24622   2.771   0.704   2.108  0.2959  0.2527  0.3376
 4387SOL    HW124623   2.781   0.743   2.021  0.1512  2.4219  1.2760
 4387SOL    HW224624   2.865   0.687   2.114  0.5802  2.2230  1.6899
 4388SOL     OW24625   1.109   0.385   5.699  0.5938 -0.3503  0.2298
 4388SOL    HW124626   1.043   0.351   5.760  1.9374 -1.2119  1.1967
 4388SOL    HW224627   1.182   0.329   5.724  1.3873 -0.2892 -1.9719
 4389SOL     OW24628   0.285   2.284  14.172 -0.0534 -0.6029  0.2783
 4389SOL    HW124629   0.325   2.227  14.238 -1.2296 -0.8745  0.7518
 4389SOL    HW224630   0.277   2.369  14.215 -0.3271 -0.6757  0.3732
 4390SOL     OW24631   1.630   4.115   3.901 -0.2850  0.3718 -0.6738
 4390SOL    HW124632   1.564   4.183   3.912  0.2291  0.7279  0.2597
 4390SOL    HW224633   1.705   4.166   3.930 -1.4177  1.7222 -0.1382
 4391SOL     OW24634   2.839   4.391   9.021  0.7102 -0.1597  0.0710
 4391SOL    HW124635   2.896   4.432   9.085 -0.4188 -0.8568  1.5198
 4391SOL    HW224636   2.844   4.448   8.944  2.0104  1.3358  1.2708
 4392SOL     OW24637   1.697   3.922   8.694 -0.1655 -0.3623  0.1463
 4392SOL    HW124638   1.612   3.893   8.728 -0.3327 -0.0117  0.0252
 4392SOL    HW224639   1.724   3.976   8.768 -0.9051  0.2698 -0.0367
 4393SOL     OW24640   0.636   3.325   8.942  0.0760 -0.0107  0.5998
 4393SOL    HW124641   0.670   3.237   8.954 -2.8261 -1.0751  1.0922
 4393SOL    HW224642   0.555   3.291   8.904 -0.5033  0.8960  1.0246
 4394SOL     OW24643   1.719   3.532   7.323 -0.0924  0.1204 -0.1577
 4394SOL    HW124644   1.769   3.603   7.363  0.9510 -0.8429  0.2630
 4394SOL    HW224645   1.790   3.486   7.278 -0.6103 -1.7206  0.9046
 4395SOL     OW24646   2.768   3.174   8.793  0.7088 -1.0242 -0.0899
 4395SOL    HW124647   2.823   3.214   8.860  1.3039  1.0679 -1.8081
 4395SOL    HW224648   2.767   3.085   8.829 -3.4884 -0.0827  2.0364
 4396SOL     OW24649   1.867   2.581   0.996  0.2549 -0.1245 -0.1238
 4396SOL    HW124650   1.814   2.554   0.921  2.5952 -1.8424 -1.1673
 4396SOL    HW224651   1.874   2.675   0.981 -1.8147 -0.0743 -0.7547
 4397SOL     OW24652   1.784   2.673   7.444  0.5654 -0.1254  0.3935
 4397SOL    HW124653   1.733   2.623   7.508  2.8303 -1.6865  0.9799
 4397SOL    HW224654   1.791   2.610   7.372 -2.5071  0.6564 -0.5818
 4398SOL     OW24655   2.723   3.685   4.730  0.0775 -0.4489  0.4168
 4398SOL    HW124656   2.756   3.666   4.818  1.5382 -0.5492 -0.1564
 4398SOL    HW224657   2.708   3.780   4.738 -0.0413 -0.5481  1.4181
 4399SOL     OW24658   2.639   4.590   3.070  0.3175  0.2313 -0.4720
 4399SOL    HW124659   2.731   4.575   3.095  0.1272  1.2058  0.8226
 4399SOL    HW224660   2.648   4.605   2.976  0.3276 -0.2066 -0.5399
 4400SOL     OW24661   1.276   0.586   7.401 -0.2217  0.1630 -0.0850
 4400SOL    HW124662   1.364   0.553   7.380 -0.6924  1.2702 -3.7193
 4400SOL    HW224663   1.229   0.559   7.322  2.4102  1.9780 -2.2660
 4401SOL     OW24664   2.641   0.730   5.509 -0.4320 -0.0234  0.2826
 4401SOL    HW124665   2.564   0.697   5.555  0.5087 -0.9481  1.1846
 4401SOL    HW224666   2.628   0.705   5.417  2.0242  2.9447 -0.8669
 4402SOL     OW24667   3.063   4.466   3.230 -0.0379 -0.8263  0.8867
 4402SOL    HW124668   2.993   4.401   3.230  0.2899 -1.1775 -0.1216
 4402SOL    HW224669   3.093   4.466   3.321 -1.2978  2.6932  1.3101
 4403SOL     OW24670   1.192   1.375   4.031  0.7216 -0.1254 -0.3461
 4403SOL    HW124671   1.120   1.312   4.039 -0.7979  1.7286  0.2798
 4403SOL    HW224672   1.137   1.449   4.006  1.3532  1.9019  4.3265
 4404SOL     OW24673   0.325   2.082   5.128 -0.2292 -0.6774  0.5355
 4404SOL    HW124674   0.333   2.039   5.213  1.1545  0.5332  1.0221
 4404SOL    HW224675   0.239   2.124   5.118  1.7514  2.7967 -1.5854
 4405SOL     OW24676   1.246   1.557   4.592 -0.0664  0.0988 -0.5132
 4405SOL    HW124677   1.170   1.612   4.611  0.4834  0.6177  0.1996
 4405SOL    HW224678   1.310   1.625   4.569  0.4307  0.3043  1.5602
 4406SOL     OW24679   1.886   2.284   6.649 -0.3796  0.0878  0.1189
 4406SOL    HW124680   1.892   2.379   6.659  0.5384 -0.0005  0.4021
 4406SOL    HW224681   1.825   2.280   6.575 -1.2915 -3.6468  1.0826
 4407SOL     OW24682   1.915   4.479   1.738 -0.7432 -0.4630  0.3474
 4407SOL    HW124683   1.878   4.559   1.701 -2.5391 -2.0588 -1.2837
 4407SOL    HW224684   1.847   4.416   1.715 -2.7389  1.7828  0.0893
 4408SOL     OW24685   3.322   3.821  13.193  0.3638 -0.0993  0.1987
 4408SOL    HW124686   3.412   3.796  13.214  0.3849  1.1719  1.6499
 4408SOL    HW224687   3.310   3.909  13.228  0.2242  1.2504 -3.3321
 4409SOL     OW24688   0.875   4.120  16.564  0.1724  0.2303  0.4670
 4409SOL    HW124689   0.858   4.153  16.476 -0.1660  1.3376  0.9459
 4409SOL    HW224690   0.958   4.165  16.580  0.4937 -0.0012 -0.5470
 4410SOL     OW24691   1.096   3.395   4.307 -0.5080 -0.2091 -0.1802
 4410SOL    HW124692   1.005   3.408   4.278 -0.1324  0.3861 -1.0814
 4410SOL    HW224693   1.134   3.357   4.228 -2.4785  0.1924 -1.3203
 4411SOL     OW24694   1.233   1.051   9.873  0.4575 -0.1935 -0.2024
 4411SOL    HW124695   1.186   1.025   9.952  0.0232 -1.1094 -0.7623
 4411SOL    HW224696   1.187   1.000   9.806  0.9087 -0.1527 -0.5376
 4412SOL     OW24697   3.856   4.441  17.554 -0.1525 -0.8280  0.1782
 4412SOL    HW124698   3.850   4.489  17.471 -2.6675  1.8791  1.9336
 4412SOL    HW224699   3.943   4.401  17.545  0.7002  1.0389  0.0094
 4413SOL     OW24700   4.107   2.633   0.204  0.4176 -0.6265  0.6625
 4413SOL    HW124701   4.143   2.550   0.233 -2.0760 -2.2266 -0.8494
 4413SOL    HW224702   4.166   2.692   0.251 -0.5794  0.6542  0.3182
 4414SOL     OW24703   1.480   3.523  10.764 -0.0893  0.4158 -0.4143
 4414SOL    HW124704   1.519   3.601  10.805  0.7697 -1.4577  2.3573
 4414SOL    HW224705   1.555   3.479  10.724 -1.2008 -2.0822  0.2221
 4415SOL     OW24706   3.617   0.753   8.452 -0.7481  0.5091 -0.2150
 4415SOL    HW124707   3.595   0.844   8.473 -1.1675  0.3295  0.1184
 4415SOL    HW224708   3.674   0.723   8.523  0.4552 -3.4152 -2.7972
 4416SOL     OW24709   4.353   1.032  15.396 -0.1153  0.3304 -0.1046
 4416SOL    HW124710   4.301   1.059  15.471 -1.4361 -1.1915 -0.4725
 4416SOL    HW224711   4.422   0.980  15.437 -1.1429 -0.3124  0.8011
 4417SOL     OW24712   2.830   4.497   1.525  0.3557 -0.2616  0.3820
 4417SOL    HW124713   2.900   4.562   1.515 -0.2008  0.7695  3.0954
 4417SOL    HW224714   2.763   4.538   1.469  0.2852  0.2046  0.8079
 4418SOL     OW24715   2.768   3.415   9.328 -0.0423  0.4905 -1.3726
 4418SOL    HW124716   2.797   3.332   9.364 -0.0801  1.7124  1.4355
 4418SOL    HW224717   2.850   3.462   9.335 -0.7634  1.6147 -0.4863
 4419SOL     OW24718   0.539   3.583  17.563  0.4187  0.1696 -0.0376
 4419SOL    HW124719   0.513   3.653  17.503  3.0086  0.8989 -0.2888
 4419SOL    HW224720   0.576   3.631  17.636 -0.5999  1.7246 -0.5493
 4420SOL     OW24721   0.086   0.379   8.574 -0.0641  0.3131  0.1423
 4420SOL    HW124722   0.139   0.421   8.643 -1.9672  1.9309  0.6148
 4420SOL    HW224723   0.023   0.447   8.553 -0.3903  0.3267  1.1273
 4421SOL     OW24724   2.652   4.282   2.058 -0.2250 -0.3678 -0.0111
 4421SOL    HW124725   2.655   4.332   2.140  1.8068  1.8935 -1.4706
 4421SOL    HW224726   2.739   4.305   2.025 -0.9348  1.2245 -0.7589
 4422SOL     OW24727   2.651   3.433   9.097  0.2482  0.4679 -0.1392
 4422SOL    HW124728   2.713   3.494   9.057  1.3848 -1.8084 -1.7995
 4422SOL    HW224729   2.686   3.441   9.186  0.4830  0.4991 -0.2360
 4423SOL     OW24730   1.091   0.876   3.108 -0.6042  0.2342  0.0617
 4423SOL    HW124731   1.012   0.840   3.148  0.5832 -0.8699  1.3799
 4423SOL    HW224732   1.103   0.807   3.043  0.0195 -0.0676  0.5076
 4424SOL     OW24733   2.361   0.171  12.266 -0.0472  0.3324  0.0748
 4424SOL    HW124734   2.305   0.248  12.278  0.9170  1.3831 -2.1731
 4424SOL    HW224735   2.416   0.190  12.190 -0.6105  0.8258 -0.2085
 4425SOL     OW24736   4.150   4.120   6.808  0.6721  1.4037  0.2351
 4425SOL    HW124737   4.238   4.120   6.846  0.7293  0.1934  0.1063
 4425SOL    HW224738   4.139   4.214   6.793 -1.5848  0.9458 -0.9279
 4426SOL     OW24739   0.369   3.819  17.049  0.4656  1.1630 -0.2855
 4426SOL    HW124740   0.322   3.807  16.967  0.3259 -1.4776  0.1798
 4426SOL    HW224741   0.448   3.765  17.044 -0.3184 -0.0477  0.3775
 4427SOL     OW24742   1.342   0.042  12.944  0.3000  0.1545 -0.3616
 4427SOL    HW124743   1.320   4.678  12.983  2.1217  0.3609  1.1211
 4427SOL    HW224744   1.344   0.103  13.018 -2.1334  0.6294 -0.6865
 4428SOL     OW24745   1.782   0.069  17.126  0.4414 -0.4258  0.0730
 4428SOL    HW124746   1.732   4.708  17.123 -2.2447  1.1639  1.6847
 4428SOL    HW224747   1.858   0.040  17.075  0.7462  0.0988  0.2371
 4429SOL     OW24748   1.396   1.957   9.037 -0.5001  0.0638 -0.0979
 4429SOL    HW124749   1.354   1.958   8.951  0.1047 -3.0270 -0.4077
 4429SOL    HW224750   1.362   2.033   9.084  0.2487  0.1372  0.3183
 4430SOL     OW24751   0.447   1.590   4.342 -0.2281 -0.5576  0.0702
 4430SOL    HW124752   0.502   1.525   4.386 -0.4912 -0.5762  0.3652
 4430SOL    HW224753   0.450   1.562   4.251 -1.4648 -0.3665 -0.0254
 4431SOL     OW24754   3.113   0.876   1.151 -0.4437 -0.4519  0.5808
 4431SOL    HW124755   3.195   0.919   1.175  0.0745 -1.2288  0.1977
 4431SOL    HW224756   3.108   0.890   1.056 -0.0569 -1.2961  0.4411
 4432SOL     OW24757   0.012   2.319  14.535 -0.5514  0.4953  0.6020
 4432SOL    HW124758   0.010   2.413  14.555  1.7077  0.8012 -0.6436
 4432SOL    HW224759   0.022   2.315  14.440 -0.6884  1.1601  0.5595
 4433SOL     OW24760   1.136   1.311  14.934  0.1639 -1.0519  0.4881
 4433SOL    HW124761   1.138   1.403  14.910  0.1513 -0.9059  1.0500
 4433SOL    HW224762   1.043   1.289  14.926 -0.0799 -0.8809  2.9307
 4434SOL     OW24763   3.511   1.506  12.729 -0.8928 -0.1022  0.5797
 4434SOL    HW124764   3.586   1.471  12.682  0.3861  1.4767  1.4848
 4434SOL    HW224765   3.445   1.477  12.665 -2.5474  2.5210  1.1091
 4435SOL     OW24766   4.538   1.757   2.575  0.4439 -0.0517 -0.2370
 4435SOL    HW124767   4.566   1.723   2.490 -0.4364 -0.9663 -0.1644
 4435SOL    HW224768   4.594   1.834   2.583  2.7501 -1.6355 -0.9852
 4436SOL     OW24769   1.886   1.191  12.968 -0.6127  0.3569 -0.1462
 4436SOL    HW124770   1.836   1.203  13.049 -0.3380  1.6995 -0.1637
 4436SOL    HW224771   1.825   1.224  12.902  0.0137 -0.2489 -1.0190
 4437SOL     OW24772   1.924   2.742   3.261  0.0029 -0.3752 -0.0034
 4437SOL    HW124773   1.832   2.719   3.244  0.3674 -2.7031  1.1529
 4437SOL    HW224774   1.920   2.736   3.356 -1.4174 -1.4246 -0.1307
 4438SOL     OW24775   3.238   3.898   3.171 -0.8017 -0.5788 -0.5009
 4438SOL    HW124776   3.319   3.949   3.168 -1.5719  0.6120 -1.5304
 4438SOL    HW224777   3.172   3.964   3.148 -1.4598 -1.1164 -0.1548
 4439SOL     OW24778   2.687   4.109   2.922 -0.5556 -0.0464 -0.3203
 4439SOL    HW124779   2.661   4.018   2.937 -1.1447  0.6392  2.6962
 4439SOL    HW224780   2.778   4.095   2.894 -1.3337 -2.7104 -1.5655
 4440SOL     OW24781   0.867   3.784   3.063 -0.1444 -0.1432  0.1482
 4440SOL    HW124782   0.792   3.843   3.057  0.0917  0.1268 -0.0944
 4440SOL    HW224783   0.828   3.708   3.106  0.7223 -0.5424  0.2308
 4441SOL     OW24784   0.232   3.817  17.620 -0.2210 -0.3762 -0.2709
 4441SOL    HW124785   0.313   3.868  17.630  0.0035 -0.6929 -0.4563
 4441SOL    HW224786   0.171   3.891  17.616 -1.3653 -1.3672 -1.1044
 4442SOL     OW24787   1.062   1.547  16.967 -0.3695  0.4357 -0.2188
 4442SOL    HW124788   1.104   1.575  16.885  2.4358 -0.5544  0.8860
 4442SOL    HW224789   1.145   1.548  17.014 -0.7019 -2.2455  0.4121
 4443SOL     OW24790   0.787   4.673   4.523  1.0106  0.0554  0.6196
 4443SOL    HW124791   0.775   4.615   4.599  0.7728 -0.6273  0.0543
 4443SOL    HW224792   0.816   4.611   4.457 -0.3586  1.6111 -1.4132
 4444SOL     OW24793   2.255   1.954   4.161  0.4358  0.0122 -0.3400
 4444SOL    HW124794   2.302   1.899   4.098 -1.1027 -3.3329  1.4553
 4444SOL    HW224795   2.161   1.943   4.146  0.1052  1.8954  0.3625
 4445SOL     OW24796   0.661   3.598   9.700 -0.1378 -0.3655 -0.1852
 4445SOL    HW124797   0.584   3.633   9.745 -0.7324 -0.6967 -0.9382
 4445SOL    HW224798   0.727   3.666   9.713 -0.4817 -0.4667  2.0692
 4446SOL     OW24799   1.616   2.408  15.525 -0.4423  0.1015  0.0633
 4446SOL    HW124800   1.615   2.332  15.467 -0.6117 -0.2557  0.5347
 4446SOL    HW224801   1.565   2.367  15.594  0.3354  0.0324  0.5937
 4447SOL     OW24802   0.674   2.985  15.024 -0.0008 -0.5052  0.3439
 4447SOL    HW124803   0.629   2.945  14.950 -1.0981  4.0075 -1.4700
 4447SOL    HW224804   0.682   3.076  14.994 -0.5199  0.5015  3.2208
 4448SOL     OW24805   2.543   3.917  10.231 -0.3243 -0.2108 -0.1593
 4448SOL    HW124806   2.492   3.940  10.153 -0.4717 -1.0166 -0.2953
 4448SOL    HW224807   2.584   4.003  10.246 -1.0431 -0.0576  0.9222
 4449SOL     OW24808   1.634   2.147   4.125  0.4893 -0.0242 -0.0478
 4449SOL    HW124809   1.601   2.102   4.047  0.6418  0.7322 -0.5552
 4449SOL    HW224810   1.628   2.238   4.096 -2.5798  0.6398  2.6531
 4450SOL     OW24811   0.182   1.074   3.760  0.5138 -0.0975  0.0848
 4450SOL    HW124812   0.267   1.106   3.727  0.2476 -0.9548 -1.4568
 4450SOL    HW224813   0.218   1.002   3.811 -1.2735 -1.3662 -0.4562
 4451SOL     OW24814   1.028   0.676   1.663  0.2077 -0.2408 -0.3297
 4451SOL    HW124815   1.030   0.643   1.573 -0.2025  2.6942 -1.4212
 4451SOL    HW224816   0.957   0.618   1.692 -0.3011 -0.3638 -1.8142
 4452SOL     OW24817   4.066   1.380  10.756 -0.4819  0.3472  0.3555
 4452SOL    HW124818   4.096   1.462  10.718  0.9808  0.4806  1.7894
 4452SOL    HW224819   4.142   1.353  10.808 -1.9003 -1.8177  1.3253
 4453SOL     OW24820   1.630   1.499  16.511 -0.1511  0.0575 -0.0122
 4453SOL    HW124821   1.725   1.485  16.501 -0.1040  0.0035  0.5141
 4453SOL    HW224822   1.622   1.578  16.457  0.5719  0.0256 -0.1800
 4454SOL     OW24823   0.488   1.190   8.387  0.2336 -0.1671 -0.1187
 4454SOL    HW124824   0.522   1.241   8.461  0.4328  0.9962 -1.0240
 4454SOL    HW224825   0.469   1.260   8.325 -0.0185 -1.1777 -1.1758
 4455SOL     OW24826   0.647   4.517   4.720  0.3054  0.3595  0.2647
 4455SOL    HW124827   0.561   4.559   4.713  0.7714  1.3252  0.2825
 4455SOL    HW224828   0.629   4.424   4.728  1.2778  0.1362 -0.1652
 4456SOL     OW24829   1.916   4.695   8.880 -0.3022 -0.4598  0.0495
 4456SOL    HW124830   1.840   4.668   8.931  0.7569  0.6474  2.2142
 4456SOL    HW224831   1.902   4.641   8.802 -1.1602 -1.3254  0.7897
 4457SOL     OW24832   1.231   1.552  12.406  0.2964 -0.1676 -1.1649
 4457SOL    HW124833   1.159   1.600  12.363  0.4421  2.4446  1.5315
 4457SOL    HW224834   1.283   1.626  12.438 -0.1393 -0.6510  0.6756
 4458SOL     OW24835   4.297   2.738   2.202 -0.0692  0.8271  0.1375
 4458SOL    HW124836   4.302   2.809   2.138  3.3798 -1.1836 -1.7414
 4458SOL    HW224837   4.276   2.791   2.280 -0.6414  0.8564 -0.0353
 4459SOL     OW24838   2.345   1.928   6.834 -0.4887  0.4467 -0.0913
 4459SOL    HW124839   2.425   1.920   6.885 -0.6668 -1.9946 -0.2215
 4459SOL    HW224840   2.372   1.984   6.761 -1.7436 -0.3158 -1.1495
 4460SOL     OW24841   0.585   3.851   6.181 -0.1705 -0.2436  0.1223
 4460SOL    HW124842   0.563   3.790   6.109 -1.7339  0.9793 -0.4429
 4460SOL    HW224843   0.539   3.806   6.252 -2.4119  1.6554 -0.1254
 4461SOL     OW24844   4.272   1.282   8.394 -0.5639 -0.2973  0.0988
 4461SOL    HW124845   4.294   1.358   8.448 -1.0486 -0.2063  0.1640
 4461SOL    HW224846   4.344   1.226   8.423 -0.0470  0.1259 -0.3796
 4462SOL     OW24847   4.512   1.133   9.299 -0.3455  0.5086 -0.3844
 4462SOL    HW124848   4.519   1.227   9.282  0.6524  0.4866 -0.1408
 4462SOL    HW224849   4.561   1.125   9.381 -0.5737 -0.8708 -0.3861
 4463SOL     OW24850   2.648   2.496   3.091  0.5108 -0.3684 -0.3559
 4463SOL    HW124851   2.739   2.523   3.086  0.2298  0.7038  0.2706
 4463SOL    HW224852   2.601   2.580   3.084  1.7934  0.3003 -0.9017
 4464SOL     OW24853   3.033   4.339   8.014  0.2649 -0.0858  0.5226
 4464SOL    HW124854   3.127   4.318   8.017 -0.1289 -2.0666 -0.7125
 4464SOL    HW224855   3.042   4.430   7.985  0.6803 -0.6775 -1.2220
 4465SOL     OW24856   2.141   4.176   0.167 -0.2951  0.0412  0.0874
 4465SOL    HW124857   2.095   4.135   0.240 -0.7742  2.7229  1.3096
 4465SOL    HW224858   2.220   4.122   0.164  0.7178  1.6267 -2.0175
 4466SOL     OW24859   2.033   0.562   0.081  0.4915  0.3251 -0.3525
 4466SOL    HW124860   1.964   0.541   0.018  0.8895 -2.5820  0.1829
 4466SOL    HW224861   2.049   0.474   0.116  1.3068  0.7468  0.3351
 4467SOL     OW24862   4.514   2.916   6.319 -0.4325 -0.2277  0.1024
 4467SOL    HW124863   4.514   2.835   6.370 -2.5557 -0.9897 -1.1214
 4467SOL    HW224864   4.607   2.937   6.329 -0.2334 -1.0905  0.1370
 4468SOL     OW24865   4.657   4.013   3.241 -0.8172 -0.1246 -0.3036
 4468SOL    HW124866   0.021   4.042   3.208 -0.7818 -0.8808 -0.8647
 4468SOL    HW224867   4.683   3.975   3.325 -2.4027 -0.1716  0.1663
 4469SOL     OW24868   3.845   1.435  10.579  0.0615 -0.0167  0.2173
 4469SOL    HW124869   3.936   1.423  10.606 -0.1608 -0.6538  0.6785
 4469SOL    HW224870   3.841   1.530  10.577  1.2891  0.0294 -0.0981
 4470SOL     OW24871   4.060   0.383  17.326  0.0497 -0.3077 -0.4772
 4470SOL    HW124872   3.987   0.420  17.278 -0.3288  1.6569  1.6613
 4470SOL    HW224873   4.015   0.319  17.382  0.5015 -0.0898  0.1350
 4471SOL     OW24874   0.981   3.114   4.544  0.2501  0.5391  0.6384
 4471SOL    HW124875   1.036   3.087   4.618 -1.9596  2.7977  3.0763
 4471SOL    HW224876   0.969   3.206   4.568 -1.7746  0.4314 -0.0225
 4472SOL     OW24877   0.263   3.026   9.958  0.1120 -0.0428 -0.2688
 4472SOL    HW124878   0.263   2.985  10.045 -0.9023 -1.8188 -1.0960
 4472SOL    HW224879   0.353   3.002   9.937  0.4853  1.2763 -0.1457
 4473SOL     OW24880   0.712   0.483   8.532 -0.6799 -0.5148 -0.0245
 4473SOL    HW124881   0.627   0.517   8.559  0.4007  2.0336  0.1984
 4473SOL    HW224882   0.772   0.512   8.601 -0.1036  1.6796 -1.4587
 4474SOL     OW24883   4.520   4.051   2.049 -0.1369 -0.1010  0.0558
 4474SOL    HW124884   4.513   4.065   2.143  1.0726 -1.3907  0.3242
 4474SOL    HW224885   4.440   4.085   2.008  0.7777  1.4438 -0.4631
 4475SOL     OW24886   4.023   3.826   8.798 -0.3615  0.5477 -0.5762
 4475SOL    HW124887   4.112   3.822   8.832 -0.6598 -0.1437  0.1133
 4475SOL    HW224888   4.010   3.921   8.808 -1.2188  0.0760  2.8101
 4476SOL     OW24889   3.997   2.687  14.852 -0.1993  0.4077  0.1801
 4476SOL    HW124890   3.922   2.741  14.825 -1.1994  0.4578  3.1314
 4476SOL    HW224891   3.948   2.616  14.894 -2.1072  1.5202 -0.1421
 4477SOL     OW24892   1.801   4.499   7.164  0.0816 -0.0760 -0.3195
 4477SOL    HW124893   1.762   4.543   7.089 -1.6886 -0.1268  0.5673
 4477SOL    HW224894   1.815   4.415   7.122 -3.1821 -1.4260  1.2469
 4478SOL     OW24895   4.645   2.543   6.714 -0.5251  0.5655  0.3129
 4478SOL    HW124896   4.616   2.489   6.787 -1.1264  0.2266 -0.1735
 4478SOL    HW224897   4.665   2.478   6.646 -1.9579  0.7642 -0.2945
 4479SOL     OW24898   2.832   4.026   8.207 -0.1967  0.3666  0.1055
 4479SOL    HW124899   2.821   4.078   8.286 -0.5130 -0.9129  0.8953
 4479SOL    HW224900   2.928   4.020   8.203 -0.3452 -1.9369  0.0754
 4480SOL     OW24901   4.181   1.163   6.716  0.7668 -0.1942 -0.0877
 4480SOL    HW124902   4.206   1.152   6.808  0.9994  0.6332 -0.0494
 4480SOL    HW224903   4.131   1.244   6.707 -0.1406 -0.8506 -0.9385
 4481SOL     OW24904   2.175   1.690   4.503 -0.0145 -0.1159 -0.4341
 4481SOL    HW124905   2.246   1.753   4.495 -1.1664  0.9052 -2.6360
 4481SOL    HW224906   2.130   1.719   4.583 -1.0330 -2.1575 -0.2694
 4482SOL     OW24907   3.980   2.875  17.376  0.4027  0.6966 -0.5034
 4482SOL    HW124908   4.049   2.932  17.344  1.4182  0.1748  0.7359
 4482SOL    HW224909   3.932   2.866  17.294 -2.3914 -0.5562  1.2915
 4483SOL     OW24910   0.034   3.313   0.529  0.0212  0.0290 -0.0261
 4483SOL    HW124911   0.053   3.387   0.472  0.6617 -0.6517 -0.6985
 4483SOL    HW224912   0.047   3.349   0.617 -0.2829  1.0104 -0.3845
 4484SOL     OW24913   3.366   2.100   1.820  0.0324  0.4800 -0.6774
 4484SOL    HW124914   3.275   2.092   1.847  0.5091  0.5155  0.9684
 4484SOL    HW224915   3.402   2.154   1.890 -1.9981 -0.0856  0.8065
 4485SOL     OW24916   0.913   0.628   9.434 -0.4309 -0.2839  0.1800
 4485SOL    HW124917   0.820   0.614   9.414 -0.3198 -0.4245 -0.2360
 4485SOL    HW224918   0.925   0.719   9.405  4.0277 -0.2754  2.0192
 4486SOL     OW24919   2.852   2.423  17.138  0.6752 -0.2030 -0.1706
 4486SOL    HW124920   2.905   2.376  17.074 -0.4002 -3.0882  1.0672
 4486SOL    HW224921   2.765   2.388  17.121  0.1314  0.4730  1.2472
 4487SOL     OW24922   4.005   4.166   8.807  0.1733 -0.5386  0.0784
 4487SOL    HW124923   4.077   4.196   8.753 -0.6015  0.9817 -0.1053
 4487SOL    HW224924   4.009   4.230   8.879 -2.8674 -0.8478  0.5436
 4488SOL     OW24925   3.880   3.597  12.425  0.7043 -0.2409  0.0340
 4488SOL    HW124926   3.909   3.682  12.459 -1.7157  1.6768 -2.5997
 4488SOL    HW224927   3.923   3.529  12.476 -3.5919 -4.4978 -2.0123
 4489SOL     OW24928   2.559   0.241   1.810 -0.8338  0.3777 -0.1964
 4489SOL    HW124929   2.494   0.303   1.776  0.0342  1.0381 -0.6642
 4489SOL    HW224930   2.499   0.184   1.858  2.2563 -1.5014  1.4619
 4490SOL     OW24931   2.297   2.997  16.192  0.2112  0.6678  0.6181
 4490SOL    HW124932   2.349   2.923  16.224 -1.1345 -0.5224  0.0546
 4490SOL    HW224933   2.268   2.957  16.110  4.3486  0.0126 -0.5270
 4491SOL     OW24934   3.898   1.334   6.157 -0.4116 -0.3762  0.1800
 4491SOL    HW124935   3.874   1.267   6.092 -1.7735  1.8832 -1.6667
 4491SOL    HW224936   3.956   1.390   6.105 -1.6149  0.8132  0.1330
 4492SOL     OW24937   0.415   1.243   4.061 -0.3195 -0.3245  0.3588
 4492SOL    HW124938   0.466   1.209   3.987 -0.6601  0.4920 -0.2611
 4492SOL    HW224939   0.390   1.170   4.117  0.6327 -0.4590  0.6054
 4493SOL     OW24940   0.528   0.660   9.703  0.1509 -0.4333  0.6580
 4493SOL    HW124941   0.459   0.678   9.640  0.1044 -1.1308  0.5019
 4493SOL    HW224942   0.609   0.687   9.660  0.4426  1.0973  2.1719
 4494SOL     OW24943   4.471   2.407   2.027 -0.1057  0.3385 -0.0688
 4494SOL    HW124944   4.496   2.443   1.942 -2.0647  1.7799 -0.0276
 4494SOL    HW224945   4.532   2.440   2.093  0.0306 -2.7043  1.3170
 4495SOL     OW24946   4.146   0.209  11.950 -0.1788 -0.1192 -0.5487
 4495SOL    HW124947   4.080   0.263  11.994 -1.0284 -1.1939 -0.5213
 4495SOL    HW224948   4.143   0.244  11.860  0.2676 -0.1252 -0.5658
 4496SOL     OW24949   3.510   3.935   3.824 -0.0466 -0.0988  0.1414
 4496SOL    HW124950   3.601   3.965   3.830  0.7060 -2.0344 -1.6066
 4496SOL    HW224951   3.478   3.988   3.750 -0.5649 -1.0106 -0.3012
 4497SOL     OW24952   1.907   0.657   4.148 -0.0588 -0.2483  0.4630
 4497SOL    HW124953   1.922   0.656   4.053 -0.1457  3.0268  0.4139
 4497SOL    HW224954   1.987   0.613   4.176  1.8399  1.8242 -1.7031
 4498SOL     OW24955   3.504   4.329  15.249 -0.8770  0.1611 -0.0656
 4498SOL    HW124956   3.510   4.238  15.280 -0.1480  0.4824  0.7359
 4498SOL    HW224957   3.537   4.377  15.325 -1.2100 -2.9375  2.0341
 4499SOL     OW24958   3.247   1.694   4.472 -0.2385  0.0504  0.8587
 4499SOL    HW124959   3.321   1.636   4.455  3.1698  4.8343 -0.5266
 4499SOL    HW224960   3.189   1.658   4.405 -0.3346 -0.3814  1.1696
 4500SOL     OW24961   1.261   3.243  15.714  0.1342 -0.1746 -0.0156
 4500SOL    HW124962   1.240   3.326  15.672  1.7741  1.1180  1.7371
 4500SOL    HW224963   1.262   3.189  15.635  0.8582 -2.6401  1.6853
 4501SOL     OW24964   2.583   2.525  13.144  0.3110 -0.5252 -0.2541
 4501SOL    HW124965   2.548   2.540  13.231  1.3859  0.4970  0.0047
 4501SOL    HW224966   2.510   2.486  13.096  0.3921 -1.7481  0.6068
 4502SOL     OW24967   1.418   4.059  16.438 -0.2106 -0.2440 -0.4225
 4502SOL    HW124968   1.379   3.985  16.391  1.7614 -1.2702 -0.4363
 4502SOL    HW224969   1.439   4.119  16.367 -1.8695 -1.4044 -1.8926
 4503SOL     OW24970   2.207   0.555   1.033  0.0652  0.2034  0.0687
 4503SOL    HW124971   2.261   0.596   1.100 -1.0519  1.6927  0.0546
 4503SOL    HW224972   2.118   0.581   1.054 -1.0134 -0.7362 -3.3358
 4504SOL     OW24973   0.562   2.499   5.996  0.9003  0.1426 -0.3587
 4504SOL    HW124974   0.490   2.437   6.004  0.1902  1.1317  0.8512
 4504SOL    HW224975   0.510   2.575   5.970  0.0917 -0.4432 -0.4601
 4505SOL     OW24976   1.068   4.498   3.491 -0.1137 -0.1282 -0.6446
 4505SOL    HW124977   1.123   4.576   3.497  0.4987 -0.4829 -1.7542
 4505SOL    HW224978   1.121   4.440   3.437 -1.0810  0.1487 -1.8898
 4506SOL     OW24979   2.619   4.328   5.834 -0.1938  0.4115  0.6121
 4506SOL    HW124980   2.614   4.380   5.914  1.5675 -0.0431  1.0252
 4506SOL    HW224981   2.677   4.254   5.854  1.6119  0.7668 -3.2678
 4507SOL     OW24982   1.481   2.512  13.136  0.3270  0.2330  0.2146
 4507SOL    HW124983   1.538   2.518  13.212 -0.6868 -0.8011  1.0548
 4507SOL    HW224984   1.405   2.556  13.175  0.3513 -1.4101  2.1154
 4508SOL     OW24985   4.570   4.227   4.530  0.1182 -0.7939  0.0450
 4508SOL    HW124986   4.512   4.154   4.513  1.0721 -1.9596  1.8131
 4508SOL    HW224987   4.624   4.221   4.450  2.6289 -3.8704  1.9826
 4509SOL     OW24988   0.160   2.053   1.935 -0.3915  0.3910  0.4091
 4509SOL    HW124989   0.102   2.115   1.891 -1.4037 -0.9918 -0.1750
 4509SOL    HW224990   0.221   2.111   1.981 -0.0096  0.4977 -0.2264
 4510SOL     OW24991   1.639   4.388  10.136  0.1380 -0.0869  0.1341
 4510SOL    HW124992   1.689   4.326  10.084 -1.3229  1.1712 -2.7427
 4510SOL    HW224993   1.692   4.467  10.145 -0.9715  0.5836  0.7559
 4511SOL     OW24994   1.757   1.611   6.067  0.0256 -0.3423  0.2654
 4511SOL    HW124995   1.845   1.590   6.099 -1.0773 -0.8974  2.8498
 4511SOL    HW224996   1.719   1.523   6.073  1.2191 -1.0647 -2.3803
 4512SOL     OW24997   4.580   2.996   4.010  0.1307  0.3258  0.0610
 4512SOL    HW124998   4.512   3.059   4.034 -0.7390 -1.0930  1.2338
 4512SOL    HW224999   4.631   3.004   4.091  1.0476  2.2142 -0.6755
 4513SOL     OW25000   4.570   1.762   1.967  0.0222 -0.0202  0.1464
 4513SOL    HW125001   4.602   1.675   1.942 -2.2726 -1.2286  1.3736
 4513SOL    HW225002   4.652   1.800   1.999 -2.3224  4.1914  1.1244
 4514SOL     OW25003   0.600   4.580   7.583 -0.1543 -0.2643 -0.1974
 4514SOL    HW125004   0.560   4.555   7.500  2.9132 -0.3901 -1.6151
 4514SOL    HW225005   0.624   4.493   7.614 -1.3646 -0.3568  0.4978
 4515SOL     OW25006   1.506   2.761  13.563  0.5838  0.3781  0.2060
 4515SOL    HW125007   1.586   2.747  13.613 -1.0266 -0.2314  2.6222
 4515SOL    HW225008   1.519   2.849  13.527  1.4636 -0.2043 -0.8651
 4516SOL     OW25009   2.260   1.312   5.991 -0.7079 -0.2041 -0.1674
 4516SOL    HW125010   2.193   1.297   5.924 -2.2581 -0.4830  1.4520
 4516SOL    HW225011   2.341   1.268   5.965  0.4128  1.0194  1.2805
 4517SOL     OW25012   2.726   3.710   0.684  0.6091  0.4139  0.1314
 4517SOL    HW125013   2.688   3.753   0.607  0.3346 -0.9296 -0.4789
 4517SOL    HW225014   2.751   3.622   0.655  0.4318  0.5090 -0.3069
 4518SOL     OW25015   4.037   0.520  10.864 -0.1085  0.2252 -0.4816
 4518SOL    HW125016   4.059   0.505  10.772  0.5133 -0.3376 -0.2390
 4518SOL    HW225017   4.097   0.460  10.906 -0.0929  0.8557  0.4017
 4519SOL     OW25018   1.553   4.225  15.187  0.4099 -0.0490  0.3156
 4519SOL    HW125019   1.464   4.260  15.178  0.0149 -1.1095  0.1154
 4519SOL    HW225020   1.544   4.144  15.138 -1.6802 -0.1413  0.8422
 4520SOL     OW25021   2.981   4.262   9.585 -0.1988 -0.1669 -0.0650
 4520SOL    HW125022   2.974   4.352   9.555 -4.5483 -0.5606 -0.1549
 4520SOL    HW225023   2.942   4.215   9.512  1.6591  0.4791 -1.4704
 4521SOL     OW25024   4.297   3.365   2.117 -0.1540 -0.5432 -0.2434
 4521SOL    HW125025   4.207   3.347   2.147 -0.7318  0.7286 -1.2001
 4521SOL    HW225026   4.347   3.367   2.199 -0.6065  2.4706 -0.0378
 4522SOL     OW25027   2.046   2.605  13.031 -0.0463 -0.4191  0.0231
 4522SOL    HW125028   2.049   2.566  12.944  1.0419  1.4045 -0.7414
 4522SOL    HW225029   1.960   2.645  13.036 -0.5706 -1.2345 -2.3765
 4523SOL     OW25030   3.970   4.427   7.719 -0.3290  0.8204 -0.1751
 4523SOL    HW125031   3.991   4.476   7.639  0.9107 -1.1285 -1.0240
 4523SOL    HW225032   3.984   4.493   7.787  0.2726  0.6691 -0.1578
 4524SOL     OW25033   3.651   0.218  16.187 -0.3616  0.2983  0.1067
 4524SOL    HW125034   3.625   0.134  16.226 -0.4906  0.8524  1.2299
 4524SOL    HW225035   3.674   0.180  16.103 -0.4048  1.1061 -0.2762
 4525SOL     OW25036   3.357   0.487   3.225  0.2615  0.2996  0.5338
 4525SOL    HW125037   3.313   0.568   3.197  1.6113  0.4555 -1.1212
 4525SOL    HW225038   3.410   0.477   3.146 -0.2324 -0.4742  0.3042
 4526SOL     OW25039   0.158   2.995   4.663 -0.7886  0.0901  0.5373
 4526SOL    HW125040   0.182   3.087   4.675 -0.3161  0.4103 -2.9948
 4526SOL    HW225041   0.223   2.965   4.601  0.8962  2.0684  1.3444
 4527SOL     OW25042   1.439   3.070  14.641  0.0511  0.4633 -0.1528
 4527SOL    HW125043   1.382   3.146  14.633  1.1664  1.3008 -0.0717
 4527SOL    HW225044   1.400   3.012  14.707  1.8955 -1.3573 -0.6640
 4528SOL     OW25045   0.116   3.921   6.589  0.1966  0.1110 -0.0107
 4528SOL    HW125046   0.134   3.830   6.610 -1.3762 -0.4274 -1.0155
 4528SOL    HW225047   0.172   3.922   6.512  0.0180  0.3669 -0.1413
 4529SOL     OW25048   3.113   2.712   5.333 -0.2771  0.2908 -0.1398
 4529SOL    HW125049   3.138   2.645   5.270 -1.1728  0.5101 -0.7272
 4529SOL    HW225050   3.066   2.770   5.272 -2.7021  0.6422  2.0395
 4530SOL     OW25051   2.701   1.161   4.360 -0.2217 -0.1929 -0.2853
 4530SOL    HW125052   2.666   1.072   4.350  1.3277 -0.8701  0.2963
 4530SOL    HW225053   2.670   1.206   4.281  2.1931  1.2482 -0.4189
 4531SOL     OW25054   0.622   0.137   4.274  0.3171  0.0740 -0.2258
 4531SOL    HW125055   0.618   0.229   4.301 -1.0205 -0.4107  1.2482
 4531SOL    HW225056   0.615   0.143   4.179  1.3237 -0.9872 -0.3587
 4532SOL     OW25057   0.260   4.224   5.668 -0.2516 -0.4994  0.0624
 4532SOL    HW125058   0.186   4.173   5.698  1.4039 -1.7316  2.0710
 4532SOL    HW225059   0.335   4.174   5.701  1.6781  1.8607 -0.6928
 4533SOL     OW25060   3.745   2.556   6.612  0.1747  0.3444  0.1834
 4533SOL    HW125061   3.817   2.616   6.633  0.0341  0.1014  1.3600
 4533SOL    HW225062   3.715   2.575   6.523  1.9052  2.0357 -0.0461
 4534SOL     OW25063   4.245   1.872   3.272  0.1358 -0.0188  0.6455
 4534SOL    HW125064   4.205   1.847   3.189 -0.2690  1.0079  0.5334
 4534SOL    HW225065   4.178   1.843   3.334  0.7651  0.0891  1.3876
 4535SOL     OW25066   2.047   1.376   8.599 -0.5320 -0.2892 -0.0833
 4535SOL    HW125067   2.126   1.405   8.643  0.5249 -0.0148 -2.1685
 4535SOL    HW225068   2.019   1.452   8.548 -1.8889 -0.2567  0.7280
 4536SOL     OW25069   0.736   3.067   8.987  0.2249 -0.1248 -0.2314
 4536SOL    HW125070   0.774   3.044   8.902 -1.0292 -0.6758 -0.6441
 4536SOL    HW225071   0.703   2.982   9.016  3.8508 -1.6231 -0.4352
 4537SOL     OW25072   1.677   4.666   9.048  0.0843  0.5948  0.6785
 4537SOL    HW125073   1.608   0.002   9.013  0.9323 -0.1136 -2.1439
 4537SOL    HW225074   1.660   4.664   9.142 -1.2336  2.2321  0.4777
 4538SOL     OW25075   3.012   2.693   6.152 -0.3288 -0.3017  0.5278
 4538SOL    HW125076   3.022   2.675   6.245 -2.0405  1.0993  0.9852
 4538SOL    HW225077   2.946   2.628   6.126 -0.1655 -1.1872  2.3319
 4539SOL     OW25078   1.276   2.532   2.765  0.2316 -0.2182  0.1739
 4539SOL    HW125079   1.285   2.627   2.776  0.6030 -0.0342 -1.6212
 4539SOL    HW225080   1.220   2.524   2.687 -2.5148  1.3166  1.9614
 4540SOL     OW25081   3.954   2.953   7.546  0.1847 -0.1926  0.0713
 4540SOL    HW125082   4.048   2.942   7.531  0.4041  2.2595 -0.3226
 4540SOL    HW225083   3.956   3.025   7.609 -1.4448  1.1510 -1.4015
 4541SOL     OW25084   3.033   3.903  16.920 -0.4681 -0.1991 -0.4424
 4541SOL    HW125085   2.976   3.971  16.957 -0.0566 -0.7908  1.2665
 4541SOL    HW225086   2.983   3.895  16.839  1.2881 -0.1506 -1.5274
 4542SOL     OW25087   0.585   1.982   3.733 -0.1821  0.8392  0.3377
 4542SOL    HW125088   0.609   2.026   3.652  2.5871 -0.5447  0.4017
 4542SOL    HW225089   0.661   1.999   3.788  1.0184 -0.3034 -0.9780
 4543SOL     OW25090   1.448   1.531   7.183  0.7279 -0.1087  0.2867
 4543SOL    HW125091   1.513   1.461   7.175  1.9389  1.1163 -0.5102
 4543SOL    HW225092   1.503   1.605   7.208 -2.6893  2.3835  0.4796
 4544SOL     OW25093   2.263   2.532   4.322  0.4479  0.5480 -0.6622
 4544SOL    HW125094   2.326   2.560   4.389 -1.0557  0.4665  0.8088
 4544SOL    HW225095   2.295   2.442   4.316  1.4663  0.8416  0.2412
 4545SOL     OW25096   3.615   0.964   8.110 -0.0337  0.1823  0.3353
 4545SOL    HW125097   3.582   1.045   8.071  0.6063 -0.2366 -1.0837
 4545SOL    HW225098   3.574   0.966   8.196  1.0051  0.9199  0.8101
 4546SOL     OW25099   4.099   2.989   4.050 -0.0246  0.7703  0.1063
 4546SOL    HW125100   4.104   2.925   4.120 -0.4031  1.2413  0.5625
 4546SOL    HW225101   4.013   3.031   4.050  0.6433  2.1144 -1.0304
 4547SOL     OW25102   4.489   3.926  14.162  0.3195  0.1192 -0.0931
 4547SOL    HW125103   4.455   3.876  14.236  2.8923 -1.3105  0.1056
 4547SOL    HW225104   4.493   4.014  14.199  1.6668 -0.7234  1.7900
 4548SOL     OW25105   1.471   0.044   6.247  0.9537 -0.7080  0.1137
 4548SOL    HW125106   1.452   4.680   6.287  1.0543  0.4032  2.4626
 4548SOL    HW225107   1.389   0.091   6.258  0.1047 -1.9121 -1.0111
 4549SOL     OW25108   3.466   4.188   7.690  0.3951 -0.4158  0.4820
 4549SOL    HW125109   3.433   4.269   7.650  0.2522 -0.1472  1.1479
 4549SOL    HW225110   3.549   4.225   7.721  0.4039 -0.3337  0.3609
 4550SOL     OW25111   2.178   2.740   9.560  0.1131 -0.1021 -0.3490
 4550SOL    HW125112   2.171   2.695   9.476 -1.9432 -1.5598  0.6248
 4550SOL    HW225113   2.206   2.672   9.621  0.8776  0.7860  0.3035
 4551SOL     OW25114   1.251   1.125   6.996 -0.3571 -0.1006  0.4248
 4551SOL    HW125115   1.329   1.118   6.941 -0.3876 -2.5387  0.6743
 4551SOL    HW225116   1.246   1.219   7.013 -0.1447 -0.0512  0.2118
 4552SOL     OW25117   3.574   1.323  11.527 -0.0463  0.7676  0.3915
 4552SOL    HW125118   3.498   1.381  11.518 -0.4754  0.0647 -0.4421
 4552SOL    HW225119   3.544   1.248  11.476  1.4852  0.0470  0.5295
 4553SOL     OW25120   0.953   4.321   7.426 -0.4833 -0.1074  0.6599
 4553SOL    HW125121   0.905   4.327   7.344  2.1681 -2.6358 -1.0490
 4553SOL    HW225122   0.937   4.231   7.452  0.5566 -0.2977  0.6383
 4554SOL     OW25123   0.095   1.095   7.687 -0.1698 -0.5370  0.3182
 4554SOL    HW125124   0.179   1.108   7.643  0.1844  1.7237  1.6339
 4554SOL    HW225125   0.129   1.077   7.775  1.1805  0.0058 -0.0889
 4555SOL     OW25126   1.779   4.663   5.564  0.2841 -0.0558 -0.6543
 4555SOL    HW125127   1.740   0.023   5.599  1.2749 -1.0489  2.6695
 4555SOL    HW225128   1.819   4.695   5.483 -0.3167 -0.6134 -1.1745
 4556SOL     OW25129   2.115   3.968  16.487  0.2780  0.3266 -0.7739
 4556SOL    HW125130   2.178   3.903  16.517 -1.3040 -1.9250 -2.3568
 4556SOL    HW225131   2.035   3.927  16.518  1.8330 -0.7388  1.7649
 4557SOL     OW25132   3.210   3.688   5.107 -0.3796  0.7667  0.9783
 4557SOL    HW125133   3.195   3.628   5.033 -1.4385  0.8185  1.1413
 4557SOL    HW225134   3.165   3.765   5.072 -1.0237 -0.0654 -0.0608
 4558SOL     OW25135   4.118   0.199   8.325  0.4076  0.1753 -0.3708
 4558SOL    HW125136   4.052   0.226   8.261 -0.0668 -0.7698 -0.2791
 4558SOL    HW225137   4.079   0.112   8.338  0.8091  0.3320  1.9415
 4559SOL     OW25138   1.393   2.531   3.960  0.5901 -0.0471 -0.5298
 4559SOL    HW125139   1.458   2.501   4.023 -1.4880  0.0138  1.6263
 4559SOL    HW225140   1.310   2.502   3.997  1.4294 -0.1853  1.2345
 4560SOL     OW25141   2.371   2.193   6.414  0.0235 -0.3121  0.0440
 4560SOL    HW125142   2.340   2.221   6.328  0.3529 -0.2343 -0.0517
 4560SOL    HW225143   2.466   2.190   6.398  0.1876  1.4744  0.7652
 4561SOL     OW25144   1.489   2.066  16.111 -0.0965 -0.2342 -0.2489
 4561SOL    HW125145   1.573   2.111  16.120 -1.3888  2.0992  0.1028
 4561SOL    HW225146   1.513   1.993  16.054 -0.5080 -0.9038  0.4517
 4562SOL     OW25147   2.517   0.437   6.487 -0.4094 -0.6851  0.3918
 4562SOL    HW125148   2.540   0.361   6.434  0.7530  0.8372 -1.2723
 4562SOL    HW225149   2.601   0.482   6.477 -0.1712 -1.1102  0.4743
 4563SOL     OW25150   0.685   0.932   8.481 -0.0565 -0.2642 -0.0506
 4563SOL    HW125151   0.627   0.931   8.405 -0.2470 -1.3541  0.1047
 4563SOL    HW225152   0.619   0.937   8.550 -1.4046 -0.8470 -1.3081
 4564SOL     OW25153   2.927   0.299  11.446  0.2634 -0.2065  0.7415
 4564SOL    HW125154   2.835   0.326  11.435  0.1502  0.3885  3.1419
 4564SOL    HW225155   2.919   0.212  11.407 -0.3069  0.7886 -1.3949
 4565SOL     OW25156   2.414   3.632   7.414  0.0636  0.2533  0.6737
 4565SOL    HW125157   2.341   3.640   7.475 -0.6870  0.2318 -0.2329
 4565SOL    HW225158   2.475   3.694   7.455 -0.5139  0.7515  0.7677
 4566SOL     OW25159   2.761   0.191   1.405 -0.5071  0.3352 -0.0014
 4566SOL    HW125160   2.793   0.181   1.495  0.0451 -0.1718 -0.2573
 4566SOL    HW225161   2.667   0.172   1.407 -0.4573 -0.1703 -3.3774
 4567SOL     OW25162   1.818   4.096   8.988 -0.2665 -0.3596  0.2129
 4567SOL    HW125163   1.791   4.159   9.054 -1.0982  1.3075 -1.7320
 4567SOL    HW225164   1.873   4.154   8.936  1.2212  1.1170  3.4006
 4568SOL     OW25165   4.435   4.561   3.859 -0.0757 -0.1806  0.0612
 4568SOL    HW125166   4.491   4.632   3.828  1.3388 -0.8085  1.1316
 4568SOL    HW225167   4.395   4.533   3.777 -0.0526  2.0382 -0.6895
 4569SOL     OW25168   1.724   0.261   1.426 -0.4677 -0.4128 -0.7378
 4569SOL    HW125169   1.674   0.322   1.371  1.8937  1.4111 -0.8505
 4569SOL    HW225170   1.799   0.316   1.449 -0.4305 -1.0140  0.5383
 4570SOL     OW25171   1.481   1.922   1.626  0.4817  0.1936  0.1268
 4570SOL    HW125172   1.558   1.922   1.682  1.7729 -0.1373 -1.6661
 4570SOL    HW225173   1.438   1.998   1.666  0.5043 -0.2682  1.0340
 4571SOL     OW25174   4.258   2.174   4.087 -0.2352 -0.0936  0.3101
 4571SOL    HW125175   4.206   2.203   4.162 -0.4035  0.4182  0.0006
 4571SOL    HW225176   4.246   2.080   4.092  0.9620 -0.2950 -0.4767
 4572SOL     OW25177   4.703   3.738  16.457  0.4674  0.7635  0.0968
 4572SOL    HW125178   4.693   3.734  16.362  1.1055 -1.1356  0.1164
 4572SOL    HW225179   4.709   3.646  16.483 -1.3463  0.2234 -1.3699
 4573SOL     OW25180   3.592   3.525   8.205 -0.1431 -0.3505 -1.1733
 4573SOL    HW125181   3.588   3.478   8.121 -1.5515  1.3948 -2.0881
 4573SOL    HW225182   3.647   3.599   8.179 -0.0419  1.2266  3.6002
 4574SOL     OW25183   0.248   1.681   2.987 -0.1819 -0.2775  0.4878
 4574SOL    HW125184   0.293   1.604   2.954  1.3569  1.7657 -2.1751
 4574SOL    HW225185   0.200   1.636   3.057 -0.1028  0.9085  1.3040
 4575SOL     OW25186   2.840   2.944  14.603 -0.2706 -0.1014 -0.3998
 4575SOL    HW125187   2.845   2.980  14.692 -0.6626  1.1684 -0.8884
 4575SOL    HW225188   2.814   3.020  14.550  2.6597 -0.2625 -2.0589
 4576SOL     OW25189   1.147   2.708   7.695  0.1018 -0.3613 -0.3440
 4576SOL    HW125190   1.154   2.791   7.742  0.2173 -2.4672  3.3405
 4576SOL    HW225191   1.095   2.664   7.762  1.1795 -2.0336 -0.6030
 4577SOL     OW25192   4.224   2.194   7.650  0.1486 -0.4768  0.1926
 4577SOL    HW125193   4.215   2.136   7.726  0.6523  0.7404  1.1684
 4577SOL    HW225194   4.191   2.140   7.577 -0.6946  1.1718 -0.6405
 4578SOL     OW25195   1.067   3.072  10.540 -0.7029  0.2326 -0.0440
 4578SOL    HW125196   1.152   3.060  10.497 -1.1656  0.7948 -1.1135
 4578SOL    HW225197   1.062   2.983  10.574  2.1356 -0.4460 -1.3793
 4579SOL     OW25198   1.892   1.202  11.373 -0.1851 -0.5301  0.0136
 4579SOL    HW125199   1.864   1.290  11.349 -0.4404 -0.2466  1.3292
 4579SOL    HW225200   1.870   1.200  11.466 -2.9477  4.2624 -0.5002
 4580SOL     OW25201   0.204   2.582  14.168 -0.1262  0.2952  0.1539
 4580SOL    HW125202   0.178   2.674  14.175  0.4944  0.4219  0.8304
 4580SOL    HW225203   0.267   2.585  14.096 -0.1075 -1.5622  0.1082
 4581SOL     OW25204   3.656   4.374   3.594 -0.5227 -0.1261  0.4466
 4581SOL    HW125205   3.609   4.443   3.549  2.4668  2.6136  1.4500
 4581SOL    HW225206   3.587   4.314   3.622 -0.7602 -0.1751 -0.2682
 4582SOL     OW25207   3.579   1.281   3.471 -0.1628 -0.0459 -0.4515
 4582SOL    HW125208   3.652   1.222   3.486  1.5396  1.5955 -2.2970
 4582SOL    HW225209   3.501   1.228   3.491 -0.2547 -0.3190 -1.5422
 4583SOL     OW25210   2.902   2.911   0.024  0.9527 -0.6699  0.4566
 4583SOL    HW125211   2.920   3.003   0.009  1.7879 -1.1140 -1.2557
 4583SOL    HW225212   2.807   2.915   0.032  0.9843 -0.9730  1.0372
 4584SOL     OW25213   4.356   4.701   9.297  0.0016 -0.1256 -0.1118
 4584SOL    HW125214   4.439   4.653   9.294 -0.7509 -1.3709 -1.0327
 4584SOL    HW225215   4.313   4.670   9.217  1.8216 -1.7853 -0.4598
 4585SOL     OW25216   4.709   3.565   0.031 -0.3492 -0.1410 -0.0420
 4585SOL    HW125217   4.667   3.646   0.059 -1.3553 -0.5544 -0.3481
 4585SOL    HW225218   0.079   3.587   0.053  0.2607 -0.6835 -2.0014
 4586SOL     OW25219   3.373   0.978   6.771  0.3809 -0.5873  0.1492
 4586SOL    HW125220   3.448   0.968   6.830 -0.1489  0.6205  1.0408
 4586SOL    HW225221   3.324   1.043   6.822 -0.6813  0.1190 -1.7973
 4587SOL     OW25222   0.110   4.682   2.256 -0.3073  0.6638 -0.2841
 4587SOL    HW125223   0.176   0.029   2.275  2.1579 -1.8084 -0.0775
 4587SOL    HW225224   0.081   0.009   2.179  1.0147 -2.6494 -2.8057
 4588SOL     OW25225   0.819   3.928   3.989  0.4624  0.2439 -0.1926
 4588SOL    HW125226   0.792   3.874   3.915  1.6924 -1.1636  0.3737
 4588SOL    HW225227   0.860   3.862   4.046  1.4187  0.6209 -0.4416
 4589SOL     OW25228   2.622   3.926   2.198  0.3158 -0.6147 -0.1550
 4589SOL    HW125229   2.632   3.914   2.292  2.5701 -2.3455 -0.6276
 4589SOL    HW225230   2.685   3.992   2.172  0.0177  0.5109  1.9944
 4590SOL     OW25231   4.207   1.993   8.113  0.6449  0.1851  0.9559
 4590SOL    HW125232   4.298   2.020   8.129  0.6300  1.1210 -0.5895
 4590SOL    HW225233   4.177   2.003   8.203 -0.2850 -3.8610  1.0689
 4591SOL     OW25234   0.868   2.740   8.050 -0.4918  0.0678  0.0112
 4591SOL    HW125235   0.921   2.803   8.099  0.4981  0.3681 -1.4432
 4591SOL    HW225236   0.783   2.785   8.054 -0.6174 -0.3629  1.9561
 4592SOL     OW25237   3.265   2.760   5.569 -0.5054  0.0067 -0.4640
 4592SOL    HW125238   3.241   2.746   5.478  1.2046  0.9413 -1.0512
 4592SOL    HW225239   3.285   2.853   5.566  0.1931 -0.0005  3.0143
 4593SOL     OW25240   0.186   2.294   2.429  0.7091 -0.3739 -0.2472
 4593SOL    HW125241   0.271   2.259   2.403  1.1876  1.4913 -1.2139
 4593SOL    HW225242   0.216   2.382   2.455 -3.4358  0.7022  0.8501
 4594SOL     OW25243   4.395   4.163   4.227  0.6209  0.1477  0.2264
 4594SOL    HW125244   4.307   4.193   4.249  0.5239  0.1324 -0.1364
 4594SOL    HW225245   4.382   4.088   4.169 -0.2093 -0.5245  1.2881
 4595SOL     OW25246   2.162   4.515   7.240 -0.0060 -0.5794  0.3908
 4595SOL    HW125247   2.228   4.464   7.286  0.5679 -0.5162 -0.3528
 4595SOL    HW225248   2.086   4.480   7.286 -2.2174  1.0037 -2.0293
 4596SOL     OW25249   4.181   4.169  13.249  0.6671  0.4096  0.3809
 4596SOL    HW125250   4.163   4.216  13.330  0.1265 -0.8009  0.9531
 4596SOL    HW225251   4.213   4.236  13.189  2.7268 -0.4661  0.4824
 4597SOL     OW25252   1.382   0.737   4.866  0.3356 -0.3573  0.6145
 4597SOL    HW125253   1.380   0.750   4.771 -1.0072  0.8351  0.8171
 4597SOL    HW225254   1.381   0.641   4.857  1.5001 -0.0998 -2.3329
 4598SOL     OW25255   0.253   0.368   9.556 -0.0077 -0.0555  0.0192
 4598SOL    HW125256   0.203   0.447   9.539 -0.7466 -0.6181 -0.4515
 4598SOL    HW225257   0.328   0.393   9.610 -0.6568  0.6440  0.6090
 4599SOL     OW25258   0.873   0.644   3.172  0.8221 -0.1131  0.2545
 4599SOL    HW125259   0.802   0.604   3.223 -0.0721 -0.5748 -1.3633
 4599SOL    HW225260   0.914   0.572   3.125  2.3601 -0.0615  1.5197
 4600SOL     OW25261   0.552   2.541   8.270  0.0027  0.0792  0.0383
 4600SOL    HW125262   0.597   2.607   8.218  0.0596  1.5514  1.9809
 4600SOL    HW225263   0.524   2.596   8.342 -1.2102  0.1510 -0.4830
 4601SOL     OW25264   1.987   4.586   6.869  0.1526 -0.2378 -0.7146
 4601SOL    HW125265   1.908   4.608   6.918  1.6481 -1.3743  2.1301
 4601SOL    HW225266   1.967   4.617   6.780  1.4306  2.5513 -0.0370
 4602SOL     OW25267   0.216   4.208  14.597  0.5415 -0.2005 -0.2579
 4602SOL    HW125268   0.236   4.250  14.513  0.0281 -1.2344 -0.9024
 4602SOL    HW225269   0.305   4.210  14.631  0.7016  0.0063 -0.6919
 4603SOL     OW25270   3.942   2.661  16.166  0.0468  0.2550  0.0113
 4603SOL    HW125271   3.900   2.735  16.122 -0.7423 -0.2840 -0.1396
 4603SOL    HW225272   3.886   2.639  16.240  1.0991  0.6129  0.9172
 4604SOL     OW25273   2.854   0.777   7.150 -0.3167  0.0807  0.2621
 4604SOL    HW125274   2.811   0.854   7.113 -1.3195 -0.5098  0.1862
 4604SOL    HW225275   2.919   0.820   7.206 -0.2874  0.0723  0.2346
 4605SOL     OW25276   0.713   0.138  16.938 -0.4311  0.0285  0.0748
 4605SOL    HW125277   0.718   0.160  16.845  1.2365 -2.2065 -0.3684
 4605SOL    HW225278   0.728   0.223  16.979 -0.7029 -0.0815  0.4089
 4606SOL     OW25279   0.082   0.021   9.348 -0.3965 -0.4784 -0.3074
 4606SOL    HW125280   0.049   0.083   9.282 -2.9960 -1.2082  0.2743
 4606SOL    HW225281   0.036   0.045   9.429  0.7207 -0.3447  0.2806
 4607SOL     OW25282   4.165   3.990   3.521 -0.2939  0.1860 -0.3504
 4607SOL    HW125283   4.137   4.004   3.431  2.2586 -1.5360 -1.3991
 4607SOL    HW225284   4.259   3.978   3.507 -0.4249 -0.6384 -0.4843
 4608SOL     OW25285   0.474   0.663  17.467 -0.3241 -0.7162  0.1035
 4608SOL    HW125286   0.567   0.668  17.444  0.2360 -3.0942  1.8523
 4608SOL    HW225287   0.431   0.697  17.389  1.7838 -1.1916 -1.2393
 4609SOL     OW25288   4.126   2.062   4.785 -0.0924 -0.5201 -0.2227
 4609SOL    HW125289   4.048   2.108   4.816 -1.8205 -2.4570 -1.7825
 4609SOL    HW225290   4.196   2.105   4.836 -2.2938  1.4197  1.1773
 4610SOL     OW25291   1.310   4.213   6.729  0.5163 -0.2988 -0.3041
 4610SOL    HW125292   1.370   4.288   6.736 -1.5781  0.9942  3.9989
 4610SOL    HW225293   1.306   4.204   6.634 -0.3921 -0.4240 -0.2482
 4611SOL     OW25294   0.896   1.524   6.477 -0.1265 -0.1279 -0.1790
 4611SOL    HW125295   0.938   1.500   6.560 -2.1188  1.9414  1.4293
 4611SOL    HW225296   0.833   1.591   6.503  2.4000  1.5517  1.5367
 4612SOL     OW25297   1.571   2.874   7.439 -0.3275  0.1814  0.1167
 4612SOL    HW125298   1.606   2.934   7.504 -0.3885 -2.8387  2.9627
 4612SOL    HW225299   1.642   2.810   7.442  0.8525  1.5830  2.0256
 4613SOL     OW25300   3.462   0.377  16.301  0.0772 -0.0563  0.7543
 4613SOL    HW125301   3.490   0.425  16.379 -1.3675  0.2898  1.0735
 4613SOL    HW225302   3.535   0.325  16.269 -0.4849  0.1372 -0.8052
 4614SOL     OW25303   2.278   4.136   5.838 -0.0651  0.2596  0.2036
 4614SOL    HW125304   2.317   4.185   5.910  0.1682 -0.1364  0.3468
 4614SOL    HW225305   2.209   4.089   5.884 -2.1022  1.2619 -1.8351
 4615SOL     OW25306   4.363   3.212   0.978  0.0853 -0.0014 -0.2850
 4615SOL    HW125307   4.287   3.235   1.031 -1.3705  1.4905 -3.0157
 4615SOL    HW225308   4.429   3.241   1.042  0.6805 -2.1895  0.1008
 4616SOL     OW25309   3.051   0.978   4.560  0.1426 -0.0802  0.2063
 4616SOL    HW125310   3.064   0.887   4.587 -0.7990 -0.3177 -0.1389
 4616SOL    HW225311   3.134   1.005   4.519  1.9026 -2.1661  2.4094
 4617SOL     OW25312   2.319   2.571   2.686  0.4290  0.6736  0.0946
 4617SOL    HW125313   2.228   2.542   2.693  0.1973  1.7909  1.8956
 4617SOL    HW225314   2.314   2.574   2.591  4.5788 -0.4664 -0.1693
 4618SOL     OW25315   2.461   4.675   4.559 -0.1139  0.0720  0.2663
 4618SOL    HW125316   2.455   0.007   4.479 -3.3126 -0.2134  0.3425
 4618SOL    HW225317   2.450   4.583   4.536  0.8183 -0.4079  1.7289
 4619SOL     OW25318   0.692   0.019  12.559  0.5722  0.0477  0.2155
 4619SOL    HW125319   0.685   0.033  12.654  1.2905 -0.4545  0.3434
 4619SOL    HW225320   0.601   0.020  12.531  0.2401 -1.2759  1.2142
 4620SOL     OW25321   0.800   4.434   1.609 -0.0580  0.2155  1.0669
 4620SOL    HW125322   0.748   4.510   1.633  1.5239  0.0083  5.1560
 4620SOL    HW225323   0.829   4.398   1.692  2.3218  0.9353  0.5510
 4621SOL     OW25324   3.472   1.764  10.140 -0.1788  0.1442  0.8434
 4621SOL    HW125325   3.566   1.765  10.157  0.0619 -0.8435 -0.4959
 4621SOL    HW225326   3.464   1.860  10.136  0.2758  0.1155 -0.5994
 4622SOL     OW25327   4.463   0.871   6.645  0.5266  0.5037 -0.0417
 4622SOL    HW125328   4.530   0.883   6.712  0.6360  1.3998 -0.3150
 4622SOL    HW225329   4.493   0.788   6.608 -1.3633 -0.0762 -0.3216
 4623SOL     OW25330   3.270   2.467   4.292  0.0744  0.3703 -0.4242
 4623SOL    HW125331   3.231   2.455   4.206 -1.0058 -1.3556  0.2970
 4623SOL    HW225332   3.200   2.447   4.354  0.4596  0.8356  0.1666
 4624SOL     OW25333   3.673   1.191   7.197  0.0384  0.2709  0.2528
 4624SOL    HW125334   3.710   1.121   7.250  0.5760  0.5947  0.3114
 4624SOL    HW225335   3.583   1.161   7.193  0.3161 -0.1004 -2.9822
 4625SOL     OW25336   2.893   1.213   6.379 -0.2330 -0.5950  0.1463
 4625SOL    HW125337   2.935   1.135   6.343  1.4088 -0.4674  1.8144
 4625SOL    HW225338   2.885   1.268   6.302 -1.9751 -1.4401 -0.2759
 4626SOL     OW25339   0.413   1.560   4.807 -0.1808  0.2240 -0.5077
 4626SOL    HW125340   0.469   1.560   4.884 -0.9768  0.6891  0.0777
 4626SOL    HW225341   0.345   1.512   4.854  0.8590 -0.4085  0.3550
 4627SOL     OW25342   3.709   3.240   9.736  0.4116 -0.2870  0.6824
 4627SOL    HW125343   3.721   3.151   9.702  2.3934  0.5617 -0.8396
 4627SOL    HW225344   3.746   3.297   9.669  0.8600  0.1708  1.3161
 4628SOL     OW25345   2.022   2.416  10.757 -0.1484  0.0380 -0.0788
 4628SOL    HW125346   2.027   2.507  10.725  1.7012  0.8606  2.5870
 4628SOL    HW225347   1.953   2.418  10.824 -0.4842 -1.3138 -0.3904
 4629SOL     OW25348   2.204   0.015  15.673  0.1622 -0.3746  0.0340
 4629SOL    HW125349   2.126   0.044  15.625  0.8716  0.8184 -0.3885
 4629SOL    HW225350   2.262   4.697  15.608 -0.6419  0.0641 -0.9403
 4630SOL     OW25351   4.599   4.069  15.710  0.3119  0.2273  0.1961
 4630SOL    HW125352   4.683   4.114  15.724  0.8656 -1.2557  1.6144
 4630SOL    HW225353   4.538   4.102  15.776  0.1521  0.2520  0.0334
 4631SOL     OW25354   0.688   2.092   8.951 -0.2697 -0.3513 -0.8761
 4631SOL    HW125355   0.693   2.000   8.924 -0.4333  0.1414 -2.6118
 4631SOL    HW225356   0.783   2.105   8.951  0.1247 -3.2274 -0.3085
 4632SOL     OW25357   2.285   0.891   7.044 -0.6435  0.1578 -0.4186
 4632SOL    HW125358   2.358   0.850   7.089 -1.8582 -1.4936  0.0709
 4632SOL    HW225359   2.313   0.982   7.034 -1.4599  0.5177  0.5987
 4633SOL     OW25360   0.481   0.370   3.047  0.0649 -0.1276  0.4078
 4633SOL    HW125361   0.393   0.406   3.033  0.0608 -0.8988 -1.4539
 4633SOL    HW225362   0.503   0.352   2.956  1.0905 -0.2516  0.6767
 4634SOL     OW25363   3.748   1.621   3.823 -0.1318  0.0338 -0.2328
 4634SOL    HW125364   3.764   1.531   3.796 -1.0803 -0.4433  0.8093
 4634SOL    HW225365   3.736   1.612   3.918  0.1905 -0.3988 -0.2315
 4635SOL     OW25366   1.457   2.593  11.099 -0.8890  0.2173 -0.7986
 4635SOL    HW125367   1.368   2.629  11.099 -1.8821 -2.2318 -1.0252
 4635SOL    HW225368   1.433   2.501  11.110  3.2075 -1.0374 -2.3611
 4636SOL     OW25369   4.493   1.902  13.763 -0.0017  0.0276  0.2228
 4636SOL    HW125370   4.527   1.909  13.852  0.7813  1.2027 -0.1605
 4636SOL    HW225371   4.398   1.901  13.767  0.0068  0.7887  0.6688
 4637SOL     OW25372   4.613   2.556  12.969  0.4583  0.1843  0.1330
 4637SOL    HW125373   4.695   2.551  12.920 -0.2724  1.1405 -1.1984
 4637SOL    HW225374   4.602   2.650  12.985  2.7261  0.1350  1.8981
 4638SOL     OW25375   1.509   2.596  12.858  0.0750 -0.2657  0.0212
 4638SOL    HW125376   1.505   2.589  12.954 -2.5095  0.7361 -0.0238
 4638SOL    HW225377   1.596   2.631  12.836 -0.3930  1.2577  0.5702
 4639SOL     OW25378   3.898   3.039   9.122  0.3360  0.1161  0.2210
 4639SOL    HW125379   3.817   2.989   9.112 -0.0799  0.9690 -0.7271
 4639SOL    HW225380   3.919   3.024   9.214  0.4497 -1.7520 -0.1194
 4640SOL     OW25381   3.858   1.710   5.323  0.6805 -0.0561 -0.5747
 4640SOL    HW125382   3.943   1.675   5.294  2.0468 -0.2670  3.5715
 4640SOL    HW225383   3.849   1.756   5.240  1.3831  1.8688  0.4133
 4641SOL     OW25384   4.584   0.166   8.561  0.3652  0.3170 -0.2066
 4641SOL    HW125385   4.522   0.093   8.573  0.8267 -0.0640 -0.1526
 4641SOL    HW225386   4.530   0.239   8.533 -2.5192 -1.7802 -0.1798
 4642SOL     OW25387   3.481   1.847   7.951 -0.3394  0.7342 -0.1637
 4642SOL    HW125388   3.417   1.905   7.911 -1.3751 -0.6544 -0.5040
 4642SOL    HW225389   3.538   1.917   7.986 -0.9878  1.0660  0.2323
 4643SOL     OW25390   1.763   0.626   2.126  0.2135  0.5880 -0.3563
 4643SOL    HW125391   1.700   0.646   2.195  0.5290 -2.2846  0.7608
 4643SOL    HW225392   1.778   0.713   2.089 -0.2403  0.8182 -0.0049
 4644SOL     OW25393   0.775   4.153   5.410  0.0027 -0.2564  0.1843
 4644SOL    HW125394   0.764   4.211   5.486 -1.7176  0.3139 -0.5224
 4644SOL    HW225395   0.691   4.150   5.365  0.7691  0.8858 -1.3402
 4645SOL     OW25396   2.033   0.917   8.127  0.0230  0.2498  0.0885
 4645SOL    HW125397   2.003   0.972   8.199  3.1379  1.1861  0.6981
 4645SOL    HW225398   1.968   0.847   8.133  1.3297 -1.0905 -1.3369
 4646SOL     OW25399   4.575   4.528   9.324  0.0511 -0.1729 -0.2052
 4646SOL    HW125400   4.621   4.502   9.244  0.3729 -0.4631  0.0728
 4646SOL    HW225401   4.641   4.559   9.386  0.9488 -0.9153 -0.7985
 4647SOL     OW25402   4.362   2.143   4.898 -0.5017  0.0627 -0.5155
 4647SOL    HW125403   4.391   2.222   4.943  2.6806 -0.4499 -1.6464
 4647SOL    HW225404   4.438   2.137   4.839 -0.3368  0.6400 -0.3590
 4648SOL     OW25405   0.916   1.681   6.947 -0.0433  0.0573 -0.2445
 4648SOL    HW125406   0.834   1.639   6.971 -0.7572  1.2739 -0.5493
 4648SOL    HW225407   0.946   1.715   7.031 -3.6149  1.8191  0.3003
 4649SOL     OW25408   0.767   1.683   5.079 -0.1376  0.1458 -0.0718
 4649SOL    HW125409   0.764   1.692   4.984 -2.3327 -0.5101 -0.0584
 4649SOL    HW225410   0.842   1.624   5.087  0.3680  0.4922 -2.3846
 4650SOL     OW25411   1.654   3.784   7.715 -0.5924  0.0827 -0.1879
 4650SOL    HW125412   1.613   3.820   7.794 -1.0006 -0.5794 -0.0984
 4650SOL    HW225413   1.584   3.721   7.698 -1.1400  0.8980 -0.9894
 4651SOL     OW25414   1.431   3.724   2.557 -0.2679  0.0976 -0.1982
 4651SOL    HW125415   1.369   3.700   2.626  1.4234 -1.0506  0.9162
 4651SOL    HW225416   1.511   3.694   2.600 -0.0781 -0.8599 -1.2159
 4652SOL     OW25417   3.563   1.350   7.767 -0.2829 -0.1827  0.2846
 4652SOL    HW125418   3.507   1.427   7.778 -0.4344 -0.5216  1.8935
 4652SOL    HW225419   3.633   1.389   7.819 -0.3286 -2.0858  1.7790
 4653SOL     OW25420   0.385   0.578   7.692 -0.0656  0.1292  0.8234
 4653SOL    HW125421   0.371   0.578   7.597 -0.2230  2.0948  0.8409
 4653SOL    HW225422   0.392   0.672   7.705 -2.8828  0.2429  1.4410
 4654SOL     OW25423   1.579   2.223  14.983 -0.2877 -0.2429 -0.5083
 4654SOL    HW125424   1.585   2.305  14.935 -1.8551 -1.3353 -2.5878
 4654SOL    HW225425   1.637   2.181  14.920  2.7247  1.8558  0.8591
 4655SOL     OW25426   3.953   2.186  11.306 -0.2052  0.1493 -0.0365
 4655SOL    HW125427   3.871   2.220  11.270 -0.8194 -2.2124 -0.8867
 4655SOL    HW225428   3.965   2.267  11.355  2.9045 -0.1187 -0.3454
 4656SOL     OW25429   2.496   4.051   1.232 -0.0445  0.5321  0.0021
 4656SOL    HW125430   2.479   3.993   1.158  0.4324  0.8957 -0.3900
 4656SOL    HW225431   2.592   4.056   1.225  0.5148 -2.5401  5.3263
 4657SOL     OW25432   0.239   3.620   0.112  0.2025  0.9707  0.1719
 4657SOL    HW125433   0.244   3.698   0.056 -0.0862  0.1585 -0.9997
 4657SOL    HW225434   0.316   3.624   0.168 -0.9165 -0.0148  1.7734
 4658SOL     OW25435   1.806   1.609   8.141  0.9933 -0.0020 -0.2916
 4658SOL    HW125436   1.876   1.579   8.083 -0.2653 -0.8028 -1.3797
 4658SOL    HW225437   1.846   1.689   8.175 -0.8700 -0.1978  2.4044
 4659SOL     OW25438   2.423   1.548   0.076 -0.4168  0.0205  0.0714
 4659SOL    HW125439   2.503   1.597   0.054  0.9871 -2.8879 -1.3116
 4659SOL    HW225440   2.468   1.464   0.081  0.5356  0.8337  4.7627
 4660SOL     OW25441   2.866   3.910  16.712  0.1963 -0.0375  0.2478
 4660SOL    HW125442   2.829   3.864  16.636  0.2541  3.3447 -1.8116
 4660SOL    HW225443   2.847   4.000  16.686 -1.0989 -0.8627 -1.6858
 4661SOL     OW25444   3.681   0.208   6.627  0.1480  0.3064 -0.0022
 4661SOL    HW125445   3.630   0.184   6.705  2.7705 -1.1556  1.2515
 4661SOL    HW225446   3.632   0.284   6.597 -0.2305  0.8271  1.9593
 4662SOL     OW25447   3.587   3.259   9.307  0.7829 -0.3570 -0.3546
 4662SOL    HW125448   3.518   3.254   9.240 -0.7245 -0.2125  1.1885
 4662SOL    HW225449   3.669   3.257   9.258  0.0626  1.5140 -1.6718
 4663SOL     OW25450   2.371   4.692   3.088  0.3058  0.2246 -0.1254
 4663SOL    HW125451   2.370   0.033   3.015  2.1559  0.3061 -0.0966
 4663SOL    HW225452   2.465   4.675   3.088  0.5166  1.5034 -2.6351
 4664SOL     OW25453   1.015   2.182   5.979  0.3360  0.8135 -0.4208
 4664SOL    HW125454   1.000   2.129   5.900 -0.6388  0.8152 -0.2469
 4664SOL    HW225455   0.978   2.124   6.046  2.6505 -0.8217 -0.5561
 4665SOL     OW25456   1.990   4.410   5.925 -0.2822 -0.1600  0.2747
 4665SOL    HW125457   2.001   4.420   5.831  1.6372 -0.7765  0.4278
 4665SOL    HW225458   1.951   4.322   5.927  2.0163 -1.1780  0.7253
 4666SOL     OW25459   0.072   3.209  16.762  0.3089  0.1852 -0.2011
 4666SOL    HW125460   0.097   3.200  16.854  2.6551  0.7680 -0.7813
 4666SOL    HW225461   4.698   3.225  16.764  0.3731  0.6387 -0.6373
 4667SOL     OW25462   1.884   2.295  14.667  0.4191 -0.5953  0.1166
 4667SOL    HW125463   1.789   2.287  14.663  0.3455 -0.3180  1.2914
 4667SOL    HW225464   1.897   2.379  14.711  3.0989 -0.6191 -0.6289
 4668SOL     OW25465   0.783   1.227   8.343 -0.1040 -0.3455  0.6137
 4668SOL    HW125466   0.717   1.163   8.316 -0.3506  0.1826 -0.0314
 4668SOL    HW225467   0.802   1.262   8.256  0.2970 -2.0578  0.0194
 4669SOL     OW25468   1.961   0.280   4.952  0.4767 -0.4490 -0.0257
 4669SOL    HW125469   1.992   0.219   4.885 -2.0465 -0.8564 -0.8240
 4669SOL    HW225470   1.869   0.288   4.928  0.7146  1.5635 -0.2622
 4670SOL     OW25471   2.535   3.994   0.594  0.4451  0.3034  0.0151
 4670SOL    HW125472   2.482   3.937   0.538  1.1829  0.6699 -1.0516
 4670SOL    HW225473   2.492   4.078   0.578  0.5198  0.1825 -0.8471
 4671SOL     OW25474   3.768   4.267   2.812  0.4364 -0.0689  0.4689
 4671SOL    HW125475   3.754   4.294   2.903  2.6744 -1.4153  1.2232
 4671SOL    HW225476   3.861   4.243   2.810  0.6371  0.6466  0.9324
 4672SOL     OW25477   0.246   3.756   7.329  0.0130  0.2880 -0.0593
 4672SOL    HW125478   0.306   3.682   7.318  1.1169  1.3888 -1.2736
 4672SOL    HW225479   0.278   3.796   7.409 -2.1242  0.8764  0.5063
 4673SOL     OW25480   1.401   4.416   2.325 -0.5076  0.4473  0.0408
 4673SOL    HW125481   1.339   4.489   2.324 -0.4565  0.5339  1.9416
 4673SOL    HW225482   1.454   4.437   2.402 -0.1089 -0.5818  0.0441
 4674SOL     OW25483   4.381   4.630   5.571  0.0311  1.1071 -0.0390
 4674SOL    HW125484   4.312   4.569   5.544  2.4120 -0.8932 -1.6625
 4674SOL    HW225485   4.456   4.612   5.514  0.9322 -1.2549  1.9050
 4675SOL     OW25486   1.175   2.790   6.296 -0.3284 -0.5486 -0.0039
 4675SOL    HW125487   1.211   2.829   6.375 -0.2513  2.3312 -1.4811
 4675SOL    HW225488   1.091   2.836   6.306 -0.8977 -1.3338 -1.1335
 4676SOL     OW25489   2.377   1.997   8.169 -0.6383  0.2009  0.0399
 4676SOL    HW125490   2.339   1.950   8.242  0.7149 -0.8870  0.0336
 4676SOL    HW225491   2.343   2.086   8.179  1.4743  1.1653 -1.3738
 4677SOL     OW25492   4.389   2.199   8.617  0.3829  0.1256 -0.5445
 4677SOL    HW125493   4.388   2.283   8.662 -0.4578 -0.9493  1.4399
 4677SOL    HW225494   4.395   2.135   8.688  0.0147  1.0172  0.2891
 4678SOL     OW25495   3.314   0.210  10.881 -0.0038 -0.1626 -0.1260
 4678SOL    HW125496   3.278   0.144  10.941  1.5439 -1.1606 -0.2711
 4678SOL    HW225497   3.242   0.224  10.820  1.2611 -0.5248 -1.6933
 4679SOL     OW25498   2.956   0.150   0.685  0.0011 -0.1515  0.0231
 4679SOL    HW125499   3.019   0.174   0.752 -0.0045 -0.6865  0.2148
 4679SOL    HW225500   2.988   0.207   0.614  0.7113 -2.0691 -1.1860
 4680SOL     OW25501   0.867   1.272   5.256  0.0746 -0.2832  0.3294
 4680SOL    HW125502   0.946   1.257   5.203 -0.2151  1.0394 -0.4617
 4680SOL    HW225503   0.890   1.227   5.338  0.9732  0.8577  0.7033
 4681SOL     OW25504   3.592   0.523   7.626  0.0395 -0.1319  0.1033
 4681SOL    HW125505   3.637   0.596   7.583 -1.3096  0.6742  0.0589
 4681SOL    HW225506   3.668   0.469   7.646  0.4336 -0.4418 -2.2187
 4682SOL     OW25507   1.375   0.566  15.229 -0.3723 -0.2282  0.2642
 4682SOL    HW125508   1.290   0.594  15.196  0.6412  2.0301 -0.4507
 4682SOL    HW225509   1.393   0.481  15.189 -2.2295 -1.2379  1.5918
 4683SOL     OW25510   4.204   4.239   1.356  0.7462 -0.3999  0.9158
 4683SOL    HW125511   4.268   4.205   1.293 -1.3012 -2.2772 -0.1545
 4683SOL    HW225512   4.143   4.165   1.359  0.7397 -0.4140  0.5279
 4684SOL     OW25513   1.278   3.597   5.601 -0.0788 -0.1116 -0.2704
 4684SOL    HW125514   1.279   3.634   5.513  1.1270  0.7217  0.0922
 4684SOL    HW225515   1.243   3.513   5.571  1.1542 -0.5956 -0.3891
 4685SOL     OW25516   2.979   2.490  13.579  0.1656  0.0067 -0.1568
 4685SOL    HW125517   2.939   2.433  13.514  0.0221 -1.8953  1.6247
 4685SOL    HW225518   2.917   2.562  13.587  1.8551  1.3695  0.7655
 4686SOL     OW25519   3.264   4.130   8.639 -0.4062 -0.0699  0.1335
 4686SOL    HW125520   3.356   4.105   8.633  0.1017  1.5947  0.9651
 4686SOL    HW225521   3.232   4.048   8.677  2.3362 -0.2446  2.0646
 4687SOL     OW25522   0.263   2.803   8.756 -0.3209 -0.9196 -0.1519
 4687SOL    HW125523   0.279   2.800   8.661 -0.8592 -0.3932 -0.2575
 4687SOL    HW225524   0.340   2.766   8.799 -1.0599 -2.7346 -0.3797
 4688SOL     OW25525   2.463   2.977   6.283  0.3042  0.3253 -0.2178
 4688SOL    HW125526   2.409   2.900   6.295  1.5032 -0.1730  1.9864
 4688SOL    HW225527   2.501   2.979   6.371 -0.6512 -1.3214  0.2168
 4689SOL     OW25528   1.961   0.455   7.451 -0.2880 -0.5220  0.2468
 4689SOL    HW125529   1.880   0.473   7.498 -0.1813 -1.7762  0.9206
 4689SOL    HW225530   1.987   0.378   7.502  3.6679  1.6428  1.4443
 4690SOL     OW25531   0.534   3.325   7.226  0.2635  0.0494 -0.6656
 4690SOL    HW125532   0.486   3.385   7.284  0.1780  1.4499 -2.1897
 4690SOL    HW225533   0.506   3.364   7.143  1.7965 -1.1213 -1.7400
 4691SOL     OW25534   2.553   0.357   9.022 -0.5646 -0.4568  0.7493
 4691SOL    HW125535   2.510   0.275   9.046 -1.4226 -0.5869 -1.1949
 4691SOL    HW225536   2.604   0.332   8.944  0.4761 -0.4631  1.4272
 4692SOL     OW25537   3.495   1.064   5.382  0.1946 -0.1648 -0.8397
 4692SOL    HW125538   3.513   0.970   5.384 -2.9993 -0.7515  1.0992
 4692SOL    HW225539   3.453   1.077   5.468 -0.6919 -1.2455 -1.0982
 4693SOL     OW25540   3.356   2.917   4.986 -0.5417 -0.1065  0.0497
 4693SOL    HW125541   3.288   2.942   4.923  0.6578  0.4367 -1.0216
 4693SOL    HW225542   3.395   2.843   4.941 -0.1043  1.0568 -1.4781
 4694SOL     OW25543   0.778   0.400   2.098  0.3421  0.3640 -0.4277
 4694SOL    HW125544   0.794   0.315   2.057 -1.1679 -0.5207  0.8147
 4694SOL    HW225545   0.865   0.437   2.087  0.8548 -0.9281 -0.7722
 4695SOL     OW25546   0.878   0.845  16.094  0.0009  0.6992 -0.2498
 4695SOL    HW125547   0.906   0.936  16.081 -2.1307  1.5263  0.9325
 4695SOL    HW225548   0.838   0.815  16.013  0.7368 -1.6086  0.2430
 4696SOL     OW25549   4.120   4.204  14.509  0.4462 -0.3668 -0.3229
 4696SOL    HW125550   4.131   4.174  14.419 -1.0238 -0.3244 -0.5058
 4696SOL    HW225551   4.026   4.219  14.508  0.1452 -2.1967  0.2693
 4697SOL     OW25552   0.545   2.202  13.783  0.0197  0.7575 -0.2197
 4697SOL    HW125553   0.485   2.134  13.815  0.0148 -0.0313 -1.8961
 4697SOL    HW225554   0.628   2.159  13.763 -0.8772 -0.9038 -0.3893
 4698SOL     OW25555   1.201   1.033  12.262 -0.4139  0.0473  0.0595
 4698SOL    HW125556   1.173   0.979  12.335  0.3058  1.3849  1.3195
 4698SOL    HW225557   1.218   1.111  12.315 -0.6760 -0.2251  0.5393
 4699SOL     OW25558   3.109   4.639   9.498 -0.0878  0.4217 -0.3041
 4699SOL    HW125559   3.045   4.573   9.468 -0.9557  1.5142 -0.8670
 4699SOL    HW225560   3.057   4.719   9.495  0.9265  0.9881 -2.6959
 4700SOL     OW25561   3.730   1.547   1.061 -0.3772  0.1572 -0.0983
 4700SOL    HW125562   3.776   1.587   1.134 -1.8518  0.7338  0.5109
 4700SOL    HW225563   3.751   1.602   0.986 -0.0029  0.2100  0.0461
 4701SOL     OW25564   0.647   0.515   3.220  0.5072  0.3474  0.0752
 4701SOL    HW125565   0.582   0.472   3.165  1.1248 -0.2510 -0.1798
 4701SOL    HW225566   0.592   0.549   3.291  0.1406  1.4777 -0.7367
 4702SOL     OW25567   0.084   2.398   8.689  0.1697 -0.2423  0.3476
 4702SOL    HW125568   0.005   2.439   8.654  0.2771 -0.7537 -0.5016
 4702SOL    HW225569   0.051   2.333   8.751  1.0043 -2.3310 -1.3908
 4703SOL     OW25570   0.776   3.484   6.558  0.3835 -0.4994 -0.1015
 4703SOL    HW125571   0.783   3.541   6.635  0.7832 -0.2465 -0.3230
 4703SOL    HW225572   0.864   3.456   6.534  0.9230  0.8291  0.2983
 4704SOL     OW25573   2.709   2.833   5.310 -0.2888  0.3752  0.0427
 4704SOL    HW125574   2.738   2.810   5.398  1.8471 -1.0331 -1.0203
 4704SOL    HW225575   2.653   2.759   5.288  2.3328 -0.6112 -3.3685
 4705SOL     OW25576   2.647   1.791   5.105 -0.0368 -0.3071 -0.1860
 4705SOL    HW125577   2.569   1.774   5.158 -1.9363  1.1695 -2.5347
 4705SOL    HW225578   2.659   1.705   5.064  0.7137  0.3503 -1.3136
 4706SOL     OW25579   4.242   3.588   8.766  0.5835 -0.2022 -0.0522
 4706SOL    HW125580   4.277   3.528   8.832  0.5574 -2.3278 -1.9573
 4706SOL    HW225581   4.266   3.675   8.798  1.4143  0.2598 -1.8925
 4707SOL     OW25582   1.772   3.465   4.756  0.2930  0.4049 -0.7333
 4707SOL    HW125583   1.718   3.410   4.700 -2.6536  1.0423  1.4722
 4707SOL    HW225584   1.828   3.506   4.690  4.1930 -1.9198  1.1302
 4708SOL     OW25585   0.001   3.835   4.215 -0.7074  0.7553  0.1698
 4708SOL    HW125586   0.059   3.853   4.141 -2.7386 -0.0906 -1.6270
 4708SOL    HW225587   4.676   3.756   4.185  0.9937  0.3251 -1.2808
 4709SOL     OW25588   4.600   4.238   0.985 -0.1739  0.4451 -0.1549
 4709SOL    HW125589   4.686   4.260   0.949 -0.4864  1.5827 -0.2239
 4709SOL    HW225590   4.612   4.143   0.988 -1.1344  0.4346  3.2073
 4710SOL     OW25591   4.233   3.378   5.469 -0.0253  0.2886  0.1348
 4710SOL    HW125592   4.188   3.370   5.553 -0.4264 -0.7885 -0.1781
 4710SOL    HW225593   4.174   3.445   5.435 -0.7478 -0.3609  0.1027
 4711SOL     OW25594   0.887   0.003   7.517 -0.6083 -0.3563 -0.5070
 4711SOL    HW125595   0.913   0.008   7.425  0.3027 -1.4642 -0.3127
 4711SOL    HW225596   0.941   4.651   7.548  2.0470  1.7988 -0.0444
 4712SOL     OW25597   3.090   2.770  17.556 -0.0240 -0.6201  0.0605
 4712SOL    HW125598   3.042   2.797  17.635  2.5036  1.7637  0.7626
 4712SOL    HW225599   3.169   2.824  17.555 -0.7991  0.5395  1.1550
 4713SOL     OW25600   2.220   3.781   5.185 -0.2319  0.1371 -0.1340
 4713SOL    HW125601   2.136   3.825   5.198 -1.5150 -2.1802 -0.6000
 4713SOL    HW225602   2.270   3.803   5.263  0.0106  2.0060 -0.8314
 4714SOL     OW25603   3.549   4.557   0.240 -0.1471 -0.5640  0.5016
 4714SOL    HW125604   3.475   4.499   0.256 -1.0465  0.1175 -1.1376
 4714SOL    HW225605   3.582   4.534   0.153 -1.8746 -0.4651 -0.1779
 4715SOL     OW25606   2.937   1.315   3.490 -0.2341  0.1435 -0.5798
 4715SOL    HW125607   2.852   1.346   3.460 -0.5802 -0.2054  0.0458
 4715SOL    HW225608   2.984   1.390   3.526  2.2062 -1.7794  0.2287
 4716SOL     OW25609   3.567   1.145   1.711 -0.0616  0.4308 -0.3700
 4716SOL    HW125610   3.617   1.211   1.758  1.9376 -1.4347  0.1247
 4716SOL    HW225611   3.568   1.173   1.619 -2.0160 -2.1208 -1.1708
 4717SOL     OW25612   1.585   2.222   3.662 -0.8529 -0.1264  0.0393
 4717SOL    HW125613   1.640   2.236   3.740 -0.5824 -1.6587  0.1186
 4717SOL    HW225614   1.509   2.277   3.681 -0.8344 -0.1161  0.0850
 4718SOL     OW25615   2.596   2.931   3.502  0.0271  0.0697  0.3105
 4718SOL    HW125616   2.565   2.848   3.467 -0.9653  0.2193  0.8411
 4718SOL    HW225617   2.519   2.973   3.541 -0.9646  1.5008 -3.1804
 4719SOL     OW25618   2.067   4.057   3.903  0.1070  0.2867 -0.1476
 4719SOL    HW125619   2.110   4.115   3.840  0.9682  0.0792  0.2520
 4719SOL    HW225620   2.009   3.998   3.856 -0.3053  0.4806  0.1089
 4720SOL     OW25621   3.800   3.796  12.080 -0.2990  0.2274 -0.6263
 4720SOL    HW125622   3.769   3.706  12.069 -2.5414  1.2527 -2.7788
 4720SOL    HW225623   3.894   3.788  12.097 -0.1059 -0.3185 -1.9528
 4721SOL     OW25624   2.580   4.260  16.427 -0.1336 -0.1691  0.2843
 4721SOL    HW125625   2.574   4.350  16.396  1.3801 -0.4700 -0.8817
 4721SOL    HW225626   2.487   4.238  16.422 -0.5843  2.0462 -1.0580
 4722SOL     OW25627   1.209   0.445   6.611 -0.4864 -0.3799 -0.0427
 4722SOL    HW125628   1.132   0.403   6.649 -1.3767  1.2609 -0.0445
 4722SOL    HW225629   1.248   0.460   6.697  0.6942 -1.3981 -0.4001
 4723SOL     OW25630   1.913   2.376  16.084  0.0231  0.3140  0.2882
 4723SOL    HW125631   1.962   2.384  16.002 -5.5119  0.6729 -2.9692
 4723SOL    HW225632   1.971   2.326  16.142 -0.4198 -0.6681 -0.1168
 4724SOL     OW25633   0.197   0.187   6.075 -0.3764 -0.4335  0.2880
 4724SOL    HW125634   0.167   0.179   5.984 -1.3455  0.1825  0.5528
 4724SOL    HW225635   0.170   0.100   6.104  0.4336 -1.0606 -0.8207
 4725SOL     OW25636   2.039   0.131   6.323  0.1841 -0.4281 -0.3111
 4725SOL    HW125637   1.970   0.182   6.281 -0.6459  0.9075  2.6214
 4725SOL    HW225638   2.088   0.204   6.360 -0.7434  1.1256 -2.1846
 4726SOL     OW25639   2.167   1.872   7.373 -0.0705 -0.4858 -0.3148
 4726SOL    HW125640   2.104   1.930   7.331 -1.1211  0.5839  2.7484
 4726SOL    HW225641   2.160   1.900   7.465 -2.1920 -1.4741 -0.1897
 4727SOL     OW25642   1.981   2.384   4.564 -0.0327 -0.8198  0.4306
 4727SOL    HW125643   2.075   2.375   4.550 -0.1320  0.2687 -0.9929
 4727SOL    HW225644   1.952   2.466   4.522 -0.7562 -0.5732  1.3991
 4728SOL     OW25645   0.165   3.107   6.987 -0.3964 -0.3932  0.5402
 4728SOL    HW125646   0.249   3.072   6.958  0.0608 -0.6746  2.1900
 4728SOL    HW225647   0.183   3.168   7.058  2.1764  0.3139 -0.7562
 4729SOL     OW25648   4.691   3.206  17.258 -0.2184 -0.2762 -0.7546
 4729SOL    HW125649   0.057   3.164  17.255  0.1403  0.4713 -0.6794
 4729SOL    HW225650   4.688   3.222  17.352 -2.0493  0.6549 -0.9751
 4730SOL     OW25651   2.747   2.620   2.110  0.0481 -0.6297 -0.2181
 4730SOL    HW125652   2.789   2.622   2.024  0.3424 -1.0741 -0.0800
 4730SOL    HW225653   2.816   2.655   2.166  1.4108  0.1618 -2.3517
 4731SOL     OW25654   0.927   0.678   2.302 -0.0438 -0.4481  0.6144
 4731SOL    HW125655   1.014   0.717   2.312  0.2092 -0.6745 -0.6911
 4731SOL    HW225656   0.911   0.698   2.210 -2.7938 -3.0302  0.5433
 4732SOL     OW25657   3.117   4.135   0.729  0.4616 -0.1619 -0.0848
 4732SOL    HW125658   3.131   4.229   0.737  0.9470 -0.1765 -0.7184
 4732SOL    HW225659   3.205   4.103   0.709  0.7427  1.1921 -1.0377
 4733SOL     OW25660   2.071   2.319   8.131  0.2413  0.0292 -0.3684
 4733SOL    HW125661   2.054   2.376   8.206  3.0926 -2.3938  2.1376
 4733SOL    HW225662   2.161   2.292   8.149  0.1874  0.1664  0.1219
 4734SOL     OW25663   1.901   4.456  13.179 -0.3140  0.5514 -0.3655
 4734SOL    HW125664   1.863   4.510  13.110  1.2234  1.3453 -0.6074
 4734SOL    HW225665   1.852   4.490  13.254 -0.7518 -0.2761 -0.2799
 4735SOL     OW25666   2.962   2.100   9.388 -0.2351 -0.2312 -0.2729
 4735SOL    HW125667   3.042   2.105   9.441  0.3112 -1.2051 -1.0009
 4735SOL    HW225668   2.957   2.191   9.358 -1.6299 -0.3332 -0.3189
 4736SOL     OW25669   2.758   0.766  15.575  0.5677 -0.0562 -0.0924
 4736SOL    HW125670   2.771   0.769  15.670  2.3222 -0.7102 -0.3030
 4736SOL    HW225671   2.832   0.820  15.545 -0.0289  0.8847  0.1324
 4737SOL     OW25672   0.237   1.069   3.000 -0.6758  0.7733 -0.0524
 4737SOL    HW125673   0.198   1.136   2.944 -1.4603  0.3430 -0.0052
 4737SOL    HW225674   0.266   1.007   2.933 -1.3293 -0.7302  1.0594
 4738SOL     OW25675   0.155   3.984  12.908  0.3498  0.0784  0.1414
 4738SOL    HW125676   0.180   4.042  12.836 -0.0719  1.6874  1.3010
 4738SOL    HW225677   0.094   3.930  12.858  2.6549 -1.6970 -0.7743
 4739SOL     OW25678   1.706   4.296   8.372 -0.5344 -0.0802  0.3660
 4739SOL    HW125679   1.790   4.291   8.419  0.6758  3.2900 -1.4154
 4739SOL    HW225680   1.660   4.368   8.415  0.7987  1.5797 -0.9145
 4740SOL     OW25681   2.097   2.865   2.213 -0.3410  0.1266  0.3440
 4740SOL    HW125682   2.101   2.780   2.171 -3.1828 -0.5214  1.3916
 4740SOL    HW225683   2.025   2.904   2.165  0.0045  0.9380  0.4686
 4741SOL     OW25684   0.312   3.956   7.161 -0.1763  0.1851  0.5614
 4741SOL    HW125685   0.269   3.890   7.214  0.1329  0.4842  1.1824
 4741SOL    HW225686   0.239   4.002   7.119 -0.7010 -1.5777 -0.4492
 4742SOL     OW25687   0.219   0.725  15.399  0.3351  0.0256  0.2094
 4742SOL    HW125688   0.182   0.676  15.472 -0.9984  1.5415  0.5593
 4742SOL    HW225689   0.313   0.707  15.409  0.3496  0.7619  1.3296
 4743SOL     OW25690   1.313   3.950   2.798  0.1531  0.0413 -0.8853
 4743SOL    HW125691   1.407   3.967   2.794  0.0522  0.7194 -0.3534
 4743SOL    HW225692   1.278   4.036   2.819  0.5605  0.1513 -0.6561
 4744SOL     OW25693   4.498   4.292   3.285  0.8368 -0.2114 -0.0899
 4744SOL    HW125694   4.583   4.252   3.270  0.0198 -2.2774  0.8618
 4744SOL    HW225695   4.530   4.359   3.346 -0.0462 -1.2793  1.5352
 4745SOL     OW25696   0.153   1.952   5.325  0.2754  0.3208 -0.0758
 4745SOL    HW125697   0.189   1.881   5.378  1.8030  1.7768  0.8312
 4745SOL    HW225698   0.178   2.024   5.383 -0.5796  0.6890 -0.1688
 4746SOL     OW25699   4.317   1.482   5.989  0.0624  0.2562  0.0220
 4746SOL    HW125700   4.407   1.476   6.021 -0.1529 -3.2121 -0.0475
 4746SOL    HW225701   4.293   1.561   6.037  0.4976 -0.3845  1.2943
 4747SOL     OW25702   2.321   3.043   6.813 -0.2067 -0.3627  0.2982
 4747SOL    HW125703   2.303   3.043   6.907  1.1714 -0.0473  0.5684
 4747SOL    HW225704   2.399   2.988   6.806 -0.7717 -1.4089  2.5370
 4748SOL     OW25705   3.292   4.586   8.531 -0.3156 -0.1454  0.8034
 4748SOL    HW125706   3.267   4.536   8.609 -0.8336 -0.3094  0.5303
 4748SOL    HW225707   3.258   4.670   8.562 -0.6265 -0.3767  1.0862
 4749SOL     OW25708   1.530   0.563   7.794  0.0710 -0.9125  0.1083
 4749SOL    HW125709   1.504   0.631   7.732 -2.2372  0.4620  2.5851
 4749SOL    HW225710   1.474   0.572   7.872  0.5300  2.2460  0.0724
 4750SOL     OW25711   2.612   3.916   8.664 -0.3714 -0.9488 -0.4205
 4750SOL    HW125712   2.536   3.888   8.714  0.8291  0.8860  2.4240
 4750SOL    HW225713   2.680   3.910   8.731 -0.1904 -0.4687 -0.5576
 4751SOL     OW25714   2.842   4.295   3.254  0.1401 -0.3127 -0.3817
 4751SOL    HW125715   2.845   4.199   3.263 -2.2203 -0.3084  0.4485
 4751SOL    HW225716   2.767   4.296   3.195  1.6815 -0.9523 -2.3560
 4752SOL     OW25717   2.905   4.445   2.800  0.2430  0.2740 -0.6915
 4752SOL    HW125718   2.937   4.465   2.888  0.1814 -0.8102 -0.4155
 4752SOL    HW225719   2.865   4.530   2.782 -2.5277 -0.2898  2.6569
 4753SOL     OW25720   3.104   3.716   3.331  0.1906  0.3506  0.2493
 4753SOL    HW125721   3.029   3.720   3.272  1.5643 -1.7169 -1.6240
 4753SOL    HW225722   3.168   3.757   3.272  0.0803 -1.7250 -1.3003
 4754SOL     OW25723   3.269   1.985   7.865 -0.6115 -0.0546 -0.2723
 4754SOL    HW125724   3.285   2.027   7.950 -0.2213 -1.1011  0.1832
 4754SOL    HW225725   3.174   1.985   7.868 -0.6463  1.7459 -1.4466
 4755SOL     OW25726   0.534   2.843   8.269  0.1721 -0.3396  0.1381
 4755SOL    HW125727   0.490   2.842   8.354  0.3451  1.7667  0.2530
 4755SOL    HW225728   0.454   2.853   8.217  0.3944 -1.0562 -0.3498
 4756SOL     OW25729   3.453   3.873  11.916  0.1749  0.2450  0.4665
 4756SOL    HW125730   3.424   3.782  11.923 -1.5977  0.7705  0.1214
 4756SOL    HW225731   3.399   3.905  11.989  1.3226  3.0463  0.0752
 4757SOL     OW25732   0.095   3.779   8.632 -0.0320 -0.4080  0.3330
 4757SOL    HW125733   0.028   3.745   8.573  1.4647 -1.9085 -0.4956
 4757SOL    HW225734   0.174   3.777   8.578 -0.3931  1.2346 -0.2451
 4758SOL     OW25735   1.210   1.430   9.940 -0.7442 -0.0441 -0.2275
 4758SOL    HW125736   1.121   1.395   9.935 -1.2127  0.8895  1.3928
 4758SOL    HW225737   1.236   1.421   9.849 -1.5958  0.9447 -0.5652
 4759SOL     OW25738   1.897   0.079   7.169 -0.1024  0.4880 -0.3106
 4759SOL    HW125739   1.852   0.002   7.203 -0.3244  0.3424 -0.9369
 4759SOL    HW225740   1.987   0.053   7.148 -0.9852 -2.0696 -0.8722
 4760SOL     OW25741   2.320   0.085  12.576  0.4287 -0.3857  0.4275
 4760SOL    HW125742   2.408   0.124  12.570  0.7023 -0.9623  0.7566
 4760SOL    HW225743   2.277   0.125  12.500 -1.5308 -4.4703 -0.5861
 4761SOL     OW25744   3.476   0.513   2.399  0.8497  0.0872  0.4416
 4761SOL    HW125745   3.559   0.466   2.389 -0.2766 -1.9601  0.6546
 4761SOL    HW225746   3.419   0.437   2.381  2.2099 -1.1797  1.4733
 4762SOL     OW25747   1.044   0.876   3.558  0.4948  0.4509  0.0241
 4762SOL    HW125748   0.957   0.850   3.530 -0.0007  0.0038  1.9414
 4762SOL    HW225749   1.048   0.963   3.519  2.1548 -0.2487 -1.3414
 4763SOL     OW25750   4.618   2.732   1.897 -0.0377 -0.1626  0.1893
 4763SOL    HW125751   4.611   2.673   1.822  0.1686 -0.0311  0.0656
 4763SOL    HW225752   4.709   2.711   1.920  0.9081  0.9980 -2.4089
 4764SOL     OW25753   3.165   3.569   7.331  0.0649 -0.1075 -0.8108
 4764SOL    HW125754   3.219   3.643   7.357  1.2696 -0.4838 -2.2460
 4764SOL    HW225755   3.151   3.515   7.409 -1.9917  0.0258 -1.0770
 4765SOL     OW25756   1.084   4.233   4.476  0.0908  0.3578 -0.1538
 4765SOL    HW125757   1.148   4.253   4.544  0.8751  1.6595 -1.2762
 4765SOL    HW225758   1.133   4.243   4.394 -0.6305  1.1928 -0.4836
 4766SOL     OW25759   1.266   1.002   4.578  0.2546 -0.1810 -0.5683
 4766SOL    HW125760   1.188   0.988   4.632  1.3867  1.8304  1.6129
 4766SOL    HW225761   1.333   1.028   4.642 -2.2091  0.2308  1.8674
 4767SOL     OW25762   2.117   1.831  14.451  0.4621  0.3068 -0.4031
 4767SOL    HW125763   2.107   1.926  14.448  2.5888  0.4780 -1.6368
 4767SOL    HW225764   2.187   1.811  14.390  1.5459  2.2662  0.2105
 4768SOL     OW25765   0.794   0.204   8.748 -0.1559 -0.2497  0.1335
 4768SOL    HW125766   0.707   0.170   8.770 -0.6514  0.0897 -1.2739
 4768SOL    HW225767   0.774   0.298   8.746  2.5383  0.2555 -2.9214
 4769SOL     OW25768   3.903   1.110  13.918 -0.0256  0.3513 -0.4342
 4769SOL    HW125769   3.883   1.154  13.835  0.4751  0.0535 -0.7162
 4769SOL    HW225770   3.885   1.019  13.894  1.2678 -0.2073  0.7047
 4770SOL     OW25771   2.693   3.837   3.000  0.2029  0.3135  0.0173
 4770SOL    HW125772   2.772   3.784   2.985  1.1926  2.0532 -0.8913
 4770SOL    HW225773   2.622   3.778   3.024  0.0514 -0.2945 -1.9310
 4771SOL     OW25774   2.013   3.839   8.885 -0.4110 -0.6179 -0.2828
 4771SOL    HW125775   2.063   3.909   8.927  0.0376 -1.1901  0.1431
 4771SOL    HW225776   2.067   3.831   8.806 -0.7847 -0.0920 -0.5883
 4772SOL     OW25777   4.601   0.783   9.303 -0.6261 -0.6399  0.0640
 4772SOL    HW125778   4.573   0.692   9.293  1.5802 -1.2575 -0.6682
 4772SOL    HW225779   4.516   0.825   9.316 -0.7503 -0.7579 -0.3751
 4773SOL     OW25780   4.494   3.688  13.963 -0.2608 -0.6577 -0.1184
 4773SOL    HW125781   4.538   3.607  13.988  2.7340  0.8251 -0.5098
 4773SOL    HW225782   4.497   3.752  14.034 -0.6987  0.3022 -0.9658
 4774SOL     OW25783   3.177   4.227   4.620 -0.6106  0.1521 -0.2938
 4774SOL    HW125784   3.130   4.165   4.565 -0.9747 -0.1702  0.3688
 4774SOL    HW225785   3.107   4.229   4.686  2.3738  1.6898  2.8465
 4775SOL     OW25786   1.516   4.679   7.245 -0.2151 -0.0187 -0.7336
 4775SOL    HW125787   1.508   0.012   7.324  0.9069 -0.3464 -0.4004
 4775SOL    HW225788   1.520   0.034   7.186 -0.1442  0.3769 -0.2284
 4776SOL     OW25789   2.667   4.478  10.610  0.4156 -0.2369  0.2357
 4776SOL    HW125790   2.636   4.456  10.698  3.1616  1.6281  1.6711
 4776SOL    HW225791   2.641   4.569  10.600 -0.1068 -0.4923 -0.7646
 4777SOL     OW25792   0.743   3.196   4.790  0.5376 -0.2642 -0.3090
 4777SOL    HW125793   0.710   3.274   4.746 -0.2365  0.9968  2.5744
 4777SOL    HW225794   0.828   3.235   4.812  0.0465 -0.1941  1.4263
 4778SOL     OW25795   2.331   1.339   4.421 -0.3983  0.0951 -0.0038
 4778SOL    HW125796   2.389   1.413   4.401  0.8916 -0.6100  1.0904
 4778SOL    HW225797   2.386   1.292   4.484 -0.5582 -0.3739 -0.2189
 4779SOL     OW25798   1.235   4.103   3.531  0.7374 -0.4579 -0.5427
 4779SOL    HW125799   1.296   4.071   3.597 -0.1141 -0.2906  0.3289
 4779SOL    HW225800   1.245   4.032   3.467  3.0329  1.7694 -2.6034
 4780SOL     OW25801   1.290   2.948   9.143 -0.7592 -0.0045  0.3221
 4780SOL    HW125802   1.322   3.033   9.174 -0.4313  0.1599 -0.4449
 4780SOL    HW225803   1.283   2.896   9.222  3.1761  0.1989  0.8237
 4781SOL     OW25804   1.754   3.632   4.307  0.0474 -0.2386 -0.4456
 4781SOL    HW125805   1.732   3.620   4.214  1.3885  1.2859 -0.9559
 4781SOL    HW225806   1.669   3.597   4.333 -0.6782  2.4223  0.7333
 4782SOL     OW25807   3.368   2.547  13.322  0.2577 -0.9663 -0.0002
 4782SOL    HW125808   3.330   2.467  13.358 -0.6271 -0.2837  0.5721
 4782SOL    HW225809   3.413   2.585  13.398  0.9150  0.2621 -0.9947
 4783SOL     OW25810   4.435   0.022   4.715 -0.4376 -0.6056 -0.0897
 4783SOL    HW125811   4.370   4.683   4.753  0.8930 -1.5491  0.6845
 4783SOL    HW225812   4.395   0.104   4.747 -0.1500 -1.7346  3.1726
 4784SOL     OW25813   1.737   1.261  16.096  0.4850 -0.5202 -0.0833
 4784SOL    HW125814   1.718   1.167  16.092  0.3635 -0.4812 -0.3868
 4784SOL    HW225815   1.792   1.281  16.020 -0.1908  0.0117 -0.4345
 4785SOL     OW25816   0.867   3.642   5.643  0.0702  0.3375 -0.1453
 4785SOL    HW125817   0.937   3.587   5.676  0.3755  0.7232 -0.1442
 4785SOL    HW225818   0.897   3.645   5.552 -0.1213 -0.4392 -0.2317
 4786SOL     OW25819   1.111   4.546  16.333 -0.1309  0.5968 -0.0143
 4786SOL    HW125820   1.016   4.541  16.333 -0.0616 -0.6589  0.9452
 4786SOL    HW225821   1.126   4.507  16.247 -0.8198  0.2264  0.0364
 4787SOL     OW25822   3.548   2.515   0.928 -0.1320 -0.0555 -0.4476
 4787SOL    HW125823   3.474   2.501   0.988  1.5034 -0.9506  1.3387
 4787SOL    HW225824   3.624   2.514   0.986 -1.6639 -0.1682  1.5937
 4788SOL     OW25825   4.639   1.208  10.078 -0.1923  0.4265  0.0004
 4788SOL    HW125826   4.706   1.244  10.136  0.2120  1.9621 -1.4446
 4788SOL    HW225827   4.593   1.148  10.137  0.4254  0.3952  0.4517
 4789SOL     OW25828   3.708   1.220  14.662  0.1760 -0.3472  0.3078
 4789SOL    HW125829   3.726   1.313  14.649 -0.4583 -0.3450 -0.5521
 4789SOL    HW225830   3.733   1.196  14.573 -1.3502 -3.2362  0.6729
 4790SOL     OW25831   4.493   3.563  12.715  0.2777 -0.1217  0.1757
 4790SOL    HW125832   4.489   3.474  12.752 -1.5410  0.0869  0.4451
 4790SOL    HW225833   4.588   3.569  12.732  0.2352  1.5521 -0.2631
 4791SOL     OW25834   4.346   3.823   9.309  0.4599 -0.7321 -0.2382
 4791SOL    HW125835   4.395   3.750   9.348  1.5002 -1.6509 -3.1762
 4791SOL    HW225836   4.373   3.895   9.365 -2.5240 -1.8745  2.6620
 4792SOL     OW25837   1.659   4.563  17.680 -0.0531  0.3015  0.4055
 4792SOL    HW125838   1.697   4.620  17.613  0.8799  0.5207  1.1265
 4792SOL    HW225839   1.626   4.486  17.633 -0.6085  1.0037 -0.3584
 4793SOL     OW25840   3.685   4.448   3.286 -0.2531  0.2964 -0.3461
 4793SOL    HW125841   3.593   4.463   3.307 -0.3872 -1.5813  0.3897
 4793SOL    HW225842   3.711   4.539   3.269  1.2313  0.4168  2.5852
 4794SOL     OW25843   4.491   3.972  11.028 -0.1981  0.8343 -0.3695
 4794SOL    HW125844   4.541   3.933  11.099 -0.5295  1.6731  0.3137
 4794SOL    HW225845   4.500   3.912  10.954 -3.4525  1.3607 -1.2052
 4795SOL     OW25846   3.170   4.627   8.253 -0.0908 -0.0693  0.0782
 4795SOL    HW125847   3.231   4.553   8.248 -0.7350 -0.5777 -0.2283
 4795SOL    HW225848   3.188   4.656   8.342  0.2574 -1.6675  0.5388
 4796SOL     OW25849   1.355   3.533   2.780 -0.2649 -0.7999  0.0707
 4796SOL    HW125850   1.287   3.599   2.767  1.8496  1.7748  1.7801
 4796SOL    HW225851   1.391   3.553   2.866 -0.8739  0.2536  0.0810
 4797SOL     OW25852   3.180   2.772   4.623  0.3181  0.2177 -0.3551
 4797SOL    HW125853   3.156   2.698   4.679 -1.2663  0.6337 -0.4977
 4797SOL    HW225854   3.142   2.739   4.542 -2.1813  0.6547  0.6333
 4798SOL     OW25855   2.377   4.278  10.883 -0.3855 -0.1811  0.1762
 4798SOL    HW125856   2.402   4.207  10.824  1.5278  1.3080 -0.7837
 4798SOL    HW225857   2.466   4.308  10.895 -0.3167 -1.1108  2.0632
 4799SOL     OW25858   0.051   3.457   1.025 -0.1456  0.5729 -0.8825
 4799SOL    HW125859   4.702   3.523   1.021 -0.9909 -0.2595 -0.0812
 4799SOL    HW225860   0.075   3.455   1.117 -2.5054  2.2069 -0.2195
 4800SOL     OW25861   3.615   4.006   7.871  0.0218  0.2045 -0.3208
 4800SOL    HW125862   3.535   4.048   7.839  0.0221 -0.6557 -1.4424
 4800SOL    HW225863   3.636   4.065   7.943 -0.4089  0.6253 -0.5359
 4801SOL     OW25864   0.470   2.473   7.903  0.6785  0.3023 -0.2020
 4801SOL    HW125865   0.442   2.420   7.828  1.3937 -1.0041  0.4584
 4801SOL    HW225866   0.561   2.447   7.918 -0.1769 -3.0905 -0.9191
 4802SOL     OW25867   1.157   3.603   9.327  0.5780 -0.3403 -0.1382
 4802SOL    HW125868   1.138   3.600   9.233 -1.7068  2.7808  0.2325
 4802SOL    HW225869   1.078   3.566   9.366 -1.0151  2.9002 -0.3204
 4803SOL     OW25870   4.379   0.502   1.208 -0.0576 -0.1007  0.1316
 4803SOL    HW125871   4.416   0.562   1.143 -2.5117 -0.8771 -1.9952
 4803SOL    HW225872   4.408   0.416   1.179  1.0439 -0.0759  1.1574
 4804SOL     OW25873   4.177   2.132   2.768  0.6258  0.1345  0.3464
 4804SOL    HW125874   4.225   2.114   2.687  1.6318 -0.5156  1.0741
 4804SOL    HW225875   4.151   2.041   2.785  0.7119  0.0630  0.0893
 4805SOL     OW25876   0.420   2.265  15.316  0.1458  0.0612  0.6276
 4805SOL    HW125877   0.468   2.241  15.237  1.4768  0.2418  1.3833
 4805SOL    HW225878   0.361   2.190  15.320 -0.2180  0.4073  1.8829
 4806SOL     OW25879   0.556   3.070  10.618 -0.2519  0.2086  0.1037
 4806SOL    HW125880   0.648   3.092  10.604  0.1179 -1.2446  0.2284
 4806SOL    HW225881   0.511   3.105  10.541 -0.6570  0.8470  0.6263
 4807SOL     OW25882   0.863   2.719  10.325 -0.2365  0.3038 -0.7820
 4807SOL    HW125883   0.901   2.716  10.413  0.2901  1.2345 -0.9853
 4807SOL    HW225884   0.803   2.789  10.351  0.3361  0.6108 -0.2773
 4808SOL     OW25885   1.215   0.874  17.361 -0.2481 -0.0438 -0.7575
 4808SOL    HW125886   1.183   0.828  17.283  0.5913 -0.9933 -0.5446
 4808SOL    HW225887   1.187   0.813  17.429 -0.5990 -1.2391 -1.9660
 4809SOL     OW25888   0.107   1.629   9.409  0.3836 -0.1019  0.8707
 4809SOL    HW125889   0.151   1.635   9.325  1.1166  1.4066  1.3773
 4809SOL    HW225890   0.014   1.635   9.386  0.1166 -0.4151  1.8474
 4810SOL     OW25891   3.444   4.399  14.427 -0.0643  0.2105 -0.2521
 4810SOL    HW125892   3.489   4.318  14.405  0.4219  0.5612 -0.5445
 4810SOL    HW225893   3.507   4.432  14.491  1.7828  0.4197 -2.1893
 4811SOL     OW25894   3.027   0.965   6.268 -0.4171  0.3149  0.2086
 4811SOL    HW125895   3.061   0.890   6.316  1.4540  1.0925  0.1001
 4811SOL    HW225896   2.967   0.923   6.207 -0.1155  0.3218 -0.0929
 4812SOL     OW25897   2.815   2.013   7.043 -0.2777 -0.1615 -0.1707
 4812SOL    HW125898   2.895   2.045   7.002 -1.5862  3.7643  0.3577
 4812SOL    HW225899   2.839   1.924   7.070 -0.5201  0.1963  1.2634
 4813SOL     OW25900   2.244   2.665  14.673 -0.6059  0.1124  0.8406
 4813SOL    HW125901   2.215   2.581  14.709 -0.1707 -0.5856 -0.4329
 4813SOL    HW225902   2.283   2.708  14.749 -0.0170 -0.8815  1.1039
 4814SOL     OW25903   0.406   1.448   9.257 -0.6904 -0.2685 -0.4942
 4814SOL    HW125904   0.343   1.390   9.300  1.5508 -2.4897 -0.2497
 4814SOL    HW225905   0.467   1.475   9.326  0.1317 -1.0984 -0.9062
 4815SOL     OW25906   2.818   2.557   2.721 -0.5091 -0.4051  0.2184
 4815SOL    HW125907   2.784   2.474   2.686  0.7417 -0.3516 -1.1129
 4815SOL    HW225908   2.732   2.589   2.750 -0.0536  0.9275  0.1098
 4816SOL     OW25909   4.550   0.651   2.434  0.0414  0.5482  0.3283
 4816SOL    HW125910   4.502   0.607   2.364 -1.5926  1.4767  0.8926
 4816SOL    HW225911   4.494   0.651   2.512 -0.4479 -0.2026 -0.0230
 4817SOL     OW25912   1.867   0.111   3.371 -0.3368 -0.8188 -0.4465
 4817SOL    HW125913   1.874   0.019   3.348 -0.8702 -1.7269  3.0101
 4817SOL    HW225914   1.797   0.143   3.313 -3.3626 -1.9187  2.5981
 4818SOL     OW25915   2.762   4.621   1.788 -0.4227  0.5331 -0.9662
 4818SOL    HW125916   2.798   4.555   1.729 -1.4493 -1.9672  1.2038
 4818SOL    HW225917   2.783   4.703   1.742  1.4156  1.0165  0.7062
 4819SOL     OW25918   0.460   4.222   2.162 -0.3529  0.2881  0.5399
 4819SOL    HW125919   0.533   4.203   2.103 -1.7501  0.1693 -1.1595
 4819SOL    HW225920   0.397   4.259   2.101  1.2407  1.7576 -0.2043
 4820SOL     OW25921   1.021   2.538   6.685 -0.1712  0.0799  0.5577
 4820SOL    HW125922   1.022   2.632   6.665  0.0151  0.3718  1.9413
 4820SOL    HW225923   1.040   2.507   6.597 -1.1193  0.9646  0.0373
 4821SOL     OW25924   4.280   1.200   2.869  0.4464 -0.0578 -0.2737
 4821SOL    HW125925   4.262   1.112   2.904 -0.7412  1.3859  2.7482
 4821SOL    HW225926   4.193   1.224   2.838  0.9182  4.4727  1.9667
 4822SOL     OW25927   3.888   0.274   4.524  0.5542  0.4884 -0.4812
 4822SOL    HW125928   3.885   0.255   4.430  1.1959  0.4883 -0.5066
 4822SOL    HW225929   3.844   0.359   4.533  0.4217  0.3808 -0.1204
 4823SOL     OW25930   3.429   4.693   3.788 -0.4645 -0.0100  0.2995
 4823SOL    HW125931   3.475   0.028   3.725 -1.5330  1.0802  0.4712
 4823SOL    HW225932   3.458   0.005   3.873 -0.7501 -0.7183  0.6703
 4824SOL     OW25933   2.586   0.599  14.346  0.0008  0.1386 -0.1645
 4824SOL    HW125934   2.520   0.649  14.298 -0.5469  1.4075  1.9213
 4824SOL    HW225935   2.659   0.626  14.290 -0.1668  1.2965  0.1840
 4825SOL     OW25936   2.198   0.295   4.178 -0.2298  0.0702  0.1355
 4825SOL    HW125937   2.140   0.294   4.102 -1.2808 -1.5718  0.9506
 4825SOL    HW225938   2.138   0.264   4.246 -0.0106 -0.0637  0.2671
 4826SOL     OW25939   4.349   3.081   6.122  0.0876  0.5671 -0.1743
 4826SOL    HW125940   4.396   3.047   6.198 -1.1158  0.4198  0.5122
 4826SOL    HW225941   4.377   3.172   6.126 -0.8303  0.9232 -1.7628
 4827SOL     OW25942   0.864   0.819   5.203  0.1892  0.4501  0.2626
 4827SOL    HW125943   0.896   0.801   5.291  0.6569 -2.9607 -0.6054
 4827SOL    HW225944   0.810   0.741   5.194  0.5267  0.2471  0.0033
 4828SOL     OW25945   2.401   2.421   8.887 -0.2373  0.1373 -0.3533
 4828SOL    HW125946   2.478   2.474   8.905  0.4298 -1.6380  1.9352
 4828SOL    HW225947   2.368   2.475   8.815  1.3652 -2.3659 -2.9778
 4829SOL     OW25948   1.472   4.025  16.109  0.3891  0.2603  0.0900
 4829SOL    HW125949   1.393   3.973  16.128 -0.3536  1.7376  1.0777
 4829SOL    HW225950   1.449   4.110  16.147 -0.7845  0.2684 -0.6277
 4830SOL     OW25951   1.220   0.296   7.916  0.3331 -0.6568  0.3976
 4830SOL    HW125952   1.161   0.366   7.942  1.2285  0.6397 -1.0762
 4830SOL    HW225953   1.254   0.320   7.830 -2.1134  1.2109 -0.0488
 4831SOL     OW25954   3.199   3.154   4.074 -0.0671 -0.0602 -0.1271
 4831SOL    HW125955   3.172   3.242   4.049  0.1350  1.7172  5.9039
 4831SOL    HW225956   3.149   3.102   4.011 -0.0443 -0.5293  0.2413
 4832SOL     OW25957   3.217   3.953   4.218  0.1573  0.2044 -0.1809
 4832SOL    HW125958   3.276   3.924   4.287 -0.5295  0.4275  0.5026
 4832SOL    HW225959   3.227   4.048   4.209 -0.7143  0.1379 -1.8222
 4833SOL     OW25960   0.150   0.118   5.817 -0.0334 -0.0193  0.0736
 4833SOL    HW125961   0.211   0.127   5.743  1.1254  0.3173  1.0740
 4833SOL    HW225962   0.115   0.033   5.790 -0.6461  0.9008 -2.0634
 4834SOL     OW25963   0.804   2.341  16.683 -0.5130 -0.3696  1.0332
 4834SOL    HW125964   0.787   2.398  16.608  0.6359 -1.9425 -0.4122
 4834SOL    HW225965   0.870   2.398  16.721  0.0542  0.7226 -1.6139
 4835SOL     OW25966   4.410   3.497  13.422 -0.6884  0.2366 -0.3457
 4835SOL    HW125967   4.348   3.480  13.351 -0.5343 -0.7455 -0.2394
 4835SOL    HW225968   4.356   3.563  13.467  0.2227  1.1998 -0.6531
 4836SOL     OW25969   1.178   0.179   9.757 -0.2342 -0.4732  0.0919
 4836SOL    HW125970   1.181   0.251   9.820 -0.7074 -0.1416 -0.2598
 4836SOL    HW225971   1.268   0.174   9.723  1.8617  2.4989  5.2782
 4837SOL     OW25972   1.017   4.285  12.714  0.0552 -0.3458  0.1550
 4837SOL    HW125973   1.100   4.326  12.740 -0.8144  1.3447  0.3075
 4837SOL    HW225974   0.988   4.259  12.802 -2.5800 -0.1766 -0.6460
 4838SOL     OW25975   2.279   3.304  16.445  0.1851 -0.1903  0.1894
 4838SOL    HW125976   2.273   3.384  16.394 -0.8239  0.7789  1.8319
 4838SOL    HW225977   2.311   3.330  16.532 -1.2205 -0.3329  0.7515
 4839SOL     OW25978   2.935   4.419   6.063  0.0524  0.1465  0.6889
 4839SOL    HW125979   2.898   4.376   5.986 -1.3881 -0.3122  1.6596
 4839SOL    HW225980   2.982   4.490   6.018  1.4984 -1.8136 -0.9112
 4840SOL     OW25981   0.135   4.546   4.474  0.6395 -0.5620  0.3947
 4840SOL    HW125982   0.160   4.593   4.395 -0.2394  0.6930  0.8548
 4840SOL    HW225983   0.145   4.454   4.451  1.7593 -0.3871  0.1682
 4841SOL     OW25984   0.609   0.883   4.427  0.1828 -0.1906  0.9179
 4841SOL    HW125985   0.678   0.832   4.469 -0.1036  1.4941  3.5153
 4841SOL    HW225986   0.640   0.888   4.337 -0.3291  0.6084  0.7872
 4842SOL     OW25987   3.519   3.866   8.129  0.3373  0.4541  0.1419
 4842SOL    HW125988   3.611   3.870   8.101  0.8338  0.3732  1.7937
 4842SOL    HW225989   3.485   3.950   8.099  0.0841 -0.0833 -1.1033
 4843SOL     OW25990   2.104   1.445   2.876  0.6001  0.4959  0.4012
 4843SOL    HW125991   2.069   1.478   2.794  0.4823 -0.4608  0.0748
 4843SOL    HW225992   2.073   1.356   2.864 -2.7760  1.6914  0.3597
 4844SOL     OW25993   0.754   2.425   4.548 -0.0968  0.0360 -0.2171
 4844SOL    HW125994   0.707   2.422   4.631  0.0934  0.6501 -0.0876
 4844SOL    HW225995   0.686   2.447   4.485 -1.4476  1.5625  1.7882
 4845SOL     OW25996   0.787   2.058   4.610 -0.3258 -0.1812 -0.3232
 4845SOL    HW125997   0.739   2.141   4.598 -1.5087 -1.1492 -2.3386
 4845SOL    HW225998   0.801   2.057   4.704 -0.3939  0.3810 -0.3021
 4846SOL     OW25999   1.980   2.231   1.351  0.2951  0.0419  0.3588
 4846SOL    HW126000   1.898   2.238   1.400 -1.2176  1.5023 -2.3941
 4846SOL    HW226001   2.022   2.166   1.408 -1.4752 -0.3910  1.1693
 4847SOL     OW26002   2.185   2.170   6.633  0.0921 -0.2344  0.8406
 4847SOL    HW126003   2.114   2.228   6.608  1.7658  1.2681 -0.4101
 4847SOL    HW226004   2.231   2.160   6.550 -0.4355  2.2628  0.2539
 4848SOL     OW26005   4.616   3.276  11.370 -0.2122  0.0658  0.2932
 4848SOL    HW126006   4.643   3.203  11.314  0.2066  0.6425 -0.2515
 4848SOL    HW226007   4.693   3.299  11.422 -0.1644  0.2426  0.1450
 4849SOL     OW26008   0.433   2.470  15.505 -0.4457 -0.1834  0.2582
 4849SOL    HW126009   0.503   2.411  15.533 -0.6604  0.2438  1.6737
 4849SOL    HW226010   0.386   2.413  15.445  0.9491  0.4187 -1.4231
 4850SOL     OW26011   1.958   3.861   7.605 -0.9235  0.0009  0.1623
 4850SOL    HW126012   2.042   3.898   7.577 -0.6077 -1.8745 -1.4020
 4850SOL    HW226013   1.957   3.885   7.697 -0.9061 -2.1098  0.7164
 4851SOL     OW26014   1.941   2.333  13.797 -0.5782  0.4522 -0.5159
 4851SOL    HW126015   1.929   2.259  13.738  1.8835  0.8007 -1.4787
 4851SOL    HW226016   1.969   2.286  13.875  1.5123  2.1761 -0.2079
 4852SOL     OW26017   4.355   0.481  16.258  0.1180 -0.5883 -0.1618
 4852SOL    HW126018   4.269   0.439  16.252 -0.9781  1.7256 -0.5297
 4852SOL    HW226019   4.380   0.490  16.166 -1.7382 -1.5513 -0.7539
 4853SOL     OW26020   1.969   1.443   3.624  0.6210  0.1330 -0.0495
 4853SOL    HW126021   1.975   1.383   3.699 -0.3501 -0.4386 -0.4299
 4853SOL    HW226022   1.931   1.524   3.657  0.8082 -0.0731  0.6711
 4854SOL     OW26023   4.113   4.460   5.769 -0.2347  0.2186  0.4589
 4854SOL    HW126024   4.027   4.487   5.738  0.4358  1.9641  0.1281
 4854SOL    HW226025   4.089   4.436   5.858 -0.7010  0.5344  0.4165
 4855SOL     OW26026   2.742   1.897   8.989 -0.4899 -0.1175 -0.0912
 4855SOL    HW126027   2.791   1.920   9.068  0.7551 -1.5026 -0.4572
 4855SOL    HW226028   2.698   1.978   8.962 -1.6916 -0.2969  1.3378
 4856SOL     OW26029   0.368   3.031  10.847 -0.3148 -0.7691 -0.7130
 4856SOL    HW126030   0.419   3.059  10.771 -0.7874  0.1843 -0.6752
 4856SOL    HW226031   0.283   3.067  10.820 -0.7658 -0.5134  1.0204
 4857SOL     OW26032   2.409   2.625   6.762 -0.1217 -0.0163 -0.5095
 4857SOL    HW126033   2.476   2.589   6.704 -0.8424 -0.5112 -1.0386
 4857SOL    HW226034   2.410   2.566   6.837  1.4763  3.7390  2.4019
 4858SOL     OW26035   1.653   0.922   9.896  0.0649 -0.2321  0.2061
 4858SOL    HW126036   1.698   0.994   9.939  0.2560  0.6534 -1.4807
 4858SOL    HW226037   1.603   0.890   9.971  0.5537 -0.9849  0.2166
 4859SOL     OW26038   4.072   4.117   8.154  0.1389 -0.2714  0.2445
 4859SOL    HW126039   4.136   4.047   8.160 -0.3756 -0.8169 -0.7375
 4859SOL    HW226040   4.074   4.156   8.242 -1.1441  1.3371 -0.4331
 4860SOL     OW26041   1.296   1.270   0.526  0.1027  0.2181 -0.2365
 4860SOL    HW126042   1.326   1.196   0.578 -0.4973 -0.7108 -1.1985
 4860SOL    HW226043   1.218   1.301   0.573 -1.0839  0.7080 -2.5458
 4861SOL     OW26044   4.012   3.342   3.524 -0.7458  0.8312 -0.0504
 4861SOL    HW126045   4.053   3.331   3.438  1.3090  3.2528  0.6131
 4861SOL    HW226046   3.985   3.433   3.516 -1.1306  0.6171 -1.0943
 4862SOL     OW26047   2.338   3.569   3.883  0.4006 -0.3659 -0.1967
 4862SOL    HW126048   2.328   3.664   3.875 -1.1093 -0.3207  2.1598
 4862SOL    HW226049   2.378   3.550   3.798 -0.6952  1.4734 -1.1220
 4863SOL     OW26050   3.156   0.460  11.034  0.0332 -0.2905 -0.2294
 4863SOL    HW126051   3.117   0.406  10.965 -0.0032 -0.2972 -0.2034
 4863SOL    HW226052   3.079   0.513  11.054  1.4970  1.4709  0.7906
 4864SOL     OW26053   3.663   1.716  17.664 -0.2061  0.4883 -0.3632
 4864SOL    HW126054   3.589   1.664   0.011 -0.0911  0.8571  0.5229
 4864SOL    HW226055   3.684   1.766   0.058  0.9060  1.9766 -1.6234
 4865SOL     OW26056   3.889   2.757   8.604  0.2733 -0.1700  0.0057
 4865SOL    HW126057   3.823   2.693   8.578 -0.8710  0.8215  0.5206
 4865SOL    HW226058   3.904   2.725   8.693  1.0744  1.7678  0.5805
 4866SOL     OW26059   0.720   2.099   6.628 -0.0696  0.2039  0.2004
 4866SOL    HW126060   0.785   2.035   6.598  0.9691  0.3847  2.0619
 4866SOL    HW226061   0.654   2.039   6.665  0.5499 -0.5759  0.0430
 4867SOL     OW26062   2.121   2.618  10.268 -0.5037 -0.2778 -0.0106
 4867SOL    HW126063   2.142   2.665  10.348 -1.6206  1.2796 -0.6228
 4867SOL    HW226064   2.126   2.530  10.305 -1.5251 -0.2162  0.2530
 4868SOL     OW26065   4.270   3.391   7.172  0.6690  0.8353  0.0330
 4868SOL    HW126066   4.211   3.456   7.134  0.2537  1.4934  1.7672
 4868SOL    HW226067   4.331   3.365   7.103 -0.4322  0.0551 -0.6402
 4869SOL     OW26068   1.696   1.171   8.288  0.1697 -0.0061 -0.2517
 4869SOL    HW126069   1.758   1.127   8.346 -1.5826 -1.8560  0.1912
 4869SOL    HW226070   1.751   1.185   8.211  1.5649 -0.6322  0.6375
 4870SOL     OW26071   2.781   0.396   6.232  0.2855 -0.1140 -0.2052
 4870SOL    HW126072   2.809   0.461   6.297  0.9217 -0.8597  0.2687
 4870SOL    HW226073   2.732   0.446   6.167  1.0002  0.6620 -0.1633
 4871SOL     OW26074   3.401   4.364   2.356  0.2774 -0.2562 -0.1860
 4871SOL    HW126075   3.427   4.448   2.318 -0.4239 -0.7171 -1.6733
 4871SOL    HW226076   3.383   4.399   2.444 -2.0299  4.6789 -2.6344
 4872SOL     OW26077   2.943   0.422   6.945  0.0261  0.6348 -0.3598
 4872SOL    HW126078   2.871   0.395   7.002  0.5958 -2.2851 -1.0508
 4872SOL    HW226079   2.965   0.339   6.903 -0.9275  0.9693 -1.5507
 4873SOL     OW26080   2.279   1.992   6.066 -0.1777  0.4486  0.0241
 4873SOL    HW126081   2.307   2.077   6.101 -0.0786  0.4232  0.0069
 4873SOL    HW226082   2.362   1.945   6.061 -0.0351  0.7785 -0.6715
 4874SOL     OW26083   1.463   3.274   1.101  0.5054  0.1122  0.0187
 4874SOL    HW126084   1.375   3.309   1.110  0.6180  0.7791 -1.4649
 4874SOL    HW226085   1.458   3.206   1.168 -0.7471  2.0914  1.9190
 4875SOL     OW26086   1.780   1.279  13.208  0.6686  0.2165  1.0834
 4875SOL    HW126087   1.726   1.290  13.287 -1.4761  2.0549 -0.6280
 4875SOL    HW226088   1.863   1.247  13.242 -0.1503 -1.7889  1.2052
 4876SOL     OW26089   4.107   1.138   7.324 -0.2723  0.2607 -0.0264
 4876SOL    HW126090   4.182   1.103   7.276  1.2425  0.5662  2.1268
 4876SOL    HW226091   4.118   1.232   7.313  0.4382  0.0299 -1.3337
 4877SOL     OW26092   3.757   0.532   8.282 -0.0377 -0.5483 -0.1215
 4877SOL    HW126093   3.824   0.600   8.296 -0.8298  0.3448 -0.6571
 4877SOL    HW226094   3.744   0.546   8.188 -0.1848 -1.6430 -0.2609
 4878SOL     OW26095   0.227   1.737   6.111 -0.4152  0.1936 -0.2035
 4878SOL    HW126096   0.288   1.706   6.178 -1.2603  0.2034  0.5750
 4878SOL    HW226097   0.165   1.783   6.167  1.1410 -0.5022  2.1100
 4879SOL     OW26098   1.171   0.360   1.711 -0.1223 -0.3026 -0.7119
 4879SOL    HW126099   1.264   0.358   1.737 -0.1168 -0.7887 -0.7701
 4879SOL    HW226100   1.190   0.350   1.618 -1.4466 -0.6365 -0.9421
 4880SOL     OW26101   0.580   3.854   2.972 -0.3817 -0.3938 -0.2136
 4880SOL    HW126102   0.628   3.880   3.050 -0.3061  2.3703 -1.1791
 4880SOL    HW226103   0.498   3.901   2.985 -0.4699  0.1008 -2.6492
 4881SOL     OW26104   4.157   4.493   5.481  0.0600  0.3067  0.5523
 4881SOL    HW126105   4.078   4.488   5.428  0.1596  1.9491  0.2484
 4881SOL    HW226106   4.119   4.539   5.556 -0.8949  0.5599 -0.0871
 4882SOL     OW26107   3.051   3.865  13.652 -0.0019 -0.1214  0.1330
 4882SOL    HW126108   3.057   3.960  13.646 -0.6018 -0.0423  0.7780
 4882SOL    HW226109   2.959   3.866  13.625 -0.0962 -1.2494  0.3968
 4883SOL     OW26110   2.467   2.249   1.086 -0.0048  0.5233 -0.2487
 4883SOL    HW126111   2.408   2.236   1.011  0.0642  0.1710 -0.2428
 4883SOL    HW226112   2.484   2.343   1.082  0.2720  0.5281  0.9836
 4884SOL     OW26113   0.812   2.914  11.810 -0.1918 -0.3623  0.3363
 4884SOL    HW126114   0.835   2.983  11.872 -1.0524 -1.1100  1.4951
 4884SOL    HW226115   0.861   2.946  11.735 -0.4704 -2.7664 -0.8502
 4885SOL     OW26116   2.054   4.353   9.010 -0.0909  0.0596 -0.1022
 4885SOL    HW126117   1.983   4.364   9.074  0.7576  1.2158  0.6365
 4885SOL    HW226118   2.026   4.405   8.934  2.6183 -1.3718 -2.0373
 4886SOL     OW26119   2.718   0.269   3.689 -0.0616 -0.4376  0.5602
 4886SOL    HW126120   2.730   0.200   3.755  3.2881  0.8050  1.2394
 4886SOL    HW226121   2.730   0.215   3.610  1.7101 -0.8635  1.1215
 4887SOL     OW26122   0.139   4.158   3.123  0.7869 -0.3834 -0.5703
 4887SOL    HW126123   0.178   4.090   3.067  1.7207 -0.0504 -0.3200
 4887SOL    HW226124   0.111   4.219   3.055  1.6901  2.0856  1.2665
 4888SOL     OW26125   3.763   3.739   4.069 -0.2902 -0.1029  0.1646
 4888SOL    HW126126   3.700   3.678   4.032  1.5137 -2.2895  0.7126
 4888SOL    HW226127   3.813   3.757   3.989 -0.7052 -0.1919 -0.1133
 4889SOL     OW26128   4.278   0.883   5.303  0.0729  0.1123  0.3945
 4889SOL    HW126129   4.237   0.926   5.378  2.8515  0.7246  1.5583
 4889SOL    HW226130   4.272   0.792   5.332  0.1352 -0.8165 -2.5357
 4890SOL     OW26131   0.527   3.034   8.608  0.3709  0.5195 -0.0659
 4890SOL    HW126132   0.576   3.062   8.531  2.7773  1.6268  1.8743
 4890SOL    HW226133   0.604   3.002   8.656 -0.4168  0.3732  1.1009
 4891SOL     OW26134   1.368   1.658   5.132 -0.3426  0.8314 -0.8089
 4891SOL    HW126135   1.363   1.568   5.100  1.5667 -0.5063  2.6163
 4891SOL    HW226136   1.399   1.644   5.221  1.4435 -0.2334 -1.6055
 4892SOL     OW26137   0.694   1.300  13.842 -0.5741 -0.3237  0.5321
 4892SOL    HW126138   0.786   1.305  13.866 -0.8537  0.0838  1.5212
 4892SOL    HW226139   0.709   1.288  13.749  0.4700  0.8553  0.5535
 4893SOL     OW26140   3.316   2.774   4.044 -0.0107  0.0901 -0.2192
 4893SOL    HW126141   3.323   2.854   4.097  3.3389 -0.3834  0.0672
 4893SOL    HW226142   3.233   2.735   4.071  0.7112 -1.1248  0.2787
 4894SOL     OW26143   0.777   4.625   8.202  0.5141  0.2664  0.1901
 4894SOL    HW126144   0.799   4.662   8.116  1.5010 -1.7352 -0.4161
 4894SOL    HW226145   0.866   4.637   8.236  0.5310 -1.6392  0.8259
 4895SOL     OW26146   1.301   1.252   0.900 -0.0585  0.1718  0.2775
 4895SOL    HW126147   1.354   1.216   0.830 -0.8520 -1.3484  0.4639
 4895SOL    HW226148   1.313   1.185   0.967  0.9450 -0.7317 -0.8102
 4896SOL     OW26149   1.731   1.860  11.650 -0.7196  0.2410  0.3728
 4896SOL    HW126150   1.732   1.866  11.745  3.6998  0.4684  0.3215
 4896SOL    HW226151   1.651   1.908  11.628  0.3794  0.7343 -2.5753
 4897SOL     OW26152   1.149   2.778   6.962  0.0317  0.4814  0.7738
 4897SOL    HW126153   1.166   2.866   6.996 -0.2254  1.2562 -1.1170
 4897SOL    HW226154   1.095   2.733   7.027 -1.3135 -0.7842 -1.2160
 4898SOL     OW26155   0.947   0.527  17.327  0.1987  0.5492 -0.1239
 4898SOL    HW126156   0.868   0.549  17.376  2.0778  0.1052  3.1039
 4898SOL    HW226157   0.931   0.439  17.294 -1.0872  0.4437  0.8061
 4899SOL     OW26158   1.249   3.907  16.230 -0.2711  0.5395 -0.1257
 4899SOL    HW126159   1.177   3.962  16.200 -1.0977  0.5061  1.8144
 4899SOL    HW226160   1.221   3.821  16.199  2.0710  0.2308 -1.3687
 4900SOL     OW26161   1.499   3.635  12.020 -0.1995  1.1941 -0.0582
 4900SOL    HW126162   1.465   3.708  12.072 -0.7445  0.8384  0.0774
 4900SOL    HW226163   1.559   3.682  11.961 -1.4191  0.1666 -2.1132
 4901SOL     OW26164   2.281   3.986  17.364  0.0934  0.3992  0.4750
 4901SOL    HW126165   2.264   4.069  17.321  0.8620 -0.5024 -1.5490
 4901SOL    HW226166   2.293   4.012  17.456  1.9200 -0.4885  0.5000
 4902SOL     OW26167   0.624   2.374   2.495 -0.0986 -0.2803 -0.2646
 4902SOL    HW126168   0.646   2.286   2.527 -1.0401 -0.8826 -1.3075
 4902SOL    HW226169   0.547   2.396   2.547 -0.1335 -2.0308  0.4485
 4903SOL     OW26170   2.125   2.181   1.123  0.5203 -0.0882 -0.3212
 4903SOL    HW126171   2.094   2.198   1.212  2.6760 -0.2159  0.4597
 4903SOL    HW226172   2.080   2.098   1.104  1.5744 -1.0005  1.1733
 4904SOL     OW26173   4.339   1.250  15.202 -0.0243 -0.2016  0.1988
 4904SOL    HW126174   4.410   1.214  15.148 -2.4786 -1.1137 -2.4276
 4904SOL    HW226175   4.364   1.196  15.277  1.0630 -1.7377 -1.2569
 4905SOL     OW26176   2.797   2.477   8.419 -0.1883  0.0551  0.0006
 4905SOL    HW126177   2.732   2.414   8.386 -0.2086  0.9620 -1.6915
 4905SOL    HW226178   2.828   2.442   8.502  1.8431  1.2030 -0.2758
 4906SOL     OW26179   1.678   4.242   5.383 -0.0846 -0.0226  0.2019
 4906SOL    HW126180   1.682   4.300   5.459 -0.8355  0.1390  0.1151
 4906SOL    HW226181   1.661   4.301   5.309 -2.8088  0.7495  1.4497
 4907SOL     OW26182   0.641   2.772   7.332  0.3511 -0.7448  0.0044
 4907SOL    HW126183   0.561   2.733   7.367 -0.2435  1.2077  0.8568
 4907SOL    HW226184   0.632   2.742   7.242 -0.2982  1.3199 -0.6141
 4908SOL     OW26185   0.313   3.450   4.388 -0.1451  0.1453 -0.0852
 4908SOL    HW126186   0.301   3.369   4.339  0.9955  0.1264 -0.3236
 4908SOL    HW226187   0.405   3.446   4.413  0.0025  1.1770 -0.4313
 4909SOL     OW26188   1.632   4.601   9.894  0.2074 -0.2742  0.1924
 4909SOL    HW126189   1.660   4.645   9.975  0.3532 -1.0056  0.5436
 4909SOL    HW226190   1.539   4.591   9.914  0.1275 -0.1756 -0.1332
 4910SOL     OW26191   4.517   1.308   5.623 -0.4167  0.1356 -0.2488
 4910SOL    HW126192   4.466   1.302   5.704  2.3649 -0.6764  1.4734
 4910SOL    HW226193   4.535   1.217   5.596  1.3898  0.7243 -1.0563
 4911SOL     OW26194   3.210   0.668   8.756  0.0629 -0.1268 -0.0809
 4911SOL    HW126195   3.179   0.756   8.778  0.3069  0.0860 -0.6016
 4911SOL    HW226196   3.219   0.631   8.844  0.7949  0.4524  0.0868
 4912SOL     OW26197   0.121   2.566   7.889 -0.3469 -0.1155 -0.1249
 4912SOL    HW126198   0.115   2.582   7.984 -1.5252 -1.2378 -0.0119
 4912SOL    HW226199   0.107   2.473   7.873 -0.5534  0.0063 -0.6478
 4913SOL     OW26200   3.821   0.557   3.317 -0.5376  0.2638 -0.2755
 4913SOL    HW126201   3.858   0.506   3.390 -1.4803  0.1833  0.1442
 4913SOL    HW226202   3.736   0.582   3.352 -0.6871  0.9005 -1.1022
 4914SOL     OW26203   1.645   0.526   3.533 -0.7111 -0.1918 -0.1402
 4914SOL    HW126204   1.707   0.563   3.471 -0.9208  1.6521  0.7570
 4914SOL    HW226205   1.606   0.604   3.572  3.8244  0.7676  2.4166
 4915SOL     OW26206   1.298   2.633   1.311  0.1244  0.3079 -0.2680
 4915SOL    HW126207   1.355   2.565   1.348  0.4427 -0.7557 -2.6980
 4915SOL    HW226208   1.343   2.648   1.228 -0.8025  1.5193 -0.5591
 4916SOL     OW26209   2.318   4.175   7.763 -0.4668  0.2798  0.3287
 4916SOL    HW126210   2.381   4.115   7.721  0.6896  0.2682  2.0890
 4916SOL    HW226211   2.287   4.124   7.838 -0.6936  1.1715  0.8317
 4917SOL     OW26212   4.407   4.398   0.859 -0.4692 -0.6328 -0.0789
 4917SOL    HW126213   4.446   4.338   0.923  0.7587  1.6527  1.3095
 4917SOL    HW226214   4.320   4.359   0.851 -0.9299  0.5433 -0.7534
 4918SOL     OW26215   1.689   2.537   6.027 -0.1253  0.4134 -0.2250
 4918SOL    HW126216   1.716   2.453   6.064 -0.7789  0.5306  0.5011
 4918SOL    HW226217   1.670   2.599   6.096 -2.6172 -3.0585  2.1939
 4919SOL     OW26218   0.105   1.187   9.733  0.5696  0.1485 -0.5647
 4919SOL    HW126219   0.129   1.273   9.767  1.7288  0.9086 -3.3228
 4919SOL    HW226220   0.130   1.199   9.642  3.8759 -0.8265  0.2239
 4920SOL     OW26221   2.179   0.559   8.015  0.1109 -0.1707  0.2708
 4920SOL    HW126222   2.175   0.481   7.960 -1.2588  1.2981 -1.6697
 4920SOL    HW226223   2.104   0.552   8.074 -1.3866 -0.1856 -1.6635
 4921SOL     OW26224   1.640   3.785   4.900  0.0672 -0.2822 -0.6474
 4921SOL    HW126225   1.634   3.774   4.805 -0.4447  2.8463 -0.9743
 4921SOL    HW226226   1.584   3.710   4.922 -0.2598  0.0520 -0.3434
 4922SOL     OW26227   3.107   2.834   5.084  0.1492 -0.0846 -0.0953
 4922SOL    HW126228   3.060   2.913   5.060  0.2461  0.1581  0.5198
 4922SOL    HW226229   3.195   2.868   5.102  0.0399  1.0365 -1.7367
 4923SOL     OW26230   3.321   4.329  12.061  0.1185 -0.1352 -0.1165
 4923SOL    HW126231   3.385   4.382  12.108  0.0789  1.1137 -1.4526
 4923SOL    HW226232   3.294   4.392  11.994  2.7685 -0.2923 -1.3062
 4924SOL     OW26233   1.496   0.068   5.803 -0.0692  0.0322 -0.0149
 4924SOL    HW126234   1.532   0.143   5.756 -0.1411  1.6853  2.5833
 4924SOL    HW226235   1.581   0.039   5.836 -0.5362  0.6418  1.7449
 4925SOL     OW26236   3.753   3.972  12.288 -0.1138  0.7748 -0.2324
 4925SOL    HW126237   3.762   3.909  12.217  0.7055 -1.6153  1.9920
 4925SOL    HW226238   3.687   4.024  12.242  1.2980  1.0417 -1.9531
 4926SOL     OW26239   0.250   4.664   2.595  0.3278  0.1133 -0.4775
 4926SOL    HW126240   0.284   0.032   2.585 -1.5265  0.9939  1.0152
 4926SOL    HW226241   0.244   4.639   2.503  0.9027 -0.0733 -0.4634
 4927SOL     OW26242   3.022   0.753   8.473 -0.1458 -0.1131 -0.5012
 4927SOL    HW126243   3.072   0.689   8.422 -0.5418  0.6731 -1.8623
 4927SOL    HW226244   3.094   0.816   8.480 -0.1852 -0.3296  1.8695
 4928SOL     OW26245   2.213   0.831   0.101 -0.4276 -0.0210  0.3405
 4928SOL    HW126246   2.167   0.845   0.018 -1.9627 -0.8291  1.0501
 4928SOL    HW226247   2.182   0.741   0.101 -1.7084  0.4121  0.6852
 4929SOL     OW26248   0.114   2.850  14.241 -0.2777 -0.4452 -0.2853
 4929SOL    HW126249   0.142   2.918  14.178 -2.4241  0.1054 -0.6409
 4929SOL    HW226250   0.033   2.892  14.270 -0.5285 -1.3693  0.3229
 4930SOL     OW26251   0.027   2.943   7.874  0.0838  0.0801  0.3622
 4930SOL    HW126252   4.683   2.902   7.932 -1.0131  2.9971  1.2530
 4930SOL    HW226253   4.715   2.910   7.790  0.3022 -1.8493  1.0475
 4931SOL     OW26254   2.907   2.845  16.548 -0.4813  0.1526 -0.1237
 4931SOL    HW126255   2.909   2.935  16.515  3.6264 -0.1594 -0.6393
 4931SOL    HW226256   3.001   2.831  16.547 -0.6799 -1.1501 -0.7347
 4932SOL     OW26257   2.577   1.853   8.103  0.0025  0.2501 -0.0533
 4932SOL    HW126258   2.557   1.896   8.020 -0.0924  3.0752  1.4480
 4932SOL    HW226259   2.505   1.894   8.150  0.2437  0.7385 -0.1111
 4933SOL     OW26260   1.599   2.064  13.188 -0.4710  0.6834 -0.4281
 4933SOL    HW126261   1.632   2.105  13.109  1.3667 -0.0059 -0.0142
 4933SOL    HW226262   1.521   2.120  13.189 -1.6463 -0.9336 -1.5399
 4934SOL     OW26263   4.595   3.398   9.272 -0.0810  0.0876 -0.3483
 4934SOL    HW126264   4.611   3.445   9.190 -0.8382  1.2120  0.1479
 4934SOL    HW226265   4.577   3.309   9.241  1.9670 -0.8335  1.1186
 4935SOL     OW26266   4.614   0.735   2.100  0.7634 -0.2905  0.2781
 4935SOL    HW126267   4.601   0.707   2.010  0.0040 -1.9588  0.9052
 4935SOL    HW226268   4.531   0.707   2.140  1.4573 -1.8213  0.6312
 4936SOL     OW26269   3.551   4.085   4.219  0.4767 -0.2051 -0.3922
 4936SOL    HW126270   3.638   4.076   4.257 -0.1912  1.4777  1.5331
 4936SOL    HW226271   3.528   3.993   4.230  1.1338 -0.3708 -0.3877
 4937SOL     OW26272   1.872   3.831   6.667  0.1189  0.3238 -0.7468
 4937SOL    HW126273   1.956   3.852   6.709  0.7268  0.0706 -1.8459
 4937SOL    HW226274   1.814   3.890   6.715  2.9631  2.1101  0.5562
 4938SOL     OW26275   3.504   1.509   2.872  0.7107 -0.5048  0.0008
 4938SOL    HW126276   3.481   1.517   2.965 -0.0323 -1.8100 -0.0734
 4938SOL    HW226277   3.434   1.552   2.823  0.5846  1.1886  1.6726
 4939SOL     OW26278   3.619   2.135   8.899  0.0806  0.6297 -0.2220
 4939SOL    HW126279   3.640   2.043   8.883  0.1181  0.2833  1.7148
 4939SOL    HW226280   3.696   2.188   8.879  0.0350  0.6672 -0.2989
 4940SOL     OW26281   2.841   4.219   7.239  0.5340  0.2054  0.3444
 4940SOL    HW126282   2.798   4.294   7.280 -1.9489 -1.1604  0.2665
 4940SOL    HW226283   2.788   4.222   7.159 -1.2333 -0.5514  1.4859
 4941SOL     OW26284   0.153   1.061   4.570  0.5217 -0.0046 -0.4329
 4941SOL    HW126285   0.074   1.011   4.593  1.5062 -1.6697 -0.6238
 4941SOL    HW226286   0.124   1.150   4.589  1.0467  0.2015 -0.5980
 4942SOL     OW26287   1.725   0.934   9.293 -0.3755 -0.3427  0.3344
 4942SOL    HW126288   1.699   1.024   9.315  0.5659 -0.3648  1.4998
 4942SOL    HW226289   1.662   0.924   9.221 -1.8216  1.3526  1.3396
 4943SOL     OW26290   1.146   1.898  17.342 -0.3180  0.2954  0.4294
 4943SOL    HW126291   1.120   1.954  17.415 -4.8737 -1.1589 -0.0248
 4943SOL    HW226292   1.099   1.816  17.360  0.9437 -0.9380 -1.8568
 4944SOL     OW26293   2.783   1.697   8.067  0.1921  0.2277 -0.0165
 4944SOL    HW126294   2.720   1.766   8.045 -0.4583 -1.1347 -2.5092
 4944SOL    HW226295   2.726   1.655   8.132 -1.2744  0.7734 -0.9269
 4945SOL     OW26296   4.082   1.546   6.734  0.2378 -0.1559  0.3259
 4945SOL    HW126297   4.095   1.499   6.652 -0.8425 -0.7618  0.5076
 4945SOL    HW226298   3.994   1.522   6.762 -0.7194  2.2948 -0.6278
 4946SOL     OW26299   2.132   2.884   0.066 -0.6894 -0.0310  0.3896
 4946SOL    HW126300   2.075   2.917  17.681  1.6190 -0.0775 -1.5315
 4946SOL    HW226301   2.110   2.954   0.128  0.2063 -0.1267  0.8165
 4947SOL     OW26302   4.514   1.599  13.022 -0.7073 -0.2317 -0.2403
 4947SOL    HW126303   4.478   1.685  13.041 -1.8638 -0.1788 -2.5867
 4947SOL    HW226304   4.589   1.594  13.081 -1.5992 -3.0084  0.6885
 4948SOL     OW26305   3.401   2.865   6.472 -0.4385 -0.0321  0.1095
 4948SOL    HW126306   3.432   2.920   6.400  0.5680 -0.4567  0.2190
 4948SOL    HW226307   3.465   2.889   6.539 -0.9977  0.5832  0.4197
 4949SOL     OW26308   2.006   2.424  15.083  0.5213  0.2173  0.3499
 4949SOL    HW126309   2.067   2.359  15.118  0.2854  0.2086  0.7555
 4949SOL    HW226310   1.948   2.352  15.057  1.2757 -0.8029  1.4732
 4950SOL     OW26311   4.445   0.373   4.674  0.1967 -0.0145  0.5523
 4950SOL    HW126312   4.406   0.325   4.746 -1.1934  1.1038  0.5359
 4950SOL    HW226313   4.373   0.420   4.631 -0.2983 -1.3849 -0.0948
 4951SOL     OW26314   2.131   0.189   0.848  0.9599  0.2845  0.0843
 4951SOL    HW126315   2.087   0.139   0.779  1.9544  1.1430 -1.1756
 4951SOL    HW226316   2.060   0.249   0.871 -0.3850 -0.7706 -1.2973
 4952SOL     OW26317   3.920   3.645   0.495 -0.1675  0.0411  0.1418
 4952SOL    HW126318   3.893   3.672   0.408  2.3645  0.1311 -0.6098
 4952SOL    HW226319   4.011   3.616   0.485 -0.6546 -0.5873 -2.3313
 4953SOL     OW26320   2.992   3.904   7.291  0.0209  0.1305 -0.3035
 4953SOL    HW126321   2.919   3.873   7.237  0.2312  1.3643 -1.3031
 4953SOL    HW226322   3.044   3.967   7.240 -2.3383  1.8113 -0.6311
 4954SOL     OW26323   3.764   4.487   4.616  0.3051 -0.0260  0.0707
 4954SOL    HW126324   3.674   4.495   4.583 -0.1552  0.1135  1.3645
 4954SOL    HW226325   3.753   4.410   4.673  1.4928 -0.6117 -0.4868
 4955SOL     OW26326   0.474   2.655   8.493  0.3925 -0.4262  0.0983
 4955SOL    HW126327   0.419   2.732   8.508  0.6610 -0.0668 -0.7544
 4955SOL    HW226328   0.436   2.586   8.548 -0.4522 -0.1478 -0.1273
 4956SOL     OW26329   3.950   0.105   4.743 -0.0027 -0.4993  0.3872
 4956SOL    HW126330   3.950   0.025   4.689 -1.6172  0.2095 -0.6722
 4956SOL    HW226331   3.929   0.170   4.676  2.4285 -1.0157 -0.8833
 4957SOL     OW26332   4.412   0.937  13.558 -0.7086  0.2932 -0.3549
 4957SOL    HW126333   4.378   1.026  13.557 -2.2369 -0.2963 -1.1293
 4957SOL    HW226334   4.421   0.920  13.464 -2.7514 -1.1380 -0.2952
 4958SOL     OW26335   0.415   3.118   3.766 -0.6048 -0.2887  0.6002
 4958SOL    HW126336   0.381   3.135   3.679 -0.8737 -3.0129  0.1749
 4958SOL    HW226337   0.396   3.209   3.791 -1.2351 -0.2797  0.0954
 4959SOL     OW26338   2.010   3.171   2.031  0.1198 -0.2138 -0.5323
 4959SOL    HW126339   2.048   3.095   1.986  0.7880  0.4614 -1.0956
 4959SOL    HW226340   1.922   3.137   2.046  1.0756 -1.9364  1.2050
 4960SOL     OW26341   3.997   2.777   7.815 -0.1360  0.4383 -0.2242
 4960SOL    HW126342   3.964   2.790   7.726  1.0860 -2.5443 -1.1013
 4960SOL    HW226343   3.964   2.698   7.858  1.8725  0.3553  1.1758
 4961SOL     OW26344   2.807   1.753  12.906 -0.0736  0.2294 -0.1953
 4961SOL    HW126345   2.891   1.773  12.865 -0.4883  0.5301 -0.9062
 4961SOL    HW226346   2.742   1.756  12.835  0.5966 -1.6396 -0.8618
 4962SOL     OW26347   1.302   2.879  13.712  0.1172 -0.0775  0.1650
 4962SOL    HW126348   1.379   2.856  13.659  1.9128  1.2675  2.1942
 4962SOL    HW226349   1.348   2.882  13.796 -0.3657 -0.2599  0.4334
 4963SOL     OW26350   3.937   0.955   6.191 -0.2068 -0.0168  0.5471
 4963SOL    HW126351   3.914   1.020   6.125 -0.5177 -1.1160 -0.4379
 4963SOL    HW226352   3.882   0.985   6.263 -0.8251  0.5135 -0.1552
 4964SOL     OW26353   3.804   2.552   4.388 -0.2080  0.8006  0.0375
 4964SOL    HW126354   3.836   2.507   4.310 -2.6604  1.0821 -1.1096
 4964SOL    HW226355   3.837   2.496   4.458  3.1742  0.9369 -1.4394
 4965SOL     OW26356   3.061   1.235  14.028 -0.4059  0.0794  0.1814
 4965SOL    HW126357   3.088   1.148  14.056  1.7733 -0.2695 -2.9186
 4965SOL    HW226358   3.097   1.253  13.941 -1.6955 -1.2809 -0.6175
 4966SOL     OW26359   3.578   2.148   1.078 -0.1504  0.1424  0.2068
 4966SOL    HW126360   3.502   2.170   1.025 -0.2989  0.8824  0.7336
 4966SOL    HW226361   3.566   2.204   1.155 -0.6835 -0.0727  0.2769
 4967SOL     OW26362   1.509   3.704   3.209 -0.3563 -0.1153 -0.2489
 4967SOL    HW126363   1.605   3.704   3.211 -0.3969 -1.1953  2.2265
 4967SOL    HW226364   1.494   3.622   3.257  0.0231 -0.5844 -0.9339
 4968SOL     OW26365   4.350   0.230   5.676 -0.2693  0.3289  0.0009
 4968SOL    HW126366   4.376   0.321   5.691  0.1473  0.6242 -2.5992
 4968SOL    HW226367   4.330   0.237   5.583  0.5477  1.2797 -0.1012
 4969SOL     OW26368   0.333   1.371   2.628  0.4718 -0.8337 -0.1732
 4969SOL    HW126369   0.392   1.295   2.630  0.4351 -0.7745  3.0210
 4969SOL    HW226370   0.301   1.350   2.540 -1.4604  0.7488  0.1609
 4970SOL     OW26371   1.576   1.818  12.739  0.3611 -0.5801  0.1789
 4970SOL    HW126372   1.554   1.859  12.822  0.8528  0.2049 -0.0709
 4970SOL    HW226373   1.656   1.865  12.712  0.4204 -0.9904 -0.3793
 4971SOL     OW26374   0.128   1.533   5.983  0.6834 -0.1184 -0.3536
 4971SOL    HW126375   0.156   1.615   6.022 -0.4401  0.1357 -0.0689
 4971SOL    HW226376   0.154   1.469   6.049  3.2255  1.5219  0.2085
 4972SOL     OW26377   3.539   3.181  13.337 -0.2181 -0.2819 -0.3641
 4972SOL    HW126378   3.468   3.129  13.299  2.0232 -1.2649 -3.3013
 4972SOL    HW226379   3.524   3.161  13.429 -0.9459 -1.5373 -0.7519
 4973SOL     OW26380   3.098   3.189   4.939 -0.0712 -0.0609 -0.2007
 4973SOL    HW126381   3.161   3.206   5.010 -1.1126  1.7572  0.2907
 4973SOL    HW226382   3.143   3.131   4.877 -2.1947 -3.8577  1.8123
 4974SOL     OW26383   4.594   4.616   2.476 -0.1532 -0.6657  0.6566
 4974SOL    HW126384   4.575   4.706   2.447 -1.3006 -0.4694  2.0154
 4974SOL    HW226385   4.633   4.583   2.395  1.0329 -0.0337  0.9846
 4975SOL     OW26386   1.216   3.691   9.710  0.1316  0.4196  0.7610
 4975SOL    HW126387   1.264   3.718   9.788  1.8629  0.5295 -0.3158
 4975SOL    HW226388   1.146   3.629   9.729 -0.8678  0.1385 -3.7009
 4976SOL     OW26389   1.695   2.449   8.510  0.7700 -0.2425  0.1079
 4976SOL    HW126390   1.625   2.476   8.569 -0.3098 -0.7888 -0.9189
 4976SOL    HW226391   1.761   2.517   8.521  0.1185  0.2912  0.6779
 4977SOL     OW26392   1.307   3.326   8.712  0.1653  0.2698  0.1661
 4977SOL    HW126393   1.378   3.261   8.714 -1.2686 -1.2930  0.3929
 4977SOL    HW226394   1.351   3.386   8.653  2.7844 -0.4854  1.3274
 4978SOL     OW26395   1.479   2.862   3.205  0.8287 -0.0096  0.1607
 4978SOL    HW126396   1.463   2.841   3.113 -0.6809  2.4535 -0.1336
 4978SOL    HW226397   1.427   2.943   3.210  0.3859 -0.1129 -3.3394
 4979SOL     OW26398   0.294   4.274   8.929 -0.3447  0.2475  0.5969
 4979SOL    HW126399   0.287   4.193   8.879 -0.7689 -1.0605  2.7961
 4979SOL    HW226400   0.377   4.309   8.895  0.2636 -1.2552  0.5599
 4980SOL     OW26401   0.551   0.359   3.552  0.2921 -0.2855 -0.1778
 4980SOL    HW126402   0.621   0.420   3.530  0.6314 -1.2959 -1.7988
 4980SOL    HW226403   0.482   0.421   3.577 -1.0058 -2.2678  1.1774
 4981SOL     OW26404   0.441   0.039  16.162  0.1522  0.2424 -0.1748
 4981SOL    HW126405   0.521   0.087  16.183  0.3894 -0.9396  1.5674
 4981SOL    HW226406   0.402   0.027  16.248  0.1078 -0.4806 -0.2992
 4982SOL     OW26407   1.429   4.194   2.574 -0.2979 -0.8945 -0.1144
 4982SOL    HW126408   1.367   4.242   2.628 -0.9671  1.7056 -3.2567
 4982SOL    HW226409   1.457   4.270   2.524 -1.2425 -0.4311  0.0761
 4983SOL     OW26410   1.419   3.229  14.107 -0.2913 -0.6727  0.2007
 4983SOL    HW126411   1.430   3.178  14.187 -0.2325  0.5528  0.9804
 4983SOL    HW226412   1.329   3.208  14.082 -0.5614  0.4285  0.2358
 4984SOL     OW26413   0.190   2.094   8.568  0.0287 -0.5941  0.1734
 4984SOL    HW126414   0.164   2.153   8.497 -0.8730  0.2065  1.1491
 4984SOL    HW226415   0.260   2.146   8.607 -0.5970  0.1487  0.3218
 4985SOL     OW26416   3.280   3.269   2.914  0.0328  0.2795 -0.3367
 4985SOL    HW126417   3.374   3.253   2.907 -0.0596 -0.3524 -0.0540
 4985SOL    HW226418   3.287   3.336   2.982  4.6003 -0.4487 -0.1542
 4986SOL     OW26419   0.068   0.284   8.228 -0.3205 -0.1832 -0.2043
 4986SOL    HW126420   0.109   0.366   8.200 -0.4930 -0.4306 -1.2127
 4986SOL    HW226421   0.139   0.231   8.191  0.2204 -0.3067  1.0057
 4987SOL     OW26422   4.695   2.746   2.584  0.2728 -0.0730 -0.5284
 4987SOL    HW126423   4.619   2.754   2.642  2.0722  0.8474  1.6822
 4987SOL    HW226424   4.693   2.825   2.530  1.4654  0.8885  0.8207
 4988SOL     OW26425   0.821   3.911   1.078 -0.1089 -0.1647 -0.1905
 4988SOL    HW126426   0.894   3.965   1.049 -0.6841  0.1159 -1.1174
 4988SOL    HW226427   0.817   3.929   1.172 -1.8659 -0.1901 -0.2607
 4989SOL     OW26428   1.964   0.284   0.191  0.3134 -0.0620  0.0230
 4989SOL    HW126429   1.965   0.271   0.286 -0.0991  0.0382  0.0398
 4989SOL    HW226430   1.941   0.200   0.152 -1.8664  0.8792 -0.7096
 4990SOL     OW26431   1.999   3.227   5.226 -0.1365  0.4141  1.0486
 4990SOL    HW126432   2.016   3.229   5.320  1.2859 -0.6724  0.8218
 4990SOL    HW226433   1.960   3.143   5.203 -1.5778  1.8499 -1.8248
 4991SOL     OW26434   0.060   0.282   2.432 -0.2875 -0.3713  0.4923
 4991SOL    HW126435   0.140   0.256   2.387 -0.4044 -2.3285  1.4024
 4991SOL    HW226436   0.065   0.377   2.422  0.6465 -0.3654  1.0324
 4992SOL     OW26437   0.994   2.086   0.887  0.3228 -0.6059  0.6413
 4992SOL    HW126438   1.060   2.145   0.922  1.1362 -0.3744 -1.3262
 4992SOL    HW226439   0.946   2.071   0.969  1.7529 -0.9060  1.4255
 4993SOL     OW26440   3.502   2.712  16.639  0.4816  0.7365  0.1476
 4993SOL    HW126441   3.413   2.748  16.646  0.5130  1.2616 -1.9963
 4993SOL    HW226442   3.545   2.793  16.610  0.9459  0.3032 -0.3878
 4994SOL     OW26443   3.182   0.221   5.113 -0.2500 -0.7077 -0.2634
 4994SOL    HW126444   3.138   0.249   5.193 -0.9270 -0.1537 -0.8289
 4994SOL    HW226445   3.273   0.249   5.127  0.0535 -0.1624 -3.2631
 4995SOL     OW26446   1.627   4.097   5.700  0.2672  0.4002  0.0452
 4995SOL    HW126447   1.698   4.121   5.641  0.3946 -1.5310 -0.6122
 4995SOL    HW226448   1.658   4.007   5.708  1.5505  0.9482  1.2415
 4996SOL     OW26449   0.078   2.783  15.091 -0.1674  0.3483  0.3432
 4996SOL    HW126450   0.058   2.773  14.998  0.4289 -1.5678  0.4247
 4996SOL    HW226451   0.038   2.868  15.112 -1.6129  0.4131 -2.7498
 4997SOL     OW26452   0.050   4.148   0.645  0.1380  0.5252 -0.0370
 4997SOL    HW126453   4.691   4.095   0.650  0.2464  0.0616 -3.0049
 4997SOL    HW226454   0.117   4.080   0.635 -0.0510  0.8161 -3.4271
 4998SOL     OW26455   1.912   2.373   2.617 -0.3591 -0.4848  0.4386
 4998SOL    HW126456   1.865   2.455   2.636  0.8866  0.6420 -1.3744
 4998SOL    HW226457   1.986   2.383   2.677 -0.1153  0.7237 -0.0601
 4999SOL     OW26458   2.339   2.449   7.774  0.0079 -1.0934  0.1404
 4999SOL    HW126459   2.287   2.514   7.821 -0.1978 -0.6265 -0.7354
 4999SOL    HW226460   2.415   2.444   7.832 -0.7669 -1.3091  1.1357
 5000SOL     OW26461   1.394   1.061   8.373 -0.4931 -0.5544 -0.4148
 5000SOL    HW126462   1.371   1.113   8.296  0.9347  1.5131  0.5263
 5000SOL    HW226463   1.490   1.068   8.373 -0.4736 -0.5765  2.2402
 5001SOL     OW26464   1.459   2.815   8.966  0.5536  0.2793  0.7603
 5001SOL    HW126465   1.396   2.848   9.030  1.2391  1.7687  0.6777
 5001SOL    HW226466   1.505   2.897   8.948  0.0639  0.2150 -0.7449
 5002SOL     OW26467   2.874   2.617  13.886 -0.4858  0.0026 -0.2381
 5002SOL    HW126468   2.817   2.661  13.823 -1.7660 -1.1191  0.1555
 5002SOL    HW226469   2.953   2.672  13.889  0.7588 -1.8615  1.1035
 5003SOL     OW26470   0.328   1.147   6.768 -0.0137 -0.8624 -0.5118
 5003SOL    HW126471   0.246   1.186   6.737  0.3963 -0.8009 -1.5217
 5003SOL    HW226472   0.395   1.190   6.715  0.6442 -1.2754 -0.0128
 5004SOL     OW26473   0.381   2.308   7.689 -0.7371 -0.2620 -0.4060
 5004SOL    HW126474   0.339   2.240   7.636  0.7422 -0.6663 -1.0313
 5004SOL    HW226475   0.321   2.382   7.676  0.9524  1.2653  0.5261
 5005SOL     OW26476   0.069   1.605   8.409  0.5339 -0.1155  0.4448
 5005SOL    HW126477   4.707   1.631   8.449  0.9217 -0.5155  1.4998
 5005SOL    HW226478   0.116   1.662   8.470 -1.6323 -0.9943  2.8806
 5006SOL     OW26479   3.506   2.549   8.065 -0.2333 -0.5953  0.0365
 5006SOL    HW126480   3.485   2.492   8.140  0.9674  0.5475  1.2405
 5006SOL    HW226481   3.540   2.488   8.000 -1.0753  0.4596 -1.3898
 5007SOL     OW26482   4.111   3.135  14.148  0.4979 -0.2458  0.2950
 5007SOL    HW126483   4.076   3.161  14.233  1.0377  1.6980 -0.0884
 5007SOL    HW226484   4.202   3.116  14.169  0.8858 -0.7679 -1.8105
 5008SOL     OW26485   0.133   0.220  12.394 -0.2381 -0.7447  0.3075
 5008SOL    HW126486   0.068   0.239  12.326 -0.5184  3.4090  1.7630
 5008SOL    HW226487   0.077   0.176  12.458 -2.6912  2.6136  0.4305
 5009SOL     OW26488   0.555   0.892   3.806 -0.1013 -0.2696  0.5045
 5009SOL    HW126489   0.478   0.895   3.862  0.3148  1.9046  0.9764
 5009SOL    HW226490   0.532   0.938   3.725 -0.1756 -1.9203 -0.3973
 5010SOL     OW26491   4.521   2.673   0.312 -0.5412  0.6200 -0.8484
 5010SOL    HW126492   4.528   2.621   0.392 -1.3803 -0.2738 -1.3533
 5010SOL    HW226493   4.432   2.706   0.316  0.3726  3.0595 -0.8651
 5011SOL     OW26494   2.705   4.269  14.400  0.1448  0.0699 -0.7515
 5011SOL    HW126495   2.769   4.336  14.423 -0.3320  0.2458  0.0671
 5011SOL    HW226496   2.683   4.239  14.488 -2.6498  0.6216 -1.2769
 5012SOL     OW26497   1.790   2.986  13.853  0.2355 -0.3533 -0.4435
 5012SOL    HW126498   1.736   2.916  13.817 -3.0280  2.4613 -1.0485
 5012SOL    HW226499   1.839   2.938  13.920 -2.9840 -1.6427  0.9962
 5013SOL     OW26500   4.193   3.902   4.692 -0.0222 -0.3437 -0.3850
 5013SOL    HW126501   4.212   3.817   4.652 -1.5842  0.0563 -1.9844
 5013SOL    HW226502   4.246   3.952   4.630 -1.3482  2.1209  0.4557
 5014SOL     OW26503   3.858   3.994   4.150 -0.3287 -0.3592  0.0225
 5014SOL    HW126504   3.930   4.027   4.096 -2.0831 -1.6101 -3.0533
 5014SOL    HW226505   3.866   3.899   4.151  1.7782 -0.1906  0.8827
 5015SOL     OW26506   3.819   4.125   6.710 -0.2739 -0.0676 -0.5253
 5015SOL    HW126507   3.899   4.178   6.716 -1.5261  1.5896  1.4113
 5015SOL    HW226508   3.765   4.201   6.731  0.8395  0.7279 -0.5264
 5016SOL     OW26509   4.002   3.146   5.167 -0.1995  0.0143 -0.3457
 5016SOL    HW126510   3.925   3.093   5.146 -0.6634  1.0336 -1.2001
 5016SOL    HW226511   4.048   3.144   5.084  1.6494 -2.3884  0.7431
 5017SOL     OW26512   0.382   3.565   8.246 -0.1114  0.5645 -0.2723
 5017SOL    HW126513   0.374   3.656   8.275  1.4136 -0.2263  2.7291
 5017SOL    HW226514   0.473   3.546   8.269 -0.6441 -1.4352  0.2197
 5018SOL     OW26515   4.165   1.578  12.032 -0.2309 -0.7862 -0.3024
 5018SOL    HW126516   4.223   1.554  12.104 -0.6394 -0.7251  0.0477
 5018SOL    HW226517   4.234   1.579  11.965  2.3020 -0.3876  2.3401
 5019SOL     OW26518   1.669   0.426   3.072  0.1937  0.2347  1.0578
 5019SOL    HW126519   1.625   0.420   2.988  1.0493 -2.0012  0.7656
 5019SOL    HW226520   1.695   0.518   3.081  0.1161  0.0757  2.9485
 5020SOL     OW26521   1.791   1.771  13.647 -0.0080 -0.0781 -0.1811
 5020SOL    HW126522   1.741   1.847  13.678 -0.3528  0.6464 -2.5190
 5020SOL    HW226523   1.804   1.798  13.556  1.2546 -0.8268 -0.2237
 5021SOL     OW26524   4.094   4.485  13.865  0.5811 -0.2945 -0.5561
 5021SOL    HW126525   4.048   4.553  13.914  3.2608 -0.4678  2.2463
 5021SOL    HW226526   4.019   4.443  13.824  2.2258  0.1764 -4.0670
 5022SOL     OW26527   4.637   2.042   1.108  0.3071  0.0829  0.1866
 5022SOL    HW126528   4.655   1.953   1.138 -1.1334  0.1153  1.1406
 5022SOL    HW226529   4.554   2.063   1.150 -0.5322 -0.5398 -1.1691
 5023SOL     OW26530   0.657   4.412   6.566 -0.4005  0.5814  0.0244
 5023SOL    HW126531   0.638   4.396   6.474 -0.4200 -0.5594  0.2247
 5023SOL    HW226532   0.568   4.430   6.596 -0.4786 -1.2431  0.9375
 5024SOL     OW26533   2.155   1.594   3.853 -0.1756 -0.0289  0.2853
 5024SOL    HW126534   2.070   1.636   3.840  1.7029  3.4392 -0.7008
 5024SOL    HW226535   2.195   1.618   3.770 -1.7315  1.0816 -0.1335
 5025SOL     OW26536   1.469   4.081   4.811 -0.6932 -0.2207 -0.1881
 5025SOL    HW126537   1.474   4.011   4.746  2.1221  0.6456 -0.9260
 5025SOL    HW226538   1.376   4.099   4.825 -1.2087 -1.8110 -1.6332
 5026SOL     OW26539   4.377   0.109   4.074 -0.4013  0.0056 -0.3336
 5026SOL    HW126540   4.387   0.149   4.160 -0.2225 -0.5726 -0.0863
 5026SOL    HW226541   4.469   0.098   4.051  0.5522  2.4952  2.3543
 5027SOL     OW26542   3.551   2.037  16.829 -0.3403 -0.3099 -0.4087
 5027SOL    HW126543   3.496   2.110  16.801 -0.2928  0.1418  0.6751
 5027SOL    HW226544   3.562   2.050  16.923  1.1182 -0.4227 -0.5697
 5028SOL     OW26545   4.606   0.779   3.972 -0.9186 -0.1165 -0.1111
 5028SOL    HW126546   4.677   0.843   3.979 -1.9766  1.2127 -1.3429
 5028SOL    HW226547   4.538   0.833   4.013 -1.3968 -0.3642 -0.5817
 5029SOL     OW26548   4.046   1.998   2.150  0.4795  0.2222  0.1695
 5029SOL    HW126549   4.124   1.955   2.186 -0.8472 -2.0600  0.2997
 5029SOL    HW226550   4.052   1.994   2.054  3.7134 -0.5390  0.3841
 5030SOL     OW26551   4.542   2.792  16.390 -0.6300  0.5637  0.1340
 5030SOL    HW126552   4.510   2.878  16.420  1.0222  1.8171 -1.6914
 5030SOL    HW226553   4.498   2.735  16.452 -2.6837  0.6387 -1.2518
 5031SOL     OW26554   0.370   0.675  12.325 -0.5049  0.7974  0.1952
 5031SOL    HW126555   0.433   0.608  12.295 -3.4653 -2.1153  0.5290
 5031SOL    HW226556   0.307   0.626  12.377  0.3091 -0.5657 -0.0876
 5032SOL     OW26557   4.057   0.599   2.443  0.2842 -0.1119 -0.1125
 5032SOL    HW126558   4.092   0.533   2.503  1.5078  2.3706  1.9197
 5032SOL    HW226559   3.967   0.566   2.445 -0.5438  2.2483  0.8519
 5033SOL     OW26560   1.121   0.654   0.179 -0.2301 -0.4572  0.3804
 5033SOL    HW126561   1.086   0.661   0.268  1.5605  0.3527  1.0266
 5033SOL    HW226562   1.045   0.696   0.139 -0.3013  0.0153  1.0155
 5034SOL     OW26563   2.434   1.151   6.634  0.0732  0.2431 -0.5509
 5034SOL    HW126564   2.499   1.219   6.651  0.5946 -0.7970  1.6736
 5034SOL    HW226565   2.449   1.123   6.544  0.0957 -1.0259 -0.1531
 5035SOL     OW26566   2.383   3.824   5.419  0.7456  0.8059 -0.6447
 5035SOL    HW126567   2.380   3.894   5.485  2.3270  0.7913 -0.5559
 5035SOL    HW226568   2.458   3.868   5.378  0.7933  1.3613  0.0237
 5036SOL     OW26569   3.515   4.575   5.201  0.2290  0.8449  0.6431
 5036SOL    HW126570   3.522   4.505   5.136  2.5557  2.1429 -0.4850
 5036SOL    HW226571   3.513   4.656   5.150  0.3835  1.6095  1.8562
 5037SOL     OW26572   2.750   3.582  16.484  0.0877 -0.3298 -0.3879
 5037SOL    HW126573   2.764   3.501  16.533  0.8421 -0.5314 -0.9407
 5037SOL    HW226574   2.719   3.537  16.405  0.7266  1.2089 -1.5096
 5038SOL     OW26575   2.321   4.264   6.069  0.5307 -0.5271 -0.1975
 5038SOL    HW126576   2.293   4.250   6.159  0.0356  0.3621 -0.2167
 5038SOL    HW226577   2.295   4.355   6.061  2.4217 -0.0468 -0.9465
 5039SOL     OW26578   3.296   4.190   8.379  0.4510 -0.1578  1.2362
 5039SOL    HW126579   3.228   4.132   8.344 -0.5603  2.2267 -0.6993
 5039SOL    HW226580   3.269   4.178   8.470 -0.6822  0.6660  1.0159
 5040SOL     OW26581   4.374   3.674   5.525 -0.2109  0.7333 -0.4211
 5040SOL    HW126582   4.320   3.595   5.517  0.8707 -0.0521 -0.0170
 5040SOL    HW226583   4.439   3.658   5.594  0.5638  0.3671 -1.2339
 5041SOL     OW26584   4.266   1.810   7.476  0.7843 -0.2471 -0.2195
 5041SOL    HW126585   4.318   1.836   7.552 -0.5506 -1.4550  1.0979
 5041SOL    HW226586   4.332   1.797   7.407 -0.5519  0.0092 -1.5388
 5042SOL     OW26587   1.092   3.356   1.773 -1.1758 -0.0123 -0.0328
 5042SOL    HW126588   1.125   3.434   1.727 -0.1468 -1.0098 -0.9630
 5042SOL    HW226589   1.052   3.395   1.851  1.7074  1.1133  0.8564
 5043SOL     OW26590   2.005   4.599   3.325 -0.5572 -0.9491 -0.3235
 5043SOL    HW126591   1.984   4.514   3.287  0.9635 -1.2550 -0.4503
 5043SOL    HW226592   2.030   4.578   3.415  0.8842 -1.0623 -0.7505
 5044SOL     OW26593   2.711   2.201   4.272 -0.0484 -0.1418  0.0446
 5044SOL    HW126594   2.783   2.202   4.335 -0.4872 -0.6549  0.5518
 5044SOL    HW226595   2.699   2.295   4.258 -2.1806 -0.2399  1.2781
 5045SOL     OW26596   1.326   0.624  12.824  0.4852  0.9819 -0.5050
 5045SOL    HW126597   1.349   0.612  12.916 -0.0574 -0.1922 -0.5287
 5045SOL    HW226598   1.234   0.650  12.830  0.4432  0.9056 -0.8338
 5046SOL     OW26599   2.446   3.858   7.161  0.6844  0.2767  0.3323
 5046SOL    HW126600   2.428   3.802   7.237 -1.0950  1.2423  0.6427
 5046SOL    HW226601   2.535   3.828   7.142  0.1919 -0.8336 -0.1659
 5047SOL     OW26602   1.054   0.564   1.421 -0.2006 -0.1333  0.1066
 5047SOL    HW126603   0.984   0.499   1.423 -0.4039  0.1068  1.3887
 5047SOL    HW226604   1.131   0.523   1.382  0.1535  1.5486 -0.9547
 5048SOL     OW26605   0.086   3.453  16.482 -0.3699  0.7729 -0.0348
 5048SOL    HW126606   0.093   3.477  16.574  1.2443 -0.9401  0.2938
 5048SOL    HW226607   0.174   3.468  16.445 -0.3756 -1.8679 -1.0872
 5049SOL     OW26608   4.606   4.264   5.049 -0.3636 -0.0274 -0.7137
 5049SOL    HW126609   4.567   4.178   5.062  1.9687 -1.5425 -3.7780
 5049SOL    HW226610   4.530   4.318   5.068 -0.6759 -0.7091 -0.0161
 5050SOL     OW26611   2.173   0.842   3.496  0.4468  0.1120 -0.2527
 5050SOL    HW126612   2.087   0.813   3.528 -0.9879  1.7335 -2.5484
 5050SOL    HW226613   2.236   0.822   3.564 -0.4976 -0.6142  0.4230
 5051SOL     OW26614   0.036   3.658   6.723  0.7261  0.1106  0.3761
 5051SOL    HW126615   4.716   3.573   6.705  0.9036  0.5527 -2.1695
 5051SOL    HW226616   4.697   3.695   6.788 -1.0327 -2.6160  0.3239
 5052SOL     OW26617   4.430   2.099   8.220  0.5101  0.0316 -0.2641
 5052SOL    HW126618   4.501   2.115   8.283 -0.5584 -0.1625  0.9789
 5052SOL    HW226619   4.368   2.165   8.251  0.0780  0.4107 -1.8994
 5053SOL     OW26620   3.566   1.664   2.267  0.5943 -0.6613 -0.2737
 5053SOL    HW126621   3.557   1.657   2.172  3.8215 -1.3599 -0.5186
 5053SOL    HW226622   3.559   1.571   2.287 -1.1865 -0.6379 -0.7471
 5054SOL     OW26623   4.621   0.325   3.078  0.3399 -0.0924 -0.0051
 5054SOL    HW126624   4.542   0.351   3.125 -0.0155 -0.2922 -0.4815
 5054SOL    HW226625   4.593   0.351   2.990  0.2999  2.4523  0.7750
 5055SOL     OW26626   4.282   3.506   3.049 -0.3731  0.2438 -0.0061
 5055SOL    HW126627   4.356   3.448   3.032  1.0467  1.7914  0.9713
 5055SOL    HW226628   4.305   3.577   2.989  0.4701 -0.9959 -1.1571
 5056SOL     OW26629   1.706   2.772   5.029  0.0570 -0.1710  0.8600
 5056SOL    HW126630   1.715   2.864   5.005 -0.4829 -0.3917 -0.1829
 5056SOL    HW226631   1.730   2.720   4.952 -1.1776 -0.6554  0.7965
 5057SOL     OW26632   3.099   0.691   3.094 -0.3264 -0.0032  1.0469
 5057SOL    HW126633   3.186   0.727   3.080 -0.4004 -0.3073 -0.1881
 5057SOL    HW226634   3.055   0.730   3.018 -2.2019 -0.9488  1.6506
 5058SOL     OW26635   2.164   0.452   9.916 -0.3054  0.1163 -0.0674
 5058SOL    HW126636   2.187   0.378   9.972  2.3912  1.2400  0.3084
 5058SOL    HW226637   2.133   0.405   9.839 -0.1928 -0.0220 -0.0288
 5059SOL     OW26638   4.694   3.660   7.239 -0.1496  0.1131  0.0824
 5059SOL    HW126639   0.001   3.612   7.317  2.1679 -1.1726 -1.5412
 5059SOL    HW226640   0.017   3.743   7.256 -1.2062  0.4319  1.1593
 5060SOL     OW26641   2.177   3.912   6.016  0.1733 -0.4356  0.3823
 5060SOL    HW126642   2.137   3.826   6.030  1.3655 -1.2442 -1.1534
 5060SOL    HW226643   2.144   3.969   6.086 -1.5596  1.8388 -2.2893
 5061SOL     OW26644   0.824   3.174   6.197 -0.2820 -0.0855 -0.0319
 5061SOL    HW126645   0.785   3.188   6.111  2.0301 -0.4877 -1.1566
 5061SOL    HW226646   0.794   3.245   6.254 -2.2363  0.5831 -1.9207
 5062SOL     OW26647   1.581   0.562   5.057  0.1285 -0.5497  0.5901
 5062SOL    HW126648   1.539   0.639   5.017 -0.4548 -0.1834  1.9175
 5062SOL    HW226649   1.522   0.502   5.012 -0.6390  0.8846 -0.3295
 5063SOL     OW26650   0.812   3.774  15.176  0.0245  0.5471  0.0089
 5063SOL    HW126651   0.753   3.751  15.248 -0.3252  2.8707  0.4722
 5063SOL    HW226652   0.891   3.789  15.229  0.1862  1.4882 -0.5060
 5064SOL     OW26653   1.163   2.403  13.643  1.2162  0.4580  0.2810
 5064SOL    HW126654   1.078   2.362  13.627  0.2992  1.8890  1.4532
 5064SOL    HW226655   1.152   2.490  13.604  0.5192 -0.2507 -1.1235
 5065SOL     OW26656   1.786   2.375   9.174  0.4147 -0.3069 -0.1041
 5065SOL    HW126657   1.711   2.427   9.204  1.0408 -0.1942  1.2356
 5065SOL    HW226658   1.754   2.290   9.205  1.8253 -0.2480  1.4968
 5066SOL     OW26659   3.044   4.589   0.967 -0.7552  0.1738  0.7122
 5066SOL    HW126660   3.112   4.623   1.025  0.5108 -1.8523  0.4034
 5066SOL    HW226661   2.966   4.618   1.014 -0.6918  1.9172 -0.2814
 5067SOL     OW26662   1.546   0.024  15.367  0.3873  0.3413 -0.2775
 5067SOL    HW126663   1.464   4.704  15.338  0.1085  0.0707  0.8822
 5067SOL    HW226664   1.588   0.053  15.286  1.1118  0.4245  0.1298
 5068SOL     OW26665   2.642   1.024   0.269  0.1926 -0.1964 -0.6008
 5068SOL    HW126666   2.702   0.969   0.320  0.2799  0.6974  0.2537
 5068SOL    HW226667   2.563   0.970   0.269  0.2491 -0.2809 -0.0829
 5069SOL     OW26668   1.133   2.385   5.284  0.2612  0.0598 -0.2580
 5069SOL    HW126669   1.081   2.419   5.211 -1.8039 -2.0252  0.2413
 5069SOL    HW226670   1.191   2.459   5.303 -1.2071  1.7944 -2.5792
 5070SOL     OW26671   4.603   1.166   6.212  0.9324  0.1729  0.8293
 5070SOL    HW126672   4.674   1.117   6.171  0.6875  1.5732 -1.2332
 5070SOL    HW226673   4.571   1.093   6.266 -0.6918  1.1108  1.1385
 5071SOL     OW26674   0.640   4.130   9.315 -0.2658 -0.0370  0.0328
 5071SOL    HW126675   0.679   4.105   9.398  1.9409 -0.1648 -1.0383
 5071SOL    HW226676   0.641   4.053   9.258 -0.7674 -0.5047  0.6674
 5072SOL     OW26677   2.885   3.664  11.271  0.6784  0.8670 -0.4613
 5072SOL    HW126678   2.870   3.653  11.177 -2.6789 -0.0349  0.1921
 5072SOL    HW226679   2.801   3.641  11.311 -0.3714  3.4575 -1.1978
 5073SOL     OW26680   0.234   1.833   8.514 -0.1142 -0.2958 -0.2393
 5073SOL    HW126681   0.306   1.783   8.552 -1.6414 -0.7791  1.9831
 5073SOL    HW226682   0.235   1.922   8.548  1.5275 -0.7602  0.8812
 5074SOL     OW26683   2.731   3.120   4.519 -0.0165  0.4121 -0.0201
 5074SOL    HW126684   2.730   3.183   4.591 -0.1218 -0.9139  1.1198
 5074SOL    HW226685   2.653   3.065   4.523 -0.8745  1.6695  0.4820
 5075SOL     OW26686   4.244   3.660  12.397 -0.3426 -0.5576 -0.1438
 5075SOL    HW126687   4.308   3.588  12.396 -0.2472 -0.4697 -0.2768
 5075SOL    HW226688   4.288   3.743  12.414 -1.0873 -0.6221  2.1000
 5076SOL     OW26689   3.101   1.157  15.766  0.5513  0.1371 -0.0317
 5076SOL    HW126690   3.038   1.107  15.714 -0.5745 -0.1316  1.5864
 5076SOL    HW226691   3.176   1.178  15.711 -0.9090  1.6124 -1.4364
 5077SOL     OW26692   1.231   3.891   7.000 -0.5480 -0.0256  0.3746
 5077SOL    HW126693   1.234   3.837   7.078 -1.7667  1.4186  1.4061
 5077SOL    HW226694   1.246   3.974   7.045 -1.3168  0.8486 -0.9640
 5078SOL     OW26695   1.131   3.083  14.563 -0.0814  0.3265  0.4408
 5078SOL    HW126696   1.135   3.136  14.643 -1.3866 -0.6957  1.1760
 5078SOL    HW226697   1.131   2.996  14.602 -0.1478  1.2570  2.5332
 5079SOL     OW26698   3.958   4.328  14.101  0.2177 -0.0663 -0.0161
 5079SOL    HW126699   3.964   4.380  14.181  1.3147  0.7553 -0.6358
 5079SOL    HW226700   4.000   4.382  14.034  0.9902 -1.6416 -0.7944
 5080SOL     OW26701   2.213   4.068   8.163 -0.2236 -0.1700  0.9685
 5080SOL    HW126702   2.277   4.064   8.092 -1.1457  0.7385  0.0837
 5080SOL    HW226703   2.275   4.050   8.233  0.6263  0.2661  0.3296
 5081SOL     OW26704   3.390   0.586   8.134 -0.2503  0.6135  0.2315
 5081SOL    HW126705   3.412   0.581   8.042 -0.0688 -0.1738  0.3192
 5081SOL    HW226706   3.301   0.621   8.131 -0.6788 -0.3653  1.2534
 5082SOL     OW26707   2.898   0.508   4.866 -0.2834  0.0385 -0.3654
 5082SOL    HW126708   2.836   0.551   4.807 -0.9876  0.7628  0.9016
 5082SOL    HW226709   2.872   0.543   4.951 -0.0210  0.1798 -0.3433
 5083SOL     OW26710   2.776   2.919   3.844  0.8465  0.5058 -0.0359
 5083SOL    HW126711   2.855   2.941   3.794  0.6808 -2.1195 -1.4267
 5083SOL    HW226712   2.813   2.894   3.928  1.6732  0.6570 -0.3534
 5084SOL     OW26713   1.842   3.277   8.126  0.1361 -0.1450  0.6511
 5084SOL    HW126714   1.804   3.342   8.067  2.2865 -0.0948 -0.6732
 5084SOL    HW226715   1.936   3.296   8.125  0.2454 -0.7018  0.1316
 5085SOL     OW26716   1.621   1.261  11.854 -0.2529  0.2944 -0.1490
 5085SOL    HW126717   1.585   1.347  11.833 -1.2163 -0.1311 -0.2234
 5085SOL    HW226718   1.658   1.277  11.941 -1.0976  1.1376  0.0512
 5086SOL     OW26719   3.810   0.658   9.881  0.4275  0.3986  0.0284
 5086SOL    HW126720   3.904   0.646   9.896  0.4408  2.2054  1.3490
 5086SOL    HW226721   3.770   0.591   9.937 -0.3443  1.4731  0.7502
 5087SOL     OW26722   3.565   2.748   8.741  0.2745  0.6308 -0.3778
 5087SOL    HW126723   3.526   2.716   8.822  1.0942  1.5031  0.3679
 5087SOL    HW226724   3.625   2.677   8.722  1.7367  1.9598 -0.7746
 5088SOL     OW26725   3.894   2.787   0.250  0.2683  0.7473  0.3289
 5088SOL    HW126726   3.972   2.735   0.230  0.4348  2.0066 -2.3863
 5088SOL    HW226727   3.856   2.744   0.326  0.5241  1.3104  0.7717
 5089SOL     OW26728   1.971   3.259   4.348 -0.7886 -0.0509 -0.2831
 5089SOL    HW126729   1.996   3.333   4.293  0.9900  0.6695  1.4998
 5089SOL    HW226730   2.015   3.275   4.431  1.9365 -3.8253 -1.0166
 5090SOL     OW26731   2.189   1.356  16.780 -0.1525 -0.6453 -0.1202
 5090SOL    HW126732   2.238   1.328  16.702 -0.0995  1.0143 -0.6852
 5090SOL    HW226733   2.121   1.413  16.746 -0.9963 -1.8480 -0.4423
 5091SOL     OW26734   2.460   3.135   7.999  1.2860  0.0386 -0.0305
 5091SOL    HW126735   2.455   3.169   8.089 -2.6088  1.1579 -0.7005
 5091SOL    HW226736   2.367   3.115   7.987  2.0386 -3.1291 -0.5208
 5092SOL     OW26737   1.921   4.038   8.583 -0.5470  0.2561  0.6695
 5092SOL    HW126738   1.859   3.966   8.577 -0.3460 -0.0148  1.7860
 5092SOL    HW226739   1.857   4.108   8.599 -1.3531 -0.4518  0.5174
 5093SOL     OW26740   3.854   3.469   7.605 -0.1089 -0.6406 -0.3633
 5093SOL    HW126741   3.797   3.403   7.566 -2.3068  0.4070  1.0735
 5093SOL    HW226742   3.819   3.474   7.694 -3.0426 -1.3318 -1.4686
 5094SOL     OW26743   2.375   2.193   4.142  0.0139  0.2764 -0.1029
 5094SOL    HW126744   2.306   2.252   4.111 -0.9223 -1.7808 -1.9544
 5094SOL    HW226745   2.323   2.113   4.140  2.4850 -1.4317  3.3832
 5095SOL     OW26746   2.098   2.933   1.926 -0.0343 -0.4913  0.1937
 5095SOL    HW126747   2.103   2.855   1.871  1.5195 -0.9698  1.0024
 5095SOL    HW226748   2.014   2.910   1.965  0.3468  1.7223  2.3226
 5096SOL     OW26749   2.093   2.661   7.054  0.0108 -0.2876  0.5915
 5096SOL    HW126750   2.015   2.619   7.017 -1.0798 -0.7374  3.3529
 5096SOL    HW226751   2.079   2.673   7.148  0.7362 -1.5549  0.8644
 5097SOL     OW26752   4.317   4.368  16.659 -0.1480  0.5543  0.2094
 5097SOL    HW126753   4.310   4.454  16.617 -1.4034  0.5531  0.4316
 5097SOL    HW226754   4.313   4.385  16.753 -0.9126  0.1152  0.2549
 5098SOL     OW26755   3.273   0.915   7.315 -0.0920  0.6920 -0.9222
 5098SOL    HW126756   3.272   0.820   7.310  0.7408  0.6735 -0.8170
 5098SOL    HW226757   3.183   0.941   7.334  0.1919  0.7454  0.3129
 5099SOL     OW26758   4.631   3.180   2.498  0.0605 -0.1723  0.0296
 5099SOL    HW126759   4.663   3.129   2.423 -1.4873 -0.2809 -0.5593
 5099SOL    HW226760   4.655   3.267   2.465  1.2423 -1.8738 -3.6765
 5100SOL     OW26761   1.827   1.237   4.447  0.1576 -0.0489  0.6669
 5100SOL    HW126762   1.876   1.307   4.490  0.9879 -0.2091 -0.0289
 5100SOL    HW226763   1.886   1.189   4.389 -0.0622 -0.7010  0.9750
 5101SOL     OW26764   1.604   0.581   5.320 -0.3631  0.3726 -0.0631
 5101SOL    HW126765   1.535   0.647   5.313  0.3809  1.1012 -0.5053
 5101SOL    HW226766   1.603   0.559   5.227 -2.2893 -0.3821  0.1381
 5102SOL     OW26767   2.111   0.317  16.430  0.5851 -0.0972  0.0448
 5102SOL    HW126768   2.123   0.395  16.484 -0.1721 -0.3149  0.5198
 5102SOL    HW226769   2.154   0.354  16.352 -0.9389  1.6992  0.0823
 5103SOL     OW26770   2.749   0.284  10.008 -0.4498 -0.2952 -0.2441
 5103SOL    HW126771   2.660   0.249   9.996 -0.9130  0.3395  1.3003
 5103SOL    HW226772   2.741   0.379  10.015 -1.3390 -0.2657 -1.7349
 5104SOL     OW26773   2.108   3.738   4.077  0.3865 -0.1610 -0.1338
 5104SOL    HW126774   2.155   3.821   4.088 -0.0219  0.0905 -0.2909
 5104SOL    HW226775   2.059   3.749   3.996  0.7932 -1.4894 -0.5578
 5105SOL     OW26776   0.818   3.105   5.046 -0.0359 -0.1386 -0.2981
 5105SOL    HW126777   0.887   3.172   5.045  1.9648 -2.2022 -1.2094
 5105SOL    HW226778   0.764   3.133   4.973  0.3241  2.0582  0.2779
 5106SOL     OW26779   2.156   4.509   3.533  0.0920  0.0224  0.9611
 5106SOL    HW126780   2.176   4.420   3.560  0.1474 -0.5665 -1.0139
 5106SOL    HW226781   2.244   4.547   3.537  0.4380 -0.8307  1.2453
 5107SOL     OW26782   0.952   1.010  14.160  0.0900 -0.1773 -0.2201
 5107SOL    HW126783   0.954   0.996  14.066 -0.9068 -2.7622  0.1479
 5107SOL    HW226784   0.945   1.106  14.161 -0.0196 -0.1665 -2.3140
 5108SOL     OW26785   1.604   1.775  14.884 -0.2225  0.0281  0.0442
 5108SOL    HW126786   1.634   1.710  14.822  0.2134 -0.3548  0.6559
 5108SOL    HW226787   1.685   1.823  14.897 -0.2912  0.6440 -1.7861
 5109SOL     OW26788   2.332   3.864   6.900  0.5225 -0.0167  0.2188
 5109SOL    HW126789   2.299   3.778   6.925  2.4398 -1.3616 -1.9140
 5109SOL    HW226790   2.383   3.889   6.978  1.8410  1.7525 -1.1892
 5110SOL     OW26791   2.679   0.816   8.092 -0.0238  0.1131  0.2098
 5110SOL    HW126792   2.602   0.761   8.104 -0.1300 -0.2017 -2.0221
 5110SOL    HW226793   2.714   0.819   8.181 -1.2113 -0.2337  0.6814
 5111SOL     OW26794   2.677   1.072   9.535 -0.1204 -0.0749  0.2578
 5111SOL    HW126795   2.760   1.074   9.583  1.0338 -1.1729 -1.6792
 5111SOL    HW226796   2.619   1.043   9.605 -0.2541 -0.9639 -0.2169
 5112SOL     OW26797   1.973   1.204   6.022 -0.3178  0.3351  0.2786
 5112SOL    HW126798   2.026   1.263   5.968  1.0249 -1.1393  0.0216
 5112SOL    HW226799   1.888   1.228   5.984 -0.8292 -0.0532  1.1592
 5113SOL     OW26800   3.877   0.216  15.023 -0.0543  0.1393 -0.2496
 5113SOL    HW126801   3.970   0.197  15.035  0.1902  0.1278 -2.1428
 5113SOL    HW226802   3.883   0.290  14.963 -0.0590  0.4122  0.0880
 5114SOL     OW26803   2.671   2.231   1.404  0.4086  0.1885 -0.1917
 5114SOL    HW126804   2.629   2.146   1.409 -2.5074  1.6833  0.7016
 5114SOL    HW226805   2.751   2.212   1.355  1.5807  3.2009  0.4985
 5115SOL     OW26806   2.858   2.118   8.052  0.7876 -0.1264  0.3037
 5115SOL    HW126807   2.888   2.085   8.137 -1.0208 -1.4934  0.4306
 5115SOL    HW226808   2.764   2.130   8.068  0.6177 -0.5662 -0.3656
 5116SOL     OW26809   1.475   0.467   4.090  0.1217  0.1770  0.8377
 5116SOL    HW126810   1.477   0.552   4.046 -2.1674  0.1196  0.6167
 5116SOL    HW226811   1.563   0.435   4.071 -1.4662 -2.2834 -2.3470
 5117SOL     OW26812   2.198   0.466   1.452  0.2630 -0.2556 -0.4341
 5117SOL    HW126813   2.165   0.542   1.403  0.6626  1.3186  1.7357
 5117SOL    HW226814   2.206   0.399   1.384  0.7348  0.9380 -1.5760
 5118SOL     OW26815   2.788   4.570   5.246  0.5201  0.4370  0.3479
 5118SOL    HW126816   2.800   4.658   5.210 -0.1626  0.1865 -0.4835
 5118SOL    HW226817   2.764   4.514   5.173 -2.7040  0.3027  1.5221
 5119SOL     OW26818   1.946   0.798   3.646 -0.5445  0.0900  0.2217
 5119SOL    HW126819   1.880   0.863   3.671 -1.5870  0.8732 -4.5781
 5119SOL    HW226820   1.915   0.776   3.558  2.0074  3.2516 -1.4967
 5120SOL     OW26821   0.302   4.419   4.053  0.0016  0.4636  0.2539
 5120SOL    HW126822   0.283   4.389   4.142  2.4235 -0.5480  0.4416
 5120SOL    HW226823   0.397   4.408   4.057 -0.1403 -1.4799 -1.6212
 5121SOL     OW26824   2.583   3.135   2.035  0.4029  0.1572  0.1285
 5121SOL    HW126825   2.502   3.108   1.991  1.0580 -0.8304 -0.4668
 5121SOL    HW226826   2.557   3.187   2.111  0.1090  1.5809 -0.9372
 5122SOL     OW26827   4.171   3.346   2.753  0.2757 -0.6454 -0.2811
 5122SOL    HW126828   4.083   3.369   2.784  0.2958 -0.0305 -0.6795
 5122SOL    HW226829   4.200   3.426   2.709 -1.1116  0.0071 -0.0018
 5123SOL     OW26830   2.166   2.841   2.471  0.0390  0.4290 -0.3203
 5123SOL    HW126831   2.145   2.856   2.378 -1.2619 -0.4896 -0.1761
 5123SOL    HW226832   2.243   2.784   2.466 -1.1320 -1.3790  2.2737
 5124SOL     OW26833   3.002   0.860   2.898  0.0820  0.3545  0.3424
 5124SOL    HW126834   2.956   0.896   2.822 -1.2306  0.3118  1.1098
 5124SOL    HW226835   2.939   0.888   2.965  1.7963  1.1567  1.6409
 5125SOL     OW26836   1.109   0.029   6.095  0.1672 -0.0231 -0.3196
 5125SOL    HW126837   1.095   0.059   6.185  0.4043  0.9623 -0.6088
 5125SOL    HW226838   1.156   0.107   6.065 -0.1946  0.3507  0.0782
 5126SOL     OW26839   2.998   4.089   7.045  0.1112  0.1473  0.0842
 5126SOL    HW126840   2.967   4.156   7.106 -0.2498  0.3949 -0.3685
 5126SOL    HW226841   2.919   4.045   7.014  0.3713  0.2124 -0.6651
 5127SOL     OW26842   0.841   2.416   2.948  0.1983  0.3444 -0.1599
 5127SOL    HW126843   0.874   2.457   2.868  0.3254  0.0079 -0.2838
 5127SOL    HW226844   0.870   2.324   2.947 -0.4810  0.1262  0.2280
 5128SOL     OW26845   0.510   1.995   9.178  0.3210 -0.2945  0.5306
 5128SOL    HW126846   0.580   2.042   9.131  0.1890 -0.6268  0.0061
 5128SOL    HW226847   0.442   1.997   9.110  0.7325 -2.0575  0.0727
 5129SOL     OW26848   2.672   3.497  11.404  0.1664 -0.5409  0.2044
 5129SOL    HW126849   2.658   3.588  11.430  0.8839 -1.1037  2.5492
 5129SOL    HW226850   2.583   3.465  11.388  0.3572  0.0807 -2.1576
 5130SOL     OW26851   3.220   1.677  14.155 -0.7204  0.0318  0.9902
 5130SOL    HW126852   3.286   1.729  14.202 -0.1064  1.7491 -1.7366
 5130SOL    HW226853   3.274   1.611  14.113 -1.3781 -0.5141  1.0130
 5131SOL     OW26854   2.627   1.650   7.684  0.2393  0.6407 -0.0283
 5131SOL    HW126855   2.672   1.565   7.680 -2.3019 -0.7357  0.7108
 5131SOL    HW226856   2.599   1.653   7.593 -0.7717 -1.1070  0.2183
 5132SOL     OW26857   0.935   1.917   7.700  0.3355 -0.5046 -0.2370
 5132SOL    HW126858   0.871   1.967   7.649  1.5080  0.0618 -1.1452
 5132SOL    HW226859   0.933   1.967   7.782  1.6693 -1.7683  0.5561
 5133SOL     OW26860   4.403   3.858   3.528  0.3719 -0.6216 -0.4492
 5133SOL    HW126861   4.496   3.861   3.550 -0.2725  2.6540  1.7200
 5133SOL    HW226862   4.393   3.766   3.501  1.3565 -1.2935  1.5293
 5134SOL     OW26863   0.281   1.832   6.814  0.2807  0.0022  0.1793
 5134SOL    HW126864   0.193   1.794   6.821  0.6901 -1.3118 -1.9184
 5134SOL    HW226865   0.268   1.908   6.871  1.2263  1.0725 -1.0093
 5135SOL     OW26866   2.334   0.143  15.383 -0.0485 -0.1777 -0.6681
 5135SOL    HW126867   2.314   0.231  15.353  1.7986  0.5520  0.2468
 5135SOL    HW226868   2.425   0.135  15.414 -0.2663  1.3229  0.3378
 5136SOL     OW26869   2.208   2.957   6.387 -0.6056 -0.3424 -0.3157
 5136SOL    HW126870   2.246   3.045   6.388 -2.9719  0.6960  0.3206
 5136SOL    HW226871   2.137   2.974   6.450 -1.3067  0.7968 -1.4139
 5137SOL     OW26872   0.392   2.241   1.920 -0.5338  0.0182  0.7151
 5137SOL    HW126873   0.390   2.330   1.955 -0.5314  1.1579 -2.1933
 5137SOL    HW226874   0.362   2.251   1.830 -1.1808  0.0240  0.9363
 5138SOL     OW26875   1.174   2.933  13.432 -0.1520 -0.0517 -0.3789
 5138SOL    HW126876   1.137   2.962  13.349 -2.7026 -3.0862 -0.2876
 5138SOL    HW226877   1.103   2.876  13.460  0.0615 -1.2796 -2.3409
 5139SOL     OW26878   0.907   4.489   4.783  0.2096 -0.4895  0.0050
 5139SOL    HW126879   0.932   4.576   4.815 -1.3420 -1.2153  3.2538
 5139SOL    HW226880   0.812   4.494   4.781  0.1679 -1.2463  0.1418
 5140SOL     OW26881   3.661   3.694   4.314 -0.2371 -0.1762 -0.1423
 5140SOL    HW126882   3.725   3.717   4.381  1.5766  0.5020 -2.1361
 5140SOL    HW226883   3.702   3.712   4.230 -0.7489  1.1328 -0.1002
 5141SOL     OW26884   3.241   2.013   6.464  0.1823 -0.0056 -0.3144
 5141SOL    HW126885   3.207   2.088   6.416  0.4097  0.3919  0.1404
 5141SOL    HW226886   3.220   2.039   6.554 -1.5660 -4.5473  0.5814
 5142SOL     OW26887   2.834   0.623   5.122  0.2679  0.1685  0.0224
 5142SOL    HW126888   2.868   0.612   5.211 -2.0595 -0.1411  0.8761
 5142SOL    HW226889   2.855   0.715   5.113 -0.7129  0.3808 -0.1427
 5143SOL     OW26890   4.474   1.962   7.648  0.0246 -0.5784 -0.0780
 5143SOL    HW126891   4.507   1.932   7.563 -0.1971  1.3762 -0.8465
 5143SOL    HW226892   4.537   2.030   7.673 -0.4891  0.2208 -0.9503
 5144SOL     OW26893   2.789   4.643  10.898 -0.3181  0.7631  0.0010
 5144SOL    HW126894   2.837   4.640  10.981  3.4966 -1.9689 -2.3157
 5144SOL    HW226895   2.864   4.632  10.840 -1.4183 -2.9051 -0.7268
 5145SOL     OW26896   0.290   4.458   9.544  0.0842  0.5373 -0.8349
 5145SOL    HW126897   0.329   4.432   9.461  0.3181  1.6005 -1.0640
 5145SOL    HW226898   0.195   4.462   9.529 -0.0250  1.5440  0.0841
 5146SOL     OW26899   0.504   0.821   6.587 -0.1187 -0.0729 -0.6465
 5146SOL    HW126900   0.408   0.832   6.591  0.0160  1.1447 -0.6812
 5146SOL    HW226901   0.535   0.810   6.677 -3.0725 -0.4198  0.3612
 5147SOL     OW26902   1.220   2.072   5.179 -0.0589 -0.1136 -0.0658
 5147SOL    HW126903   1.289   2.027   5.131 -0.1384 -0.1453 -0.1498
 5147SOL    HW226904   1.150   2.057   5.116 -0.8081 -0.5092  0.8582
 5148SOL     OW26905   3.715   3.531  14.194 -0.6969  0.5427  0.1902
 5148SOL    HW126906   3.776   3.575  14.254 -0.3224  3.3352 -2.2703
 5148SOL    HW226907   3.646   3.594  14.213 -3.8599 -3.2030  1.1836
 5149SOL     OW26908   2.882   2.061   8.323  0.7691 -0.2534 -0.1212
 5149SOL    HW126909   2.970   2.085   8.354 -0.1600  1.0087  1.5159
 5149SOL    HW226910   2.839   2.047   8.407 -0.5745  1.0447 -0.5980
 5150SOL     OW26911   1.885   0.044   1.971  0.0944 -0.3205  0.3486
 5150SOL    HW126912   1.790   0.054   1.970  0.2963  0.9165 -4.5512
 5150SOL    HW226913   1.918   0.087   1.893 -0.2098 -0.2260  0.2744
 5151SOL     OW26914   0.025   0.670   5.956 -0.4569 -0.3196  0.5690
 5151SOL    HW126915   0.057   0.595   6.006  0.1240 -1.0137 -0.8395
 5151SOL    HW226916   0.104   0.722   5.963 -0.3616 -0.4877  0.7529
 5152SOL     OW26917   4.549   1.713   9.361 -0.2761  0.7752  0.4681
 5152SOL    HW126918   4.501   1.751   9.288 -0.0786 -0.1664 -0.1506
 5152SOL    HW226919   4.485   1.697   9.430 -0.5536 -0.0844  0.0066
 5153SOL     OW26920   0.991   3.071  14.334 -1.0585  0.1097  0.2378
 5153SOL    HW126921   1.037   3.041  14.413  0.4582 -0.3864 -0.8281
 5153SOL    HW226922   0.953   3.153  14.363 -0.9112 -1.3074  4.4135
 5154SOL     OW26923   3.129   3.243  13.852 -0.1859 -0.3064 -0.3139
 5154SOL    HW126924   3.218   3.215  13.876 -0.3081 -0.7250 -0.3487
 5154SOL    HW226925   3.099   3.158  13.821  2.1755 -1.0850 -0.4444
 5155SOL     OW26926   0.696   3.877   6.962  0.3829 -0.1325  0.5036
 5155SOL    HW126927   0.661   3.965   6.977 -0.4170 -0.4909  0.7509
 5155SOL    HW226928   0.618   3.825   6.984  0.7283  0.5311  3.2609
 5156SOL     OW26929   4.299   4.411  16.968  0.4525  0.1287 -0.5389
 5156SOL    HW126930   4.383   4.450  16.943  0.9227 -0.2002  0.5004
 5156SOL    HW226931   4.303   4.423  17.063 -0.3249  0.6172 -0.5671
 5157SOL     OW26932   1.009   3.676  14.064  0.3696 -0.3997  0.2067
 5157SOL    HW126933   0.963   3.669  13.980 -1.1132  0.5064  0.9279
 5157SOL    HW226934   0.947   3.719  14.123 -1.6491 -1.7566 -0.9169
 5158SOL     OW26935   0.418   2.667   4.051  0.0652  0.6504  0.8598
 5158SOL    HW126936   0.378   2.591   4.010 -0.2708  1.9957 -1.3427
 5158SOL    HW226937   0.349   2.732   4.038  0.4209  1.0589  1.0072
 5159SOL     OW26938   2.684   1.444   2.696 -0.0604 -0.1486  0.4776
 5159SOL    HW126939   2.616   1.488   2.747 -0.0033  0.7964 -0.2603
 5159SOL    HW226940   2.763   1.452   2.750 -0.5687 -2.2350  1.5346
 5160SOL     OW26941   0.091   1.370  10.977 -0.4024 -0.1403 -0.0314
 5160SOL    HW126942   0.040   1.321  11.041  0.7559 -1.0136  0.2113
 5160SOL    HW226943   0.168   1.382  11.032  0.6812 -0.4880 -1.4594
 5161SOL     OW26944   2.233   4.282   4.499 -0.2621 -0.1869 -0.1196
 5161SOL    HW126945   2.195   4.211   4.550 -0.3413  0.8182  1.2147
 5161SOL    HW226946   2.317   4.313   4.533  0.1645  0.4471 -1.7701
 5162SOL     OW26947   0.321   4.102   8.059  0.3671  0.3381  0.1702
 5162SOL    HW126948   0.297   4.090   7.967 -0.8699  1.3039  0.3729
 5162SOL    HW226949   0.380   4.177   8.062  0.2531  0.4523 -0.4360
 5163SOL     OW26950   0.103   4.099   0.306  0.1208  0.0532 -0.8591
 5163SOL    HW126951   0.027   4.054   0.343 -0.6460  0.7585 -1.5816
 5163SOL    HW226952   0.064   4.143   0.231 -0.4921  3.9279  1.7120
 5164SOL     OW26953   0.403   1.933   2.411  0.5248  0.1734  0.0754
 5164SOL    HW126954   0.489   1.915   2.450  0.7388  0.8600 -0.0906
 5164SOL    HW226955   0.421   2.014   2.364  0.2520  1.4984  2.2386
 5165SOL     OW26956   1.047   1.961   1.795 -0.0194 -0.3273  0.3578
 5165SOL    HW126957   0.991   1.927   1.865  0.4217 -0.3890  0.6826
 5165SOL    HW226958   1.007   1.909   1.725  1.3631  0.7730 -1.2449
 5166SOL     OW26959   0.784   4.089   9.555  0.1482 -0.0487  0.0539
 5166SOL    HW126960   0.877   4.085   9.580 -0.4363  1.4273  2.5037
 5166SOL    HW226961   0.755   4.139   9.632  0.5257  1.3366 -0.7041
 5167SOL     OW26962   3.619   0.597  14.923  0.2627 -0.3960  0.4127
 5167SOL    HW126963   3.574   0.547  14.855  0.8980 -2.4098  1.4788
 5167SOL    HW226964   3.594   0.551  15.003  0.9927 -0.4380  0.6176
 5168SOL     OW26965   3.224   2.851   6.132 -0.2090  0.0189  0.5095
 5168SOL    HW126966   3.138   2.812   6.146 -1.4873  1.8524 -2.3115
 5168SOL    HW226967   3.233   2.842   6.037 -1.8091  0.6332  0.3122
 5169SOL     OW26968   3.236   4.013   4.961  0.0135  0.0831  0.7966
 5169SOL    HW126969   3.187   3.965   4.894  0.0734 -0.0522  0.8481
 5169SOL    HW226970   3.318   4.035   4.917  0.8350 -2.4922  1.0095
 5170SOL     OW26971   3.778   3.515  10.817  0.5507  0.5491 -0.1789
 5170SOL    HW126972   3.841   3.518  10.744 -2.4004  1.1295 -2.7163
 5170SOL    HW226973   3.779   3.607  10.845  1.3682  0.8493 -1.1911
 5171SOL     OW26974   3.370   2.793   8.027 -0.0610 -0.4123 -0.3861
 5171SOL    HW126975   3.436   2.830   8.086 -2.0560  1.5676  0.5533
 5171SOL    HW226976   3.420   2.714   8.007  1.9709  1.1994 -1.6644
 5172SOL     OW26977   0.749   0.875  13.480 -0.6564  0.2791  0.4086
 5172SOL    HW126978   0.678   0.924  13.437 -0.3521  0.2638 -0.1029
 5172SOL    HW226979   0.735   0.894  13.573 -1.6326 -0.1496  0.3439
 5173SOL     OW26980   3.270   1.150   3.931 -0.1173  0.2296  0.2339
 5173SOL    HW126981   3.179   1.178   3.937 -0.0474  0.0802  1.8917
 5173SOL    HW226982   3.273   1.069   3.879  0.6991 -1.3466  2.7489
 5174SOL     OW26983   2.522   1.290   9.970  0.3128  0.0701 -0.6656
 5174SOL    HW126984   2.588   1.261  10.033  0.5256  0.4122 -0.7322
 5174SOL    HW226985   2.582   1.323   9.903  1.0301 -2.6097 -1.3296
 5175SOL     OW26986   0.941   0.544  14.466  0.3402 -0.0875 -0.2890
 5175SOL    HW126987   0.927   0.638  14.459  3.5457  0.2906 -1.6031
 5175SOL    HW226988   0.979   0.524  14.380  1.3786  3.7086 -0.7110
 5176SOL     OW26989   4.296   0.073   6.918 -0.8436  0.2850  0.0729
 5176SOL    HW126990   4.277   0.112   7.003 -0.1664 -1.5467  1.0541
 5176SOL    HW226991   4.373   0.020   6.938 -0.4992 -0.5181 -3.4192
 5177SOL     OW26992   3.880   1.425   4.054  0.2298 -0.2294  0.5341
 5177SOL    HW126993   3.879   1.357   4.122 -0.7203 -0.1885  0.5521
 5177SOL    HW226994   3.790   1.457   4.060  0.8048  1.8205 -1.6704
 5178SOL     OW26995   2.127   2.094   7.104  0.4907  0.1488 -0.0412
 5178SOL    HW126996   2.188   2.021   7.092 -0.0185  0.2077 -3.1044
 5178SOL    HW226997   2.131   2.144   7.023 -1.4056 -0.4168 -0.4931
 5179SOL     OW26998   0.762   3.374  16.105 -0.2294  0.5947 -0.7199
 5179SOL    HW126999   0.674   3.375  16.142  0.8319  1.9019  1.7705
 5179SOL    HW227000   0.792   3.303  16.162 -3.0901  0.3600  0.5054
 5180SOL     OW27001   2.979   1.366   9.703 -0.2002 -0.3766  0.0815
 5180SOL    HW127002   3.062   1.383   9.749 -1.1694 -0.1123  1.7420
 5180SOL    HW227003   3.008   1.372   9.612 -0.3447 -3.6673 -0.1874
 5181SOL     OW27004   0.154   3.456   3.661  0.0686  0.7403  0.4021
 5181SOL    HW127005   0.116   3.383   3.708 -0.9787 -0.3696 -2.1480
 5181SOL    HW227006   0.169   3.522   3.729  1.3668  1.2293 -0.3497
 5182SOL     OW27007   3.813   2.940  11.491 -0.3280  0.6019  0.3421
 5182SOL    HW127008   3.854   3.012  11.539  0.3053  1.1400 -1.0040
 5182SOL    HW227009   3.859   2.869  11.535 -1.7003 -1.2239 -1.1845
 5183SOL     OW27010   2.472   3.973  10.826  0.5349 -0.3660 -0.0566
 5183SOL    HW127011   2.452   3.918  10.902  1.3834  0.9389  1.1062
 5183SOL    HW227012   2.537   4.031  10.865  0.0542 -1.3928  2.2576
 5184SOL     OW27013   0.576   3.711   4.974  0.5302 -0.4022  0.6033
 5184SOL    HW127014   0.635   3.657   4.922 -0.6124 -0.1941 -0.9117
 5184SOL    HW227015   0.563   3.658   5.053  1.6826 -0.3235  0.8411
 5185SOL     OW27016   1.443   2.601   8.495 -0.4919 -0.0276  0.1845
 5185SOL    HW127017   1.421   2.563   8.580  1.5008 -2.8852 -0.5932
 5185SOL    HW227018   1.358   2.640   8.476  0.7829  2.0320 -1.3027
 5186SOL     OW27019   2.887   2.970  11.380  0.3929  0.1632 -0.1692
 5186SOL    HW127020   2.974   2.998  11.351  0.2104  0.9079 -0.0080
 5186SOL    HW227021   2.907   2.889  11.426  2.5393  0.1073 -1.2077
 5187SOL     OW27022   4.207   2.140  13.339 -0.2782 -0.0107  0.3246
 5187SOL    HW127023   4.183   2.230  13.318 -1.0300 -0.2015  0.3597
 5187SOL    HW227024   4.180   2.100  13.256 -2.5876  3.5004 -0.6511
 5188SOL     OW27025   1.256   2.531  11.548 -0.0049  0.5692 -0.4348
 5188SOL    HW127026   1.324   2.485  11.597 -0.6653 -0.1400 -0.1816
 5188SOL    HW227027   1.274   2.503  11.458  0.9969  1.5315 -0.5319
 5189SOL     OW27028   1.220   0.114   8.749 -0.1230  0.4583 -0.1172
 5189SOL    HW127029   1.228   0.101   8.655  0.0510 -2.6828  0.3191
 5189SOL    HW227030   1.149   0.054   8.775 -0.0531  0.4364  0.0263
 5190SOL     OW27031   4.154   0.422   4.901 -0.3627  0.2138  0.1039
 5190SOL    HW127032   4.114   0.382   4.978  0.2086 -1.6289 -0.5436
 5190SOL    HW227033   4.081   0.473   4.865  1.2725  1.5648 -1.3562
 5191SOL     OW27034   0.099   3.507   0.762  0.3147 -0.3683  0.1648
 5191SOL    HW127035   0.192   3.531   0.763 -0.3451  2.1049  1.2361
 5191SOL    HW227036   0.085   3.497   0.857  1.4442 -0.6091  0.3073
 5192SOL     OW27037   4.284   1.201   6.006 -0.1194 -0.0087  0.2030
 5192SOL    HW127038   4.308   1.190   6.098  0.8059 -1.8309 -0.2572
 5192SOL    HW227039   4.232   1.281   6.000  1.7690  1.0978 -1.4843
 5193SOL     OW27040   0.922   3.291  11.988  0.1536  0.2250  0.5755
 5193SOL    HW127041   0.901   3.207  12.030 -0.5563 -0.0677 -0.3913
 5193SOL    HW227042   0.863   3.344  12.041 -0.1938  1.6843 -1.2937
 5194SOL     OW27043   4.397   2.214   2.508 -0.0400 -0.0286 -0.0991
 5194SOL    HW127044   4.487   2.181   2.507  0.7164  2.0299  1.1718
 5194SOL    HW227045   4.393   2.230   2.413  1.7422  2.8039  0.3285
 5195SOL     OW27046   0.811   4.263   5.113 -0.5954  0.2686  0.5332
 5195SOL    HW127047   0.751   4.268   5.187 -0.7088  1.1617  0.3754
 5195SOL    HW227048   0.845   4.352   5.109  0.6126 -0.2913 -1.9545
 5196SOL     OW27049   0.659   3.655  14.538 -0.0745 -0.1185  0.2080
 5196SOL    HW127050   0.731   3.626  14.593 -0.7037  0.7173  1.4765
 5196SOL    HW227051   0.651   3.584  14.474 -1.3949 -0.5046  0.7922
 5197SOL     OW27052   0.369   1.371   4.603 -0.1801 -0.4081  0.1130
 5197SOL    HW127053   0.386   1.435   4.672 -2.3624  0.8451 -0.5241
 5197SOL    HW227054   0.459   1.366   4.570  0.1017  0.0682  0.8190
 5198SOL     OW27055   4.139   3.080   4.912 -0.2821 -0.2496  0.3824
 5198SOL    HW127056   4.197   3.155   4.926  1.7075 -1.5651 -0.7438
 5198SOL    HW227057   4.123   3.118   4.825 -1.0260  0.3280  0.7672
 5199SOL     OW27058   0.309   1.240  13.548 -0.3275  0.3877  0.0543
 5199SOL    HW127059   0.296   1.286  13.465  0.4507  0.8632  0.1876
 5199SOL    HW227060   0.259   1.160  13.531 -0.5159  0.2930  1.0675
 5200SOL     OW27061   1.660   2.806   4.398  0.1946  0.1259 -0.0933
 5200SOL    HW127062   1.652   2.788   4.491  1.1092 -0.0194 -0.0399
 5200SOL    HW227063   1.714   2.884   4.403  1.8489 -1.0950  1.2675
 5201SOL     OW27064   2.179   3.740  11.282 -0.1414 -0.4825 -0.4275
 5201SOL    HW127065   2.201   3.812  11.340 -3.3983 -0.3036  0.5806
 5201SOL    HW227066   2.151   3.786  11.202 -3.8066 -0.7187  0.7139
 5202SOL     OW27067   2.765   2.775  10.922 -0.3602  0.1443  0.1050
 5202SOL    HW127068   2.806   2.811  10.843 -1.0304  1.8402  0.5408
 5202SOL    HW227069   2.679   2.739  10.900 -0.9350  1.1605  0.6980
 5203SOL     OW27070   0.680   0.156  16.233 -0.1762 -0.0162 -0.3478
 5203SOL    HW127071   0.637   0.238  16.258  2.1223  1.7381 -2.1806
 5203SOL    HW227072   0.748   0.156  16.300 -0.3250  0.8251 -0.1940
 5204SOL     OW27073   0.877   1.087   9.561 -0.1963  0.0197 -0.1248
 5204SOL    HW127074   0.933   1.144   9.508  1.3399  0.8975  2.4589
 5204SOL    HW227075   0.794   1.118   9.524 -0.5621 -0.4531  0.3030
 5205SOL     OW27076   2.828   1.037   9.945 -0.3642  0.7318 -0.1566
 5205SOL    HW127077   2.905   1.088   9.969  0.5262 -0.5387 -0.3012
 5205SOL    HW227078   2.767   1.061  10.014  1.7473  0.5194  1.7849
 5206SOL     OW27079   2.606   2.802  13.336  0.7009  0.1293 -0.2325
 5206SOL    HW127080   2.531   2.768  13.385  0.8933  1.5828  1.0644
 5206SOL    HW227081   2.559   2.873  13.292  1.6869 -0.2148 -1.8465
 5207SOL     OW27082   1.788   3.817   5.636  0.1353 -0.1460  0.1295
 5207SOL    HW127083   1.797   3.875   5.561  1.1742 -1.5609 -0.8300
 5207SOL    HW227084   1.702   3.778   5.618 -0.2886  0.8479  0.0012
 5208SOL     OW27085   3.816   4.420   7.384 -0.2251  0.6311 -0.0858
 5208SOL    HW127086   3.793   4.512   7.372  0.0899  0.7343  0.0864
 5208SOL    HW227087   3.909   4.439   7.399 -0.3294 -0.6666  2.1828
 5209SOL     OW27088   1.596   4.185   0.167  0.7823  0.1467  0.1992
 5209SOL    HW127089   1.688   4.209   0.180  0.2183  2.0787  0.6793
 5209SOL    HW227090   1.610   4.138   0.085 -0.4675 -0.7400  0.5096
 5210SOL     OW27091   2.785   2.679  17.201  0.7243  0.1399  0.1560
 5210SOL    HW127092   2.856   2.738  17.225  1.4233 -0.8147  0.4661
 5210SOL    HW227093   2.830   2.594  17.209  1.8489  0.5669 -1.5218
 5211SOL     OW27094   0.238   3.179  14.273 -0.2562 -0.2074  0.1663
 5211SOL    HW127095   0.241   3.111  14.206  0.9757  0.1456 -0.1401
 5211SOL    HW227096   0.144   3.197  14.280 -0.4431 -2.2335  2.7619
 5212SOL     OW27097   3.628   2.769   4.325  0.4337  0.0086  0.3112
 5212SOL    HW127098   3.700   2.706   4.322  0.6033  0.2265 -0.1688
 5212SOL    HW227099   3.550   2.717   4.304  0.2011 -0.0370  1.2936
 5213SOL     OW27100   2.032   0.427   2.021  0.2511 -0.2991  0.6252
 5213SOL    HW127101   1.948   0.473   2.022  1.6793  2.2880  2.0165
 5213SOL    HW227102   2.094   0.493   2.052 -0.4135 -1.0260  3.4999
 5214SOL     OW27103   4.395   0.634   2.881 -0.2571  0.4171  0.0019
 5214SOL    HW127104   4.435   0.549   2.860  0.8374  1.0715 -0.5679
 5214SOL    HW227105   4.305   0.603   2.876 -0.4667  0.8936  0.9741
 5215SOL     OW27106   1.797   2.314  10.890 -0.2794  0.6503  0.4030
 5215SOL    HW127107   1.837   2.228  10.906 -0.7160 -0.0190 -2.1578
 5215SOL    HW227108   1.747   2.342  10.967 -2.4445 -0.3608 -0.6393
 5216SOL     OW27109   0.743   1.476   6.111 -0.2705 -0.0602 -0.1559
 5216SOL    HW127110   0.707   1.517   6.032 -0.0187 -1.2499 -0.8909
 5216SOL    HW227111   0.814   1.430   6.067  0.6208  1.4836 -0.3425
 5217SOL     OW27112   4.155   1.227  12.066 -0.4073 -0.2227 -0.3862
 5217SOL    HW127113   4.151   1.143  12.021 -0.9963  0.2325 -1.1803
 5217SOL    HW227114   4.182   1.197  12.153  0.4614 -0.5723 -0.7829
 5218SOL     OW27115   3.848   3.519   9.952  1.0173  0.3991  0.3230
 5218SOL    HW127116   3.837   3.539   9.859 -0.0874 -1.7725 -0.0139
 5218SOL    HW227117   3.811   3.602   9.982  2.1662  0.6533  1.0197
 5219SOL     OW27118   1.620   4.388  13.155 -0.3853  0.1070  0.2186
 5219SOL    HW127119   1.637   4.308  13.204  1.6790  0.9442  0.9086
 5219SOL    HW227120   1.603   4.452  13.224 -0.0614 -0.1489  0.5348
 5220SOL     OW27121   0.413   2.181  12.163 -0.2246 -0.3601 -0.5707
 5220SOL    HW127122   0.354   2.187  12.239  0.2635 -1.1585 -0.1379
 5220SOL    HW227123   0.348   2.189  12.093 -1.8186  0.5376  0.9841
 5221SOL     OW27124   1.927   2.557   6.660  0.2458 -0.1104 -0.0156
 5221SOL    HW127125   2.018   2.582   6.644  0.4438 -1.2678 -0.7520
 5221SOL    HW227126   1.899   2.562   6.568  2.5487  0.6595 -0.6820
 5222SOL     OW27127   3.054   0.352   7.288  0.1948  0.1169  0.5264
 5222SOL    HW127128   2.984   0.292   7.262 -0.7925  0.8346  1.5887
 5222SOL    HW227129   3.100   0.350   7.204 -0.7537  0.1929 -0.0024
 5223SOL     OW27130   2.593   0.787   2.885 -0.0689  0.1334  0.3054
 5223SOL    HW127131   2.510   0.739   2.894 -1.0796  1.6525 -0.8377
 5223SOL    HW227132   2.648   0.716   2.918  1.1101  0.6040 -0.6869
 5224SOL     OW27133   0.415   4.631   2.130  0.5085 -0.0170 -0.0202
 5224SOL    HW127134   0.411   4.702   2.194  0.0720  0.1235 -0.2014
 5224SOL    HW227135   0.503   4.597   2.146  0.2793 -0.4486  0.3422
 5225SOL     OW27136   4.604   1.451   8.846 -0.2069  0.2022 -0.1661
 5225SOL    HW127137   4.645   1.370   8.876  1.0550  0.5966 -0.8369
 5225SOL    HW227138   4.530   1.454   8.906  0.2841 -1.1000  0.5045
 5226SOL     OW27139   0.268   2.569   7.333  0.3745 -0.9295 -0.4138
 5226SOL    HW127140   0.327   2.495   7.347  1.7379  0.3692  0.7617
 5226SOL    HW227141   0.187   2.522   7.351  1.1776 -3.2223 -2.7263
 5227SOL     OW27142   0.542   4.607   5.812  0.9417 -0.1647  0.0271
 5227SOL    HW127143   0.521   4.680   5.871  1.5176 -0.0375  0.0806
 5227SOL    HW227144   0.454   4.580   5.788  0.8493 -1.1931  1.5094
 5228SOL     OW27145   3.667   0.587   4.376  0.1375  0.1657  0.6109
 5228SOL    HW127146   3.611   0.626   4.443 -1.7511  1.4635 -1.6960
 5228SOL    HW227147   3.744   0.641   4.391 -0.6273  1.6070 -0.6504
 5229SOL     OW27148   0.279   3.523   2.016  0.7394 -0.4474 -0.5434
 5229SOL    HW127149   0.189   3.544   1.991  0.2746  1.3924  2.6111
 5229SOL    HW227150   0.330   3.598   1.988 -0.2057  1.6991  3.4984
 5230SOL     OW27151   2.709   3.862   9.449  0.3226 -0.2447  0.1701
 5230SOL    HW127152   2.686   3.881   9.540 -0.4436  1.6769 -0.4081
 5230SOL    HW227153   2.622   3.847   9.413 -0.5480  1.9191  1.3377
 5231SOL     OW27154   4.382   4.691   7.982 -0.1891 -0.1515  0.3992
 5231SOL    HW127155   4.415   0.031   8.049  0.4331  1.4179 -1.3309
 5231SOL    HW227156   4.446   4.621   7.974  0.6646  0.5686  0.9984
 5232SOL     OW27157   2.372   3.793   4.937 -0.0337  0.2683 -0.4308
 5232SOL    HW127158   2.297   3.806   4.996  1.7035  0.6276  1.7289
 5232SOL    HW227159   2.435   3.815   5.006 -0.4014  1.2965 -0.4222
 5233SOL     OW27160   1.041   1.368   3.458 -0.0310 -0.0451  0.2086
 5233SOL    HW127161   1.098   1.434   3.418  0.6972 -0.2662  0.8895
 5233SOL    HW227162   0.957   1.412   3.441  0.3632 -0.5123 -3.0705
 5234SOL     OW27163   4.453   1.821   6.016  0.0973  0.0894  0.1975
 5234SOL    HW127164   4.478   1.889   6.078  0.3947  0.2184 -0.0643
 5234SOL    HW227165   4.416   1.753   6.073  0.8080 -1.3683 -1.0832
 5235SOL     OW27166   2.440   1.577   9.479  0.3757 -0.2690 -0.1112
 5235SOL    HW127167   2.367   1.515   9.474 -0.0490  0.2027  0.1614
 5235SOL    HW227168   2.516   1.521   9.462  1.0770  0.5547  0.3307
 5236SOL     OW27169   1.001   3.646  10.522 -0.4821  0.3149  0.4465
 5236SOL    HW127170   1.088   3.631  10.558 -0.5653 -0.8432  0.1731
 5236SOL    HW227171   1.013   3.711  10.452  1.4717 -0.5108  0.0277
 5237SOL     OW27172   2.405   3.314   5.877  0.2994  0.3946  0.0016
 5237SOL    HW127173   2.336   3.316   5.810 -0.2193  2.0180  0.6042
 5237SOL    HW227174   2.378   3.249   5.943  0.9675 -1.0084 -1.0905
 5238SOL     OW27175   0.507   2.891   9.895 -0.5153 -0.1724 -0.2372
 5238SOL    HW127176   0.544   2.831   9.960  3.1030  3.0438  0.6897
 5238SOL    HW227177   0.536   2.859   9.809  1.2978  2.5607 -0.6284
 5239SOL     OW27178   4.536   4.588   7.018  0.0259 -0.2533  0.1180
 5239SOL    HW127179   4.450   4.547   7.024  0.3682 -0.6690  2.1238
 5239SOL    HW227180   4.595   4.514   7.036  0.4452  0.4298  1.5457
 5240SOL     OW27181   3.010   2.590  13.236 -0.7830  0.5953  0.1096
 5240SOL    HW127182   3.024   2.517  13.295 -0.3090  1.3784  0.9538
 5240SOL    HW227183   2.952   2.549  13.172  0.7842 -1.4991  0.0377
 5241SOL     OW27184   1.588   2.751   2.508 -0.1067  0.1017  0.2089
 5241SOL    HW127185   1.602   2.712   2.421 -0.9621 -0.1865  0.1998
 5241SOL    HW227186   1.539   2.826   2.473 -0.9554 -0.8508 -0.6362
 5242SOL     OW27187   2.575   4.080   7.344 -0.3063  0.2168 -0.2312
 5242SOL    HW127188   2.640   4.124   7.289 -1.0748 -1.0772 -2.1749
 5242SOL    HW227189   2.508   4.045   7.284 -1.4239 -0.2972  1.3177
 5243SOL     OW27190   2.237   0.270   1.264 -0.3991  0.0866  0.0018
 5243SOL    HW127191   2.149   0.252   1.231 -0.2133 -0.1316 -0.3664
 5243SOL    HW227192   2.288   0.276   1.184  1.8458 -1.1211  1.3537
 5244SOL     OW27193   2.069   1.045  16.572  0.3645  0.1242 -0.5469
 5244SOL    HW127194   2.014   1.028  16.496  0.2939 -0.8411 -0.2807
 5244SOL    HW227195   2.006   1.078  16.636 -1.4464  0.7323 -2.6606
 5245SOL     OW27196   3.625   2.177  13.803  0.0463 -0.3088 -0.2259
 5245SOL    HW127197   3.577   2.242  13.752  0.5768 -0.3843 -0.8120
 5245SOL    HW227198   3.612   2.222  13.886 -0.9241 -0.6364 -0.1991
 5246SOL     OW27199   2.635   0.536  11.172 -0.5762 -0.2717 -0.4901
 5246SOL    HW127200   2.554   0.548  11.122  0.1343 -0.4737 -1.6853
 5246SOL    HW227201   2.630   0.612  11.230 -0.7923 -1.9050  1.6299
 5247SOL     OW27202   0.319   2.375  13.074 -0.8765 -0.2807 -0.3756
 5247SOL    HW127203   0.339   2.466  13.051 -2.6293 -0.4248 -2.4532
 5247SOL    HW227204   0.251   2.348  13.012 -1.0839  2.1912 -1.2098
 5248SOL     OW27205   3.627   0.287   5.998 -0.2442  0.5700 -0.0476
 5248SOL    HW127206   3.627   0.338   5.917 -1.9418 -0.4182 -0.6723
 5248SOL    HW227207   3.692   0.331   6.052  0.5680 -0.4561 -0.1846
 5249SOL     OW27208   3.898   3.730   2.593 -0.7628 -0.4136 -0.0525
 5249SOL    HW127209   3.942   3.658   2.638 -1.1623  0.3434  1.5346
 5249SOL    HW227210   3.968   3.782   2.554  0.1211  0.2103  2.3472
 5250SOL     OW27211   3.875   2.260   6.019  0.1186 -0.1407  0.1221
 5250SOL    HW127212   3.823   2.276   6.098  0.8596  0.1222  0.5563
 5250SOL    HW227213   3.896   2.167   6.024 -0.1402 -0.2626 -1.0097
 5251SOL     OW27214   3.164   2.857  12.947 -0.1250 -0.3062 -0.2340
 5251SOL    HW127215   3.096   2.920  12.970 -0.7305 -0.4816 -1.5211
 5251SOL    HW227216   3.188   2.805  13.023 -1.4418 -0.8383 -0.1749
 5252SOL     OW27217   1.427   0.101   9.210 -0.2595  0.0320  0.4169
 5252SOL    HW127218   1.331   0.105   9.202 -0.0909  1.1440 -1.0972
 5252SOL    HW227219   1.446   0.019   9.255  0.6614  0.7222  1.2646
 5253SOL     OW27220   0.992   4.298   6.965 -0.0569  0.0724 -0.2042
 5253SOL    HW127221   0.946   4.288   6.881  4.3470 -1.6576 -2.4156
 5253SOL    HW227222   0.998   4.205   6.985 -0.4631  0.4647  1.7362
 5254SOL     OW27223   4.037   2.848   5.384 -0.3667  0.2068  0.0230
 5254SOL    HW127224   3.949   2.882   5.367  0.0224  1.5467  0.7054
 5254SOL    HW227225   4.042   2.780   5.316  1.4792  1.7421 -1.3675
 5255SOL     OW27226   4.363   0.411   3.265 -0.4521 -0.4142  0.0364
 5255SOL    HW127227   4.404   0.484   3.312  2.0527 -2.4598  1.0270
 5255SOL    HW227228   4.305   0.466   3.212 -0.5671 -1.3575 -0.8219
 5256SOL     OW27229   2.008   3.381   4.873 -0.4061 -0.3233  0.2282
 5256SOL    HW127230   1.926   3.386   4.822  0.9136  0.9260 -1.7916
 5256SOL    HW227231   2.063   3.441   4.822  0.5454 -0.5185  1.0345
 5257SOL     OW27232   2.802   3.445  16.728  0.4841  0.4294 -0.3551
 5257SOL    HW127233   2.895   3.459  16.708  0.1268  3.6451  0.2337
 5257SOL    HW227234   2.773   3.529  16.764  1.3137  0.3733  0.4313
 5258SOL     OW27235   4.194   1.413   4.668 -0.3830  0.3833  0.2705
 5258SOL    HW127236   4.132   1.469   4.621  0.3314  0.8708 -0.0844
 5258SOL    HW227237   4.199   1.472   4.743 -0.7156  1.6026 -0.6654
 5259SOL     OW27238   3.085   2.546   2.563  0.1082 -0.2302 -0.3350
 5259SOL    HW127239   3.073   2.458   2.599  0.7906 -0.9928 -2.0132
 5259SOL    HW227240   3.070   2.533   2.470 -0.0812  0.7685 -0.4475
 5260SOL     OW27241   2.597   3.995  12.433  0.4362 -0.2518 -0.0059
 5260SOL    HW127242   2.525   3.942  12.398  0.9070 -0.7134 -0.2715
 5260SOL    HW227243   2.659   3.959  12.369  1.3071  0.5039  0.4105
 5261SOL     OW27244   2.808   3.187   3.612 -0.4710 -0.5754 -0.3879
 5261SOL    HW127245   2.753   3.181   3.690  1.1842 -0.3759  0.7684
 5261SOL    HW227246   2.855   3.104   3.615 -1.3160 -1.0437  0.0566
 5262SOL     OW27247   2.029   2.759   3.578 -0.2059 -0.0267  0.0090
 5262SOL    HW127248   1.987   2.681   3.613 -0.3678 -0.3692 -0.9591
 5262SOL    HW227249   1.995   2.822   3.641  0.7836 -1.1247  1.6386
 5263SOL     OW27250   0.639   1.312   2.371  0.8668  0.2999  0.3679
 5263SOL    HW127251   0.567   1.254   2.393  2.3761 -1.0779  1.7047
 5263SOL    HW227252   0.627   1.333   2.278 -0.2003  1.9183  0.8780
 5264SOL     OW27253   1.579   4.685  16.784  0.9365 -0.3298 -0.1768
 5264SOL    HW127254   1.562   0.032  16.850 -1.6967 -0.7110 -0.4425
 5264SOL    HW227255   1.554   4.604  16.828  1.1223  0.1668  0.8436
 5265SOL     OW27256   4.010   2.671   5.167 -0.4912 -0.2899 -0.5045
 5265SOL    HW127257   4.044   2.707   5.085  1.3226  0.0497  0.3959
 5265SOL    HW227258   4.034   2.579   5.154  1.8168  0.3226 -0.6137
 5266SOL     OW27259   1.341   2.827   6.802  0.3735  0.4853 -0.2723
 5266SOL    HW127260   1.346   2.743   6.756  0.9334  0.3842 -0.0346
 5266SOL    HW227261   1.263   2.814   6.855 -1.2807  0.2473 -2.7759
 5267SOL     OW27262   3.149   0.559   0.996 -0.2322 -0.5966 -0.0346
 5267SOL    HW127263   3.081   0.603   1.047  1.4162  1.9651 -0.0714
 5267SOL    HW227264   3.193   0.635   0.958 -0.5570 -0.8113 -0.8339
 5268SOL     OW27265   0.516   4.138   4.330  0.2445 -0.3903 -0.1001
 5268SOL    HW127266   0.581   4.209   4.329 -0.9632  0.7319  0.1249
 5268SOL    HW227267   0.531   4.092   4.248  0.4151  1.9358 -1.3781
 5269SOL     OW27268   2.375   4.265   3.781 -0.1277 -0.0814 -0.3147
 5269SOL    HW127269   2.288   4.242   3.749 -0.2540  1.3376 -1.0293
 5269SOL    HW227270   2.440   4.217   3.730  0.6296  1.8619 -1.2107
 5270SOL     OW27271   1.307   3.662   2.207  0.0168  0.6969  0.1305
 5270SOL    HW127272   1.394   3.641   2.173  0.1375  2.7397 -0.8215
 5270SOL    HW227273   1.325   3.744   2.253 -2.6364  2.2380 -1.5551
 5271SOL     OW27274   0.204   1.248   8.774 -0.3149  0.3822  0.2072
 5271SOL    HW127275   0.173   1.189   8.705  1.5141 -0.6387  0.2297
 5271SOL    HW227276   0.208   1.187   8.848  3.7356  0.2790 -0.0651
 5272SOL     OW27277   2.237   0.372   9.013 -0.4457 -0.0566 -0.2524
 5272SOL    HW127278   2.328   0.373   9.043 -0.4169 -3.3109 -0.2045
 5272SOL    HW227279   2.241   0.371   8.918 -0.7531 -0.6559 -0.2573
 5273SOL     OW27280   0.352   0.873   7.579  0.5887 -0.2660  0.2037
 5273SOL    HW127281   0.416   0.877   7.508 -0.9618 -1.2517 -1.2670
 5273SOL    HW227282   0.284   0.929   7.543  1.0856  2.0778  2.9615
 5274SOL     OW27283   2.809   4.307  10.432 -0.0889 -0.6407  0.3947
 5274SOL    HW127284   2.889   4.321  10.484 -0.4637 -2.8916  1.5508
 5274SOL    HW227285   2.756   4.372  10.478 -0.7837 -1.9399  1.4324
 5275SOL     OW27286   3.711   3.634   7.420 -0.2772 -0.2160  0.7230
 5275SOL    HW127287   3.750   3.560   7.466  0.7694 -0.9247 -1.3303
 5275SOL    HW227288   3.733   3.711   7.473 -0.8252  0.1269  0.4609
 5276SOL     OW27289   4.097   0.097   4.051 -0.3507 -0.0937  0.0700
 5276SOL    HW127290   4.080   0.018   4.000  1.2541 -1.6481  1.9538
 5276SOL    HW227291   4.192   0.095   4.036 -0.3981  1.8469 -0.5513
 5277SOL     OW27292   4.061   1.944  10.319 -0.6152 -0.6948 -0.2412
 5277SOL    HW127293   4.130   2.006  10.292 -0.9796  0.9384  2.5732
 5277SOL    HW227294   4.099   1.863  10.285 -0.3723 -1.2638  1.4154
 5278SOL     OW27295   0.105   2.542  13.558  0.1831 -0.3336 -0.1867
 5278SOL    HW127296   0.142   2.500  13.480 -0.4979 -1.6876  0.2214
 5278SOL    HW227297   0.170   2.529  13.626  0.5867  0.5828 -0.3945
 5279SOL     OW27298   4.397   4.355   1.931 -0.4048 -0.1556  0.3019
 5279SOL    HW127299   4.330   4.405   1.976 -0.5546 -0.5673  0.5414
 5279SOL    HW227300   4.358   4.268   1.942 -1.6158  0.4361  0.7255
 5280SOL     OW27301   3.873   3.012   6.013 -0.3464  0.3312 -0.1311
 5280SOL    HW127302   3.944   3.040   6.070  0.0358 -0.8048 -0.0415
 5280SOL    HW227303   3.920   3.003   5.930 -2.3366 -1.3791 -1.1026
 5281SOL     OW27304   2.375   3.786   7.768 -0.0972  0.0978  0.3013
 5281SOL    HW127305   2.340   3.703   7.736 -2.1148  0.9906  0.1761
 5281SOL    HW227306   2.355   3.831   7.685 -1.7711 -1.7139 -0.2697
 5282SOL     OW27307   1.786   4.576   8.306 -0.4641  0.0058  0.2388
 5282SOL    HW127308   1.825   4.554   8.221 -1.0060  0.2735 -0.0796
 5282SOL    HW227309   1.860   4.545   8.358 -0.6837  0.3449  0.7569
 5283SOL     OW27310   3.947   0.268   2.334  0.4372  0.1224  0.8221
 5283SOL    HW127311   3.982   0.180   2.328 -0.1249 -0.2119  2.4759
 5283SOL    HW227312   3.982   0.298   2.418  1.3794  0.9240  0.1389
 5284SOL     OW27313   3.006   3.819   2.674 -0.3857 -0.6493  0.6053
 5284SOL    HW127314   3.100   3.800   2.667 -0.4102 -1.1217  1.6926
 5284SOL    HW227315   3.006   3.914   2.659  1.1909 -0.5587  1.1039
 5285SOL     OW27316   1.971   4.433   8.146  0.2406  0.2148 -0.1484
 5285SOL    HW127317   2.014   4.368   8.203 -1.0601  0.3460  0.9836
 5285SOL    HW227318   1.913   4.377   8.095 -0.9112 -0.5815  2.0397
 5286SOL     OW27319   1.922   4.057   2.580 -0.3428 -0.2143  0.1353
 5286SOL    HW127320   1.931   3.982   2.639  0.9046 -0.5026 -0.4214
 5286SOL    HW227321   1.986   4.031   2.514  0.7584 -1.0128  1.5319
 5287SOL     OW27322   2.001   2.602   4.388  0.7358  0.1961  0.5590
 5287SOL    HW127323   2.091   2.586   4.358  0.3411  0.9793 -1.0836
 5287SOL    HW227324   2.025   2.679   4.441  3.8285  0.4361 -1.1823
 5288SOL     OW27325   0.877   4.173  10.088  0.1943  0.3671 -0.2918
 5288SOL    HW127326   0.954   4.122  10.112 -1.2840 -2.1249 -0.7983
 5288SOL    HW227327   0.813   4.123  10.138  0.2905  1.4137  0.8802
 5289SOL     OW27328   2.283   0.140   4.776 -0.1184 -0.0096  0.1028
 5289SOL    HW127329   2.263   0.224   4.818 -0.6018  0.3568 -0.8503
 5289SOL    HW227330   2.333   0.097   4.845  2.0071  2.0598 -0.1240
 5290SOL     OW27331   2.900   3.650   7.043  0.1694 -0.5550 -0.1725
 5290SOL    HW127332   2.824   3.594   7.027 -0.4683 -0.1851  1.5508
 5290SOL    HW227333   2.917   3.688   6.956 -1.3956 -1.9925 -1.0975
 5291SOL     OW27334   2.746   2.084   9.664  0.0899 -0.0471 -0.7354
 5291SOL    HW127335   2.786   2.164   9.630  1.1753  0.4864  1.7621
 5291SOL    HW227336   2.750   2.106   9.757  0.4288  0.7142 -0.9332
 5292SOL     OW27337   2.786   1.443   5.661 -0.0564  0.0341  0.4079
 5292SOL    HW127338   2.832   1.409   5.584 -1.7887 -2.3077  0.3910
 5292SOL    HW227339   2.848   1.499   5.707  0.9683 -0.6858 -0.0984
 5293SOL     OW27340   3.152   1.962   9.803 -0.5706 -0.1118  0.1406
 5293SOL    HW127341   3.093   1.892   9.776 -1.8294  1.2126 -0.5622
 5293SOL    HW227342   3.157   2.001   9.716  1.2633 -1.1620 -0.2232
 5294SOL     OW27343   2.968   2.336   7.836 -0.3288 -0.2707  0.2367
 5294SOL    HW127344   2.948   2.286   7.915 -0.3616  0.7271  0.8671
 5294SOL    HW227345   3.006   2.273   7.774  0.6839  0.5514  0.0105
 5295SOL     OW27346   4.464   1.468  12.615 -0.1259  0.2513 -0.3839
 5295SOL    HW127347   4.476   1.423  12.699 -1.8685 -0.9027 -0.7332
 5295SOL    HW227348   4.467   1.388  12.562  0.5224  0.9535 -1.4066
 5296SOL     OW27349   0.031   3.138   3.391 -0.4029 -0.4188  0.1472
 5296SOL    HW127350   0.074   3.115   3.473  0.8101 -1.7572 -0.8483
 5296SOL    HW227351   4.665   3.158   3.426 -0.2011  0.6779  0.0110
 5297SOL     OW27352   1.371   3.224   0.839  0.4034  0.1560 -0.5039
 5297SOL    HW127353   1.321   3.143   0.832 -0.6603  0.6786  1.2442
 5297SOL    HW227354   1.422   3.212   0.919 -1.8444 -2.3950  0.5295
 5298SOL     OW27355   1.424   4.625   2.877  0.0681  0.5382  0.3500
 5298SOL    HW127356   1.431   4.544   2.927  2.8703  0.0193 -0.9121
 5298SOL    HW227357   1.490   4.682   2.916 -0.1522  2.0749 -1.5251
 5299SOL     OW27358   4.232   4.568   4.770 -0.1272 -0.4656  0.3251
 5299SOL    HW127359   4.187   4.530   4.846 -0.8963 -0.3092 -0.0597
 5299SOL    HW227360   4.159   4.575   4.709 -0.9132 -0.3403  1.2695
 5300SOL     OW27361   4.384   4.107   5.710  0.6078 -0.1374  0.0810
 5300SOL    HW127362   4.371   4.201   5.727 -1.3019 -0.1348 -1.4837
 5300SOL    HW227363   4.452   4.110   5.643  2.7802  1.3480  2.3353
 5301SOL     OW27364   4.426   3.398   9.494  0.1692 -0.2001 -0.0055
 5301SOL    HW127365   4.478   3.401   9.414 -1.4984 -1.4463 -1.1260
 5301SOL    HW227366   4.490   3.362   9.555  0.3983  2.2588  1.2391
 5302SOL     OW27367   4.321   1.201  13.152 -0.5864 -0.2499 -0.3243
 5302SOL    HW127368   4.231   1.193  13.183 -0.0686  0.5163  1.3640
 5302SOL    HW227369   4.303   1.252  13.073 -2.3249 -1.7864 -0.9080
 5303SOL     OW27370   0.730   4.594   5.318 -0.2813 -0.0016 -0.2536
 5303SOL    HW127371   0.792   4.586   5.246 -0.5850  0.3455 -0.5548
 5303SOL    HW227372   0.659   4.538   5.286 -0.0497 -1.0575  1.0920
 5304SOL     OW27373   4.364   2.967  16.945  0.0327 -0.2583 -0.3113
 5304SOL    HW127374   4.280   2.931  16.973 -0.8966  0.4538 -2.1619
 5304SOL    HW227375   4.398   2.987  17.033 -0.6721 -0.7261  0.0731
 5305SOL     OW27376   4.066   1.972   8.370  0.2400  0.0852  0.3026
 5305SOL    HW127377   3.973   1.953   8.361  0.9112 -2.1599 -1.5993
 5305SOL    HW227378   4.070   2.008   8.459 -1.1646  0.0929  0.3723
 5306SOL     OW27379   0.461   4.173   5.113 -0.6019 -0.1541 -0.1622
 5306SOL    HW127380   0.511   4.123   5.049  1.1970  0.5939  0.6666
 5306SOL    HW227381   0.405   4.106   5.154  1.2734 -1.9436 -0.5697
 5307SOL     OW27382   1.095   3.062   4.810  0.1363 -0.4314 -0.1896
 5307SOL    HW127383   1.188   3.055   4.828 -0.0531  2.7243  2.0634
 5307SOL    HW227384   1.075   3.145   4.854 -0.3545 -0.1327 -0.9842
 5308SOL     OW27385   1.056   2.009   3.103 -0.2504  0.2131 -0.5994
 5308SOL    HW127386   1.095   2.096   3.100  0.8479 -0.3290 -2.0349
 5308SOL    HW227387   1.011   2.009   3.188 -0.9684 -0.8710 -0.9798
 5309SOL     OW27388   0.946   2.704  13.701  0.4558  0.0684  0.5518
 5309SOL    HW127389   0.952   2.799  13.690  2.1885 -0.2507 -1.1097
 5309SOL    HW227390   1.021   2.664  13.659  1.1654  1.7057  0.2636
 5310SOL     OW27391   0.612   3.778   3.397  0.0056  0.2836  0.2401
 5310SOL    HW127392   0.678   3.830   3.351 -1.3684 -1.2139 -3.3958
 5310SOL    HW227393   0.552   3.849   3.419 -0.4895 -0.7446  2.2203
 5311SOL     OW27394   4.179   2.133   6.522  0.1447 -0.1621  1.0759
 5311SOL    HW127395   4.154   2.186   6.598  0.8433  0.1198  1.1018
 5311SOL    HW227396   4.128   2.054   6.542  0.7972 -0.9424 -0.3783
 5312SOL     OW27397   2.521   4.683   1.031 -0.0453 -0.2510  0.0994
 5312SOL    HW127398   2.562   0.046   1.010 -0.3181 -0.4324 -1.1091
 5312SOL    HW227399   2.487   4.702   1.119 -0.1168 -0.6323  0.1577
 5313SOL     OW27400   1.579   1.326   6.566 -0.3182  0.1172 -0.2199
 5313SOL    HW127401   1.627   1.401   6.601 -2.1295  1.5264 -0.6883
 5313SOL    HW227402   1.533   1.356   6.487  0.5295 -0.5164 -0.9520
 5314SOL     OW27403   4.550   2.035  16.498 -0.1236 -0.3803 -0.5790
 5314SOL    HW127404   4.626   2.049  16.556 -0.8782  1.7885 -0.1098
 5314SOL    HW227405   4.583   2.047  16.409  1.2350 -0.9803 -0.1612
 5315SOL     OW27406   1.973   0.760  12.429 -0.2604  0.4033  0.2046
 5315SOL    HW127407   1.946   0.675  12.465  0.4609 -0.0421 -0.2912
 5315SOL    HW227408   1.914   0.824  12.468 -2.7651 -1.8327  0.0942
 5316SOL     OW27409   4.010   2.735  16.858  0.1486 -0.1199 -1.0346
 5316SOL    HW127410   4.075   2.768  16.919 -0.9238  1.6167 -0.8343
 5316SOL    HW227411   3.928   2.748  16.905  1.1180 -2.0912  1.1649
 5317SOL     OW27412   3.413   3.622   1.149 -0.0441 -0.4767  0.0902
 5317SOL    HW127413   3.433   3.574   1.069  1.4035  1.5570 -0.7705
 5317SOL    HW227414   3.489   3.610   1.206  1.7682 -0.2812 -2.2963
 5318SOL     OW27415   0.640   4.273  14.401  0.5426 -0.1908 -0.1564
 5318SOL    HW127416   0.708   4.227  14.352  0.7023  0.4878 -0.5717
 5318SOL    HW227417   0.683   4.355  14.423 -2.0206  1.3196 -0.8523
 5319SOL     OW27418   1.235   3.009   7.074  0.3484 -0.5845  0.6032
 5319SOL    HW127419   1.276   3.043   6.995  2.8499  0.5224  2.3780
 5319SOL    HW227420   1.308   2.965   7.118 -1.4821 -2.6566  1.5692
 5320SOL     OW27421   2.894   1.806   9.681 -0.2583 -0.3509  0.0678
 5320SOL    HW127422   2.834   1.735   9.702  2.2230 -1.3574  3.7928
 5320SOL    HW227423   2.843   1.879   9.716  0.6769 -0.9264  2.6465
 5321SOL     OW27424   0.860   3.799   5.923 -0.3774 -0.0724 -0.2363
 5321SOL    HW127425   0.815   3.821   5.841  1.3755  2.0761 -0.6370
 5321SOL    HW227426   0.816   3.717   5.944  1.0228 -0.5068  1.0178
 5322SOL     OW27427   2.003   4.659   5.722 -0.0169  0.3016 -0.3342
 5322SOL    HW127428   1.922   4.655   5.670 -0.5263 -0.4005  0.5104
 5322SOL    HW227429   2.031   4.570   5.704 -0.5979  0.0508  0.0080
 5323SOL     OW27430   4.401   0.805   4.255 -0.9472 -0.0343 -0.7261
 5323SOL    HW127431   4.424   0.748   4.328 -0.3360 -0.1709 -1.0273
 5323SOL    HW227432   4.348   0.875   4.294  0.4743  0.5415  0.1612
 5324SOL     OW27433   0.050   4.220   6.081  0.6108 -0.8393  0.1131
 5324SOL    HW127434   0.020   4.309   6.097  3.4757  0.7077 -3.2206
 5324SOL    HW227435   0.006   4.174   6.153  1.4360  0.9256  1.7236
 5325SOL     OW27436   1.151   2.676   4.686 -0.0531  0.1347  0.0649
 5325SOL    HW127437   1.115   2.615   4.751 -0.0462 -0.0589 -0.1160
 5325SOL    HW227438   1.236   2.698   4.723 -0.2374  1.5004 -0.3210
 5326SOL     OW27439   3.439   0.128   1.180  0.5390  0.1476  0.3124
 5326SOL    HW127440   3.526   0.113   1.217  0.6997 -0.2213 -0.2100
 5326SOL    HW227441   3.427   0.037   1.153  1.5851  0.3700 -0.9187
 5327SOL     OW27442   3.814   4.634   4.295  0.1040 -0.1241 -0.1270
 5327SOL    HW127443   3.876   4.705   4.312 -1.2466 -0.0954  4.7268
 5327SOL    HW227444   3.737   4.677   4.334 -0.6558 -2.7801  1.2652
 5328SOL     OW27445   2.563   2.445   8.626 -0.1670 -0.2866 -0.1399
 5328SOL    HW127446   2.580   2.538   8.609  3.3458 -1.3403 -2.2393
 5328SOL    HW227447   2.653   2.414   8.632  0.1571  0.4665 -1.0586
 5329SOL     OW27448   4.079   0.746  15.765 -0.1841 -0.5248 -0.0122
 5329SOL    HW127449   4.167   0.767  15.796 -0.9867  3.6245 -0.6233
 5329SOL    HW227450   4.044   0.819  15.817  0.2294 -0.8462  0.7217
 5330SOL     OW27451   1.494   3.757   8.844  0.0206  0.2406  0.1705
 5330SOL    HW127452   1.495   3.794   8.933  0.5980  0.4895  0.0602
 5330SOL    HW227453   1.525   3.668   8.860  1.7847  1.0069  1.1050
 5331SOL     OW27454   1.050   3.245  10.763  0.4241 -0.6424  0.4849
 5331SOL    HW127455   1.135   3.284  10.780 -0.6255  1.9720 -0.2252
 5331SOL    HW227456   1.072   3.230  10.671  0.3282 -1.6836  0.6338
 5332SOL     OW27457   0.350   2.178   7.048  0.0599  0.2656 -0.5438
 5332SOL    HW127458   0.425   2.155   7.102  1.1518 -0.2816 -2.2913
 5332SOL    HW227459   0.382   2.159   6.959 -0.0902  0.4346 -0.6355
 5333SOL     OW27460   3.255   3.820   7.904 -0.4926  0.3823 -0.6499
 5333SOL    HW127461   3.275   3.858   7.818 -1.0012 -0.9339 -1.3483
 5333SOL    HW227462   3.340   3.813   7.948  0.3267  0.9264 -2.1380
 5334SOL     OW27463   3.765   0.765   6.733 -0.0057  0.6057 -0.3688
 5334SOL    HW127464   3.786   0.672   6.741 -0.0156  0.7814  1.7085
 5334SOL    HW227465   3.852   0.805   6.740  2.5860 -4.8087 -2.2720
 5335SOL     OW27466   2.368   1.401  15.784  0.0446 -0.3102  0.7521
 5335SOL    HW127467   2.294   1.397  15.725  0.2293  0.1377  0.4901
 5335SOL    HW227468   2.349   1.462  15.855 -0.6808  1.0925 -0.6555
 5336SOL     OW27469   3.588   1.614   8.682  0.2092 -0.4808 -0.0772
 5336SOL    HW127470   3.563   1.547   8.745 -1.0883 -0.4540 -0.5655
 5336SOL    HW227471   3.512   1.650   8.636  0.5640  0.9658  0.4599
 5337SOL     OW27472   0.215   4.065   5.243  0.5209  0.2070  0.3711
 5337SOL    HW127473   0.194   3.974   5.222  1.6309 -0.3600  1.6943
 5337SOL    HW227474   0.129   4.094   5.273  0.8701  1.8436 -0.2249
 5338SOL     OW27475   1.526   0.446   7.025 -0.1607 -0.1117 -0.1786
 5338SOL    HW127476   1.575   0.485   6.953 -2.0378  3.0163  0.2014
 5338SOL    HW227477   1.516   0.521   7.084  2.1250 -0.9062  1.1993
 5339SOL     OW27478   4.403   3.981   7.341 -0.0241 -0.2156 -0.1849
 5339SOL    HW127479   4.335   3.920   7.368  0.6227 -0.6027  0.5637
 5339SOL    HW227480   4.365   4.069   7.337  2.6117  0.9620  0.2066
 5340SOL     OW27481   1.194   3.511   8.005 -0.0185 -0.0454  0.1152
 5340SOL    HW127482   1.252   3.546   8.073  0.4949  0.2077 -0.4542
 5340SOL    HW227483   1.187   3.588   7.948 -0.7412 -0.3398 -0.1879
 5341SOL     OW27484   4.385   2.509   4.539  0.6720 -0.0079 -0.5335
 5341SOL    HW127485   4.450   2.461   4.488  0.8534 -0.7116  0.3590
 5341SOL    HW227486   4.419   2.514   4.628  3.3612 -0.4355 -1.5429
 5342SOL     OW27487   3.638   1.402   2.266 -0.7708  0.3029 -0.2512
 5342SOL    HW127488   3.594   1.323   2.237  0.3143 -1.0029  1.6523
 5342SOL    HW227489   3.722   1.392   2.222 -1.4465  2.8203 -2.1358
 5343SOL     OW27490   0.609   0.244   5.625 -0.4879  0.4574 -0.5616
 5343SOL    HW127491   0.650   0.298   5.692 -1.8016  1.2251 -0.3794
 5343SOL    HW227492   0.683   0.187   5.602 -0.5033  0.2257 -0.0374
 5344SOL     OW27493   4.212   0.211   5.365 -0.6759 -0.0807 -0.6791
 5344SOL    HW127494   4.270   0.282   5.335  0.1517  0.1247  1.3969
 5344SOL    HW227495   4.248   0.129   5.331  1.4181  0.4721  0.2227
 5345SOL     OW27496   0.597   1.337   2.109 -0.3430  0.3705  0.2103
 5345SOL    HW127497   0.539   1.291   2.049 -0.9079  0.9512  0.3101
 5345SOL    HW227498   0.649   1.385   2.045  0.4629 -0.9326 -0.1183
 5346SOL     OW27499   3.620   0.840  15.570 -0.5525 -0.2704 -0.3131
 5346SOL    HW127500   3.593   0.899  15.499 -1.2671 -1.0235 -0.6733
 5346SOL    HW227501   3.534   0.811  15.600  0.0022  1.8357  3.1953
 5347SOL     OW27502   4.695   3.618   1.594 -0.8811  0.1111  0.4082
 5347SOL    HW127503   4.710   3.606   1.688 -2.7746  0.6915  0.7918
 5347SOL    HW227504   4.661   3.707   1.587 -1.0353 -0.1907 -2.7885
 5348SOL     OW27505   0.814   4.208   6.392  0.6458  0.1188  0.3179
 5348SOL    HW127506   0.733   4.183   6.347  0.7842 -1.5183  1.0141
 5348SOL    HW227507   0.772   4.172   6.470  2.5925  2.6675  2.5608
 5349SOL     OW27508   3.176   1.475   1.589  0.0619  0.4901  0.5196
 5349SOL    HW127509   3.222   1.557   1.572 -1.2297  1.5257  2.0813
 5349SOL    HW227510   3.147   1.459   1.500  0.9224 -1.7969  0.6349
 5350SOL     OW27511   2.868   0.086   5.171  0.0198 -0.1293 -0.1285
 5350SOL    HW127512   2.898   0.120   5.086 -0.0058  0.6871  0.1919
 5350SOL    HW227513   2.843   0.168   5.213 -0.2695  1.3536 -3.1677
 5351SOL     OW27514   4.168   1.838   4.918  0.3481  0.1734 -0.2735
 5351SOL    HW127515   4.144   1.877   5.002 -1.7046 -1.5844 -0.0640
 5351SOL    HW227516   4.159   1.909   4.853 -1.5943 -0.1103 -0.3094
 5352SOL     OW27517   4.035   3.253  17.296  0.0937 -0.7508 -0.0869
 5352SOL    HW127518   3.986   3.314  17.241  1.4194  0.7388  0.4001
 5352SOL    HW227519   4.103   3.317  17.315  0.4240 -1.0207 -0.3456
 5353SOL     OW27520   2.544   4.115   3.600  0.1903  0.0371 -0.2609
 5353SOL    HW127521   2.608   4.144   3.665  1.9375 -4.1236 -0.0627
 5353SOL    HW227522   2.525   4.024   3.626 -0.6636  0.0519 -0.8623
 5354SOL     OW27523   0.284   3.582   6.577 -0.8701 -0.2999 -0.1636
 5354SOL    HW127524   0.206   3.574   6.633 -0.5113  1.0028  0.5239
 5354SOL    HW227525   0.247   3.555   6.493 -2.0593 -1.2094  0.6541
 5355SOL     OW27526   3.540   3.393   9.974  0.0594 -0.3969  0.3410
 5355SOL    HW127527   3.499   3.406  10.060 -1.8373  1.5505 -0.8551
 5355SOL    HW227528   3.575   3.482   9.966  3.1611 -1.5371  1.5032
 5356SOL     OW27529   3.410   1.700   3.327 -0.3836  0.3481 -0.1809
 5356SOL    HW127530   3.359   1.759   3.271  0.2388 -0.1104 -1.2375
 5356SOL    HW227531   3.351   1.637   3.369 -0.7984 -1.7134 -3.8474
 5357SOL     OW27532   0.443   4.088   6.463  0.4919  0.3115  0.4165
 5357SOL    HW127533   0.488   4.125   6.387  0.8780 -0.3506  0.3283
 5357SOL    HW227534   0.379   4.039   6.412 -1.1067  1.7094  1.0679
 5358SOL     OW27535   1.507   3.810   8.355  0.0505 -0.0693  0.1477
 5358SOL    HW127536   1.462   3.891   8.331 -0.9028 -1.2503 -2.0939
 5358SOL    HW227537   1.435   3.749   8.343 -0.7548  1.0451 -0.6601
 5359SOL     OW27538   2.193   3.938  16.822 -0.5121 -0.1405  0.1966
 5359SOL    HW127539   2.264   3.915  16.762  0.9639  0.1718  1.8316
 5359SOL    HW227540   2.109   3.913  16.786 -0.3597  1.9871 -1.6423
 5360SOL     OW27541   1.015   1.561   3.937  0.5638 -0.3752  0.5377
 5360SOL    HW127542   1.039   1.571   3.845  1.9993  0.5111  1.0085
 5360SOL    HW227543   0.964   1.641   3.947  0.0484 -0.3356 -2.5045
 5361SOL     OW27544   2.844   2.911   4.754 -0.7393  0.4853  0.0727
 5361SOL    HW127545   2.896   2.854   4.812  1.0680 -0.5374 -2.5607
 5361SOL    HW227546   2.884   2.897   4.668  2.3673 -0.8488  1.6981
 5362SOL     OW27547   1.411   2.256  13.193  0.3308 -0.6469 -0.1926
 5362SOL    HW127548   1.428   2.345  13.162 -0.4119 -0.8453 -1.1694
 5362SOL    HW227549   1.385   2.266  13.284 -2.9603  2.8035 -1.5435
 5363SOL     OW27550   3.319   3.048   9.262  0.1582 -0.3757  0.1052
 5363SOL    HW127551   3.340   3.066   9.354 -2.1730 -0.3646  0.6555
 5363SOL    HW227552   3.236   3.001   9.267  0.2510 -0.8062 -2.4727
 5364SOL     OW27553   0.034   3.841   5.762  0.3616 -0.4308 -0.0826
 5364SOL    HW127554   0.017   3.934   5.777  0.4204 -0.2747 -0.9956
 5364SOL    HW227555   0.108   3.855   5.703  0.5260  1.7675  0.6601
 5365SOL     OW27556   2.711   1.034   3.650 -0.1712  0.0868  0.4447
 5365SOL    HW127557   2.665   1.107   3.609 -0.6070  0.9199  2.4116
 5365SOL    HW227558   2.771   1.019   3.577 -1.8694  0.1587 -0.9530
 5366SOL     OW27559   3.724   0.914   4.830 -0.2010  0.2346 -0.5315
 5366SOL    HW127560   3.659   0.843   4.825 -1.9141  1.6058  1.9644
 5366SOL    HW227561   3.750   0.913   4.923  1.0436  0.7992 -0.8739
 5367SOL     OW27562   3.413   2.870  10.708  0.0989  0.7882  0.1146
 5367SOL    HW127563   3.322   2.843  10.719  0.2438 -0.8852 -2.7211
 5367SOL    HW227564   3.402   2.962  10.730  0.0437  0.9133 -0.4337
 5368SOL     OW27565   1.223   3.929   8.413  0.5255 -0.0694  0.3812
 5368SOL    HW127566   1.171   3.954   8.490 -0.4475  0.0558 -0.3179
 5368SOL    HW227567   1.262   4.011   8.385  2.2245 -1.6584 -1.8508
 5369SOL     OW27568   4.698   0.940   4.734 -0.6383 -0.0367  0.1778
 5369SOL    HW127569   0.026   0.914   4.813  1.0387 -0.6949 -1.0530
 5369SOL    HW227570   4.624   0.880   4.742  1.4176 -2.7506 -1.3285
 5370SOL     OW27571   4.474   4.065   0.625 -0.2095 -0.7818 -0.4758
 5370SOL    HW127572   4.417   4.030   0.693  0.1326 -0.9537 -0.2751
 5370SOL    HW227573   4.452   4.158   0.618 -2.2069 -1.0995  1.6380
 5371SOL     OW27574   2.899   0.981  15.652  0.3149 -0.3166  0.4997
 5371SOL    HW127575   2.972   0.932  15.615  0.2291 -1.3512  1.7000
 5371SOL    HW227576   2.870   0.919  15.719 -0.2107 -1.3802 -0.7449
 5372SOL     OW27577   3.474   4.586  15.110  0.5426 -0.4941 -0.1912
 5372SOL    HW127578   3.498   4.494  15.098 -1.0464 -0.9325  0.0281
 5372SOL    HW227579   3.550   4.623  15.155  0.9087 -2.7148  1.0438
 5373SOL     OW27580   3.522   0.354   8.001 -0.5908 -0.6030 -0.3704
 5373SOL    HW127581   3.489   0.370   8.090 -0.6734  0.2448 -0.5559
 5373SOL    HW227582   3.593   0.418   8.001 -1.4965  0.3932  0.4894
 5374SOL     OW27583   2.766   2.427  11.678 -0.2841 -0.3789 -0.4942
 5374SOL    HW127584   2.771   2.463  11.590 -2.5805  1.3600  0.0729
 5374SOL    HW227585   2.782   2.333  11.669  0.2307 -0.1410 -1.9997
 5375SOL     OW27586   0.743   4.579   8.887  0.0015  0.0272 -0.6966
 5375SOL    HW127587   0.653   4.600   8.865 -0.5391 -3.9007 -2.1065
 5375SOL    HW227588   0.736   4.485   8.903 -1.6060  0.2434 -0.1169
 5376SOL     OW27589   3.465   4.213  11.635  0.1207  0.6267  0.0639
 5376SOL    HW127590   3.489   4.203  11.727  3.5726 -0.0667 -0.9161
 5376SOL    HW227591   3.535   4.269  11.603 -0.5110  1.0121 -0.6489
 5377SOL     OW27592   2.524   1.900   7.533  0.2329  0.1145 -0.3244
 5377SOL    HW127593   2.615   1.882   7.510 -0.3833 -0.8621 -2.0271
 5377SOL    HW227594   2.473   1.821   7.518 -0.6241  0.8489 -1.2922
 5378SOL     OW27595   1.414   3.115   3.300 -0.2614  0.2456  0.1403
 5378SOL    HW127596   1.456   3.075   3.377 -0.0668  0.1769 -0.0020
 5378SOL    HW227597   1.330   3.139   3.339  1.3350 -1.1363  4.5076
 5379SOL     OW27598   1.418   2.276  10.983  0.0397  0.9738  0.2658
 5379SOL    HW127599   1.445   2.258  11.073  1.6802  1.0405 -0.2166
 5379SOL    HW227600   1.491   2.313  10.933 -1.1786  0.5122 -1.8587
 5380SOL     OW27601   4.147   3.562   6.174 -0.2339  0.5190 -0.1232
 5380SOL    HW127602   4.070   3.595   6.220 -0.1440  0.3389  0.1612
 5380SOL    HW227603   4.213   3.619   6.213 -0.6752 -0.2987  1.8227
 5381SOL     OW27604   3.571   2.946   3.123  0.6183  0.0875  0.1793
 5381SOL    HW127605   3.656   2.902   3.117  0.5839  0.0592 -0.0991
 5381SOL    HW227606   3.609   3.031   3.144  0.7556  0.0749 -0.0142
 5382SOL     OW27607   1.406   0.963   7.183  0.3224 -0.1720 -0.1918
 5382SOL    HW127608   1.390   1.027   7.115  0.3130  2.5712  2.3715
 5382SOL    HW227609   1.500   0.965   7.198  0.3630 -0.9285 -0.3085
 5383SOL     OW27610   3.340   2.771   2.127 -0.0052 -0.4676 -0.0043
 5383SOL    HW127611   3.298   2.854   2.151  0.6200  0.5256 -2.2517
 5383SOL    HW227612   3.364   2.769   2.034  1.3416  1.7957  0.2914
 5384SOL     OW27613   4.264   3.311   6.412  0.0394  0.0010  0.1127
 5384SOL    HW127614   4.350   3.352   6.421  0.8768 -1.5097 -1.0794
 5384SOL    HW227615   4.275   3.230   6.462 -1.0449  0.3172  0.8473
 5385SOL     OW27616   0.285   1.853   4.206 -0.2266  0.3984 -0.2429
 5385SOL    HW127617   0.232   1.815   4.136 -0.9066 -0.3388  0.6728
 5385SOL    HW227618   0.372   1.815   4.197  0.4222  1.5684  1.0681
 5386SOL     OW27619   4.336   0.323  14.691  0.0674 -0.6399 -0.5238
 5386SOL    HW127620   4.242   0.331  14.672 -0.2840 -1.2301  0.8891
 5386SOL    HW227621   4.363   0.359  14.607  0.5712  1.4589  0.5410
 5387SOL     OW27622   4.580   1.202   1.931  0.6228  0.7387 -0.4553
 5387SOL    HW127623   4.588   1.258   2.008 -1.6952 -0.7351  0.8624
 5387SOL    HW227624   4.524   1.134   1.967  0.2626  1.5197  0.4589
 5388SOL     OW27625   1.624   3.470   1.326  0.1173 -0.0353  0.2154
 5388SOL    HW127626   1.636   3.390   1.276 -1.1017 -0.1889  0.1596
 5388SOL    HW227627   1.617   3.438   1.417 -0.9384  2.9822  1.1862
 5389SOL     OW27628   2.634   4.687   8.569 -0.4331 -0.1719 -0.1045
 5389SOL    HW127629   2.577   0.008   8.503 -2.2630 -0.4989  1.2938
 5389SOL    HW227630   2.603   4.597   8.565  1.5418 -0.8566  0.2083
 5390SOL     OW27631   1.372   4.428   9.186 -0.0463 -0.0471 -0.0622
 5390SOL    HW127632   1.314   4.481   9.131  2.1576  2.3532 -0.0865
 5390SOL    HW227633   1.453   4.422   9.135 -1.2772 -2.4971 -1.7232
 5391SOL     OW27634   4.254   1.966   4.391 -0.2417  0.1651  0.3915
 5391SOL    HW127635   4.338   1.978   4.347 -1.5438  1.4746 -1.7642
 5391SOL    HW227636   4.203   2.042   4.362  0.3287  0.6210  0.5914
 5392SOL     OW27637   2.126   0.325   6.693  0.2984 -0.7013  0.5555
 5392SOL    HW127638   2.048   0.354   6.740  0.9947  1.5908  0.2602
 5392SOL    HW227639   2.192   0.394   6.697 -1.1016  0.5053  2.8842
 5393SOL     OW27640   2.180   2.225  15.179  0.3017  0.6628 -0.1201
 5393SOL    HW127641   2.140   2.145  15.215  2.6050 -0.2345  0.5084
 5393SOL    HW227642   2.186   2.201  15.087 -0.4609  1.0261 -0.2568
 5394SOL     OW27643   4.108   2.708   3.280  0.6198 -0.2898 -0.0465
 5394SOL    HW127644   4.140   2.789   3.241  0.1437 -0.2437 -0.3378
 5394SOL    HW227645   4.176   2.674   3.339  1.4758 -0.2386 -1.0051
 5395SOL     OW27646   0.090   4.671   6.148 -0.0697 -0.1232  0.1668
 5395SOL    HW127647   0.032   4.613   6.100  0.8204  1.2303 -2.5197
 5395SOL    HW227648   0.034   4.676   6.225  0.4737 -1.7727  0.6727
 5396SOL     OW27649   0.294   2.876   5.175 -0.0905 -0.0865 -0.6229
 5396SOL    HW127650   0.354   2.828   5.232 -0.3782  2.0722  1.5306
 5396SOL    HW227651   0.211   2.834   5.196  0.6822 -1.5688 -0.5255
 5397SOL     OW27652   3.122   3.735  15.946  0.5771  0.4409  0.2466
 5397SOL    HW127653   3.142   3.758  16.037  1.4581  2.3836 -0.4313
 5397SOL    HW227654   3.195   3.772  15.896  0.8399 -1.3492 -0.6909
 5398SOL     OW27655   4.079   3.321  10.132  0.9135 -0.4078  0.3284
 5398SOL    HW127656   4.102   3.410  10.106  1.2094 -0.5995 -0.0681
 5398SOL    HW227657   4.036   3.288  10.052  0.9612  1.1343 -0.3300
 5399SOL     OW27658   1.680   4.326  12.891 -0.3908 -0.1970 -0.0969
 5399SOL    HW127659   1.625   4.251  12.869  1.1704 -1.3726  0.0243
 5399SOL    HW227660   1.653   4.348  12.981 -2.0273  1.0548 -0.8916
 5400SOL     OW27661   0.422   1.626   6.680  0.1230  0.0167  0.0098
 5400SOL    HW127662   0.457   1.671   6.757  0.3629 -0.5955  0.2626
 5400SOL    HW227663   0.328   1.640   6.688 -0.1905 -0.3389 -2.9071
 5401SOL     OW27664   1.104   3.702   5.904  0.1969 -0.7153  0.7080
 5401SOL    HW127665   1.144   3.735   5.823 -1.8490  0.7309  0.2967
 5401SOL    HW227666   1.018   3.744   5.902  1.8310  2.6253  1.3821
 5402SOL     OW27667   3.486   2.947  13.889 -0.4363  0.7975  0.0135
 5402SOL    HW127668   3.451   2.904  13.811 -2.5331  3.3429 -0.4648
 5402SOL    HW227669   3.499   2.869  13.943  2.0206  1.0070 -0.2875
 5403SOL     OW27670   3.924   2.216   4.951 -0.0411 -0.6265  0.4532
 5403SOL    HW127671   3.924   2.192   5.044  0.1746 -1.0152  0.3519
 5403SOL    HW227672   3.849   2.170   4.916 -1.0687  1.1485  0.3225
 5404SOL     OW27673   0.398   3.390  14.340  0.1702 -1.1191 -0.3386
 5404SOL    HW127674   0.482   3.375  14.384 -0.2127 -0.9080  0.4722
 5404SOL    HW227675   0.347   3.309  14.348  1.6755 -2.3260 -3.1776
 5405SOL     OW27676   0.695   3.679   2.782  0.7065 -0.5559  0.1254
 5405SOL    HW127677   0.653   3.740   2.843  1.3498 -0.9503  0.9672
 5405SOL    HW227678   0.635   3.605   2.789  1.1848 -0.9594 -0.0330
 5406SOL     OW27679   4.624   2.298   3.680 -0.3852 -0.7190  0.1609
 5406SOL    HW127680   4.716   2.281   3.699 -0.3964 -0.4323  0.4704
 5406SOL    HW227681   4.623   2.268   3.589 -0.1872  0.1637 -0.1339
 5407SOL     OW27682   0.476   2.318   5.167  0.2734  0.7411  0.1342
 5407SOL    HW127683   0.469   2.305   5.261  0.4975 -2.3266 -0.2886
 5407SOL    HW227684   0.429   2.241   5.136  2.3385  0.6452 -2.8214
 5408SOL     OW27685   0.052   2.323   0.859 -0.6244  0.3994  0.9439
 5408SOL    HW127686   0.072   2.307   0.952 -0.6865 -1.9980  0.5188
 5408SOL    HW227687   0.068   2.418   0.860 -0.5961  0.3826  2.8286
 5409SOL     OW27688   0.502   2.899  14.788  0.1002  0.4029  0.2370
 5409SOL    HW127689   0.420   2.856  14.809  0.0832  0.7926  0.9334
 5409SOL    HW227690   0.495   2.926  14.696 -1.2274  1.0591  0.5334
 5410SOL     OW27691   2.190   0.396  12.328 -0.1196 -0.3413  0.1329
 5410SOL    HW127692   2.226   0.479  12.359  0.1077 -1.3908  2.7144
 5410SOL    HW227693   2.125   0.374  12.395  0.0256 -0.6576  0.1711
 5411SOL     OW27694   2.444   4.484   9.199 -0.6337  0.0315  0.3544
 5411SOL    HW127695   2.384   4.559   9.200 -1.5405 -0.6890 -1.1975
 5411SOL    HW227696   2.513   4.523   9.254 -0.1532  0.0232 -0.2452
 5412SOL     OW27697   4.311   3.627   5.846  0.3492  0.5434  0.4707
 5412SOL    HW127698   4.400   3.653   5.823 -0.8618  3.2297 -1.1779
 5412SOL    HW227699   4.304   3.662   5.934  1.7356  0.8834  0.4452
 5413SOL     OW27700   3.877   0.369  11.567  0.2885 -0.0189 -1.0944
 5413SOL    HW127701   3.862   0.406  11.480  0.0591  2.5330  0.0064
 5413SOL    HW227702   3.854   0.276  11.566 -1.4720  0.3975  2.0044
 5414SOL     OW27703   1.269   2.807   2.770 -0.2590  0.2648  0.2764
 5414SOL    HW127704   1.267   2.814   2.674  0.1540 -2.2231  0.0867
 5414SOL    HW227705   1.290   2.900   2.783  0.9289 -0.1665  1.3415
 5415SOL     OW27706   2.969   2.367   7.404 -0.2963  0.2678  1.0103
 5415SOL    HW127707   2.903   2.375   7.335  0.1666 -2.3047  0.2687
 5415SOL    HW227708   2.922   2.309   7.464 -1.9908 -0.6903 -1.2617
 5416SOL     OW27709   2.339   3.376   5.470  0.3297  0.5587 -0.2830
 5416SOL    HW127710   2.275   3.434   5.429  1.4666  0.6435 -1.9445
 5416SOL    HW227711   2.308   3.366   5.560  2.5873  0.2785  0.4639
 5417SOL     OW27712   1.554   0.988  12.721 -0.5446 -0.4373 -0.2907
 5417SOL    HW127713   1.460   1.002  12.716 -0.8970 -1.8457  2.5064
 5417SOL    HW227714   1.563   0.893  12.716  2.3675 -0.2230  0.3018
 5418SOL     OW27715   0.025   2.618  10.599  0.2968 -0.2385  0.0242
 5418SOL    HW127716   0.071   2.696  10.632 -0.1807  0.6921 -1.4814
 5418SOL    HW227717   0.091   2.553  10.625 -1.2339 -1.1895  1.5339
 5419SOL     OW27718   1.526   1.787  11.123 -0.4262 -0.3130 -0.4894
 5419SOL    HW127719   1.592   1.785  11.053  1.6302  3.6108  1.3593
 5419SOL    HW227720   1.526   1.698  11.157 -1.5270  0.8809  2.6056
 5420SOL     OW27721   3.199   2.271   3.620 -0.0628 -0.1384  0.3249
 5420SOL    HW127722   3.286   2.297   3.589  0.5031 -1.9056  0.4625
 5420SOL    HW227723   3.145   2.349   3.609  1.2447  0.9841  1.7967
 5421SOL     OW27724   0.468   2.637   8.844 -0.2897 -0.5215 -0.1228
 5421SOL    HW127725   0.437   2.582   8.772  0.9223  0.7187 -1.5958
 5421SOL    HW227726   0.528   2.576   8.888  1.0687  1.7925  1.2482
 5422SOL     OW27727   3.239   1.110   6.017  0.3657  0.2734  0.1785
 5422SOL    HW127728   3.195   1.039   6.062  1.1114 -0.1853  0.1870
 5422SOL    HW227729   3.178   1.184   6.009  0.3667  0.1402 -1.0771
 5423SOL     OW27730   0.676   2.474   4.035 -0.1695  0.7942 -0.5005
 5423SOL    HW127731   0.638   2.486   3.948  0.1454  0.1372 -0.7282
 5423SOL    HW227732   0.602   2.433   4.080  0.4590 -1.4429 -1.5152
 5424SOL     OW27733   3.642   1.766   5.858  0.1205  0.1126  0.0071
 5424SOL    HW127734   3.564   1.820   5.848 -1.3253 -1.5698  2.3094
 5424SOL    HW227735   3.608   1.682   5.886 -1.8655  0.4844 -1.2446
 5425SOL     OW27736   4.605   4.443  17.626 -0.6175  0.2219 -1.1458
 5425SOL    HW127737   4.618   4.535  17.647 -0.0162 -0.0007 -0.5647
 5425SOL    HW227738   4.631   4.390   0.017 -2.4459  0.8458 -0.0641
 5426SOL     OW27739   1.680   1.767   6.490 -0.9867 -0.7656  0.1894
 5426SOL    HW127740   1.731   1.848   6.486 -0.9693 -0.8673 -1.9409
 5426SOL    HW227741   1.644   1.756   6.402 -2.1167  3.2777  0.1012
 5427SOL     OW27742   0.873   4.373   1.872  0.3897  0.3718 -0.0764
 5427SOL    HW127743   0.912   4.447   1.918 -2.5269  0.8650  1.5766
 5427SOL    HW227744   0.928   4.303   1.906  2.2049  1.4122 -0.8256
 5428SOL     OW27745   4.176   1.370   1.733  0.2842  0.3491 -0.4166
 5428SOL    HW127746   4.145   1.453   1.770  1.5499  0.0803  1.2377
 5428SOL    HW227747   4.270   1.373   1.751  0.3667 -2.8238 -0.3018
 5429SOL     OW27748   0.900   2.454   8.321 -0.0581  0.6625 -0.6001
 5429SOL    HW127749   0.906   2.550   8.322  0.5930  0.6180  0.3171
 5429SOL    HW227750   0.973   2.439   8.382  0.3984  0.1691 -1.2707
 5430SOL     OW27751   0.738   0.052   7.733 -0.3516 -0.1219 -0.4332
 5430SOL    HW127752   0.795   0.052   7.656 -1.7490 -1.2394 -1.4658
 5430SOL    HW227753   0.674   4.709   7.699 -1.1736 -0.2467  1.3513
 5431SOL     OW27754   2.699   3.902   2.455  0.3428 -0.0817 -0.0837
 5431SOL    HW127755   2.685   3.809   2.476  0.7717  0.0987  1.0341
 5431SOL    HW227756   2.793   3.920   2.466  0.2452 -0.0597  0.7474
 5432SOL     OW27757   1.399   2.355   3.260  0.0072 -0.1008 -0.0314
 5432SOL    HW127758   1.320   2.378   3.309 -0.0162 -0.4509  0.0949
 5432SOL    HW227759   1.399   2.411   3.182 -2.8237  0.7539  0.5928
 5433SOL     OW27760   3.513   2.040   3.183  0.1676 -0.2802 -0.0272
 5433SOL    HW127761   3.457   2.114   3.159  0.9581  2.1798  5.7997
 5433SOL    HW227762   3.474   1.965   3.138  1.3310  0.7502 -2.8130
 5434SOL     OW27763   2.339   4.151   0.829  0.2261 -0.0082  0.0566
 5434SOL    HW127764   2.251   4.182   0.850  1.0682  3.0876 -1.0344
 5434SOL    HW227765   2.329   4.142   0.734 -0.4620  2.7637 -0.1365
 5435SOL     OW27766   3.411   2.285  16.721  0.4536 -0.2281  0.3830
 5435SOL    HW127767   3.324   2.271  16.683  0.0983  0.9520  0.7348
 5435SOL    HW227768   3.380   2.341  16.792  1.5694 -0.7431  1.2727
 5436SOL     OW27769   3.770   0.963   7.364 -0.3006  0.0091 -0.0226
 5436SOL    HW127770   3.840   0.967   7.429  0.1426 -4.3480 -0.2549
 5436SOL    HW227771   3.698   0.988   7.423  0.3618 -0.3186  0.9384
 5437SOL     OW27772   1.632   4.188   4.487  0.4652 -0.5860 -0.1087
 5437SOL    HW127773   1.657   4.209   4.577 -1.0196 -2.0932  0.6677
 5437SOL    HW227774   1.556   4.129   4.492 -0.7665  0.9635 -0.5653
 5438SOL     OW27775   2.352   4.350   1.451  0.0377  0.4581  0.6765
 5438SOL    HW127776   2.337   4.422   1.512  0.5198  1.9800 -1.0112
 5438SOL    HW227777   2.370   4.406   1.375 -0.7334  1.1390  0.9919
 5439SOL     OW27778   1.352   0.422   2.562 -0.2834  0.6077 -0.0469
 5439SOL    HW127779   1.259   0.445   2.573 -1.0207 -2.0644 -0.7244
 5439SOL    HW227780   1.357   0.426   2.467  0.5647 -1.2108 -0.0679
 5440SOL     OW27781   3.141   1.431  16.663 -0.2109  0.7523  0.2601
 5440SOL    HW127782   3.166   1.521  16.642  0.2339  1.5842  4.2818
 5440SOL    HW227783   3.228   1.392  16.670  0.6802  2.4444 -1.3851
 5441SOL     OW27784   3.315   2.956  16.690 -0.2163 -0.2160 -0.3265
 5441SOL    HW127785   3.284   3.042  16.662 -0.7470 -0.0344  0.7907
 5441SOL    HW227786   3.291   2.903  16.614  0.5651  1.3859 -1.6826
 5442SOL     OW27787   3.396   4.049   3.592 -0.0006 -0.2079 -0.5150
 5442SOL    HW127788   3.387   4.134   3.636 -1.7333 -0.0935 -1.0933
 5442SOL    HW227789   3.409   4.077   3.501 -1.3257 -3.4316 -1.6748
 5443SOL     OW27790   4.418   0.805   2.666  0.0587  0.6448 -0.6279
 5443SOL    HW127791   4.404   0.750   2.743 -2.6854  3.7727  1.1573
 5443SOL    HW227792   4.341   0.863   2.670  0.6197  1.4508 -1.3798
 5444SOL     OW27793   1.497   1.581   8.502  0.4869 -0.5413 -0.1817
 5444SOL    HW127794   1.544   1.512   8.549  1.1605  1.8836  2.7264
 5444SOL    HW227795   1.534   1.557   8.417  1.2305 -0.9171  0.2485
 5445SOL     OW27796   0.459   0.908  10.526  0.3248 -0.0576  0.2460
 5445SOL    HW127797   0.437   0.855  10.602 -2.4770  2.3098  1.1108
 5445SOL    HW227798   0.488   0.989  10.568  2.1505  1.0671 -3.1844
 5446SOL     OW27799   2.710   2.912   8.827 -0.5474 -0.7452  0.2305
 5446SOL    HW127800   2.769   2.836   8.823 -0.1991 -0.5416  1.8235
 5446SOL    HW227801   2.683   2.909   8.918  1.3999  1.0622  0.8644
 5447SOL     OW27802   1.348   4.020   6.287  0.1641  0.1635 -0.0730
 5447SOL    HW127803   1.321   3.989   6.200 -0.8348  0.4602  0.1295
 5447SOL    HW227804   1.261   4.053   6.311  0.7376  1.3296  0.3949
 5448SOL     OW27805   0.560   2.907   3.658  0.0960  0.0447  0.0564
 5448SOL    HW127806   0.578   2.928   3.566  0.0281 -1.0580 -0.2099
 5448SOL    HW227807   0.505   2.982   3.679 -0.7414 -0.5660  0.0507
 5449SOL     OW27808   3.018   3.302   5.771  0.3391 -0.2616 -0.0124
 5449SOL    HW127809   2.932   3.300   5.812  0.5386 -1.2745  0.3629
 5449SOL    HW227810   3.081   3.259   5.830  0.8727  0.7635  0.1570
 5450SOL     OW27811   2.641   2.623   2.494 -0.5581  0.2453  0.3208
 5450SOL    HW127812   2.706   2.681   2.535 -1.0589  1.3413 -0.4416
 5450SOL    HW227813   2.690   2.546   2.465  1.2930  1.5914 -0.1225
 5451SOL     OW27814   1.485   2.250  15.695 -0.6379  0.4363  0.2684
 5451SOL    HW127815   1.446   2.185  15.637  2.6318  1.0167 -2.6124
 5451SOL    HW227816   1.417   2.254  15.763 -2.9008  0.1987 -1.9842
 5452SOL     OW27817   3.161   3.029   2.534 -0.3487  0.0414 -0.3416
 5452SOL    HW127818   3.067   3.046   2.528 -0.7117 -2.2202 -0.9979
 5452SOL    HW227819   3.171   2.994   2.445  1.9822  1.7928 -0.7538
 5453SOL     OW27820   1.580   1.312   4.126 -0.0709  0.0471  0.2488
 5453SOL    HW127821   1.553   1.341   4.213 -0.5710  1.9604 -0.5580
 5453SOL    HW227822   1.507   1.251   4.117  0.0383 -0.2871  1.5881
 5454SOL     OW27823   3.736   0.963  12.587 -0.4991  0.0651 -0.3438
 5454SOL    HW127824   3.657   0.910  12.587  0.3682 -1.2108  0.4532
 5454SOL    HW227825   3.703   1.043  12.546 -2.4020 -0.3647  0.3484
 5455SOL     OW27826   3.139   0.284   6.483 -0.1423  0.1464  0.0247
 5455SOL    HW127827   3.109   0.360   6.533  1.2856  0.6067  0.1844
 5455SOL    HW227828   3.096   0.211   6.528 -2.6799  1.2615 -0.5856
 5456SOL     OW27829   0.827   1.674   9.043 -0.3999  0.6336  0.0209
 5456SOL    HW127830   0.862   1.741   9.102  0.4701  0.8592 -0.7514
 5456SOL    HW227831   0.906   1.631   9.009  0.4035  1.9757  0.2157
 5457SOL     OW27832   1.115   1.042   0.614  0.0943  0.0639 -0.2942
 5457SOL    HW127833   1.093   1.135   0.621  0.3886  0.1488 -0.4738
 5457SOL    HW227834   1.045   1.009   0.557  1.7396 -0.9653 -1.7318
 5458SOL     OW27835   3.179   3.565  12.442  0.2416  0.0698 -0.0836
 5458SOL    HW127836   3.112   3.618  12.400  0.1264 -0.5832 -0.7277
 5458SOL    HW227837   3.206   3.621  12.515  2.5640 -1.2862  0.1151
 5459SOL     OW27838   1.754   1.068   6.251  0.6279  0.1788  0.4146
 5459SOL    HW127839   1.848   1.068   6.233  0.3125  1.9693 -1.2124
 5459SOL    HW227840   1.742   0.981   6.289 -1.6564  0.1305 -0.4052
 5460SOL     OW27841   4.312   1.833   5.561 -0.3622  0.6051 -0.0794
 5460SOL    HW127842   4.336   1.924   5.579  0.3801  0.6951 -1.5198
 5460SOL    HW227843   4.289   1.827   5.468 -1.8745 -1.1655  0.4029
 5461SOL     OW27844   3.973   1.230   1.903 -0.0821 -0.1352  0.5833
 5461SOL    HW127845   4.007   1.150   1.942  1.3412  0.5573  0.7726
 5461SOL    HW227846   4.048   1.271   1.859 -0.3567  0.0100  0.2438
 5462SOL     OW27847   3.688   1.601  14.857  0.4673 -0.1420  0.0204
 5462SOL    HW127848   3.727   1.553  14.784  1.1308 -0.3714  0.5322
 5462SOL    HW227849   3.770   1.632  14.895  0.5001  0.3184 -0.4283
 5463SOL     OW27850   1.180   2.748  11.705  0.1368  0.6671  0.4628
 5463SOL    HW127851   1.163   2.781  11.617 -1.4108  0.1531  0.5741
 5463SOL    HW227852   1.197   2.657  11.683  0.2686  0.8240 -0.0759
 5464SOL     OW27853   1.533   0.467   7.351  0.1886  0.2655  0.3647
 5464SOL    HW127854   1.553   0.387   7.400 -0.3506 -0.2929 -0.3211
 5464SOL    HW227855   1.580   0.442   7.271 -0.4090  0.7960 -0.1402
 5465SOL     OW27856   1.232   3.243   7.970 -0.0492  0.0256  0.2963
 5465SOL    HW127857   1.229   3.237   7.875  3.6588  0.6859  0.1243
 5465SOL    HW227858   1.246   3.335   7.992 -0.5500  0.1722 -0.0019
 5466SOL     OW27859   1.928   0.933  12.938  0.0060 -0.5779  0.0681
 5466SOL    HW127860   1.932   1.027  12.958 -0.8674 -0.4580 -0.2915
 5466SOL    HW227861   1.837   0.904  12.934 -0.1945  0.0847 -0.1762
 5467SOL     OW27862   0.387   0.841   0.527 -0.5211 -0.0098 -0.1783
 5467SOL    HW127863   0.459   0.804   0.476 -0.4399  0.7840 -0.6581
 5467SOL    HW227864   0.423   0.919   0.570  0.3339  0.6039 -1.9785
 5468SOL     OW27865   1.274   3.525  15.692 -0.5511  0.3349  0.3123
 5468SOL    HW127866   1.219   3.595  15.658 -0.1840 -0.0346 -1.0296
 5468SOL    HW227867   1.256   3.531  15.786 -2.0847 -0.8267  0.1002
 5469SOL     OW27868   2.076   2.457  12.793 -0.4157 -0.0759  0.1630
 5469SOL    HW127869   2.078   2.476  12.699 -2.1271 -0.5143  0.0353
 5469SOL    HW227870   2.164   2.420  12.808 -0.3629  0.2735  0.7004
 5470SOL     OW27871   1.754   0.647  13.002 -0.5236  0.2364 -0.6479
 5470SOL    HW127872   1.684   0.583  12.993 -0.0850 -0.2789 -0.4282
 5470SOL    HW227873   1.829   0.596  12.971 -0.8617 -1.0769  0.6900
 5471SOL     OW27874   2.793   1.213   9.328 -0.3869 -0.1529 -0.0514
 5471SOL    HW127875   2.788   1.149   9.258 -1.4745  0.2752 -0.3662
 5471SOL    HW227876   2.735   1.170   9.391 -0.3287  1.1002  0.8636
 5472SOL     OW27877   2.224   0.233   2.309  0.2315  0.3447 -0.1885
 5472SOL    HW127878   2.149   0.203   2.259  0.8800  0.7899 -1.4272
 5472SOL    HW227879   2.286   0.255   2.239 -0.5247  0.5820 -0.7750
 5473SOL     OW27880   3.070   4.553   5.192 -0.0734 -0.3504  0.0912
 5473SOL    HW127881   3.073   4.647   5.210  0.2405 -0.5735  1.2030
 5473SOL    HW227882   2.993   4.525   5.241 -1.0857  1.2247 -0.6181
 5474SOL     OW27883   0.907   0.150  14.017  0.2462 -0.1057 -0.1861
 5474SOL    HW127884   0.982   0.205  14.040  1.4247 -1.1102 -1.6417
 5474SOL    HW227885   0.949   0.070  13.986 -0.1424 -0.7508  0.9485
 5475SOL     OW27886   1.948   1.935   8.542 -0.6354 -0.5548 -0.0762
 5475SOL    HW127887   1.967   1.949   8.634 -0.4653 -0.7959 -0.0731
 5475SOL    HW227888   1.961   2.022   8.505  1.4472 -1.0523 -0.5243
 5476SOL     OW27889   2.527   0.576   5.276  0.0416  0.0119  0.4337
 5476SOL    HW127890   2.461   0.516   5.312  1.4119 -0.9824  1.2836
 5476SOL    HW227891   2.554   0.524   5.200  1.4996  1.4197 -0.0006
 5477SOL     OW27892   2.303   0.026  16.197 -0.7023  0.3995 -0.5399
 5477SOL    HW127893   2.266   4.660  16.177 -0.8247  0.5248 -0.8475
 5477SOL    HW227894   2.293   0.078  16.118  2.6209 -1.1238 -1.9131
 5478SOL     OW27895   3.229   1.399   7.983 -0.6739 -0.2286 -0.5243
 5478SOL    HW127896   3.188   1.315   7.960 -2.5722 -0.4947  3.9423
 5478SOL    HW227897   3.153   1.454   8.002 -0.3222 -1.1169  3.3286
 5479SOL     OW27898   0.124   1.118   3.409 -0.5847  0.4180  0.3861
 5479SOL    HW127899   0.067   1.187   3.443 -0.3330  0.6469  0.3483
 5479SOL    HW227900   0.091   1.036   3.445 -0.8894 -0.0591 -0.9765
 5480SOL     OW27901   2.095   0.089   7.814 -0.2157  0.7414 -0.0999
 5480SOL    HW127902   2.131   0.029   7.749 -1.8498  0.0997 -0.3982
 5480SOL    HW227903   2.089   0.018   7.878  0.2423 -0.0181 -0.8985
 5481SOL     OW27904   1.531   0.607   2.300  0.8408 -0.0824  0.7174
 5481SOL    HW127905   1.559   0.551   2.373  1.1844 -2.6404 -1.3653
 5481SOL    HW227906   1.472   0.540   2.266  1.2806 -0.0618 -0.0773
 5482SOL     OW27907   2.270   2.801   3.470  0.3412  0.0225  0.0408
 5482SOL    HW127908   2.265   2.880   3.524 -0.5198  0.5095 -0.7553
 5482SOL    HW227909   2.179   2.779   3.489 -0.1959 -0.6222 -3.3474
 5483SOL     OW27910   3.916   4.672   8.829  0.1069 -0.3395 -0.0367
 5483SOL    HW127911   3.960   4.716   8.902 -2.0117  0.0980  0.9964
 5483SOL    HW227912   3.826   4.702   8.838 -0.3334 -1.8991  0.7009
 5484SOL     OW27913   1.847   2.052   7.019  0.3450  0.7121  0.2383
 5484SOL    HW127914   1.886   2.011   6.941 -0.0701 -2.0883  1.4951
 5484SOL    HW227915   1.756   2.046   6.990  1.6441  1.2378 -4.0063
 5485SOL     OW27916   3.565   0.348   4.293  0.2250 -0.4842  0.1109
 5485SOL    HW127917   3.603   0.420   4.342 -0.1484  0.1201 -0.4814
 5485SOL    HW227918   3.653   0.325   4.263 -0.1760  0.8841 -2.1623
 5486SOL     OW27919   1.150   2.602  10.190 -0.2377  0.1179  0.1135
 5486SOL    HW127920   1.066   2.626  10.150 -0.6089 -2.7509 -0.8031
 5486SOL    HW227921   1.133   2.509  10.202  1.4048 -0.5060 -2.5175
 5487SOL     OW27922   1.435   4.210  10.111  0.0232  0.0290 -0.1927
 5487SOL    HW127923   1.497   4.281  10.127  1.3005 -1.6344  2.3073
 5487SOL    HW227924   1.433   4.209  10.015 -3.4602 -0.2716 -0.1252
 5488SOL     OW27925   0.678   1.356   6.335 -0.1633  0.5774 -0.3185
 5488SOL    HW127926   0.677   1.401   6.250 -0.8401  0.7955 -0.1973
 5488SOL    HW227927   0.764   1.379   6.370 -0.4096  0.2231  0.5223
 5489SOL     OW27928   4.049   2.112  12.688 -0.2007  0.5413 -0.0990
 5489SOL    HW127929   4.077   2.029  12.726 -0.0872  0.5275 -0.2126
 5489SOL    HW227930   4.108   2.119  12.613 -0.2275  3.8291  0.1840
 5490SOL     OW27931   0.926   3.461   1.364  0.1933  0.3243 -0.2771
 5490SOL    HW127932   1.020   3.444   1.360  0.2453  1.1778 -2.7076
 5490SOL    HW227933   0.886   3.374   1.360 -0.1197  0.5028 -0.9440
 5491SOL     OW27934   1.425   1.281   2.569 -0.0800  0.1945 -0.2574
 5491SOL    HW127935   1.445   1.363   2.524  1.4923  0.6105  1.1769
 5491SOL    HW227936   1.334   1.267   2.545  0.0827 -0.9124 -0.2469
 5492SOL     OW27937   2.927   3.227  15.182 -0.0780  0.1356  0.2780
 5492SOL    HW127938   2.987   3.157  15.206  0.4291  0.7443  0.7884
 5492SOL    HW227939   2.985   3.266  15.116 -0.9135  1.8517  0.5463
 5493SOL     OW27940   4.299   0.296   0.199  0.0765  0.1902 -0.4392
 5493SOL    HW127941   4.212   0.298   0.237  0.3133  0.7155  0.0732
 5493SOL    HW227942   4.306   0.375   0.146  1.1093 -0.4262 -1.2202
 5494SOL     OW27943   3.416   3.236   4.219 -0.1072  0.7293 -0.2885
 5494SOL    HW127944   3.459   3.320   4.210  2.1242 -0.8339 -4.1952
 5494SOL    HW227945   3.321   3.249   4.217 -0.0876  0.8668 -0.3223
 5495SOL     OW27946   1.043   2.873   9.046  0.5923 -0.1534 -0.6813
 5495SOL    HW127947   1.016   2.958   9.012  0.9348  0.5162  0.7104
 5495SOL    HW227948   1.128   2.899   9.082  0.6091 -1.4728  0.2511
 5496SOL     OW27949   1.617   1.377   0.385  0.0206  0.5778  0.1493
 5496SOL    HW127950   1.627   1.463   0.345  0.9692  1.9000  3.1726
 5496SOL    HW227951   1.547   1.346   0.328  0.0043  1.4982 -0.3285
 5497SOL     OW27952   1.882   3.912   3.353  0.1139  0.6780  0.0049
 5497SOL    HW127953   1.796   3.932   3.388  0.2875  1.7624 -0.1886
 5497SOL    HW227954   1.939   3.979   3.390 -1.7830  1.0045  2.3456
 5498SOL     OW27955   3.993   0.838  13.184 -0.3675  0.5558  0.4225
 5498SOL    HW127956   3.907   0.824  13.224 -0.4622  2.3293  0.8734
 5498SOL    HW227957   4.011   0.763  13.127 -1.2381 -0.4000  1.4072
 5499SOL     OW27958   1.816   1.228  11.663  0.0406 -0.4758 -0.4619
 5499SOL    HW127959   1.754   1.262  11.727 -0.2778 -2.2170  0.1652
 5499SOL    HW227960   1.797   1.134  11.672 -1.4179  0.1358  2.6229
 5500SOL     OW27961   3.153   3.469  12.826 -0.2344  0.2871 -0.0960
 5500SOL    HW127962   3.061   3.450  12.847  0.4434 -2.0726  0.7067
 5500SOL    HW227963   3.154   3.550  12.877  1.1093  0.5456 -0.5572
 5501SOL     OW27964   2.762   1.123  17.681  0.6452  0.1699 -0.2569
 5501SOL    HW127965   2.760   1.083   0.084  2.0041  1.5833  0.4171
 5501SOL    HW227966   2.835   1.179   0.023  1.3141 -2.2107  2.9532
 5502SOL     OW27967   1.026   1.656  17.318 -0.5119  0.2427 -0.3148
 5502SOL    HW127968   1.050   1.591  17.252  2.1688  3.7053 -2.6839
 5502SOL    HW227969   0.931   1.643  17.326 -0.5513  0.2208 -0.8132
 5503SOL     OW27970   0.163   3.447  10.582 -0.1492 -0.3053 -0.4692
 5503SOL    HW127971   0.231   3.500  10.540  0.5635  0.7402  2.0400
 5503SOL    HW227972   0.166   3.369  10.526 -0.4341  0.0206 -0.9346
 5504SOL     OW27973   1.370   3.549   1.345 -0.2385 -0.1986 -0.3550
 5504SOL    HW127974   1.457   3.529   1.311  0.4932  0.1225  1.3243
 5504SOL    HW227975   1.356   3.468   1.392 -2.1810  0.4995  0.2935
 5505SOL     OW27976   3.089   3.170  12.821  0.0120 -0.1575  0.0280
 5505SOL    HW127977   3.058   3.148  12.909  0.2201 -0.9005 -0.0797
 5505SOL    HW227978   3.035   3.107  12.772  0.9117  1.2562 -2.8099
 5506SOL     OW27979   2.858   4.171  14.164 -0.8883 -0.4194 -0.3587
 5506SOL    HW127980   2.810   4.168  14.247 -0.9614  0.9745 -0.3378
 5506SOL    HW227981   2.785   4.163  14.103 -1.7198 -2.6388  0.9268
 5507SOL     OW27982   1.007   3.117   7.185 -0.7354  0.3889  0.0910
 5507SOL    HW127983   1.077   3.100   7.120 -0.3837 -0.3463  0.6593
 5507SOL    HW227984   0.952   3.042   7.160  0.7562 -0.8719  0.5512
 5508SOL     OW27985   1.557   1.787   7.187 -0.0310  0.4984 -0.3532
 5508SOL    HW127986   1.625   1.765   7.251  1.2277 -1.2345 -2.3109
 5508SOL    HW227987   1.555   1.882   7.199  0.1715  0.7847 -2.6590
 5509SOL     OW27988   3.626   0.419  14.496  0.1910  0.3102 -0.9278
 5509SOL    HW127989   3.572   0.343  14.473  0.7985 -0.5841  0.6050
 5509SOL    HW227990   3.609   0.472  14.418 -1.2599 -2.1214 -2.2684
 5510SOL     OW27991   3.733   0.557   8.005 -0.0202 -0.1763 -0.3110
 5510SOL    HW127992   3.725   0.605   7.922  0.1885 -0.4632 -0.4994
 5510SOL    HW227993   3.822   0.524   7.995  1.2754  3.2664 -0.3012
 5511SOL     OW27994   1.369   0.776   6.671 -0.4080  0.1960  0.3170
 5511SOL    HW127995   1.447   0.772   6.728 -0.2165 -0.2832  0.0165
 5511SOL    HW227996   1.398   0.769   6.580  0.2405 -0.4527  0.5760
 5512SOL     OW27997   0.447   0.671   5.119  0.1106  0.6037  0.2916
 5512SOL    HW127998   0.382   0.601   5.129 -2.5309  2.8755 -1.1348
 5512SOL    HW227999   0.474   0.662   5.027  0.1461  1.1591  0.2495
 5513SOL     OW28000   0.823   1.758   5.536  0.4243  0.4359 -0.0365
 5513SOL    HW128001   0.903   1.771   5.586  1.6035  0.1070 -1.8121
 5513SOL    HW228002   0.849   1.696   5.467 -0.1726  0.8056 -0.6022
 5514SOL     OW28003   1.504   4.133   5.929 -0.3124 -0.0012 -0.2432
 5514SOL    HW128004   1.576   4.176   5.976 -1.5984 -0.3135  2.0024
 5514SOL    HW228005   1.534   4.115   5.840 -2.5056 -0.7236 -0.8369
 5515SOL     OW28006   2.706   2.100   7.302  0.1750 -0.0696 -0.1264
 5515SOL    HW128007   2.699   2.005   7.300 -0.9543  0.0423 -0.9353
 5515SOL    HW228008   2.732   2.100   7.210  1.1533 -1.8833  0.1489
 5516SOL     OW28009   0.859   3.175   4.275 -0.0553  0.0217  0.6943
 5516SOL    HW128010   0.916   3.172   4.351  2.1684 -0.6595 -1.0196
 5516SOL    HW228011   0.801   3.250   4.290  0.9632  1.6311 -3.3566
 5517SOL     OW28012   4.690   1.910   8.657 -0.0513 -0.0718  0.3747
 5517SOL    HW128013   0.044   1.956   8.619  1.3400 -2.6025  0.0031
 5517SOL    HW228014   4.677   1.841   8.592 -1.7540  0.3756  0.2500
 5518SOL     OW28015   4.096   4.351  17.523  0.4622 -0.7544  0.4392
 5518SOL    HW128016   4.132   4.287  17.462 -0.1886  0.5375 -1.2952
 5518SOL    HW228017   4.178   4.387  17.558  0.2872  1.0604 -0.9769
 5519SOL     OW28018   3.277   1.196   1.202  0.7354  0.3142  0.0018
 5519SOL    HW128019   3.295   1.189   1.108  1.2757 -0.7731  0.1886
 5519SOL    HW228020   3.285   1.103   1.224 -1.6847  0.4029  1.3052
 5520SOL     OW28021   2.744   3.467   0.048  0.3827 -0.4065 -0.2420
 5520SOL    HW128022   2.799   3.544   0.063  1.4078 -1.3520  0.9244
 5520SOL    HW228023   2.705   3.454   0.135 -1.6056  0.6676 -0.9819
 5521SOL     OW28024   3.089   2.056   7.506 -0.2625 -0.0264  0.2628
 5521SOL    HW128025   3.053   2.053   7.417  1.4829  1.4449 -0.4936
 5521SOL    HW228026   3.008   2.052   7.557 -0.6056  1.0140 -0.2070
 5522SOL     OW28027   4.082   3.849   2.453 -0.4041  0.4176 -0.1046
 5522SOL    HW128028   4.060   3.847   2.360  0.6810  0.9104 -0.3701
 5522SOL    HW228029   4.159   3.906   2.463 -2.2470  3.1032 -1.0916
 5523SOL     OW28030   3.034   0.103  13.699 -0.3708  0.1742 -0.1005
 5523SOL    HW128031   3.041   0.138  13.788  0.4158 -0.7149  0.1833
 5523SOL    HW228032   2.940   0.122  13.701 -0.7377 -1.4984 -2.6441
 5524SOL     OW28033   0.131   0.792   0.607 -0.7557  0.6488  0.1996
 5524SOL    HW128034   0.108   0.712   0.560 -0.4189  1.0294 -0.6272
 5524SOL    HW228035   0.208   0.816   0.555  0.8403 -2.5208  1.0925
 5525SOL     OW28036   2.473   3.189   9.052 -0.3425 -0.3816 -0.6955
 5525SOL    HW128037   2.557   3.235   9.041  0.4278 -1.7935 -0.6636
 5525SOL    HW228038   2.475   3.164   9.144  2.0234 -3.8054 -1.6618
 5526SOL     OW28039   0.441   1.455   8.167 -0.2917 -0.5956 -0.1547
 5526SOL    HW128040   0.534   1.444   8.149 -0.5374 -2.5178 -0.2685
 5526SOL    HW228041   0.437   1.529   8.226 -0.3514 -0.3046 -0.5214
 5527SOL     OW28042   2.877   4.553   7.755 -0.3442 -0.2825 -0.1938
 5527SOL    HW128043   2.938   4.506   7.698 -0.5765 -1.8075  0.8389
 5527SOL    HW228044   2.850   4.616   7.688 -0.9826  2.4071  2.5784
 5528SOL     OW28045   1.053   2.604   7.216 -0.0116 -0.6534  0.3105
 5528SOL    HW128046   1.004   2.522   7.220 -1.5771  0.2977  0.4997
 5528SOL    HW228047   1.057   2.622   7.310 -2.5969 -0.1045  0.3123
 5529SOL     OW28048   3.109   4.240   6.206  0.3576 -0.1508  0.4591
 5529SOL    HW128049   3.056   4.187   6.147 -0.0865  0.6914  0.0991
 5529SOL    HW228050   3.146   4.312   6.155 -0.6900 -0.2741 -0.4629
 5530SOL     OW28051   2.768   0.199  17.088 -0.7718  0.0739  0.1623
 5530SOL    HW128052   2.702   0.154  17.035 -1.3394  0.7130  0.3165
 5530SOL    HW228053   2.833   0.129  17.094 -0.4191  0.0922 -3.1727
 5531SOL     OW28054   2.995   4.134   9.043  0.2589  0.0469  0.2592
 5531SOL    HW128055   3.078   4.172   9.073 -0.0142  0.0088  1.0758
 5531SOL    HW228056   2.992   4.069   9.114 -0.0647  1.3607  1.4654
 5532SOL     OW28057   2.272   2.040   5.349 -0.0023  0.0732 -0.6223
 5532SOL    HW128058   2.313   2.056   5.434  0.8102 -0.2843 -0.9459
 5532SOL    HW228059   2.177   2.036   5.363 -0.1575 -2.0539 -2.2415
 5533SOL     OW28060   3.133   4.540  10.246  0.4943 -0.1226  0.3787
 5533SOL    HW128061   3.180   4.524  10.164  0.7747  1.3133  0.2552
 5533SOL    HW228062   3.044   4.515  10.223 -0.4484  1.8747  1.8257
 5534SOL     OW28063   4.452   3.907   5.405  0.0716 -0.4058 -0.4354
 5534SOL    HW128064   4.541   3.882   5.380 -0.1701 -0.9042 -0.7972
 5534SOL    HW228065   4.410   3.829   5.440  1.9569  0.2100  3.1556
 5535SOL     OW28066   1.774   1.378  14.120  0.0219 -0.0348 -0.4677
 5535SOL    HW128067   1.743   1.292  14.092  0.7007 -1.1139  2.0153
 5535SOL    HW228068   1.863   1.357  14.150 -0.2259  2.3216  1.9631
 5536SOL     OW28069   3.691   2.124   9.266  0.2609  0.3355  0.2384
 5536SOL    HW128070   3.768   2.175   9.241  1.5696 -0.2212  3.1242
 5536SOL    HW228071   3.709   2.117   9.360  0.3775  1.2811  0.2845
 5537SOL     OW28072   2.524   3.080   9.308 -0.1008 -0.4981  0.0169
 5537SOL    HW128073   2.597   3.104   9.366 -0.2101  1.3182 -0.5827
 5537SOL    HW228074   2.459   3.075   9.378 -1.0512 -0.8490 -0.8938
 5538SOL     OW28075   1.963   3.419   2.172  0.2549 -0.5489  0.0315
 5538SOL    HW128076   1.871   3.419   2.198  0.5625  2.2215  1.0949
 5538SOL    HW228077   1.966   3.331   2.135 -0.0715 -1.5250  2.2953
 5539SOL     OW28078   0.968   1.046   5.072 -0.0859 -0.3270  0.2463
 5539SOL    HW128079   1.026   0.972   5.054  1.3657  1.1699 -1.2992
 5539SOL    HW228080   0.911   0.996   5.130 -2.2361  1.8426  0.0137
 5540SOL     OW28081   0.388   1.864   3.227  0.4393  0.4517  0.2089
 5540SOL    HW128082   0.461   1.824   3.179  0.1854 -1.0844  1.1060
 5540SOL    HW228083   0.308   1.824   3.195  0.3978 -0.4473  1.4625
 5541SOL     OW28084   2.591   1.240   9.031 -0.2289  0.3402  0.2669
 5541SOL    HW128085   2.644   1.311   9.068 -0.1336 -0.0463  0.8784
 5541SOL    HW228086   2.643   1.167   9.064  1.6537  1.0270 -1.1144
 5542SOL     OW28087   2.730   1.182   6.583  0.3312 -0.6287  1.0491
 5542SOL    HW128088   2.800   1.203   6.521 -0.3543  0.4406  0.6306
 5542SOL    HW228089   2.765   1.217   6.665  1.0393 -3.6634  2.0172
 5543SOL     OW28090   3.001   3.306   7.929  0.1439 -0.8484 -0.1106
 5543SOL    HW128091   3.046   3.259   7.999  0.7224 -0.2684 -0.0910
 5543SOL    HW228092   3.005   3.395   7.966  1.7251 -0.6669 -0.7099
 5544SOL     OW28093   4.367   3.413  16.645 -0.4534 -0.3863  0.0579
 5544SOL    HW128094   4.307   3.434  16.573 -1.5289 -2.1647  0.4501
 5544SOL    HW228095   4.445   3.410  16.589 -1.1235  1.2256 -0.9522
 5545SOL     OW28096   0.706   1.838  14.852  0.0145  0.4086 -0.3980
 5545SOL    HW128097   0.768   1.811  14.783  0.6142  0.3881  0.1547
 5545SOL    HW228098   0.636   1.887  14.807 -2.7430  0.3345  3.8448
 5546SOL     OW28099   3.362   3.787   3.570  0.4442 -0.1413 -0.0934
 5546SOL    HW128100   3.392   3.877   3.566  1.3632 -0.4827 -1.0227
 5546SOL    HW228101   3.371   3.777   3.665  0.6871  0.7715 -0.0280
 5547SOL     OW28102   0.183   2.553   3.297 -0.4611  0.9049 -0.2980
 5547SOL    HW128103   0.225   2.514   3.220 -1.2794  0.6554 -0.6294
 5547SOL    HW228104   0.093   2.547   3.263 -0.4535  0.7065 -0.2842
 5548SOL     OW28105   2.847   1.710   4.437 -0.1726 -0.0389  0.0408
 5548SOL    HW128106   2.853   1.761   4.356  0.6979 -0.1757  0.0113
 5548SOL    HW228107   2.879   1.625   4.406 -0.2986 -0.0779  0.0166
 5549SOL     OW28108   3.590   2.768   0.830 -0.0864  0.8527 -0.3839
 5549SOL    HW128109   3.637   2.733   0.905  0.1370 -3.2675 -2.4087
 5549SOL    HW228110   3.558   2.684   0.797 -1.0209  1.1827 -0.3118
 5550SOL     OW28111   3.601   1.322   2.528 -0.2621  0.2205 -0.1311
 5550SOL    HW128112   3.604   1.367   2.444 -2.2983 -0.5930 -0.6430
 5550SOL    HW228113   3.692   1.315   2.555  0.2549  1.7638 -1.5008
 5551SOL     OW28114   0.050   2.782   7.536  0.0861 -0.7533  0.0689
 5551SOL    HW128115   0.047   2.759   7.443 -0.6731 -0.1848 -0.0549
 5551SOL    HW228116   4.690   2.834   7.542  1.2102  0.7370  1.9392
 5552SOL     OW28117   3.052   3.542   6.283 -0.2421 -0.3128 -0.2302
 5552SOL    HW128118   3.061   3.630   6.246 -0.4301  0.0499  0.5862
 5552SOL    HW228119   2.977   3.506   6.236  1.1556 -1.6139 -1.4574
 5553SOL     OW28120   0.727   4.182   0.466 -0.4611 -0.3877 -0.3645
 5553SOL    HW128121   0.682   4.109   0.508 -3.5326  0.9963 -1.1908
 5553SOL    HW228122   0.654   4.244   0.477 -0.7229 -1.1456  2.2266
 5554SOL     OW28123   0.423   1.458  13.695 -0.3268  0.7284  0.0078
 5554SOL    HW128124   0.355   1.420  13.640 -1.1366  2.1931 -0.0152
 5554SOL    HW228125   0.420   1.404  13.774 -1.0491 -0.5928 -0.9356
 5555SOL     OW28126   2.430   4.401  15.310  0.1610 -0.0304  0.1418
 5555SOL    HW128127   2.390   4.401  15.222 -0.6886  0.0223  0.5297
 5555SOL    HW228128   2.433   4.308  15.333  2.6254 -0.1468 -0.6809
 5556SOL     OW28129   4.524   0.601   7.970  0.2617 -0.1624  0.4529
 5556SOL    HW128130   4.586   0.661   8.011 -0.7505  2.9692 -2.6751
 5556SOL    HW228131   4.510   0.547   8.049  0.9334 -1.4563 -0.3134
 5557SOL     OW28132   0.769   0.983  10.660 -0.1017 -0.1023 -0.0102
 5557SOL    HW128133   0.794   1.010  10.749 -0.8105 -2.5906  0.9508
 5557SOL    HW228134   0.698   1.041  10.632  1.1863  0.3330 -2.3577
 5558SOL     OW28135   1.486   0.975  13.850 -0.4064 -0.0685 -0.2727
 5558SOL    HW128136   1.534   1.049  13.888 -1.3087  0.1896  0.3549
 5558SOL    HW228137   1.399   1.000  13.879 -0.5851  0.4906 -1.3251
 5559SOL     OW28138   1.981   1.945   1.167  0.3984  0.1768 -0.3460
 5559SOL    HW128139   1.939   1.860   1.154  1.5710 -0.4630  0.0193
 5559SOL    HW228140   1.970   1.967   1.260  1.1659  0.0925 -0.2314
 5560SOL     OW28141   3.953   0.007   6.024 -0.0106 -0.2827 -0.4349
 5560SOL    HW128142   4.036   0.005   6.073 -0.6534  1.7988  0.7210
 5560SOL    HW228143   3.895   0.074   6.058 -0.7384 -2.0062  1.7560
 5561SOL     OW28144   3.535   4.056   4.582 -0.2158  0.2780 -0.0336
 5561SOL    HW128145   3.497   4.051   4.494 -0.0401  0.2976 -0.1114
 5561SOL    HW228146   3.628   4.050   4.558 -0.5294  0.7786 -1.3385
 5562SOL     OW28147   1.296   0.968   5.213  0.2508  0.4769  0.2796
 5562SOL    HW128148   1.318   1.046   5.265  0.3421  0.3933  0.3675
 5562SOL    HW228149   1.206   0.994   5.193  0.1600 -0.5202 -0.5776
 5563SOL     OW28150   1.388   3.300   7.166 -0.1305  0.3705 -0.3029
 5563SOL    HW128151   1.310   3.276   7.116  0.8195  0.8275 -2.0052
 5563SOL    HW228152   1.353   3.371   7.219 -0.5719 -0.8286  1.0329
 5564SOL     OW28153   0.688   0.404   7.323 -0.0893  0.2350  0.2414
 5564SOL    HW128154   0.738   0.417   7.404  4.0638  2.0615 -2.5904
 5564SOL    HW228155   0.672   0.496   7.302  2.2210  0.7796  0.7771
 5565SOL     OW28156   1.464   3.432   9.108  0.2896  0.8156  0.4511
 5565SOL    HW128157   1.551   3.462   9.083 -0.4664  1.2510 -1.6623
 5565SOL    HW228158   1.455   3.473   9.193 -2.4698 -1.0180  1.0574
 5566SOL     OW28159   1.483   2.719   2.947  0.2283  0.2474  1.0499
 5566SOL    HW128160   1.554   2.762   2.899  1.8440 -2.2335  1.1812
 5566SOL    HW228161   1.422   2.732   2.875 -0.3684 -1.2285  1.2809
 5567SOL     OW28162   2.689   1.166   1.898  0.0436  0.1955 -0.1617
 5567SOL    HW128163   2.692   1.117   1.980 -2.1597 -0.6411 -0.5954
 5567SOL    HW228164   2.713   1.105   1.828  0.4783  0.8062 -0.5523
 5568SOL     OW28165   3.359   0.348  11.191 -0.2699  0.3447  0.0813
 5568SOL    HW128166   3.308   0.383  11.118 -1.7133 -2.2523 -0.1647
 5568SOL    HW228167   3.297   0.364  11.262  0.8729 -0.7174  1.3229
 5569SOL     OW28168   1.673   2.751   8.755 -0.3409 -0.0057  0.2289
 5569SOL    HW128169   1.612   2.781   8.822 -1.3295 -1.5148  0.0085
 5569SOL    HW228170   1.625   2.774   8.676 -1.8033 -2.3897  0.4221
 5570SOL     OW28171   1.495   3.178   7.751 -0.3849 -0.4840  0.0284
 5570SOL    HW128172   1.402   3.176   7.731 -0.1542  1.6155 -1.1287
 5570SOL    HW228173   1.512   3.100   7.805 -0.0780  0.4728  1.3129
 5571SOL     OW28174   3.597   3.088   5.661  0.5722 -0.2636 -0.0963
 5571SOL    HW128175   3.687   3.112   5.680  0.0095  0.1071  2.1470
 5571SOL    HW228176   3.556   3.171   5.637  0.0708 -1.2100 -2.5530
 5572SOL     OW28177   1.409   0.760   5.340 -0.0904  0.0133 -1.3009
 5572SOL    HW128178   1.335   0.740   5.397  0.7209  1.2870  0.1878
 5572SOL    HW228179   1.364   0.820   5.280 -0.9175  2.2139  1.5644
 5573SOL     OW28180   0.560   0.344   2.775  0.2613  0.3125 -0.8133
 5573SOL    HW128181   0.571   0.371   2.684  1.3855 -0.0730 -0.7942
 5573SOL    HW228182   0.649   0.319   2.801  0.2974  0.6090 -0.6613
 5574SOL     OW28183   4.200   3.113   7.317  0.1621 -0.2496 -0.6645
 5574SOL    HW128184   4.209   3.184   7.252  0.0035  1.1887  0.8906
 5574SOL    HW228185   4.132   3.147   7.375  1.5039  0.4087  0.5028
 5575SOL     OW28186   4.349   3.965   4.053 -0.3931  0.2352 -0.2344
 5575SOL    HW128187   4.358   3.918   3.970 -1.0234 -2.9387  1.4573
 5575SOL    HW228188   4.307   3.899   4.109 -0.0339 -0.2057 -0.4849
 5576SOL     OW28189   2.057   3.779   3.758  0.8446  0.4726  0.6928
 5576SOL    HW128190   2.019   3.743   3.677  0.2970  2.0067  0.2741
 5576SOL    HW228191   1.984   3.772   3.819 -1.3942  1.5633 -1.8371
 5577SOL     OW28192   3.840   2.127   4.158 -0.2575 -0.1917 -0.8447
 5577SOL    HW128193   3.790   2.201   4.192  0.5688  0.2201 -0.5353
 5577SOL    HW228194   3.790   2.053   4.194 -0.6805  0.4831 -0.0377
 5578SOL     OW28195   3.392   1.450  16.372 -0.2484  0.3152 -0.3175
 5578SOL    HW128196   3.313   1.396  16.377  0.4890 -0.9597 -2.7599
 5578SOL    HW228197   3.421   1.457  16.463 -0.4055  0.7860 -0.3012
 5579SOL     OW28198   2.375   0.107   4.346 -0.0418  0.3892 -0.3023
 5579SOL    HW128199   2.369   0.025   4.296  1.7541  0.7161 -1.0288
 5579SOL    HW228200   2.332   0.167   4.285 -0.0604 -3.9834 -4.6513
 5580SOL     OW28201   1.283   4.308   7.297  0.1251 -0.0145 -0.3840
 5580SOL    HW128202   1.217   4.240   7.309 -0.4602  0.3884 -1.2788
 5580SOL    HW228203   1.299   4.289   7.205 -0.2841  2.6763 -1.0201
 5581SOL     OW28204   4.711   3.435  17.024  0.2863 -0.2273  0.8252
 5581SOL    HW128205   4.629   3.457  16.982  2.3225  0.5142 -2.7648
 5581SOL    HW228206   0.012   3.504  17.087 -1.8584 -0.2163  1.5198
 5582SOL     OW28207   3.857   3.791   1.426 -1.0397  0.1132  0.5742
 5582SOL    HW128208   3.936   3.766   1.378  0.6659  3.9608  1.3803
 5582SOL    HW228209   3.811   3.832   1.353  1.0803  0.7342 -0.4092
 5583SOL     OW28210   2.043   2.324   5.117 -0.2795  0.0127 -0.5045
 5583SOL    HW128211   1.989   2.245   5.114 -0.5384  0.1079  1.6287
 5583SOL    HW228212   2.058   2.344   5.025  0.6051  2.4170  0.1484
 5584SOL     OW28213   3.733   4.451   8.797 -0.0500 -0.0419 -0.0925
 5584SOL    HW128214   3.805   4.462   8.858 -0.8262  0.5703  0.7201
 5584SOL    HW228215   3.678   4.527   8.813  1.2619  1.3275 -2.0570
 5585SOL     OW28216   0.431   4.320  17.545 -0.1847  0.3285  0.0969
 5585SOL    HW128217   0.524   4.297  17.537 -0.7244 -1.5220 -0.9626
 5585SOL    HW228218   0.447   4.398  17.598  2.8732 -0.2472  0.0384
 5586SOL     OW28219   0.870   2.206   8.649 -0.2197 -0.5152  0.1388
 5586SOL    HW128220   0.894   2.174   8.736  0.6585  1.3995  0.6245
 5586SOL    HW228221   0.952   2.208   8.600  0.6988 -0.6678  1.6905
 5587SOL     OW28222   2.278   2.668   7.928 -0.0193  0.6089  0.0597
 5587SOL    HW128223   2.349   2.722   7.964 -0.6242 -0.2008  2.4679
 5587SOL    HW228224   2.213   2.729   7.894 -1.0773 -0.4035  0.2869
 5588SOL     OW28225   3.409   1.577   7.840 -0.5399 -0.1315  0.5893
 5588SOL    HW128226   3.341   1.523   7.881 -2.3412  1.1520 -0.7217
 5588SOL    HW228227   3.440   1.626   7.916  0.5158  0.6484 -0.3492
 5589SOL     OW28228   1.774   2.597   0.300  0.1567  0.1018  0.0161
 5589SOL    HW128229   1.866   2.584   0.275  0.7181  2.6709  0.7210
 5589SOL    HW228230   1.784   2.691   0.314 -1.3935  0.3453 -0.5832
 5590SOL     OW28231   4.633   4.236   2.606  0.2035  0.1930  0.2429
 5590SOL    HW128232   4.696   4.232   2.534 -0.2319 -0.2000 -0.1128
 5590SOL    HW228233   4.680   4.291   2.669 -2.6947  2.1501  0.6641
 5591SOL     OW28234   4.633   4.432   3.481 -0.0636 -0.2087  0.4036
 5591SOL    HW128235   4.699   4.496   3.454  1.4200 -1.5463  0.8323
 5591SOL    HW228236   4.685   4.369   3.531  0.1724  0.4269  0.9506
 5592SOL     OW28237   0.727   2.360   7.932  0.1993 -0.1031 -0.2001
 5592SOL    HW128238   0.787   2.424   7.893  0.0022  0.0890 -0.1877
 5592SOL    HW228239   0.783   2.321   8.000 -0.4797 -2.7940 -1.2067
 5593SOL     OW28240   2.615   0.233   4.569  0.2256  0.0884  0.1962
 5593SOL    HW128241   2.522   0.237   4.549  0.6312  0.2226 -1.6827
 5593SOL    HW228242   2.656   0.306   4.522  2.3115 -1.4650 -0.4290
 5594SOL     OW28243   3.902   1.919   3.966 -0.0429 -0.3716  0.7456
 5594SOL    HW128244   3.906   1.950   3.875 -0.2464 -0.9789  0.5318
 5594SOL    HW228245   3.911   2.000   4.017 -1.7872 -0.4666  1.2250
 5595SOL     OW28246   1.078   3.479   2.584  0.0713  0.1682  0.1781
 5595SOL    HW128247   1.047   3.530   2.660  0.6855  1.0874 -0.1879
 5595SOL    HW228248   1.014   3.408   2.583  2.3688 -1.8637 -0.9481
 5596SOL     OW28249   0.153   0.763   9.093  0.5816  0.7454 -0.1137
 5596SOL    HW128250   0.141   0.756   8.998 -1.2224  0.1999  0.1611
 5596SOL    HW228251   0.248   0.767   9.101  0.7618  0.9026 -2.2861
 5597SOL     OW28252   0.733   1.233  15.590  0.2760  0.5090  0.4494
 5597SOL    HW128253   0.670   1.217  15.519  0.7390  0.9784 -0.0669
 5597SOL    HW228254   0.766   1.314  15.551  0.5016  0.0579 -0.2780
 5598SOL     OW28255   0.280   2.398   5.660 -0.0085 -0.1046 -0.0327
 5598SOL    HW128256   0.241   2.464   5.717 -0.4467 -1.3977  1.1404
 5598SOL    HW228257   0.343   2.354   5.717 -1.1294  0.0742  1.3516
 5599SOL     OW28258   3.363   0.208  11.777  0.0691 -0.4589 -0.2299
 5599SOL    HW128259   3.449   0.182  11.744  0.5002 -1.5578  1.7670
 5599SOL    HW228260   3.342   0.287  11.726  1.3607  1.0303  1.5462
 5600SOL     OW28261   3.578   0.562   4.102 -0.5572 -0.2180 -0.0435
 5600SOL    HW128262   3.543   0.513   4.176 -0.0507  0.2903  0.5228
 5600SOL    HW228263   3.642   0.620   4.142 -0.1492 -1.2678  0.8058
 5601SOL     OW28264   3.595   3.705   5.363 -0.5584  0.8527  0.4260
 5601SOL    HW128265   3.611   3.705   5.457  1.8697  0.4972  0.0329
 5601SOL    HW228266   3.503   3.680   5.356 -0.0484 -1.0890  0.6977
 5602SOL     OW28267   1.572   1.824   0.721  0.4391 -0.0915 -0.4411
 5602SOL    HW128268   1.565   1.732   0.698  1.4862 -0.4575  0.6591
 5602SOL    HW228269   1.486   1.844   0.756  0.5169  1.9516 -1.4026
 5603SOL     OW28270   1.676   4.019   2.093  0.4001 -0.4995  0.0187
 5603SOL    HW128271   1.669   4.062   2.178 -0.1597  1.6012 -1.0984
 5603SOL    HW228272   1.595   3.967   2.086 -0.7852  1.2800  0.4740
 5604SOL     OW28273   3.653   3.865   8.800 -0.5236 -0.1490 -0.1185
 5604SOL    HW128274   3.629   3.839   8.889  1.4772  1.5130  0.9075
 5604SOL    HW228275   3.743   3.892   8.817 -0.6325  0.4737 -0.5242
 5605SOL     OW28276   3.916   2.959   4.759  1.1840 -0.0592  0.4129
 5605SOL    HW128277   3.881   2.973   4.847 -1.2704  0.0042 -0.5665
 5605SOL    HW228278   3.838   2.927   4.713  0.6159  0.1083  1.2595
 5606SOL     OW28279   3.458   3.805  12.325  0.4703 -0.1195 -0.4016
 5606SOL    HW128280   3.526   3.827  12.389 -0.1328 -1.7231  0.7674
 5606SOL    HW228281   3.380   3.839  12.368  0.4520 -1.5012  0.6454
 5607SOL     OW28282   1.053   1.998   4.276  1.0595 -0.5218 -0.0472
 5607SOL    HW128283   1.126   1.938   4.261  1.0551 -0.1300 -1.6137
 5607SOL    HW228284   1.011   1.970   4.358  2.0977 -4.5221 -0.8783
 5608SOL     OW28285   1.871   0.659   2.670 -0.6069  0.2132 -0.5752
 5608SOL    HW128286   1.777   0.674   2.671 -0.3032  2.0908 -1.4254
 5608SOL    HW228287   1.897   0.674   2.579  1.0412  0.1440 -0.1200
 5609SOL     OW28288   3.498   1.518   7.287 -0.0240  0.0902 -0.0154
 5609SOL    HW128289   3.427   1.526   7.351 -1.6099  2.0451 -2.0373
 5609SOL    HW228290   3.576   1.496   7.338 -1.2895 -1.2219  1.4045
 5610SOL     OW28291   1.215   3.936  14.991  1.0129 -0.1395 -0.3046
 5610SOL    HW128292   1.188   3.978  15.072  0.7251 -1.7257  0.4255
 5610SOL    HW228293   1.163   3.984  14.927  1.4656  1.2190  0.3408
 5611SOL     OW28294   2.810   0.584   8.563 -0.0012 -0.1737  0.1457
 5611SOL    HW128295   2.889   0.627   8.530 -1.8677  2.8192 -0.4622
 5611SOL    HW228296   2.756   0.603   8.487  0.4157 -2.5345 -0.7458
 5612SOL     OW28297   1.907   3.609   5.164  0.0723  0.2571 -1.0850
 5612SOL    HW128298   1.828   3.628   5.214  1.5774  0.4487  1.1874
 5612SOL    HW228299   1.904   3.684   5.104  0.3724  1.5534  0.5007
 5613SOL     OW28300   1.898   4.707  12.567 -0.1428 -0.3395 -0.1708
 5613SOL    HW128301   1.803   4.699  12.569 -0.1591 -0.1402 -0.1795
 5613SOL    HW228302   1.927   4.659  12.645 -0.8311  1.2914  1.0971
 5614SOL     OW28303   1.168   4.612   4.842 -0.1559 -0.1611 -0.3229
 5614SOL    HW128304   1.149   4.619   4.935  2.2608  0.1753  0.1604
 5614SOL    HW228305   1.165   4.706   4.826  0.8971  0.0749  0.8325
 5615SOL     OW28306   3.510   2.440   7.439  0.4980  0.0392  0.2567
 5615SOL    HW128307   3.421   2.407   7.431  0.9925 -1.2472 -0.1147
 5615SOL    HW228308   3.552   2.395   7.365 -4.3653 -1.4788 -1.6011
 5616SOL     OW28309   4.471   4.517   8.908 -0.2633 -0.4408 -0.0420
 5616SOL    HW128310   4.517   4.561   8.837  1.6953 -1.2804  0.7143
 5616SOL    HW228311   4.538   4.508   8.976 -1.1691  0.3360  0.9449
 5617SOL     OW28312   4.325   1.352   1.464  0.0511  0.4098  0.2387
 5617SOL    HW128313   4.391   1.415   1.436  2.5403 -0.4334  4.1859
 5617SOL    HW228314   4.371   1.318   1.541  0.3716 -0.8780 -0.5290
 5618SOL     OW28315   3.578   0.111   6.887 -0.2935  0.0338  0.0950
 5618SOL    HW128316   3.661   0.140   6.926 -0.4475 -1.4509  1.5269
 5618SOL    HW228317   3.526   0.116   6.967 -0.6804  3.2153 -0.3308
 5619SOL     OW28318   3.248   1.703   2.812  0.4096  0.2831  0.5194
 5619SOL    HW128319   3.229   1.652   2.734 -2.2421  1.3547  0.4607
 5619SOL    HW228320   3.177   1.767   2.805 -0.8131 -0.9007  2.0380
 5620SOL     OW28321   1.135   1.427   8.644  0.7702  0.0168  0.6862
 5620SOL    HW128322   1.106   1.337   8.629 -0.3204  0.8042 -1.8931
 5620SOL    HW228323   1.231   1.422   8.641  0.8385  0.7332  1.6944
 5621SOL     OW28324   1.280   0.191   5.964  0.2142  0.1571  0.0964
 5621SOL    HW128325   1.320   0.278   5.956  0.0817  0.1814 -0.3011
 5621SOL    HW228326   1.351   0.135   5.932  1.1936  1.1037  0.6142
 5622SOL     OW28327   2.700   3.171   6.927 -0.0449 -0.1175 -0.0321
 5622SOL    HW128328   2.756   3.095   6.941  1.4459  1.1848  0.9983
 5622SOL    HW228329   2.635   3.134   6.867 -1.7924  0.9357  1.2071
 5623SOL     OW28330   3.104   3.730   8.624  0.4098  0.4621  0.2758
 5623SOL    HW128331   3.199   3.715   8.628  0.6414  1.9982  0.5008
 5623SOL    HW228332   3.074   3.643   8.651 -0.1104  0.7536  0.6306
 5624SOL     OW28333   4.505   0.567   4.401 -0.4502  0.0297 -0.1040
 5624SOL    HW128334   4.432   0.563   4.463 -0.9659  0.0252 -0.7159
 5624SOL    HW228335   4.586   0.565   4.452  0.0335  2.6545 -0.7421
 5625SOL     OW28336   2.827   1.427   6.988 -0.0371  0.8705 -0.5863
 5625SOL    HW128337   2.860   1.385   6.908 -2.1775  0.5661 -1.3107
 5625SOL    HW228338   2.904   1.429   7.045  1.8919  1.2353 -3.1942
 5626SOL     OW28339   2.395   4.492  12.371 -0.5376  0.0097 -0.2518
 5626SOL    HW128340   2.457   4.564  12.376  0.5730 -1.0380  0.9363
 5626SOL    HW228341   2.348   4.530  12.297  1.7326  0.8108 -1.2608
 5627SOL     OW28342   2.082   4.416   5.659 -0.1153 -0.8006 -0.6060
 5627SOL    HW128343   2.177   4.401   5.663 -0.3303 -2.1343 -0.5246
 5627SOL    HW228344   2.056   4.354   5.591  0.1878 -0.9120 -0.6208
 5628SOL     OW28345   1.593   2.028   6.920 -0.3228  0.3191  0.1246
 5628SOL    HW128346   1.545   2.022   6.837  0.4728 -0.3838 -0.2770
 5628SOL    HW228347   1.582   2.122   6.936  1.2566  0.5073  0.0503
 5629SOL     OW28348   4.208   3.159   0.514  0.0145 -0.4736  0.6353
 5629SOL    HW128349   4.236   3.186   0.426  0.6314 -0.4940  0.8264
 5629SOL    HW228350   4.135   3.099   0.494 -0.1545  0.6921 -2.2884
 5630SOL     OW28351   1.776   0.159   5.228  0.0160  0.6346  0.1672
 5630SOL    HW128352   1.842   0.105   5.273 -1.2640  1.1737  2.7170
 5630SOL    HW228353   1.710   0.181   5.294 -0.9285 -0.7155 -0.3046
 5631SOL     OW28354   2.309   0.602   8.256  0.6010  0.4310 -0.1782
 5631SOL    HW128355   2.273   0.603   8.168  1.4529  1.7987 -0.5141
 5631SOL    HW228356   2.392   0.651   8.257  0.0950  1.2930  0.8652
 5632SOL     OW28357   4.025   4.371   6.787  0.0933  0.2183 -0.2999
 5632SOL    HW128358   3.936   4.391   6.760 -0.0851 -0.8257 -0.4865
 5632SOL    HW228359   4.059   4.459   6.801 -0.8335  0.4308  0.6160
 5633SOL     OW28360   3.038   3.262  11.940  0.0235 -0.0641  0.4397
 5633SOL    HW128361   2.952   3.252  11.899  0.0032  5.0124 -0.7680
 5633SOL    HW228362   3.047   3.357  11.947  3.0322 -0.2616 -1.2000
 5634SOL     OW28363   0.795   1.987  17.051 -0.3193  0.4228  0.7050
 5634SOL    HW128364   0.717   1.961  17.100 -1.3255  0.1423 -1.0378
 5634SOL    HW228365   0.778   2.077  17.023 -0.3001  0.5083  0.9715
 5635SOL     OW28366   1.681   4.210   7.394  0.1076  0.5254  0.1932
 5635SOL    HW128367   1.632   4.292   7.401 -0.2718  0.5031 -2.3359
 5635SOL    HW228368   1.610   4.150   7.416 -0.7556  2.6394  3.3260
 5636SOL     OW28369   0.049   0.749   0.878 -0.2117 -0.1400  0.0314
 5636SOL    HW128370   0.112   0.712   0.816 -0.4797 -0.0498 -0.2973
 5636SOL    HW228371   4.688   0.706   0.851 -0.4988 -0.8223  1.9764
 5637SOL     OW28372   2.882   4.417  10.176  0.2071  0.3115 -0.3820
 5637SOL    HW128373   2.927   4.339  10.142 -2.6557 -1.3658 -0.3413
 5637SOL    HW228374   2.845   4.379  10.256  2.8711 -3.5922 -0.9774
 5638SOL     OW28375   2.162   4.320  14.093  0.1734  0.0310  0.3702
 5638SOL    HW128376   2.249   4.361  14.090  0.3328 -0.3915 -0.7417
 5638SOL    HW228377   2.155   4.287  14.003 -0.7765 -0.5223  0.6541
 5639SOL     OW28378   3.825   0.563   5.047 -0.0749  0.1280 -0.4701
 5639SOL    HW128379   3.885   0.504   5.093 -0.1041  0.7050  0.3132
 5639SOL    HW228380   3.804   0.633   5.108 -0.3429 -0.3320 -0.0327
 5640SOL     OW28381   0.551   1.512   5.035 -0.3351 -0.0654  0.0200
 5640SOL    HW128382   0.490   1.512   5.108  0.2033  0.3654  0.4693
 5640SOL    HW228383   0.617   1.574   5.067  0.8976 -1.4128  0.1087
 5641SOL     OW28384   4.311   3.873   8.827 -0.2166  0.3405 -0.2230
 5641SOL    HW128385   4.406   3.864   8.835  0.1423  0.3844 -4.5496
 5641SOL    HW228386   4.290   3.885   8.920  2.4620  2.9488  0.0273
 5642SOL     OW28387   0.017   2.954  11.456 -0.0819 -0.4859  0.3385
 5642SOL    HW128388   4.697   2.872  11.483 -0.8430 -1.0472 -2.5949
 5642SOL    HW228389   0.112   2.958  11.472 -0.1385  2.4573 -0.0409
 5643SOL     OW28390   2.392   2.821   9.892  0.1868  0.3099 -0.3440
 5643SOL    HW128391   2.402   2.785   9.980 -3.6288 -1.2010 -0.5017
 5643SOL    HW228392   2.368   2.745   9.838 -1.3990  1.6316 -1.5067
 5644SOL     OW28393   1.291   2.143   4.023 -0.6118  0.4793 -0.0831
 5644SOL    HW128394   1.347   2.213   3.992  0.4393  0.4660  1.8021
 5644SOL    HW228395   1.205   2.180   4.001 -0.8052 -1.3630 -2.3912
 5645SOL     OW28396   2.696   1.867  17.287 -0.5655  0.9123  0.4024
 5645SOL    HW128397   2.631   1.807  17.250 -0.4944  1.9009 -1.3314
 5645SOL    HW228398   2.633   1.934  17.316 -1.8247 -0.3188  0.5177
 5646SOL     OW28399   4.109   4.516   0.575 -0.0075 -0.3276 -0.0105
 5646SOL    HW128400   4.028   4.563   0.558 -1.1892 -1.2674  2.9443
 5646SOL    HW228401   4.160   4.583   0.621 -0.5673 -0.4566  0.7970
 5647SOL     OW28402   2.315   2.670   8.718  0.2366  0.1602 -0.2805
 5647SOL    HW128403   2.398   2.715   8.699 -0.3424  0.2070 -2.7084
 5647SOL    HW228404   2.270   2.728   8.779 -1.4358 -2.1650  0.6477
 5648SOL     OW28405   0.460   4.572   0.024  0.4735  0.0474  0.2465
 5648SOL    HW128406   0.392   4.559   0.090  0.4168  0.7449  0.3174
 5648SOL    HW228407   0.496   4.655   0.055  0.8171  0.5758 -1.6045
 5649SOL     OW28408   3.077   3.979   9.268 -0.1736  0.4249 -0.3590
 5649SOL    HW128409   3.012   3.969   9.338  0.7932 -1.7099  0.2114
 5649SOL    HW228410   3.142   4.018   9.326 -0.2375 -0.2085  0.1359
 5650SOL     OW28411   3.746   2.784   9.075  0.2851  0.0319 -0.3962
 5650SOL    HW128412   3.731   2.742   9.160 -0.5871 -0.0431 -0.5914
 5650SOL    HW228413   3.675   2.847   9.069 -2.6301 -3.3607 -1.2267
 5651SOL     OW28414   3.342   3.053  10.112  0.3011  0.0378 -0.1152
 5651SOL    HW128415   3.394   3.057  10.032  0.2336 -0.6859 -0.1973
 5651SOL    HW228416   3.284   3.129  10.108  0.6051  0.2689 -0.1427
 5652SOL     OW28417   2.077   3.234   4.620 -0.1447 -0.5091 -0.6424
 5652SOL    HW128418   2.129   3.307   4.655 -2.0836 -0.2165  1.6072
 5652SOL    HW228419   2.114   3.162   4.670 -0.2713 -1.1276 -1.4375
 5653SOL     OW28420   3.241   1.587  12.967  0.1289  0.2209 -0.0059
 5653SOL    HW128421   3.272   1.628  12.886  0.1193 -1.7736 -1.0471
 5653SOL    HW228422   3.192   1.513  12.929 -1.9949  1.5729  0.0887
 5654SOL     OW28423   0.334   4.100  13.209 -0.2209 -0.5716 -0.1745
 5654SOL    HW128424   0.323   4.006  13.196  1.7060 -0.8250  0.1046
 5654SOL    HW228425   0.250   4.121  13.168 -0.4954  0.5521  0.9671
 5655SOL     OW28426   3.849   4.708   2.835  0.1374 -0.1364  0.2261
 5655SOL    HW128427   3.882   4.624   2.804  0.9103  0.0892  0.4267
 5655SOL    HW228428   3.783   0.002   2.768 -0.3468  0.2535  0.7850
 5656SOL     OW28429   2.811   4.573   6.959 -0.1350 -0.2518 -0.0314
 5656SOL    HW128430   2.731   4.562   6.908  0.1518  1.5764 -0.9110
 5656SOL    HW228431   2.868   4.503   6.927 -0.7746 -0.7722 -0.0162
 5657SOL     OW28432   4.391   3.030   7.014  0.2732  0.4417  0.4179
 5657SOL    HW128433   4.323   2.988   6.961  0.3742  0.6855  0.0960
 5657SOL    HW228434   4.443   3.087   6.956  1.2899  0.2418  1.1252
 5658SOL     OW28435   0.384   1.014   4.204 -0.1046  0.4360  0.1813
 5658SOL    HW128436   0.453   0.950   4.219  0.7002  1.2620  0.0339
 5658SOL    HW228437   0.322   0.988   4.272  0.9060  1.5297  1.5395
 5659SOL     OW28438   4.256   3.570   3.789  0.2139  0.0649  0.2622
 5659SOL    HW128439   4.212   3.620   3.721  0.9530  0.4143  0.0319
 5659SOL    HW228440   4.350   3.575   3.768  0.3115 -0.9109  0.4497
 5660SOL     OW28441   1.135   0.469  11.699 -0.0818 -0.8982 -0.4844
 5660SOL    HW128442   1.224   0.499  11.714 -0.1836  0.6625 -3.0194
 5660SOL    HW228443   1.091   0.547  11.667 -0.2200 -0.2311  1.3319
 5661SOL     OW28444   4.087   1.822   1.638  0.1660  0.2222 -0.4941
 5661SOL    HW128445   4.093   1.742   1.690 -0.0084  0.4220 -0.1662
 5661SOL    HW228446   4.050   1.803   1.552  1.1090  0.8396 -1.0336
 5662SOL     OW28447   3.795   4.208   5.607  0.1782 -0.6164 -0.6194
 5662SOL    HW128448   3.768   4.116   5.607 -1.5072 -0.1195 -0.3738
 5662SOL    HW228449   3.791   4.226   5.513 -2.3593  0.0240 -0.3973
 5663SOL     OW28450   4.286   3.959   8.575  0.0583 -0.0669  0.0621
 5663SOL    HW128451   4.325   3.936   8.659 -1.0003 -2.4581 -0.1017
 5663SOL    HW228452   4.258   4.049   8.593  0.6051  0.8182 -3.5096
 5664SOL     OW28453   2.499   2.862  16.941 -0.0401 -0.1828 -0.3102
 5664SOL    HW128454   2.410   2.836  16.917  0.1311 -1.2582  0.1886
 5664SOL    HW228455   2.523   2.927  16.876  1.5128 -2.4872 -2.0557
 5665SOL     OW28456   1.031   0.085   6.951  0.0709 -0.8401 -0.3342
 5665SOL    HW128457   1.077   0.004   6.973  1.0466 -0.6262 -1.5982
 5665SOL    HW228458   0.945   0.073   6.990  0.7842  1.3745  1.9092
 5666SOL     OW28459   1.303   4.677  14.010 -0.3964  0.2413 -0.3799
 5666SOL    HW128460   1.302   0.051  14.030  0.2801  0.1935 -0.1411
 5666SOL    HW228461   1.220   4.672  13.962 -1.1512  0.2544  0.9079
 5667SOL     OW28462   0.121   0.913   8.280 -0.0905 -0.3925  0.4221
 5667SOL    HW128463   0.183   0.890   8.211  0.3522 -0.8200  0.9604
 5667SOL    HW228464   0.178   0.936   8.353 -0.9746 -1.2145  1.3726
 5668SOL     OW28465   2.011   0.929   6.215 -0.1181 -0.1839  0.3389
 5668SOL    HW128466   1.983   0.906   6.126  0.4743 -0.0493  0.1190
 5668SOL    HW228467   2.103   0.911   6.199 -0.0306  0.1893  0.4212
 5669SOL     OW28468   4.664   4.567   1.933 -0.2056  0.6065  0.4448
 5669SOL    HW128469   0.028   4.578   1.978  0.4622  0.1135 -0.6853
 5669SOL    HW228470   4.651   4.476   1.958  0.0797  0.0105 -1.6125
 5670SOL     OW28471   2.691   4.573  10.031  0.2975  0.0840 -0.2887
 5670SOL    HW128472   2.753   4.515  10.076 -0.6336 -0.9276 -0.3198
 5670SOL    HW228473   2.756   4.625   9.983  1.7049 -1.8783 -0.5191
 5671SOL     OW28474   1.974   0.219   4.014  0.3827 -0.0078  0.5775
 5671SOL    HW128475   1.996   0.244   3.924 -1.6200 -2.4567 -0.5989
 5671SOL    HW228476   1.889   0.263   4.020 -0.4908 -1.4439 -1.3623
 5672SOL     OW28477   0.353   3.189   0.734 -0.1746 -0.3476 -0.0246
 5672SOL    HW128478   0.278   3.227   0.780 -0.8509 -0.1570 -1.2888
 5672SOL    HW228479   0.419   3.243   0.778 -0.0691 -1.0180  0.6349
 5673SOL     OW28480   0.865   3.685   0.940  1.0826  0.3950  0.3492
 5673SOL    HW128481   0.858   3.761   0.997 -0.3362  0.4422  0.1182
 5673SOL    HW228482   0.850   3.614   1.002  1.2815 -0.3146 -0.4079
 5674SOL     OW28483   4.180   1.939   0.507  0.3542 -0.0080  0.1843
 5674SOL    HW128484   4.130   2.017   0.530  3.1553  2.1300 -1.0206
 5674SOL    HW228485   4.142   1.918   0.422  1.2985 -0.4551 -0.1227
 5675SOL     OW28486   1.546   3.954   1.624  0.3303  0.8197  0.3127
 5675SOL    HW128487   1.594   3.881   1.585  0.1034  0.6885  0.2779
 5675SOL    HW228488   1.613   3.978   1.689 -1.6469  0.4074  2.4970
 5676SOL     OW28489   2.772   0.089   3.869  0.3305  0.0547 -0.8334
 5676SOL    HW128490   2.723   0.007   3.879  0.5951 -0.0611 -0.4910
 5676SOL    HW228491   2.865   0.068   3.872  0.5402  0.9855 -0.8473
 5677SOL     OW28492   4.718   3.210   8.489  0.2990 -0.2304  0.2912
 5677SOL    HW128493   4.687   3.299   8.508 -1.2416 -0.5624 -0.6751
 5677SOL    HW228494   4.680   3.165   8.565  0.5655  1.8091  1.6532
 5678SOL     OW28495   4.326   1.415  12.940 -0.0395  0.7093 -0.4237
 5678SOL    HW128496   4.403   1.379  12.895  0.4500 -2.2711  2.7863
 5678SOL    HW228497   4.368   1.484  12.991  0.1794  0.7098 -0.6031
 5679SOL     OW28498   2.427   4.556   3.695 -0.5763  0.5080 -0.4713
 5679SOL    HW128499   2.409   4.479   3.749  2.6670 -0.3438 -0.6375
 5679SOL    HW228500   2.373   4.617   3.746  0.0365  1.2023 -0.6487
 5680SOL     OW28501   2.276   3.838   0.924  0.1417 -0.1081 -0.0496
 5680SOL    HW128502   2.230   3.904   0.976 -0.3970 -0.6448  0.1491
 5680SOL    HW228503   2.366   3.862   0.945  0.5624 -1.8084  0.0740
 5681SOL     OW28504   0.351   2.073   3.843  0.0297 -0.5278 -0.2073
 5681SOL    HW128505   0.345   2.086   3.937  1.2293  0.9927 -0.3400
 5681SOL    HW228506   0.412   1.999   3.840  0.8750  0.1311  1.2062
 5682SOL     OW28507   0.382   0.695   9.454  0.1959 -0.0964 -0.5812
 5682SOL    HW128508   0.371   0.789   9.468 -2.6447 -0.4735 -0.3913
 5682SOL    HW228509   0.290   0.679   9.433  0.2706 -0.1186 -0.8920
 5683SOL     OW28510   0.866   0.696  12.831 -0.0898  0.1466  0.0932
 5683SOL    HW128511   0.805   0.657  12.768 -0.8605  0.9160  0.3591
 5683SOL    HW228512   0.899   0.617  12.875 -0.8664  1.8333  3.7221
 5684SOL     OW28513   0.937   3.838   3.455 -0.4338  0.0048  0.4251
 5684SOL    HW128514   0.975   3.882   3.531  1.6235  1.4804 -1.4573
 5684SOL    HW228515   0.921   3.914   3.399  1.6847 -1.2265 -1.8679
 5685SOL     OW28516   3.621   2.504   9.903  0.5971 -0.0112 -0.4112
 5685SOL    HW128517   3.580   2.578   9.948  0.1501  1.5383 -3.4267
 5685SOL    HW228518   3.686   2.487   9.971 -2.3509  0.4738  2.5793
 5686SOL     OW28519   0.271   3.883   6.371  0.6764 -0.6740 -0.5965
 5686SOL    HW128520   0.253   3.910   6.281  1.1314  3.0128  0.4323
 5686SOL    HW228521   0.356   3.839   6.366  1.6009  1.1895 -1.2818
 5687SOL     OW28522   3.320   3.965   7.673  0.0705 -0.1343  0.4188
 5687SOL    HW128523   3.385   4.032   7.695  0.6231 -0.6721  0.4393
 5687SOL    HW228524   3.242   4.017   7.654 -0.0658 -0.4529  0.1174
 5688SOL     OW28525   2.355   4.691   1.268  0.0080  0.3340 -0.3419
 5688SOL    HW128526   2.304   0.050   1.280  0.2793  0.5939 -0.9195
 5688SOL    HW228527   2.339   4.644   1.349 -2.4227  0.0100 -1.0277
 5689SOL     OW28528   2.771   1.836  13.154 -0.3990 -0.1758 -1.3026
 5689SOL    HW128529   2.780   1.750  13.194  0.9944 -0.0171 -1.2751
 5689SOL    HW228530   2.794   1.816  13.064  0.8593  0.6607 -1.1655
 5690SOL     OW28531   1.898   4.227  14.181 -0.6877 -0.1769  0.6188
 5690SOL    HW128532   1.989   4.232  14.152 -0.3238 -0.6336  1.6826
 5690SOL    HW228533   1.901   4.300  14.244 -1.1551  0.4847 -0.1269
 5691SOL     OW28534   0.136   2.489   9.267  0.0086 -0.5115  0.0394
 5691SOL    HW128535   0.189   2.532   9.200 -1.1330  0.3002 -0.3467
 5691SOL    HW228536   0.199   2.429   9.307  2.1442  2.7711  1.6310
 5692SOL     OW28537   1.180   2.229   7.008 -0.5088  0.1162  0.2047
 5692SOL    HW128538   1.201   2.147   6.964 -0.3243 -0.5673  1.5568
 5692SOL    HW228539   1.134   2.272   6.936 -1.2473 -1.2605 -0.1470
 5693SOL     OW28540   4.003   3.399   0.849 -0.4188  0.3307 -0.1003
 5693SOL    HW128541   4.027   3.307   0.861  1.0938  1.0254  2.1079
 5693SOL    HW228542   3.963   3.383   0.763  0.1533  0.3163 -0.3612
 5694SOL     OW28543   3.732   0.908   9.141  0.3726 -0.2195  0.6675
 5694SOL    HW128544   3.713   0.863   9.058  0.8651  1.7162 -0.4844
 5694SOL    HW228545   3.716   0.836   9.202  2.5097 -0.0172  1.4661
 5695SOL     OW28546   2.292   1.008   3.885 -0.0125 -0.3396 -0.2279
 5695SOL    HW128547   2.388   1.008   3.890 -0.0048 -1.3157 -0.2540
 5695SOL    HW228548   2.255   1.055   3.960 -0.3453  0.7128 -1.0496
 5696SOL     OW28549   0.470   3.031  11.103 -0.0317 -0.0214  0.2706
 5696SOL    HW128550   0.559   3.022  11.070 -0.0072  1.0264  0.0401
 5696SOL    HW228551   0.425   3.023  11.019  0.5658  0.6941 -0.1222
 5697SOL     OW28552   3.285   3.266   1.250 -0.3511 -0.0135  0.1119
 5697SOL    HW128553   3.320   3.321   1.180  0.3928 -1.4248 -0.6086
 5697SOL    HW228554   3.357   3.203   1.255 -0.4456 -0.0731  0.8183
 5698SOL     OW28555   2.412   2.620  10.613  0.0206 -0.3169  0.6506
 5698SOL    HW128556   2.380   2.530  10.608 -1.1393  0.0783  0.9389
 5698SOL    HW228557   2.345   2.669  10.565  0.0316 -1.6875 -0.7555
 5699SOL     OW28558   2.014   3.553   6.567  0.0629 -0.0178  0.3077
 5699SOL    HW128559   2.083   3.535   6.631 -0.4492  2.5375  1.5582
 5699SOL    HW228560   1.938   3.537   6.624 -0.4430  0.2086 -0.3046
 5700SOL     OW28561   0.079   0.091   8.762  0.2562  0.0663 -0.5303
 5700SOL    HW128562   4.712   0.058   8.742 -0.6553 -0.3131  4.0530
 5700SOL    HW228563   0.085   0.174   8.715  0.6296  1.9820  2.8908
 5701SOL     OW28564   2.618   1.717   4.643 -0.7780 -0.4334 -0.1376
 5701SOL    HW128565   2.618   1.632   4.687  1.7934 -0.5550 -0.3488
 5701SOL    HW228566   2.708   1.747   4.658 -1.3561  0.9716  0.5078
 5702SOL     OW28567   1.555   2.293   6.928  0.3628 -0.3447  0.0364
 5702SOL    HW128568   1.466   2.324   6.944  0.7456  1.4742 -1.4135
 5702SOL    HW228569   1.590   2.358   6.868  0.2999 -0.6683 -0.3529
 5703SOL     OW28570   2.709   4.555   3.438  0.6385  0.4356  0.6577
 5703SOL    HW128571   2.756   4.523   3.515 -1.9397 -0.1906  1.9654
 5703SOL    HW228572   2.754   4.506   3.370 -1.2880 -0.6366  0.1383
 5704SOL     OW28573   4.629   3.517   9.026 -0.2383 -0.2214  0.2288
 5704SOL    HW128574   4.647   3.452   8.957 -0.5627 -0.4658  0.3750
 5704SOL    HW228575   4.673   3.595   8.995 -1.8695  0.0736 -1.3189
 5705SOL     OW28576   3.534   2.536   5.765 -0.5434 -0.4148 -0.3526
 5705SOL    HW128577   3.579   2.539   5.680  0.6941  0.6535  0.3298
 5705SOL    HW228578   3.516   2.630   5.768  1.1811 -0.1166  1.1670
 5706SOL     OW28579   3.860   1.063   7.827 -0.5014  0.3031  0.2871
 5706SOL    HW128580   3.951   1.083   7.850 -0.3750  0.2320 -0.1583
 5706SOL    HW228581   3.868   0.967   7.831  1.3627  0.4465 -0.1447
 5707SOL     OW28582   2.338   3.969   0.153 -0.3514  0.0059  0.0764
 5707SOL    HW128583   2.417   3.977   0.206 -0.3091  1.0283 -0.1260
 5707SOL    HW228584   2.305   3.888   0.192  2.5151 -1.6106 -0.8910
 5708SOL     OW28585   2.682   1.201  16.969 -0.2132 -0.0162 -0.0418
 5708SOL    HW128586   2.629   1.236  17.040 -0.8660  0.5368 -0.7921
 5708SOL    HW228587   2.636   1.240  16.895  0.5986 -0.6966 -0.9094
 5709SOL     OW28588   2.601   0.667  12.470 -0.1571  0.1118 -0.3756
 5709SOL    HW128589   2.521   0.631  12.430  0.9834 -1.8779 -0.8481
 5709SOL    HW228590   2.659   0.670  12.394 -1.1293  1.4107 -1.0826
 5710SOL     OW28591   2.291   0.021   3.867  0.0242 -0.2532 -0.2627
 5710SOL    HW128592   2.210   4.695   3.891 -1.3201  3.0025  1.6252
 5710SOL    HW228593   2.318   0.051   3.954  0.0773  0.3268 -0.4790
 5711SOL     OW28594   4.570   0.257   9.540  1.1126  0.4930 -0.1916
 5711SOL    HW128595   4.567   0.239   9.634 -0.5587 -1.9565 -0.7339
 5711SOL    HW228596   4.654   0.220   9.513  1.7064  1.3126  0.5221
 5712SOL     OW28597   4.597   1.740   5.764 -0.5746  0.3178  0.6028
 5712SOL    HW128598   4.532   1.736   5.834 -2.7231  2.2164 -1.2874
 5712SOL    HW228599   4.544   1.772   5.691  0.6505 -0.3610 -0.5885
 5713SOL     OW28600   0.424   1.246   7.319 -0.1213 -0.0407 -0.1324
 5713SOL    HW128601   0.470   1.216   7.398  0.4266 -3.1137 -1.6308
 5713SOL    HW228602   0.499   1.245   7.260  1.1065  1.9994  1.3981
 5714SOL     OW28603   0.422   3.932  10.046  0.0400  0.3524 -0.3647
 5714SOL    HW128604   0.437   4.008   9.990 -0.7696  0.8459  0.0846
 5714SOL    HW228605   0.465   3.866   9.992  1.1695  1.0865 -0.3633
 5715SOL     OW28606   2.787   0.050   0.880 -0.0331 -0.3321  0.0318
 5715SOL    HW128607   2.733   0.111   0.930  0.9489  0.5773 -0.0202
 5715SOL    HW228608   2.825   0.098   0.806  0.5033  1.0176  1.1925
 5716SOL     OW28609   4.218   4.180  14.227 -0.1847  0.1525  0.0927
 5716SOL    HW128610   4.234   4.204  14.135 -3.3718 -1.5291 -0.9012
 5716SOL    HW228611   4.306   4.184  14.263  0.6524 -0.6529 -1.8313
 5717SOL     OW28612   0.885   3.275   2.529 -0.0977  0.1582  0.0794
 5717SOL    HW128613   0.933   3.195   2.549 -0.3618 -0.3472 -1.2958
 5717SOL    HW228614   0.868   3.270   2.435 -0.3079 -2.3349  0.2447
 5718SOL     OW28615   0.062   1.286  13.841  0.5758 -0.6057  0.2417
 5718SOL    HW128616   0.135   1.241  13.798  1.5189  2.6089 -1.5334
 5718SOL    HW228617   0.113   1.331  13.908  0.0670 -0.0481  0.2446
 5719SOL     OW28618   4.136   1.473   3.944  0.8414  0.1398 -0.0965
 5719SOL    HW128619   4.057   1.476   3.998  1.0250  0.5841  0.1573
 5719SOL    HW228620   4.129   1.557   3.899  0.1824  0.9191  1.4667
 5720SOL     OW28621   0.532   4.613   6.359 -0.5800 -0.3258  0.2576
 5720SOL    HW128622   0.491   4.697   6.379 -0.1377 -0.5327  2.0853
 5720SOL    HW228623   0.449   4.566   6.352 -0.9238  0.1432  1.1400
 5721SOL     OW28624   0.391   2.527   4.800  0.0288  0.4529  0.3429
 5721SOL    HW128625   0.309   2.565   4.769  0.7736  0.0287 -2.0939
 5721SOL    HW228626   0.421   2.580   4.875  0.2426 -0.1366  0.6742
 5722SOL     OW28627   4.398   0.995  11.819 -0.0500  0.7296 -0.0735
 5722SOL    HW128628   4.403   0.964  11.910  0.1181 -2.7672 -1.2749
 5722SOL    HW228629   4.442   1.078  11.839 -0.9397  1.0973  0.3368
 5723SOL     OW28630   1.759   4.703   1.417 -0.1084  0.1578 -0.5741
 5723SOL    HW128631   1.749   0.069   1.456  0.1769 -0.1065  0.0863
 5723SOL    HW228632   1.688   4.709   1.353  1.0602 -0.2486 -1.9155
 5724SOL     OW28633   3.959   1.670  11.889  0.1093  0.2249  0.4820
 5724SOL    HW128634   3.890   1.612  11.922 -0.7046  0.1508 -1.3423
 5724SOL    HW228635   4.040   1.639  11.929  1.7269  2.2200 -1.2635
 5725SOL     OW28636   2.377   0.424  13.442 -0.0084 -0.1272 -0.2252
 5725SOL    HW128637   2.396   0.459  13.355 -1.2780  1.3421  0.0830
 5725SOL    HW228638   2.434   0.482  13.493  0.4584 -1.1432  0.4123
 5726SOL     OW28639   0.291   0.865   2.816 -0.3915 -0.1848  0.1844
 5726SOL    HW128640   0.239   0.885   2.738  1.7298  0.6852 -1.0413
 5726SOL    HW228641   0.316   0.773   2.804  1.6781  0.5192 -1.0029
 5727SOL     OW28642   4.613   0.581   1.892 -0.4521  1.0116 -0.4107
 5727SOL    HW128643   4.636   0.603   1.802  0.4473  0.2676 -0.3660
 5727SOL    HW228644   4.586   0.490   1.878 -0.5893  0.7049  1.7431
 5728SOL     OW28645   4.261   0.354   6.380 -0.3624 -0.6093  0.3449
 5728SOL    HW128646   4.257   0.367   6.285  0.3632  0.6633  0.4959
 5728SOL    HW228647   4.220   0.432   6.417 -1.2501 -0.0577 -1.8232
 5729SOL     OW28648   2.182   2.177   9.666  0.3476  0.1929  0.0540
 5729SOL    HW128649   2.209   2.256   9.619  3.6642 -0.6431  0.5705
 5729SOL    HW228650   2.270   2.139   9.669 -0.0687 -0.7245  0.4549
 5730SOL     OW28651   3.251   2.323   7.411  0.8079  0.4858  0.5775
 5730SOL    HW128652   3.159   2.347   7.398  0.9044  0.9447  0.7275
 5730SOL    HW228653   3.259   2.293   7.501  0.7160  1.8920  1.0648
 5731SOL     OW28654   3.935   3.871  12.519 -0.0160  0.4835  0.2071
 5731SOL    HW128655   3.954   3.922  12.598 -0.7044  1.9604 -0.5957
 5731SOL    HW228656   3.932   3.932  12.446 -0.6726  0.7422  0.4420
 5732SOL     OW28657   2.340   2.603  12.356 -0.7880 -0.0119 -0.4322
 5732SOL    HW128658   2.326   2.518  12.312  3.0263 -0.0560 -1.6395
 5732SOL    HW228659   2.342   2.573  12.447  1.5954  1.6101  0.0556
 5733SOL     OW28660   0.731   3.416  17.452 -0.0272 -0.8038 -0.0975
 5733SOL    HW128661   0.666   3.473  17.492  1.5291 -0.0581  1.3535
 5733SOL    HW228662   0.678   3.338  17.437  2.5492 -2.8197  1.2604
 5734SOL     OW28663   2.955   3.016   4.362  0.0279  0.3762 -0.1617
 5734SOL    HW128664   3.008   3.092   4.384  0.5011  0.0710 -0.2405
 5734SOL    HW228665   2.886   3.042   4.423 -0.8209  1.8021 -1.7435
 5735SOL     OW28666   0.605   0.299   4.687 -0.2159  0.0164  0.4284
 5735SOL    HW128667   0.527   0.314   4.741 -1.0661 -1.7375 -0.3050
 5735SOL    HW228668   0.569   0.272   4.603  0.1053 -1.6962  0.8362
 5736SOL     OW28669   1.770   3.146   6.257 -0.0995 -0.0206  0.2430
 5736SOL    HW128670   1.729   3.072   6.301  1.4778  0.3183  2.2752
 5736SOL    HW228671   1.765   3.215   6.324 -2.4798  0.8365 -0.7986
 5737SOL     OW28672   2.269   0.876   9.473 -0.4386 -0.4020  0.3710
 5737SOL    HW128673   2.184   0.917   9.457  0.4306  0.4566 -1.9124
 5737SOL    HW228674   2.318   0.957   9.463 -0.8177 -0.3213 -0.8238
 5738SOL     OW28675   3.540   2.240   2.894 -0.0001 -0.1302 -0.2101
 5738SOL    HW128676   3.496   2.167   2.851  0.7310 -0.1967 -0.8479
 5738SOL    HW228677   3.599   2.275   2.827 -1.1894  1.1033 -0.6272
 5739SOL     OW28678   0.612   2.934   5.545 -0.3432  0.4943  0.1326
 5739SOL    HW128679   0.524   2.900   5.528  0.1187  0.4249 -2.1007
 5739SOL    HW228680   0.670   2.899   5.477  1.2281  1.2737  1.0780
 5740SOL     OW28681   2.651   0.571  10.083  0.3629  0.0786 -0.3630
 5740SOL    HW128682   2.668   0.529  10.167  1.1000  0.0299 -0.5308
 5740SOL    HW228683   2.714   0.643  10.073 -1.8138  1.9267 -0.6546
 5741SOL     OW28684   2.591   4.468   0.079 -0.2412 -0.7100 -0.4506
 5741SOL    HW128685   2.665   4.526   0.097  0.1515 -0.7148 -2.0752
 5741SOL    HW228686   2.638   4.402   0.028 -0.3691 -0.3172 -1.0845
 5742SOL     OW28687   0.053   4.692   7.642 -0.6391  0.2999 -0.4885
 5742SOL    HW128688   0.119   0.040   7.631  0.6334 -1.0507 -1.2778
 5742SOL    HW228689   4.698   0.022   7.611 -0.8740 -0.3336 -0.9654
 5743SOL     OW28690   1.214   1.311   6.559 -0.2970  0.0910  0.8269
 5743SOL    HW128691   1.148   1.267   6.505  0.0896 -0.8704  1.1440
 5743SOL    HW228692   1.268   1.236   6.583  0.3511  0.1860 -0.3478
 5744SOL     OW28693   2.611   0.920   4.346 -0.2777  0.7007  0.0223
 5744SOL    HW128694   2.659   0.876   4.277  1.1044  1.8024  0.2721
 5744SOL    HW228695   2.521   0.909   4.317 -0.6956 -0.7203  1.8577
 5745SOL     OW28696   4.410   0.985   9.561 -0.0594 -0.2826  0.2922
 5745SOL    HW128697   4.369   0.993   9.647 -0.0253 -1.7982  0.4366
 5745SOL    HW228698   4.339   0.987   9.496 -0.0676 -2.6012  0.2604
 5746SOL     OW28699   4.034   0.324   6.974  0.3237 -0.2288  0.1695
 5746SOL    HW128700   4.118   0.353   6.937  0.9304 -0.9982  0.9204
 5746SOL    HW228701   4.022   0.386   7.046  3.3493 -1.1351  1.4768
 5747SOL     OW28702   1.887   2.483   8.036  0.3323  0.6876 -0.4920
 5747SOL    HW128703   1.837   2.480   8.118 -0.1324 -0.0914 -0.8096
 5747SOL    HW228704   1.948   2.410   8.051 -1.9581 -1.1141  0.0014
 5748SOL     OW28705   4.554   2.298   4.402 -0.0208  0.6725  0.3325
 5748SOL    HW128706   4.624   2.276   4.464  1.8803 -0.5959 -2.2833
 5748SOL    HW228707   4.538   2.210   4.368  1.2115  1.2483 -1.7544
 5749SOL     OW28708   1.664   2.852   3.702  0.0407  0.1909 -0.6828
 5749SOL    HW128709   1.748   2.899   3.706  0.0254  0.2283 -0.7921
 5749SOL    HW228710   1.662   2.801   3.783  0.0898 -1.6120 -1.8419
 5750SOL     OW28711   1.418   1.992   5.011  0.1207 -0.2788  0.1016
 5750SOL    HW128712   1.473   1.915   5.030  1.4042  0.7462  0.5592
 5750SOL    HW228713   1.436   2.000   4.917  2.2412  0.1786  0.5270
 5751SOL     OW28714   4.275   1.257   2.096 -0.1911 -0.8560 -0.7336
 5751SOL    HW128715   4.275   1.170   2.058 -1.2120 -1.6940  1.2085
 5751SOL    HW228716   4.284   1.240   2.190 -1.5958  0.9855 -0.2691
 5752SOL     OW28717   1.499   0.811   9.698 -0.5691 -0.3720  0.3303
 5752SOL    HW128718   1.424   0.868   9.719 -1.2780 -1.5114  0.8945
 5752SOL    HW228719   1.563   0.844   9.761 -0.2587 -3.0663  1.4484
 5753SOL     OW28720   2.492   3.177   5.363  0.4637  0.0922 -0.0375
 5753SOL    HW128721   2.435   3.251   5.386 -0.5127 -1.0451  1.1502
 5753SOL    HW228722   2.568   3.199   5.417  2.2159 -0.4836 -2.2840
 5754SOL     OW28723   2.051   0.772  12.751  0.2005  0.1472 -0.1689
 5754SOL    HW128724   2.013   0.806  12.832  0.4011 -0.1828  0.0656
 5754SOL    HW228725   2.002   0.696  12.721 -0.2583  0.4882 -0.2754
 5755SOL     OW28726   1.256   0.794   5.563 -0.6575  0.6173 -0.2301
 5755SOL    HW128727   1.322   0.826   5.625 -0.1441  0.4764 -0.6963
 5755SOL    HW228728   1.185   0.858   5.571  0.1665  1.8445 -2.4335
 5756SOL     OW28729   4.362   0.561   4.102 -0.2595 -0.2637  0.2186
 5756SOL    HW128730   4.383   0.643   4.146 -0.2598  0.0991 -0.4536
 5756SOL    HW228731   4.342   0.590   4.013  1.8570 -0.5918 -0.3799
 5757SOL     OW28732   2.158   4.284  16.861 -0.1276  0.4890 -0.3666
 5757SOL    HW128733   2.141   4.194  16.889 -0.1151  0.0942 -1.6221
 5757SOL    HW228734   2.075   4.330  16.873  0.4534  1.5581 -0.4440
 5758SOL     OW28735   1.684   2.763  13.249  0.0906 -0.2375 -0.4279
 5758SOL    HW128736   1.749   2.741  13.183 -0.0076  0.5908 -0.7991
 5758SOL    HW228737   1.606   2.769  13.194  1.9940  0.8206 -2.9878
 5759SOL     OW28738   0.429   2.426   2.638 -0.0875 -0.1651  0.0529
 5759SOL    HW128739   0.336   2.444   2.624  0.1143  0.2656 -0.6716
 5759SOL    HW228740   0.422   2.457   2.729  0.5163 -1.3000  0.4925
 5760SOL     OW28741   3.646   1.794  16.922 -0.3392 -0.0104  0.4196
 5760SOL    HW128742   3.685   1.834  17.000 -0.3156 -0.9191  0.8723
 5760SOL    HW228743   3.603   1.871  16.883 -0.2881  0.4013  1.1675
 5761SOL     OW28744   3.068   3.126   7.140  0.1964  0.1419  0.7766
 5761SOL    HW128745   3.101   3.173   7.063  1.8829 -1.3573  0.5867
 5761SOL    HW228746   3.013   3.189   7.187  1.7736  0.4845  2.1411
 5762SOL     OW28747   0.151   1.025   5.724 -0.3981 -0.0092  0.1327
 5762SOL    HW128748   0.240   1.052   5.699 -0.9104 -0.7083 -2.4379
 5762SOL    HW228749   0.105   1.109   5.722  2.5114  1.6295  1.5085
 5763SOL     OW28750   1.399   2.472   5.339  0.0295  0.6062 -0.4560
 5763SOL    HW128751   1.458   2.545   5.322 -0.7452  0.4336 -3.8735
 5763SOL    HW228752   1.387   2.488   5.433 -2.9667  1.1143 -0.9134
 5764SOL     OW28753   3.328   0.684  13.647 -0.2795  0.1921 -0.4049
 5764SOL    HW128754   3.279   0.617  13.600 -1.3605  0.9062 -0.2814
 5764SOL    HW228755   3.269   0.754  13.674  2.0067  1.3897  1.5174
 5765SOL     OW28756   3.704   2.700  13.302  0.0671  0.3807  0.0869
 5765SOL    HW128757   3.746   2.740  13.377  1.0279 -0.8705  0.2122
 5765SOL    HW228758   3.623   2.674  13.347 -0.3301  0.0794 -0.7919
 5766SOL     OW28759   4.050   2.040   8.636 -0.2024  0.8884 -0.3808
 5766SOL    HW128760   4.131   2.027   8.685 -1.3072 -2.7654  0.4266
 5766SOL    HW228761   3.987   1.989   8.686  0.7323 -0.6451 -0.7749
 5767SOL     OW28762   3.182   2.998   4.777  0.2761 -0.0469  0.2800
 5767SOL    HW128763   3.181   2.915   4.730 -0.2511 -1.1832  2.3271
 5767SOL    HW228764   3.178   3.054   4.699 -1.9369  1.3086  1.3689
 5768SOL     OW28765   0.292   4.184   3.873  0.4679 -0.4600 -0.5764
 5768SOL    HW128766   0.383   4.177   3.845  0.2122  2.6911 -2.1551
 5768SOL    HW228767   0.284   4.261   3.929  1.7702 -0.3221 -0.5702
 5769SOL     OW28768   2.962   4.143   2.840 -0.3968 -0.0475 -0.0437
 5769SOL    HW128769   2.949   4.229   2.801 -2.0183 -0.5525 -0.6409
 5769SOL    HW228770   3.027   4.108   2.778 -0.8150 -0.9860  0.0451
 5770SOL     OW28771   0.620   1.421   4.518 -0.0143 -0.3472  0.5881
 5770SOL    HW128772   0.673   1.394   4.443  0.0764  0.8049  0.2456
 5770SOL    HW228773   0.638   1.342   4.570 -0.1633 -0.9077 -0.2175
 5771SOL     OW28774   3.571   3.440   5.207 -0.4142  0.0519 -0.4456
 5771SOL    HW128775   3.528   3.458   5.291  2.1444 -1.1456  1.1582
 5771SOL    HW228776   3.661   3.417   5.231  0.4871  3.3078 -0.6962
 5772SOL     OW28777   3.060   2.592  10.459  0.1790 -0.6470  0.3993
 5772SOL    HW128778   2.993   2.661  10.460  0.5640 -0.2529 -0.6787
 5772SOL    HW228779   3.103   2.578  10.543  1.6532 -0.5525 -0.3393
 5773SOL     OW28780   0.073   4.200   3.656 -0.4390 -1.2209  0.6742
 5773SOL    HW128781   0.124   4.279   3.639  0.3063 -1.3074  2.5442
 5773SOL    HW228782   0.121   4.171   3.733  0.1620  0.5029  0.9350
 5774SOL     OW28783   4.622   1.057  11.581 -0.4757 -0.2897  0.2709
 5774SOL    HW128784   4.550   1.063  11.645  0.0708  2.0630  0.6622
 5774SOL    HW228785   4.703   1.057  11.632 -0.0080  2.2760 -0.4860
 5775SOL     OW28786   1.643   2.396  14.773 -0.4936 -0.2048 -0.0900
 5775SOL    HW128787   1.720   2.441  14.807 -0.7778  0.2395 -0.0301
 5775SOL    HW228788   1.615   2.463  14.711 -0.2724 -1.2437 -1.3051
 5776SOL     OW28789   0.431   0.431   5.552  0.3051  0.0363 -0.0506
 5776SOL    HW128790   0.491   0.505   5.539  0.7523 -0.1748  0.8377
 5776SOL    HW228791   0.487   0.360   5.581 -1.1967 -1.2576 -0.3517
 5777SOL     OW28792   3.536   2.478   9.125 -0.8364  0.1613  0.2725
 5777SOL    HW128793   3.471   2.531   9.079  0.8980 -0.3735 -2.7329
 5777SOL    HW228794   3.525   2.506   9.216 -0.6917  0.8136  0.0873
 5778SOL     OW28795   0.056   0.266  13.175 -0.4878  0.3499 -0.0547
 5778SOL    HW128796   0.144   0.265  13.212 -0.8198 -1.3024  0.6714
 5778SOL    HW228797   0.031   0.174  13.185  0.6006  0.2440  1.6221
 5779SOL     OW28798   1.118   4.551   4.139 -1.3972  0.3568  0.0662
 5779SOL    HW128799   1.158   4.542   4.053 -0.2483  0.8196  0.5572
 5779SOL    HW228800   1.067   4.632   4.139  1.8470  2.3798  0.4886
 5780SOL     OW28801   1.468   2.844   5.357 -0.1169 -0.0172  0.5907
 5780SOL    HW128802   1.500   2.875   5.441  0.9859  2.9068 -0.9052
 5780SOL    HW228803   1.513   2.761   5.344  1.9520  1.1064  0.5767
 5781SOL     OW28804   2.087   0.574   5.986 -0.3324 -0.1466 -0.3040
 5781SOL    HW128805   2.039   0.491   5.988  2.5802 -1.7659  1.2678
 5781SOL    HW228806   2.175   0.553   6.018 -0.5100 -0.1181  0.1962
 5782SOL     OW28807   1.065   0.496   7.594  0.5278  0.5372 -0.0664
 5782SOL    HW128808   0.991   0.508   7.653  0.6358 -0.0075  0.1792
 5782SOL    HW228809   1.079   0.583   7.557 -1.4128  1.5153  1.5206
 5783SOL     OW28810   3.198   2.728  13.881 -0.7116  0.6982  0.1938
 5783SOL    HW128811   3.127   2.775  13.925 -2.0804  0.4591 -1.7646
 5783SOL    HW228812   3.222   2.661  13.945 -2.1748 -0.4177 -0.4431
 5784SOL     OW28813   0.954   1.088   6.799  0.7139 -0.4822 -0.6898
 5784SOL    HW128814   1.028   1.040   6.764 -0.2609 -1.0202 -2.0079
 5784SOL    HW228815   0.966   1.072   6.893 -0.7568  1.0820 -0.2322
 5785SOL     OW28816   3.182   0.751   6.748 -0.0325  0.0298 -0.4649
 5785SOL    HW128817   3.262   0.803   6.761  0.3879 -0.2694 -1.7978
 5785SOL    HW228818   3.123   0.825   6.735 -0.0604  0.2512  0.9749
 5786SOL     OW28819   3.072   4.519  13.931  0.9294  0.0683  0.0009
 5786SOL    HW128820   3.116   4.516  14.016 -0.6870  2.1291  0.9068
 5786SOL    HW228821   2.996   4.569  13.960  0.3098 -0.7920 -0.1392
 5787SOL     OW28822   2.169   2.190   8.456  0.2035 -0.2733  0.4949
 5787SOL    HW128823   2.163   2.262   8.518  2.6979  0.1415  0.2587
 5787SOL    HW228824   2.089   2.200   8.403  0.3876  1.2978  0.4979
 5788SOL     OW28825   0.213   0.207   5.370 -0.1632  0.1718 -0.2041
 5788SOL    HW128826   0.270   0.249   5.434 -0.7817 -0.5862  0.8438
 5788SOL    HW228827   0.237   0.115   5.382  0.6975  0.5552  0.9962
 5789SOL     OW28828   1.222   2.704   5.116 -0.0951  0.4515  0.0268
 5789SOL    HW128829   1.284   2.772   5.090  0.8664  1.0946  3.8826
 5789SOL    HW228830   1.144   2.755   5.138  0.3609  0.9679  0.4466
 5790SOL     OW28831   3.508   1.176   5.957 -0.4510 -0.0981 -0.2183
 5790SOL    HW128832   3.423   1.163   5.998  0.4010  0.0309  1.6073
 5790SOL    HW228833   3.520   1.266   5.987 -0.5856  0.7764 -2.7364
 5791SOL     OW28834   1.076   3.377   7.206 -0.0331  0.3118  0.2695
 5791SOL    HW128835   1.119   3.370   7.291 -0.2692  1.3373  0.4661
 5791SOL    HW228836   1.032   3.292   7.204 -1.6577  1.1521  0.7123
 5792SOL     OW28837   4.463   4.281   8.767 -0.2830  0.1607  0.5017
 5792SOL    HW128838   4.445   4.344   8.837  0.4023 -0.0653  0.8879
 5792SOL    HW228839   4.556   4.300   8.753 -0.7044  0.2271 -2.1450
 5793SOL     OW28840   2.796   1.457   4.119  0.1142 -0.4929 -0.2091
 5793SOL    HW128841   2.707   1.484   4.099  0.3896 -0.3294 -1.2032
 5793SOL    HW228842   2.815   1.412   4.037  2.2623  0.9350 -0.5185
 5794SOL     OW28843   2.732   3.515   8.271  0.3488 -0.2702  0.9228
 5794SOL    HW128844   2.690   3.591   8.230  1.3019 -0.1608  0.1478
 5794SOL    HW228845   2.693   3.514   8.358  1.8601 -0.4715  1.5876
 5795SOL     OW28846   4.292   3.887   3.796 -0.6085  0.5115 -0.5560
 5795SOL    HW128847   4.244   3.958   3.753  1.2764  2.6189  0.8828
 5795SOL    HW228848   4.368   3.867   3.741 -0.6853 -0.8148 -0.1710
 5796SOL     OW28849   0.808   1.022   7.264 -0.5971  0.3159  0.0512
 5796SOL    HW128850   0.879   1.026   7.201  0.4259  2.1523  1.3243
 5796SOL    HW228851   0.836   1.066   7.344  2.2735  1.4595 -1.5865
 5797SOL     OW28852   4.206   1.605  12.756  0.2405  0.4094 -0.0979
 5797SOL    HW128853   4.234   1.542  12.823  1.0872 -1.0213 -1.7968
 5797SOL    HW228854   4.216   1.552  12.677  0.0355 -0.5070  0.4853
 5798SOL     OW28855   2.750   2.097   8.588  0.4587 -0.3143  0.0419
 5798SOL    HW128856   2.656   2.079   8.600  0.0718  1.9787  0.3651
 5798SOL    HW228857   2.752   2.192   8.598  0.6667 -0.3844  0.6607
 5799SOL     OW28858   1.043   4.407   8.358  0.4181 -0.0557 -0.0437
 5799SOL    HW128859   0.985   4.431   8.430  2.3322 -0.6608  1.6892
 5799SOL    HW228860   1.120   4.433   8.408 -1.6055  2.2700  1.8651
 5800SOL     OW28861   2.699   4.484   4.122 -0.2485  0.2546 -0.4279
 5800SOL    HW128862   2.785   4.523   4.105  0.4951 -0.7105  1.0766
 5800SOL    HW228863   2.654   4.518   4.044 -1.7304 -1.2654 -0.2221
 5801SOL     OW28864   0.574   1.273   5.240 -0.2151 -0.1339 -0.0723
 5801SOL    HW128865   0.643   1.206   5.245  0.9572  1.0026 -1.0962
 5801SOL    HW228866   0.503   1.217   5.272 -1.8723  1.7859 -0.3908
 5802SOL     OW28867   2.134   3.961   6.508  0.5206  0.2223 -0.8057
 5802SOL    HW128868   2.106   4.003   6.589  1.7526  0.2487 -0.3956
 5802SOL    HW228869   2.200   3.904   6.547  0.9353  1.1869 -0.0761
 5803SOL     OW28870   2.867   3.041   9.792 -0.3547 -0.3320 -0.5873
 5803SOL    HW128871   2.813   3.076   9.863  1.4147  1.4087 -0.1327
 5803SOL    HW228872   2.954   3.045   9.830  0.0481  0.7991 -1.6382
 5804SOL     OW28873   0.331   4.512   6.102 -0.6247 -0.2462 -0.3142
 5804SOL    HW128874   0.251   4.561   6.123 -0.8027 -1.1639  1.1143
 5804SOL    HW228875   0.378   4.570   6.042  0.0010 -0.9639 -0.5086
 5805SOL     OW28876   0.584   0.391   9.717  0.5025 -0.1879  0.0569
 5805SOL    HW128877   0.674   0.390   9.751  0.4667 -0.3749  0.1419
 5805SOL    HW228878   0.564   0.483   9.733  0.8052  0.1169 -1.2863
 5806SOL     OW28879   4.414   3.235  16.840  0.1826  0.1960 -0.1255
 5806SOL    HW128880   4.350   3.164  16.851 -0.4994  0.7448 -0.5602
 5806SOL    HW228881   4.377   3.277  16.763 -2.2189 -2.4775 -0.4370
 5807SOL     OW28882   0.610   3.830   5.472 -0.1118  0.3034 -0.2173
 5807SOL    HW128883   0.548   3.771   5.429 -0.7235  0.0936  0.9744
 5807SOL    HW228884   0.571   3.916   5.457 -1.2059 -0.8660 -4.1194
 5808SOL     OW28885   3.812   1.606   7.230 -0.4489 -0.0174  0.3493
 5808SOL    HW128886   3.788   1.530   7.283 -3.8288 -1.0046 -2.5734
 5808SOL    HW228887   3.862   1.655   7.295 -0.1376 -0.6696  0.5938
 5809SOL     OW28888   0.755   0.408   4.351 -0.0200  0.2542  0.0512
 5809SOL    HW128889   0.787   0.499   4.350 -1.9028  0.8934 -1.1895
 5809SOL    HW228890   0.665   0.408   4.382  0.0301  1.1942  0.1996
 5810SOL     OW28891   1.175   3.303   9.065 -0.2660  0.3934 -0.7457
 5810SOL    HW128892   1.257   3.256   9.052  0.7734  2.0730 -0.2501
 5810SOL    HW228893   1.202   3.394   9.078  0.5966  0.3921 -2.5934
 5811SOL     OW28894   3.556   0.005   4.040 -0.1827 -0.2996  0.1244
 5811SOL    HW128895   3.643   0.026   4.007 -0.4925  0.4459 -0.2251
 5811SOL    HW228896   3.561   4.630   4.033  0.4601 -0.3678  1.4265
 5812SOL     OW28897   2.257   2.300   4.583 -0.4686  0.3889  0.8626
 5812SOL    HW128898   2.323   2.251   4.535 -1.2294  0.5392 -0.3425
 5812SOL    HW228899   2.270   2.278   4.675  0.2038 -0.9469  0.4522
 5813SOL     OW28900   2.913   1.318  16.250  0.5760  0.1146  0.1374
 5813SOL    HW128901   2.859   1.263  16.308  0.1928  0.3810  0.0380
 5813SOL    HW228902   2.895   1.282  16.163 -0.1982 -0.9258  0.7191
 5814SOL     OW28903   2.138   0.078   6.584 -0.0811 -0.1940 -0.4882
 5814SOL    HW128904   2.076   0.066   6.512 -0.5112  1.4857 -0.3826
 5814SOL    HW228905   2.127   0.167   6.615  0.0743  0.1520 -1.4156
 5815SOL     OW28906   2.205   4.415   0.784 -0.4612 -0.4173 -0.4791
 5815SOL    HW128907   2.284   4.433   0.733  0.1178 -0.9146  0.2380
 5815SOL    HW228908   2.228   4.457   0.867  0.0190  0.1239 -0.8861
 5816SOL     OW28909   1.770   2.910   0.557  0.4062  0.7209 -0.3942
 5816SOL    HW128910   1.809   2.963   0.627 -1.2309 -2.1500  2.6818
 5816SOL    HW228911   1.769   2.823   0.598  0.9489  2.1793  2.7016
 5817SOL     OW28912   4.681   4.464   9.087  0.0314  0.1557  0.5865
 5817SOL    HW128913   4.709   4.373   9.071  0.5073  0.7419 -1.9042
 5817SOL    HW228914   0.009   4.513   9.021 -0.5259 -0.1698 -0.0627
 5818SOL     OW28915   3.421   1.110   7.241  0.0731  0.3062 -0.0734
 5818SOL    HW128916   3.389   1.026   7.273 -1.8164  0.3564 -1.8112
 5818SOL    HW228917   3.358   1.171   7.280  0.6149  0.0210  1.2469
 5819SOL     OW28918   0.571   1.108  11.893 -0.2109 -0.6309  0.2571
 5819SOL    HW128919   0.522   1.076  11.969  1.3532 -0.8619  1.1742
 5819SOL    HW228920   0.605   1.028  11.852 -2.8336 -1.9519  0.6581
 5820SOL     OW28921   2.954   2.285   6.293  0.0265  0.6648  0.3225
 5820SOL    HW128922   3.033   2.324   6.257 -0.1524  1.2318  0.5417
 5820SOL    HW228923   2.883   2.336   6.253  0.7023 -0.3678 -2.2302
 5821SOL     OW28924   1.657   1.335   6.185 -0.1274  0.0737  0.1161
 5821SOL    HW128925   1.701   1.307   6.105 -0.5398 -1.4745  0.4365
 5821SOL    HW228926   1.682   1.267   6.248 -2.3797  0.2100  1.1540
 5822SOL     OW28927   3.809   3.166   3.304  0.4727 -0.1555 -0.3167
 5822SOL    HW128928   3.839   3.203   3.221  2.0989  0.5855  0.6136
 5822SOL    HW228929   3.847   3.079   3.304  1.3743  0.2191  1.7069
 5823SOL     OW28930   2.474   0.831   6.637  0.5459  0.6497 -0.2745
 5823SOL    HW128931   2.538   0.807   6.569 -1.1820 -2.5097 -0.8046
 5823SOL    HW228932   2.395   0.836   6.583 -0.3606  1.0838  1.0945
 5824SOL     OW28933   1.807   1.998   6.469 -0.2908 -0.6330 -0.5873
 5824SOL    HW128934   1.791   2.092   6.455 -0.8240 -0.4047  1.4835
 5824SOL    HW228935   1.865   1.993   6.545 -2.5892  2.7675  1.4178
 5825SOL     OW28936   2.375   3.859   3.211  0.0422 -0.2032 -0.1183
 5825SOL    HW128937   2.452   3.907   3.241  0.4676 -2.5155  2.5819
 5825SOL    HW228938   2.325   3.835   3.289 -0.1652  0.4925 -0.0403
 5826SOL     OW28939   4.703   2.549  16.291 -0.0070 -0.0796 -0.0705
 5826SOL    HW128940   0.018   2.526  16.377  0.5429 -0.4780 -0.4034
 5826SOL    HW228941   4.632   2.606  16.319 -1.3523 -2.0413  0.5280
 5827SOL     OW28942   3.737   2.753   4.078  0.5146  0.0537  0.2825
 5827SOL    HW128943   3.663   2.694   4.092 -0.6636  1.6623  0.8408
 5827SOL    HW228944   3.685   2.828   4.104 -0.8403 -0.9710  0.5421
 5828SOL     OW28945   0.762   2.082   9.330 -0.2998 -0.4843  0.7021
 5828SOL    HW128946   0.808   2.144   9.273  0.0281 -1.6626 -0.2992
 5828SOL    HW228947   0.702   2.144   9.372  0.5362  0.4419  0.5436
 5829SOL     OW28948   4.586   2.432   1.431  0.3618  0.1490 -0.0576
 5829SOL    HW128949   4.526   2.506   1.443 -0.2073 -0.2947 -0.1457
 5829SOL    HW228950   4.670   2.473   1.448  0.1688  1.3374 -1.9527
 5830SOL     OW28951   2.720   1.258   2.938 -0.7545  0.6766 -0.2704
 5830SOL    HW128952   2.720   1.251   2.842  0.0881  1.1787 -0.3053
 5830SOL    HW228953   2.648   1.198   2.956 -1.1351  1.9465  2.4352
 5831SOL     OW28954   3.729   2.419   3.276  0.2009  0.6689  0.2472
 5831SOL    HW128955   3.746   2.326   3.290 -0.7336  0.7760  2.0387
 5831SOL    HW228956   3.713   2.453   3.364  2.1790 -0.2328  0.9525
 5832SOL     OW28957   2.024   3.523   0.343  0.0536  0.1580 -0.1792
 5832SOL    HW128958   2.061   3.472   0.415 -0.4812 -0.8031 -0.5891
 5832SOL    HW228959   1.944   3.474   0.324 -0.7289  0.6344  1.9642
 5833SOL     OW28960   3.887   4.323   0.647  0.0298  0.2764  0.6284
 5833SOL    HW128961   3.827   4.250   0.631  0.7527 -0.5860  1.8544
 5833SOL    HW228962   3.881   4.380   0.570 -2.5881  0.0056  0.6424
 5834SOL     OW28963   3.323   0.981   8.201 -0.3026 -0.0372  0.1804
 5834SOL    HW128964   3.249   0.930   8.167 -0.1945  1.5194 -2.3942
 5834SOL    HW228965   3.275   1.048   8.250  1.6468  1.7740 -0.3916
 5835SOL     OW28966   0.456   1.254   1.863  0.3462 -0.3420  0.2151
 5835SOL    HW128967   0.397   1.189   1.824 -0.6757  0.8995 -0.3188
 5835SOL    HW228968   0.467   1.325   1.799  1.2178  0.8923  1.7452
 5836SOL     OW28969   1.065   2.652   2.520 -0.2196 -0.8167 -0.1092
 5836SOL    HW128970   0.987   2.615   2.480  0.3821  0.5601 -2.5833
 5836SOL    HW228971   1.114   2.700   2.453  2.4963 -0.9889  1.7611
 5837SOL     OW28972   2.425   1.853   4.550 -0.1095 -0.3191  0.2523
 5837SOL    HW128973   2.491   1.788   4.571 -1.1745 -1.1118  1.1320
 5837SOL    HW228974   2.455   1.874   4.461  2.4882  0.1809  1.2485
 5838SOL     OW28975   1.807   1.068   3.675 -0.5543 -0.2384  0.5281
 5838SOL    HW128976   1.781   1.008   3.745  0.9976 -1.5306 -0.0101
 5838SOL    HW228977   1.740   1.136   3.677 -0.8447 -0.5078 -0.2472
 5839SOL     OW28978   0.379   0.185   6.294 -0.1868  0.3460  0.0282
 5839SOL    HW128979   0.315   0.234   6.243 -1.3092 -0.1586  0.9294
 5839SOL    HW228980   0.439   0.251   6.328  0.3790  0.9236 -2.1204
 5840SOL     OW28981   2.267   0.757   7.814  0.0537  0.6837  0.1417
 5840SOL    HW128982   2.331   0.707   7.764 -2.6613 -1.0637 -1.5954
 5840SOL    HW228983   2.236   0.692   7.877  0.7622  0.9930  0.8096
 5841SOL     OW28984   0.153   0.507  13.065  0.4683  0.2549 -0.1911
 5841SOL    HW128985   0.097   0.527  12.990 -0.1980 -1.7473 -0.2272
 5841SOL    HW228986   0.102   0.441  13.111  0.0226  0.5413 -0.2734
 5842SOL     OW28987   3.739   4.592  14.908 -0.0017 -0.3553 -0.4686
 5842SOL    HW128988   3.790   4.529  14.858 -0.8356  0.4179 -2.2793
 5842SOL    HW228989   3.774   4.579  14.997 -1.2567 -0.1158  0.0610
 5843SOL     OW28990   2.707   2.398  15.141 -0.2841  0.2011  0.3189
 5843SOL    HW128991   2.793   2.412  15.182 -1.4289  1.8636  2.1991
 5843SOL    HW228992   2.705   2.468  15.076  1.9874 -0.7255 -0.7271
 5844SOL     OW28993   0.187   4.279  12.539  0.2602  0.1520  0.2676
 5844SOL    HW128994   0.168   4.256  12.448 -0.6816 -1.4947  0.8930
 5844SOL    HW228995   0.210   4.194  12.577 -0.1822  0.5159  1.3350
 5845SOL     OW28996   3.627   3.161  11.746  0.4212 -0.6627 -0.0931
 5845SOL    HW128997   3.634   3.090  11.810  0.2992  0.5573  1.2856
 5845SOL    HW228998   3.551   3.207  11.781  0.1440  0.5398 -2.2715
 5846SOL     OW28999   2.501   2.742   5.953  0.9861  0.0639 -0.0299
 5846SOL    HW129000   2.594   2.753   5.974  1.1954  0.4984 -1.1773
 5846SOL    HW229001   2.486   2.824   5.905 -0.1851 -0.6252 -0.8292
 5847SOL     OW29002   4.186   3.559   0.988  0.0224  0.3546  0.3158
 5847SOL    HW129003   4.187   3.525   1.077 -0.1362  0.4120  0.3396
 5847SOL    HW229004   4.113   3.514   0.946  1.4878 -1.5788 -0.1116
 5848SOL     OW29005   2.410   2.986   5.898 -0.2149  0.2623 -0.1872
 5848SOL    HW129006   2.455   3.031   5.827 -0.7241 -0.5333 -1.0143
 5848SOL    HW229007   2.443   3.037   5.972 -0.9374  2.0720 -1.1350
 5849SOL     OW29008   0.852   2.856   0.596 -0.4322 -0.3777 -0.6637
 5849SOL    HW129009   0.806   2.786   0.549 -0.7266 -1.5463  1.3474
 5849SOL    HW229010   0.947   2.842   0.600 -0.7814 -2.1838  1.7485
 5850SOL     OW29011   1.251   0.521   8.994  0.4669 -0.3775  0.6152
 5850SOL    HW129012   1.290   0.440   9.025  0.5742 -0.6870 -0.3096
 5850SOL    HW229013   1.276   0.579   9.066 -2.6725  0.1831  1.2263
 5851SOL     OW29014   2.515   0.958   4.633  0.3074  0.0777 -0.0773
 5851SOL    HW129015   2.610   0.965   4.623  0.1124  3.9629  0.7734
 5851SOL    HW229016   2.493   0.932   4.544  0.8768  2.1581 -0.8298
 5852SOL     OW29017   3.367   0.350   6.339  0.6799 -0.1418  0.0277
 5852SOL    HW129018   3.346   0.409   6.267 -1.3962  0.5766  1.2313
 5852SOL    HW229019   3.294   0.353   6.400 -0.8513 -0.3421 -1.8006
 5853SOL     OW29020   1.954   4.490   7.478 -0.5010 -0.2962  0.3623
 5853SOL    HW129021   1.958   4.473   7.572  0.3633 -2.5189 -0.0927
 5853SOL    HW229022   1.919   4.409   7.440 -0.2205 -0.2714  0.0534
 5854SOL     OW29023   2.246   1.649  17.108  0.4611 -0.7992  0.2642
 5854SOL    HW129024   2.199   1.641  17.190 -1.5270 -0.6882 -0.8784
 5854SOL    HW229025   2.173   1.677  17.052  0.7504  0.4436  0.4972
 5855SOL     OW29026   1.390   1.127   4.170 -0.2619 -0.4661 -0.0255
 5855SOL    HW129027   1.303   1.140   4.207 -0.2580 -2.0694  0.5461
 5855SOL    HW229028   1.414   1.056   4.230  1.2099 -0.5334 -0.6917
 5856SOL     OW29029   1.874   3.267   3.155  0.1742 -0.1814 -0.3164
 5856SOL    HW129030   1.873   3.283   3.060 -1.7253 -1.3228 -0.4835
 5856SOL    HW229031   1.834   3.180   3.152  3.0785 -1.5078 -0.4633
 5857SOL     OW29032   1.965   4.157   4.282 -0.0125 -0.0124 -0.2439
 5857SOL    HW129033   1.916   4.097   4.339  0.1945  0.7002  0.6715
 5857SOL    HW229034   1.960   4.245   4.318  1.8080 -0.0719  0.1320
 5858SOL     OW29035   2.220   1.418  16.095 -0.6393  0.0462  0.5828
 5858SOL    HW129036   2.212   1.485  16.028  0.5712  1.9070  2.3052
 5858SOL    HW229037   2.183   1.337  16.059 -1.1286 -0.4500  2.2123
 5859SOL     OW29038   2.404   0.064   0.116 -1.2504 -0.5519 -0.6156
 5859SOL    HW129039   2.349   0.118   0.173 -0.0395  0.2642 -0.2220
 5859SOL    HW229040   2.446   0.139   0.075  0.6028 -0.7213  0.9756
 5860SOL     OW29041   2.690   4.155   9.095 -0.2048 -0.0745  0.1283
 5860SOL    HW129042   2.641   4.228   9.132  0.7395 -0.0627  1.3660
 5860SOL    HW229043   2.767   4.200   9.063  1.6171 -1.7172  2.1735
 5861SOL     OW29044   3.481   3.309   5.484  0.6766  0.0556 -0.6107
 5861SOL    HW129045   3.389   3.315   5.459 -0.2758 -0.1878  2.8635
 5861SOL    HW229046   3.485   3.357   5.567 -0.1896 -2.0681  0.6454
 5862SOL     OW29047   4.184   0.407   9.066  0.1048 -0.4923  0.3392
 5862SOL    HW129048   4.199   0.379   9.156  3.7197 -1.8689 -0.6626
 5862SOL    HW229049   4.113   0.346   9.048  0.0461 -0.3612  0.1281
 5863SOL     OW29050   2.655   1.238   2.519  0.1385 -0.1154 -0.4857
 5863SOL    HW129051   2.680   1.319   2.564  1.0717 -1.0306  0.6311
 5863SOL    HW229052   2.621   1.185   2.591  0.8912  0.8492  0.5934
 5864SOL     OW29053   0.941   1.281  14.115  0.0043  0.0805 -0.1842
 5864SOL    HW129054   0.877   1.352  14.125 -1.4759 -1.2165 -0.4035
 5864SOL    HW229055   0.957   1.288  14.021  0.6677  1.2567  0.0095
 5865SOL     OW29056   0.139   2.889  11.748 -0.7838 -0.1320 -0.4530
 5865SOL    HW129057   0.174   2.811  11.792  2.0480 -0.3464 -3.1422
 5865SOL    HW229058   0.186   2.877  11.666 -1.5243 -0.2618 -0.8661
 5866SOL     OW29059   1.581   3.604   6.429 -0.5179  0.1646 -0.6263
 5866SOL    HW129060   1.530   3.676   6.464 -0.5115 -0.4350  0.6162
 5866SOL    HW229061   1.668   3.641   6.418 -0.5745  0.5488  0.3147
 5867SOL     OW29062   2.630   0.471  12.058 -0.5607  0.0138 -0.0708
 5867SOL    HW129063   2.534   0.478  12.057 -0.6245 -0.8656 -0.2013
 5867SOL    HW229064   2.643   0.382  12.026  1.8196 -0.7217  2.9983
 5868SOL     OW29065   4.012   2.097  15.544  0.2279  0.1210  0.3274
 5868SOL    HW129066   4.084   2.159  15.534  0.6623 -0.4500 -0.1049
 5868SOL    HW229067   3.949   2.151  15.592  2.4346  1.5702  1.5581
 5869SOL     OW29068   4.087   3.931  17.550  0.3194  0.1071 -0.4141
 5869SOL    HW129069   4.022   3.993  17.582  0.6609 -0.4691  1.3720
 5869SOL    HW229070   4.133   3.990  17.490  0.0417 -0.1308 -0.8563
 5870SOL     OW29071   1.918   4.327   4.590  0.0099  0.0005  0.2717
 5870SOL    HW129072   1.835   4.326   4.638 -0.9764 -1.6914 -1.4846
 5870SOL    HW229073   1.896   4.381   4.514 -2.2004 -0.3282  0.6914
 5871SOL     OW29074   1.266   0.444   5.407  0.7141 -0.1498 -0.4127
 5871SOL    HW129075   1.206   0.440   5.332  0.8075  0.1891 -0.5099
 5871SOL    HW229076   1.289   0.352   5.415  0.4943 -0.0457  1.2315
 5872SOL     OW29077   4.405   2.966   1.750 -0.2525 -0.1217 -0.6671
 5872SOL    HW129078   4.352   3.046   1.741  2.3869  2.0081  2.5790
 5872SOL    HW229079   4.458   2.997   1.823  1.3833 -0.8462 -1.5508
 5873SOL     OW29080   0.201   4.296   4.402 -0.2282 -0.3465  0.4316
 5873SOL    HW129081   0.133   4.291   4.335 -1.2612 -0.4445  1.4715
 5873SOL    HW229082   0.244   4.211   4.410 -1.5173 -0.7962  2.5551
 5874SOL     OW29083   1.926   2.668   8.844 -0.7168  0.1856  0.3944
 5874SOL    HW129084   1.994   2.735   8.837 -2.6181  1.9293 -1.5065
 5874SOL    HW229085   1.851   2.727   8.844 -1.2745 -0.5464 -1.8972
 5875SOL     OW29086   1.661   2.436   8.230 -0.3673  0.2861 -0.3438
 5875SOL    HW129087   1.645   2.341   8.223  1.7041 -0.2009  1.5485
 5875SOL    HW229088   1.685   2.446   8.322 -0.0759  1.1283 -0.5180
 5876SOL     OW29089   0.209   2.912   6.651 -0.2647 -0.2375 -0.1535
 5876SOL    HW129090   0.233   2.886   6.740 -0.3281 -0.1458 -0.1087
 5876SOL    HW229091   0.115   2.928   6.661 -0.5627 -3.6115  2.2951
 5877SOL     OW29092   3.721   0.031  17.378  0.0047  0.0760 -0.5960
 5877SOL    HW129093   3.768   4.671  17.355  1.1489  0.2516  1.1388
 5877SOL    HW229094   3.707   0.066  17.290 -0.9226  0.5741 -0.2534
 5878SOL     OW29095   2.876   0.597  12.620  0.0457 -0.5886 -0.0164
 5878SOL    HW129096   2.791   0.570  12.585 -0.4222  0.3922  0.3469
 5878SOL    HW229097   2.846   0.659  12.686 -0.8782 -0.9562 -0.0899
 5879SOL     OW29098   1.836   0.030   7.471  0.0282  0.4524  0.0080
 5879SOL    HW129099   1.920   0.067   7.498  0.1825  0.7785 -0.9228
 5879SOL    HW229100   1.859   4.659   7.456 -1.1178  0.2652 -0.6289
 5880SOL     OW29101   1.801   0.264   1.708  0.0217 -0.3253 -0.6089
 5880SOL    HW129102   1.874   0.206   1.728 -0.2307  0.2491  1.9802
 5880SOL    HW229103   1.844   0.319   1.644  0.2420 -3.4989 -3.1904
 5881SOL     OW29104   4.609   3.965   0.416  0.3381 -0.0641 -0.1140
 5881SOL    HW129105   4.556   4.004   0.486 -0.8277  0.4664 -1.3008
 5881SOL    HW229106   4.633   3.888   0.468 -4.0609 -0.9734  0.5630
 5882SOL     OW29107   4.393   3.262   0.711  0.7515 -0.5226 -0.1788
 5882SOL    HW129108   4.386   3.225   0.799  0.8293 -0.2589 -0.0619
 5882SOL    HW229109   4.310   3.240   0.668  0.9075 -2.3527  0.4580
 5883SOL     OW29110   2.785   4.275   4.958 -0.4402 -0.4606 -0.2345
 5883SOL    HW129111   2.741   4.226   4.888 -0.8501 -2.1714  1.2209
 5883SOL    HW229112   2.791   4.361   4.917 -1.7254  0.0794  0.7137
 5884SOL     OW29113   2.888   0.565   5.397  0.0623  0.0104 -0.1228
 5884SOL    HW129114   2.943   0.614   5.458 -0.1966  0.4443 -0.2379
 5884SOL    HW229115   2.836   0.517   5.461 -0.3517  3.1342  1.8759
 5885SOL     OW29116   2.510   0.647   6.816  0.2538  0.0128  0.1158
 5885SOL    HW129117   2.482   0.730   6.777 -1.2671 -1.2317 -1.4756
 5885SOL    HW229118   2.600   0.669   6.840  1.1536 -0.6409 -2.6008
 5886SOL     OW29119   0.645   0.267  14.752 -0.2894  0.1214  0.1285
 5886SOL    HW129120   0.722   0.214  14.730  1.0523  2.1170 -0.0346
 5886SOL    HW229121   0.682   0.351  14.722  1.1567 -0.2730  0.7726
 5887SOL     OW29122   3.726   4.162  10.336 -0.2339  0.0510  0.0131
 5887SOL    HW129123   3.658   4.226  10.359  0.5298  1.2394 -1.0691
 5887SOL    HW229124   3.791   4.212  10.287 -2.4875  2.9370 -0.0629
 5888SOL     OW29125   4.160   1.697  10.232 -0.2945 -0.1085 -0.4852
 5888SOL    HW129126   4.174   1.632  10.163  0.1518  0.1236 -0.6074
 5888SOL    HW229127   4.074   1.669  10.264  0.1191 -0.5721  0.2229
 5889SOL     OW29128   2.729   1.225  15.361  0.1134  0.3126 -0.2019
 5889SOL    HW129129   2.760   1.285  15.428  0.3175  1.0148 -0.9130
 5889SOL    HW229130   2.694   1.152  15.411 -0.2463 -0.0890 -1.0288
 5890SOL     OW29131   1.679   4.034   3.495 -0.2071  0.1563  0.4789
 5890SOL    HW129132   1.638   3.962   3.542  0.5197 -1.4037 -1.2830
 5890SOL    HW229133   1.615   4.103   3.511 -0.3633 -0.2013  1.3770
 5891SOL     OW29134   1.517   3.632   7.169  0.2019 -0.4441  0.2208
 5891SOL    HW129135   1.466   3.584   7.235 -1.0189 -1.0343 -1.1502
 5891SOL    HW229136   1.602   3.605   7.204 -0.0153 -0.5075  0.7082
 5892SOL     OW29137   3.647   4.560   6.928 -0.2416  0.0581  0.3654
 5892SOL    HW129138   3.607   4.645   6.910 -0.4561 -0.0487  0.3378
 5892SOL    HW229139   3.740   4.579   6.942 -0.3979 -0.7359  2.5725
 5893SOL     OW29140   4.046   3.861  11.262  0.6353 -0.4993 -0.4151
 5893SOL    HW129141   4.088   3.776  11.248 -2.7737 -2.3878  0.9052
 5893SOL    HW229142   4.011   3.874  11.174  0.4331 -1.3587 -0.4561
 5894SOL     OW29143   1.258   0.234  13.816 -0.4277 -0.1856 -0.1577
 5894SOL    HW129144   1.279   0.243  13.909  3.1690  0.6895 -1.0818
 5894SOL    HW229145   1.166   0.259  13.803 -0.3209  0.5028  0.4218
 5895SOL     OW29146   4.100   0.537  12.321 -0.0154  0.1535 -0.0948
 5895SOL    HW129147   4.090   0.623  12.279  0.2783  1.1987  1.9475
 5895SOL    HW229148   4.159   0.558  12.393  0.4342  1.1345 -0.7530
 5896SOL     OW29149   3.420   0.311   5.190 -0.4953 -0.2886  0.2373
 5896SOL    HW129150   3.404   0.318   5.285  0.2959  3.4586  0.0964
 5896SOL    HW229151   3.505   0.267   5.185 -0.7776 -0.8977  0.7169
 5897SOL     OW29152   1.498   2.855  15.906 -0.0948  0.6276 -0.3294
 5897SOL    HW129153   1.524   2.909  15.981  0.0456  2.7736 -1.9183
 5897SOL    HW229154   1.403   2.861  15.914 -0.2951 -1.0826 -1.4675
 5898SOL     OW29155   1.563   4.162   2.817  0.3709 -0.2884 -1.2596
 5898SOL    HW129156   1.637   4.220   2.800 -0.6897  1.9371  1.7140
 5898SOL    HW229157   1.545   4.133   2.728 -1.8798 -1.8179 -0.3149
 5899SOL     OW29158   3.139   3.463   4.041 -0.3076  0.6191  0.2600
 5899SOL    HW129159   3.068   3.423   3.991 -1.0168  1.4063  0.6412
 5899SOL    HW229160   3.095   3.479   4.125 -1.3968 -1.0278  0.0120
 5900SOL     OW29161   2.406   0.459   4.755  0.0784  0.2732  0.4162
 5900SOL    HW129162   2.413   0.550   4.726  0.3998 -0.3399 -1.4379
 5900SOL    HW229163   2.383   0.419   4.671 -1.8880 -0.3150  1.2266
 5901SOL     OW29164   2.496   1.754   2.314 -0.0953  0.5374 -0.2133
 5901SOL    HW129165   2.528   1.753   2.224  1.0652 -1.7443  0.2229
 5901SOL    HW229166   2.404   1.780   2.308 -0.1760  0.5108  0.8822
 5902SOL     OW29167   1.948   1.032   8.349  0.1607 -0.5027  0.0881
 5902SOL    HW129168   1.970   0.978   8.425  3.2015 -1.0280 -1.1847
 5902SOL    HW229169   2.015   1.099   8.354 -0.0264 -0.4564  1.9509
 5903SOL     OW29170   2.485   0.952   2.338  0.1851  0.1783  0.3088
 5903SOL    HW129171   2.468   0.871   2.290  2.7035 -0.7634  0.9701
 5903SOL    HW229172   2.406   0.975   2.385 -1.1094 -0.0927 -1.7182
 5904SOL     OW29173   3.682   3.002   3.833  0.5980  0.0772  0.6852
 5904SOL    HW129174   3.659   3.007   3.740 -1.6553 -1.5216  1.1305
 5904SOL    HW229175   3.740   3.077   3.841  1.8197 -0.6075 -1.8549
 5905SOL     OW29176   0.738   1.953  10.436 -0.0678 -0.1739  0.2147
 5905SOL    HW129177   0.822   1.960  10.481  0.5633 -0.3133 -0.9157
 5905SOL    HW229178   0.744   1.883  10.370  0.8353 -1.2123  1.4106
 5906SOL     OW29179   2.489   1.273  16.794  0.1141 -0.4636 -0.2331
 5906SOL    HW129180   2.409   1.244  16.839 -1.0194  1.0699 -1.2709
 5906SOL    HW229181   2.440   1.280  16.712 -2.2873 -0.2530  1.2115
 5907SOL     OW29182   3.055   1.243   4.786 -0.0033  0.0918 -0.4792
 5907SOL    HW129183   3.024   1.230   4.696  0.5068  1.9412 -0.9192
 5907SOL    HW229184   2.985   1.255   4.850 -0.1339 -0.3546 -0.5351
 5908SOL     OW29185   1.824   0.932  12.587 -0.0009  0.3005  0.0354
 5908SOL    HW129186   1.817   0.861  12.650 -0.9613 -1.0912 -1.6620
 5908SOL    HW229187   1.734   0.965  12.589 -1.0223 -2.4389 -1.9778
 5909SOL     OW29188   1.639   1.988  13.663  0.3106  0.5749  0.1823
 5909SOL    HW129189   1.603   2.069  13.627 -1.7150 -1.4345 -2.2695
 5909SOL    HW229190   1.660   2.015  13.752 -2.3110  0.3809  0.8432
 5910SOL     OW29191   1.122   4.633  15.451 -0.0116  0.4789 -0.7915
 5910SOL    HW129192   1.038   4.663  15.486 -0.8899 -0.3656 -2.1541
 5910SOL    HW229193   1.176   4.707  15.480 -1.8576  0.4669  2.7170
 5911SOL     OW29194   2.989   0.682   7.871 -0.2777 -0.3954  0.6787
 5911SOL    HW129195   2.990   0.642   7.784  0.4712  0.4764  0.2808
 5911SOL    HW229196   3.060   0.746   7.861  0.7035 -1.6506 -0.3317
 5912SOL     OW29197   3.677   1.622   2.615 -0.6625  0.2384  0.3399
 5912SOL    HW129198   3.726   1.666   2.683 -0.2703 -1.3007  1.0531
 5912SOL    HW229199   3.601   1.576   2.653  0.6182 -1.6716  0.5891
 5913SOL     OW29200   3.429   0.773   6.981  0.2208 -0.5852 -0.7253
 5913SOL    HW129201   3.507   0.753   7.032  0.1338 -0.1748 -0.4345
 5913SOL    HW229202   3.367   0.805   7.047 -0.1160 -0.6716 -0.9999
 5914SOL     OW29203   3.874   0.239  14.564  0.1994 -0.2673  0.4941
 5914SOL    HW129204   3.834   0.326  14.571  0.5345 -0.3051  3.0489
 5914SOL    HW229205   3.949   0.250  14.622 -1.9665  0.4653  3.1790
 5915SOL     OW29206   3.434   1.921   8.735  0.0604 -0.2862  0.5462
 5915SOL    HW129207   3.391   1.866   8.801  3.7550 -0.7451  2.5275
 5915SOL    HW229208   3.513   1.926   8.788 -0.3500 -0.7012  1.1912
 5916SOL     OW29209   4.408   0.126   6.422 -0.3469 -0.7112  0.5340
 5916SOL    HW129210   4.327   0.088   6.456 -1.1001  0.4735  0.0771
 5916SOL    HW229211   4.379   0.217   6.413 -2.2605 -1.5460 -1.6079
 5917SOL     OW29212   2.321   3.276   4.316  0.1429 -0.2104  0.1233
 5917SOL    HW129213   2.343   3.327   4.394 -1.2771  0.0189  0.3830
 5917SOL    HW229214   2.334   3.340   4.247 -1.3217  0.8063  0.7800
 5918SOL     OW29215   2.916   3.696   2.909  0.1709  0.3815 -0.1345
 5918SOL    HW129216   2.895   3.613   2.866 -3.2745  1.6295 -0.8399
 5918SOL    HW229217   2.946   3.742   2.831  0.3957  0.4490 -0.0086
 5919SOL     OW29218   0.722   0.725  12.428  0.0668 -0.0044 -0.0136
 5919SOL    HW129219   0.733   0.682  12.513 -0.6179 -2.4877 -1.2024
 5919SOL    HW229220   0.731   0.649  12.371 -1.5544  1.0296 -1.6439
 5920SOL     OW29221   4.664   4.673  10.911  0.5570  0.0598  0.5374
 5920SOL    HW129222   4.599   4.678  10.841 -0.7960  0.5949  1.8222
 5920SOL    HW229223   4.708   4.594  10.880 -0.6113  0.2284 -1.4983
 5921SOL     OW29224   4.708   3.200   2.203 -0.3236  0.3471 -0.3593
 5921SOL    HW129225   0.021   3.113   2.223  1.5738  0.9614 -0.8241
 5921SOL    HW229226   0.069   3.235   2.166  1.3594 -2.1949  0.9705
 5922SOL     OW29227   2.570   0.722  12.740  0.3949  0.4889  0.2467
 5922SOL    HW129228   2.575   0.706  12.645  1.5141 -0.3571  0.4463
 5922SOL    HW229229   2.477   0.742  12.746  0.1223 -1.0860  1.0814
 5923SOL     OW29230   2.769   1.524   3.357 -0.7062 -0.1134  0.0603
 5923SOL    HW129231   2.854   1.562   3.335  0.6479 -2.7652  0.6435
 5923SOL    HW229232   2.763   1.451   3.294  0.9936  0.5636 -0.8775
 5924SOL     OW29233   1.814   3.474   2.928 -0.0467 -0.1542 -0.1261
 5924SOL    HW129234   1.862   3.402   2.888  1.4029 -0.8845  2.9575
 5924SOL    HW229235   1.884   3.539   2.923 -2.0229  1.9389 -1.0377
 5925SOL     OW29236   0.004   3.064   2.745 -0.3145  0.0343 -0.1247
 5925SOL    HW129237   4.718   3.130   2.814  0.1211  1.7133 -1.6795
 5925SOL    HW229238   0.017   3.119   2.668  2.0439  1.3329  1.2070
 5926SOL     OW29239   3.282   0.087   6.309  0.4303 -0.6347 -0.3544
 5926SOL    HW129240   3.319   0.175   6.307  0.1279 -0.5162 -0.7077
 5926SOL    HW229241   3.360   0.033   6.325  1.6324  1.1683 -0.1262
 5927SOL     OW29242   0.954   3.026  13.783 -1.0092  0.7832 -0.4179
 5927SOL    HW129243   0.887   3.004  13.847  0.8542 -1.7159  0.6376
 5927SOL    HW229244   1.033   3.045  13.833 -0.9846  0.6591 -0.4114
 5928SOL     OW29245   1.169   1.213   2.485  0.0113  0.0220 -0.2525
 5928SOL    HW129246   1.150   1.187   2.395  1.2901 -1.4674 -0.1064
 5928SOL    HW229247   1.103   1.280   2.499  0.9962  1.0773 -0.6367
 5929SOL     OW29248   3.645   1.735   6.974 -0.2211 -0.1894  0.7972
 5929SOL    HW129249   3.643   1.683   6.894  6.0493  0.6245  0.1586
 5929SOL    HW229250   3.696   1.676   7.030  2.5907  2.0809  0.5577
 5930SOL     OW29251   0.335   0.993   8.987 -0.0644  0.5296  0.6002
 5930SOL    HW129252   0.339   0.993   9.083  0.3993 -1.2440  0.5693
 5930SOL    HW229253   0.410   0.940   8.962  0.8099  1.5956  0.9649
 5931SOL     OW29254   4.323   1.843   1.872 -0.1802 -0.3317 -0.1205
 5931SOL    HW129255   4.328   1.920   1.816 -1.7878 -0.8524 -0.9762
 5931SOL    HW229256   4.412   1.821   1.899  0.0538  0.0943 -0.5422
 5932SOL     OW29257   4.348   4.474  17.550 -0.0520  0.4613  0.6131
 5932SOL    HW129258   4.370   4.566  17.563 -0.9722  0.7016  0.4913
 5932SOL    HW229259   4.430   4.430  17.572 -0.1632 -1.2932 -2.4638
 5933SOL     OW29260   1.964   3.416   7.240 -0.3921 -0.0224  0.0871
 5933SOL    HW129261   2.020   3.465   7.300 -0.7907  1.8818 -1.0932
 5933SOL    HW229262   2.017   3.425   7.161  2.2119 -0.7581  1.7462
 5934SOL     OW29263   3.503   0.855   4.391 -0.2069 -0.2985  0.0738
 5934SOL    HW129264   3.437   0.800   4.432  0.6072 -0.9104  0.5548
 5934SOL    HW229265   3.563   0.895   4.453 -0.1327 -0.5607  0.1669
 5935SOL     OW29266   0.945   3.849   8.866 -0.5723 -0.4855  0.1369
 5935SOL    HW129267   1.035   3.816   8.863 -0.9228 -1.4318 -0.1427
 5935SOL    HW229268   0.952   3.938   8.900 -1.4129  0.3662 -1.9277
 5936SOL     OW29269   0.032   2.860   7.067  0.3766  0.3167 -0.2369
 5936SOL    HW129270   0.108   2.801   7.073  1.9255  2.1503 -2.0488
 5936SOL    HW229271   0.074   2.939   7.035 -1.6080 -0.1806 -3.9738
 5937SOL     OW29272   0.160   3.880   8.169 -0.6223  0.0840 -0.2914
 5937SOL    HW129273   0.177   3.966   8.130  3.2900 -0.2872  0.5892
 5937SOL    HW229274   0.242   3.841   8.139 -0.3958  0.8697 -0.7139
 5938SOL     OW29275   0.192   2.944  10.195  0.0562 -0.6678 -0.0892
 5938SOL    HW129276   0.126   2.891  10.150  0.1922  1.3118 -2.6217
 5938SOL    HW229277   0.148   3.015  10.241 -0.4243  0.1535 -1.8131
 5939SOL     OW29278   1.063   3.257   1.502 -0.2579  0.3910  0.2402
 5939SOL    HW129279   1.151   3.287   1.481 -1.1626  2.7244 -0.1984
 5939SOL    HW229280   1.069   3.267   1.597 -0.3482 -0.1690  0.3035
 5940SOL     OW29281   4.247   4.247  10.217 -0.0025  0.0377  0.0744
 5940SOL    HW129282   4.167   4.272  10.264 -0.3974 -0.0034 -0.5669
 5940SOL    HW229283   4.226   4.161  10.181  0.9240  0.0024 -0.3811
 5941SOL     OW29284   2.146   4.344   6.820 -0.0605 -0.0504  0.1083
 5941SOL    HW129285   2.179   4.322   6.733 -0.4465 -0.9510  0.1873
 5941SOL    HW229286   2.101   4.428   6.807  2.9106  1.6892  0.9915
 5942SOL     OW29287   3.482   1.216   8.878 -0.3348 -0.7804  0.5989
 5942SOL    HW129288   3.465   1.310   8.881 -0.5111 -0.7505 -0.9258
 5942SOL    HW229289   3.535   1.220   8.957  1.8935  2.5177 -1.0311
 5943SOL     OW29290   0.663   2.387   7.154  0.3260  0.3445  0.2417
 5943SOL    HW129291   0.727   2.406   7.222  0.7801 -1.5101  0.3427
 5943SOL    HW229292   0.635   2.472   7.121  0.4176  0.2326 -0.1321
 5944SOL     OW29293   1.186   3.000   9.962  0.4739  0.4980 -0.1725
 5944SOL    HW129294   1.186   3.014   9.867  1.2730  1.6573 -0.0032
 5944SOL    HW229295   1.116   2.936   9.974  0.6889  0.0649 -1.1464
 5945SOL     OW29296   2.194   3.231  14.544 -0.1733 -0.0303  0.8287
 5945SOL    HW129297   2.211   3.263  14.633  1.1184  0.3249  0.4465
 5945SOL    HW229298   2.216   3.317  14.509 -1.3111 -0.0139  0.1401
 5946SOL     OW29299   1.900   3.984   6.382  0.0687 -0.3039 -0.0773
 5946SOL    HW129300   1.849   4.002   6.461 -0.5770  0.7008 -0.7205
 5946SOL    HW229301   1.985   3.961   6.418  0.0772 -1.1896 -0.6636
 5947SOL     OW29302   3.540   2.614   5.451 -0.2398  0.3602 -0.3495
 5947SOL    HW129303   3.513   2.699   5.416 -2.0484  0.5030  1.3772
 5947SOL    HW229304   3.625   2.593   5.413 -0.2795 -0.9722  0.2877
 5948SOL     OW29305   2.883   1.977   5.867  0.0834  0.1486 -0.2581
 5948SOL    HW129306   2.866   1.909   5.802 -3.6802  1.5879 -0.7743
 5948SOL    HW229307   2.951   2.024   5.819  0.9836 -2.1462 -1.2556
 5949SOL     OW29308   1.809   1.998   4.288  0.1007 -0.1217 -0.0613
 5949SOL    HW129309   1.751   1.943   4.340  0.1635  1.2281  1.4436
 5949SOL    HW229310   1.745   2.042   4.232 -0.3564  0.3672  0.8434
 5950SOL     OW29311   2.497   0.347   5.629 -0.0506  0.5401 -0.0794
 5950SOL    HW129312   2.551   0.268   5.634 -0.7872 -0.0317 -1.1171
 5950SOL    HW229313   2.501   0.344   5.533 -0.8234  0.4185 -0.1075
 5951SOL     OW29314   2.407   3.420   3.603 -0.2225 -0.3752 -0.3526
 5951SOL    HW129315   2.323   3.399   3.562 -0.8659  0.8174  0.3637
 5951SOL    HW229316   2.471   3.399   3.535  0.5257  1.1414 -0.1246
 5952SOL     OW29317   3.234   3.514   4.881  0.3627 -0.5519  0.7518
 5952SOL    HW129318   3.153   3.473   4.850  0.3962 -0.9593  1.1986
 5952SOL    HW229319   3.291   3.492   4.808 -2.1134 -2.3516 -0.6499
 5953SOL     OW29320   1.702   0.501   3.826  1.1759  0.8644 -0.0815
 5953SOL    HW129321   1.767   0.570   3.814  1.5140  0.7172  0.8442
 5953SOL    HW229322   1.667   0.485   3.738  1.3056 -1.0977  0.2138
 5954SOL     OW29323   3.151   0.981   2.698  0.4882 -0.4951 -0.2349
 5954SOL    HW129324   3.237   1.022   2.697  0.2307  0.0623  1.6633
 5954SOL    HW229325   3.148   0.945   2.786  0.6382  0.2410  0.0687
 5955SOL     OW29326   0.536   0.223   8.827  0.0327 -0.0150  0.5469
 5955SOL    HW129327   0.460   0.167   8.813 -1.1712  1.1704  2.4506
 5955SOL    HW229328   0.512   0.304   8.783 -0.0350  0.7163  1.9425
 5956SOL     OW29329   1.005   3.574  15.905  0.3721 -0.3692  0.5570
 5956SOL    HW129330   1.096   3.597  15.921  0.5402 -1.3755  1.0355
 5956SOL    HW229331   1.008   3.497  15.848 -1.0850 -0.6402  0.8430
 5957SOL     OW29332   0.094   1.770   4.691 -0.1649 -0.3220  0.0340
 5957SOL    HW129333   0.119   1.762   4.599  3.3946 -0.0330  0.9742
 5957SOL    HW229334   0.054   1.684   4.701 -0.2659 -0.4545 -1.5702
 5958SOL     OW29335   2.534   4.041   1.634 -0.8800 -0.0933  0.2664
 5958SOL    HW129336   2.592   4.107   1.596  0.3152 -1.8352 -0.9806
 5958SOL    HW229337   2.457   4.094   1.649 -2.4672 -2.7785  1.6117
 5959SOL     OW29338   0.501   1.168   2.617 -0.6945  0.6386  0.6089
 5959SOL    HW129339   0.511   1.123   2.701 -2.1161  0.6607  0.7793
 5959SOL    HW229340   0.500   1.096   2.554  2.1923  2.0902 -1.1017
 5960SOL     OW29341   4.700   3.903   4.560 -0.2528  0.1098 -0.4601
 5960SOL    HW129342   4.622   3.911   4.504  0.0405  0.6750 -0.7937
 5960SOL    HW229343   0.018   3.832   4.509  1.8892  0.0942  1.1920
 5961SOL     OW29344   1.974   2.401   3.933 -0.4780 -0.4527 -0.0650
 5961SOL    HW129345   2.029   2.398   4.012 -0.4787 -1.2124 -0.0947
 5961SOL    HW229346   2.039   2.406   3.862 -0.5373 -1.3450 -0.1792
 5962SOL     OW29347   0.284   0.431  12.473  0.0713 -0.0908  0.0604
 5962SOL    HW129348   0.234   0.352  12.453  2.7805 -1.8220  0.2043
 5962SOL    HW229349   0.243   0.458  12.555 -1.5396  0.7580 -1.0254
 5963SOL     OW29350   4.230   0.925  12.471 -0.0600  0.5041 -0.2237
 5963SOL    HW129351   4.298   0.892  12.529 -1.5432  0.9592  1.7654
 5963SOL    HW229352   4.157   0.921  12.533 -1.5223 -1.8368 -2.0814
 5964SOL     OW29353   0.884   3.581   9.400 -0.2771  0.6373 -0.0314
 5964SOL    HW129354   0.834   3.662   9.413 -1.2485  0.1695 -0.9227
 5964SOL    HW229355   0.820   3.521   9.362  0.5162  0.7145 -1.4725
 5965SOL     OW29356   3.398   0.676   3.005  0.0360 -0.4328 -0.0487
 5965SOL    HW129357   3.381   0.678   2.911 -2.0480  2.0607  0.3879
 5965SOL    HW229358   3.447   0.758   3.015 -1.2294  0.2066  0.8155
 5966SOL     OW29359   2.201   2.611   6.372  0.7773  0.1734 -0.0620
 5966SOL    HW129360   2.281   2.651   6.340  1.5053 -1.2522 -0.0152
 5966SOL    HW229361   2.200   2.644   6.462 -0.3486  0.0874 -0.0356
 5967SOL     OW29362   3.268   3.472   6.108 -0.1623  0.5204  0.2037
 5967SOL    HW129363   3.210   3.467   6.184 -0.6300  0.2248 -0.1751
 5967SOL    HW229364   3.214   3.411   6.058  1.5643 -0.0796 -0.9131
 5968SOL     OW29365   1.142   3.829   4.346  0.7422 -0.1101  0.0405
 5968SOL    HW129366   1.054   3.864   4.359 -0.0021 -1.6214 -1.0970
 5968SOL    HW229367   1.185   3.877   4.418  1.6482  1.0539 -1.2734
 5969SOL     OW29368   3.249   4.094  16.548  0.8230  0.3079 -0.4913
 5969SOL    HW129369   3.163   4.083  16.509  1.4902 -0.8626 -1.6231
 5969SOL    HW229370   3.235   4.129  16.636 -2.6603  0.5985 -1.1769
 5970SOL     OW29371   2.321   1.630   1.037 -0.5588  0.6352 -0.5649
 5970SOL    HW129372   2.404   1.661   1.073 -0.9758  2.0828 -0.8671
 5970SOL    HW229373   2.287   1.560   1.092 -0.1400  1.4633  0.7258
 5971SOL     OW29374   3.233   1.115   1.917 -0.0865  0.4808 -0.3001
 5971SOL    HW129375   3.157   1.164   1.885  0.4998  0.2142 -2.0695
 5971SOL    HW229376   3.225   1.115   2.013  0.7149  0.2425 -0.2326
 5972SOL     OW29377   3.824   4.087  14.047 -0.0794  0.3410 -0.9078
 5972SOL    HW129378   3.857   4.034  13.974  1.0375 -1.0174  0.5804
 5972SOL    HW229379   3.868   4.172  14.042  0.9532 -0.1401 -0.1419
 5973SOL     OW29380   4.155   2.811   4.934  0.3268  0.0481  0.2705
 5973SOL    HW129381   4.136   2.905   4.931 -0.9820 -0.2338 -0.2544
 5973SOL    HW229382   4.231   2.802   4.875  1.1325  0.3720  1.2638
 5974SOL     OW29383   1.608   4.544  17.125  0.0121  0.0132 -0.1497
 5974SOL    HW129384   1.565   4.497  17.195  0.2975  1.0376  0.7142
 5974SOL    HW229385   1.550   4.520  17.053 -1.1003 -1.1566  1.1581
 5975SOL     OW29386   1.651   2.987  13.398  0.1822 -0.5170 -0.0557
 5975SOL    HW129387   1.656   2.904  13.352  1.7666 -0.3506 -0.1873
 5975SOL    HW229388   1.692   3.035  13.325 -1.7889 -2.0892 -2.2044
 5976SOL     OW29389   4.014   1.298   3.129 -0.1221  0.0863  0.4839
 5976SOL    HW129390   4.071   1.366   3.165  2.4882 -1.2492 -1.1275
 5976SOL    HW229391   3.945   1.348   3.085  0.0474  0.7594  0.9921
 5977SOL     OW29392   3.216   1.808  11.889 -0.0822  0.1139 -0.3108
 5977SOL    HW129393   3.293   1.752  11.898 -0.0727  0.3986  1.4931
 5977SOL    HW229394   3.259   1.882  11.846  0.1144 -0.8365 -1.7374
 5978SOL     OW29395   0.528   2.664  12.258 -0.2796  0.1444 -0.0952
 5978SOL    HW129396   0.444   2.624  12.283 -1.3951  2.5006  0.0060
 5978SOL    HW229397   0.518   2.754  12.288 -3.4623  0.7820 -3.0762
 5979SOL     OW29398   3.516   3.714  14.226 -0.1667  0.0810  0.1142
 5979SOL    HW129399   3.461   3.723  14.303  0.3578 -2.3228  0.7985
 5979SOL    HW229400   3.541   3.804  14.206  1.2629 -0.2277  0.5067
 5980SOL     OW29401   1.114   3.033  13.179 -0.2331  0.1311  0.5627
 5980SOL    HW129402   1.020   3.021  13.170 -0.0377  0.7728 -2.3535
 5980SOL    HW229403   1.127   3.109  13.122 -4.5939 -0.7837 -1.6543
 5981SOL     OW29404   0.752   2.710   9.211 -0.3855  0.1944  0.0463
 5981SOL    HW129405   0.712   2.753   9.135 -0.9988 -0.3283  0.0723
 5981SOL    HW229406   0.804   2.780   9.251 -0.7927  0.8207 -0.5205
 5982SOL     OW29407   2.044   0.929  14.929  0.4003 -0.3406  0.0676
 5982SOL    HW129408   2.074   0.874  15.001  1.2927  0.3002  0.1806
 5982SOL    HW229409   2.089   0.895  14.851  2.1020  0.1668  0.8281
 5983SOL     OW29410   3.221   1.623   3.664  0.1856 -0.1924 -0.3978
 5983SOL    HW129411   3.309   1.598   3.637  0.8301  2.3411 -0.6775
 5983SOL    HW229412   3.210   1.700   3.608 -0.7283 -0.0593 -0.0372
 5984SOL     OW29413   3.112   3.413   1.415  1.0414 -0.5527 -0.4700
 5984SOL    HW129414   3.107   3.492   1.361  1.4408 -0.2415 -0.0497
 5984SOL    HW229415   3.183   3.369   1.368  3.1664 -1.1155  3.2075
 5985SOL     OW29416   4.215   1.765   2.414 -0.3872  0.5052 -0.3465
 5985SOL    HW129417   4.157   1.763   2.338 -1.2961  0.0037  0.3592
 5985SOL    HW229418   4.294   1.731   2.372 -0.9518 -1.2172 -0.0176
 5986SOL     OW29419   0.481   1.888   0.408  0.1952  0.4014 -0.1372
 5986SOL    HW129420   0.417   1.846   0.465 -0.3041  0.3827 -0.7093
 5986SOL    HW229421   0.503   1.971   0.449 -0.2838  1.1367 -1.3711
 5987SOL     OW29422   2.149   3.933   2.417 -0.1778 -0.0424  0.3394
 5987SOL    HW129423   2.119   3.966   2.332  1.3128  0.1211 -0.1130
 5987SOL    HW229424   2.240   3.963   2.409 -0.4766  0.5982 -0.6662
 5988SOL     OW29425   2.395   3.900   4.673  0.2504 -0.8606  0.3553
 5988SOL    HW129426   2.442   3.824   4.637  1.3134 -0.8639  1.7680
 5988SOL    HW229427   2.363   3.864   4.756  1.4595 -0.2281  1.0866
 5989SOL     OW29428   4.381   3.479   1.869  0.4768  0.3420  0.1238
 5989SOL    HW129429   4.308   3.474   1.931 -0.0111  0.7685 -0.4159
 5989SOL    HW229430   4.421   3.563   1.891 -0.3015  0.2349  1.9191
 5990SOL     OW29431   4.375   3.079   8.774  0.4327 -0.6195 -0.2964
 5990SOL    HW129432   4.291   3.033   8.764 -0.3236  0.5708  0.6046
 5990SOL    HW229433   4.368   3.124   8.858  2.8219 -0.9214  0.0604
 5991SOL     OW29434   1.273   1.117   4.888 -0.3495 -0.4619 -0.1135
 5991SOL    HW129435   1.364   1.109   4.858 -0.8284 -1.4164 -1.3226
 5991SOL    HW229436   1.264   1.212   4.893  2.5008 -0.2753  1.2845
 5992SOL     OW29437   3.841   1.894  16.070  0.8193  0.2541 -0.3344
 5992SOL    HW129438   3.786   1.817  16.055  1.0938  0.0902 -0.4861
 5992SOL    HW229439   3.840   1.903  16.166 -0.6807  0.4698 -0.3600
 5993SOL     OW29440   0.355   3.179   3.495  0.9127  0.1951  0.0077
 5993SOL    HW129441   0.424   3.244   3.482  0.7444  0.3499 -0.1266
 5993SOL    HW229442   0.301   3.199   3.418  0.6972  0.6074  0.2676
 5994SOL     OW29443   1.993   3.414   1.374  0.2252  0.9192  0.7078
 5994SOL    HW129444   2.042   3.458   1.304  0.5190  0.1687  0.4438
 5994SOL    HW229445   2.040   3.449   1.450  2.8109 -0.3342 -0.3029
 5995SOL     OW29446   4.259   2.876   7.799 -0.0083 -0.6668  0.4591
 5995SOL    HW129447   4.185   2.826   7.833 -0.2655 -0.6382 -0.0526
 5995SOL    HW229448   4.236   2.865   7.707  0.1244  2.9194 -0.0200
 5996SOL     OW29449   3.310   3.884   5.770 -0.1644  0.2746  0.5811
 5996SOL    HW129450   3.352   3.967   5.794 -0.1014  0.3729  0.1139
 5996SOL    HW229451   3.234   3.878   5.828 -1.4948 -0.2228 -1.2181
 5997SOL     OW29452   2.296   1.362   6.882 -0.2922 -0.3838 -0.1756
 5997SOL    HW129453   2.226   1.357   6.817  0.9408 -0.4014 -1.4874
 5997SOL    HW229454   2.366   1.324   6.830 -0.2967 -2.6713  1.4642
 5998SOL     OW29455   4.439   2.726   4.029 -0.2921 -0.5869  0.3551
 5998SOL    HW129456   4.472   2.813   4.006  0.1488 -0.4897  1.3717
 5998SOL    HW229457   4.405   2.749   4.115  2.5275  1.0067  1.0592
 5999SOL     OW29458   0.514   4.416   0.779 -0.3147 -0.9381  0.0093
 5999SOL    HW129459   0.528   4.509   0.796 -2.2714 -0.7758  0.6849
 5999SOL    HW229460   0.606   4.390   0.789 -0.0271 -0.9897 -2.6421
 6000SOL     OW29461   4.194   2.020   2.499  0.2063  0.1616 -0.1524
 6000SOL    HW129462   4.232   1.933   2.486  0.5980  0.3922 -0.5163
 6000SOL    HW229463   4.273   2.073   2.490  1.1774 -1.7837 -3.0617
 6001SOL     OW29464   3.348   0.972  12.134  0.1448 -0.4831  0.0897
 6001SOL    HW129465   3.266   0.986  12.181  0.5148  0.5655  0.4136
 6001SOL    HW229466   3.391   0.910  12.192 -2.3490 -1.6626  0.6645
 6002SOL     OW29467   3.337   3.632  11.904  0.0586  0.5444  0.4441
 6002SOL    HW129468   3.246   3.612  11.882 -0.2892  1.2905  1.1897
 6002SOL    HW229469   3.331   3.600  11.994 -0.3694 -1.3949 -0.2891
 6003SOL     OW29470   4.441   0.496  14.225  0.4621 -0.2596 -0.2479
 6003SOL    HW129471   4.521   0.453  14.193  0.6611 -0.4546  0.4952
 6003SOL    HW229472   4.435   0.477  14.319  1.1838 -0.4789 -0.2406
 6004SOL     OW29473   3.379   0.263   7.050  0.5141 -0.0650 -0.3888
 6004SOL    HW129474   3.356   0.340   6.998  0.5831  0.4273  0.3127
 6004SOL    HW229475   3.398   0.307   7.133  1.4519 -0.2978 -0.4903
 6005SOL     OW29476   2.230   0.337   4.972  0.1234 -0.4103 -0.1027
 6005SOL    HW129477   2.256   0.422   4.938 -2.5505  0.5595  0.2567
 6005SOL    HW229478   2.135   0.333   4.976  0.1222  2.1540  1.9506
 6006SOL     OW29479   4.002   0.115   7.396 -0.1147 -0.2321 -0.0582
 6006SOL    HW129480   4.033   0.159   7.475  4.2043 -0.9088 -1.4004
 6006SOL    HW229481   3.992   0.191   7.339 -1.6388 -0.0781  0.4190
 6007SOL     OW29482   3.879   3.690   7.196 -0.2765 -0.6246  0.5202
 6007SOL    HW129483   3.912   3.614   7.243  0.0861 -0.1174  1.0902
 6007SOL    HW229484   3.788   3.698   7.226  0.5613  1.6831  2.5156
 6008SOL     OW29485   3.032   4.180   4.196 -0.1826  0.5335  0.8157
 6008SOL    HW129486   3.100   4.208   4.257  1.3702 -0.4535 -0.4827
 6008SOL    HW229487   2.954   4.217   4.238 -0.8800 -0.8913  0.7798
 6009SOL     OW29488   3.110   4.092   2.620  0.0722 -0.6021 -0.3594
 6009SOL    HW129489   3.097   4.173   2.570 -1.4895 -0.2463  0.6294
 6009SOL    HW229490   3.131   4.035   2.546 -1.4680 -0.9701 -0.5193
 6010SOL     OW29491   3.235   2.216   7.699  0.1166 -0.2643 -0.0218
 6010SOL    HW129492   3.187   2.154   7.644 -2.1562  1.4770 -0.0223
 6010SOL    HW229493   3.266   2.150   7.761  0.9802  1.5213  1.4732
 6011SOL     OW29494   2.417   0.455   4.202  0.2857  0.1277 -0.3010
 6011SOL    HW129495   2.337   0.402   4.197 -0.9785  2.2060 -2.3985
 6011SOL    HW229496   2.467   0.418   4.129  0.2536  0.5900 -0.5573
 6012SOL     OW29497   4.264   0.267  13.927 -0.6069 -0.6806  0.1960
 6012SOL    HW129498   4.261   0.180  13.886  1.7679 -0.4820 -0.3851
 6012SOL    HW229499   4.357   0.279  13.941  0.0112 -4.1731 -0.9040
 6013SOL     OW29500   1.596   1.516  11.211  0.0578 -0.1716 -0.3840
 6013SOL    HW129501   1.563   1.515  11.301  0.1822  3.0332 -0.2971
 6013SOL    HW229502   1.688   1.494  11.225  0.0034 -0.7568 -0.9255
 6014SOL     OW29503   0.843   1.446  15.471 -0.2892 -0.2648  0.0712
 6014SOL    HW129504   0.799   1.504  15.408  0.4719  0.6139  0.3450
 6014SOL    HW229505   0.936   1.469  15.468 -0.0091 -1.3235  0.7645
 6015SOL     OW29506   0.149   2.026  13.612 -0.0965 -0.3672 -0.0467
 6015SOL    HW129507   0.158   2.093  13.545  0.6497  2.4442  2.8640
 6015SOL    HW229508   0.155   2.073  13.695  1.5641  0.4140 -0.6211
 6016SOL     OW29509   4.003   2.297   4.021  0.2618 -0.9722 -0.1750
 6016SOL    HW129510   3.930   2.236   4.037  0.6459 -1.2069  0.6892
 6016SOL    HW229511   3.975   2.381   4.058 -0.5422 -0.4937 -1.8768
 6017SOL     OW29512   3.356   2.929  16.958  0.3312 -0.2982  0.5087
 6017SOL    HW129513   3.350   2.955  16.866  0.2587 -0.7555  0.3856
 6017SOL    HW229514   3.267   2.899  16.975  0.7473 -1.5209  0.4911
 6018SOL     OW29515   3.384   1.625   2.018 -0.2471  0.1025  0.2581
 6018SOL    HW129516   3.333   1.704   2.034 -1.0784 -0.5732  0.9669
 6018SOL    HW229517   3.348   1.571   2.089 -1.8370  0.3713 -0.3408
 6019SOL     OW29518   1.721   0.497  11.686 -0.3237 -0.2460  0.5190
 6019SOL    HW129519   1.645   0.443  11.665 -0.8204  0.6763 -0.0206
 6019SOL    HW229520   1.782   0.429  11.713  0.5898  0.0322 -0.8442
 6020SOL     OW29521   3.570   3.918  11.682 -0.0473 -0.4961 -0.2841
 6020SOL    HW129522   3.540   3.904  11.772  0.5696  1.7187  0.2667
 6020SOL    HW229523   3.582   3.827  11.654 -1.0108 -1.0877  1.2458
 6021SOL     OW29524   0.101   0.627   9.489 -0.0651  0.4556 -0.5076
 6021SOL    HW129525   0.100   0.674   9.572 -0.7784 -0.8793  0.2383
 6021SOL    HW229526   0.025   0.664   9.445 -0.0224  1.7986  0.5310
 6022SOL     OW29527   1.669   2.480   8.829  0.1768  0.2175 -0.1122
 6022SOL    HW129528   1.757   2.449   8.810 -0.1008 -0.1477 -0.8231
 6022SOL    HW229529   1.665   2.572   8.804 -0.6674  0.2230  0.0493
 6023SOL     OW29530   1.435   1.767   3.054 -0.5350  0.2981 -0.1818
 6023SOL    HW129531   1.388   1.721   3.124  0.8435  1.1245  1.2765
 6023SOL    HW229532   1.506   1.707   3.031  0.1548  1.4391 -1.0480
 6024SOL     OW29533   0.102   0.810   9.685 -0.0130 -0.1653  0.0295
 6024SOL    HW129534   0.056   0.876   9.738  1.0339 -0.3460  1.1707
 6024SOL    HW229535   0.164   0.864   9.637 -0.7897  0.6530 -0.0502
 6025SOL     OW29536   1.917   4.564   9.807  0.3325  0.1150 -0.1124
 6025SOL    HW129537   1.839   4.579   9.860 -0.2028  0.5691 -1.0209
 6025SOL    HW229538   1.892   4.538   9.718 -1.6484 -0.3225  0.5671
 6026SOL     OW29539   0.854   3.008   4.077 -0.7219 -0.3063 -0.3663
 6026SOL    HW129540   0.784   2.950   4.106 -0.5835 -1.2311 -1.8852
 6026SOL    HW229541   0.880   3.057   4.155  1.3117 -1.3983 -0.3622
 6027SOL     OW29542   4.410   0.997   1.895  0.6346  0.1911  0.0423
 6027SOL    HW129543   4.355   0.918   1.893 -0.3540  0.8697  0.5617
 6027SOL    HW229544   4.402   1.014   1.801  3.0738 -1.9897 -0.5628
 6028SOL     OW29545   4.383   2.448   8.708  0.2870  0.4039  0.3540
 6028SOL    HW129546   4.469   2.473   8.673 -0.2361 -0.7038 -1.6586
 6028SOL    HW229547   4.396   2.474   8.800  2.7439 -1.6242  0.5886
 6029SOL     OW29548   1.731   2.621  15.376 -0.6425 -0.6139 -0.8506
 6029SOL    HW129549   1.729   2.529  15.400  0.5074 -0.1773  0.9142
 6029SOL    HW229550   1.704   2.669  15.454  1.2508 -0.3113 -0.3590
 6030SOL     OW29551   2.787   3.153   5.891 -0.0406 -0.3086  0.3558
 6030SOL    HW129552   2.800   3.076   5.835 -1.7023 -0.0715 -0.3651
 6030SOL    HW229553   2.711   3.124   5.941 -0.5893  0.9129  0.2493
 6031SOL     OW29554   3.884   3.517   5.782  0.6886 -0.2465  0.1861
 6031SOL    HW129555   3.843   3.535   5.867  1.4533  1.7526  0.1198
 6031SOL    HW229556   3.871   3.422   5.793  0.8298 -0.4519 -1.3936
 6032SOL     OW29557   1.823   0.094   4.502  0.3104  0.0184  0.1905
 6032SOL    HW129558   1.821   0.139   4.418  2.8981 -1.1706 -0.5003
 6032SOL    HW229559   1.732   0.100   4.532 -0.4429 -1.0892 -1.9186
 6033SOL     OW29560   1.038   1.949   5.797 -0.0546  0.3192 -0.4520
 6033SOL    HW129561   1.082   1.870   5.828  1.3972  0.8397 -1.1804
 6033SOL    HW229562   1.088   1.996   5.731 -2.1320  1.9572 -0.8749
 6034SOL     OW29563   3.438   4.163   8.108 -0.1578 -0.8040 -0.0706
 6034SOL    HW129564   3.406   4.180   8.197  0.6948  1.3385 -0.1577
 6034SOL    HW229565   3.389   4.226   8.056 -2.0394 -0.7222  1.8255
 6035SOL     OW29566   3.082   0.008   0.317 -0.3963 -0.6344  0.3152
 6035SOL    HW129567   3.046   0.075   0.258 -1.9620 -2.2965 -0.6064
 6035SOL    HW229568   3.158   0.051   0.356  1.7795 -2.8926 -1.3920
 6036SOL     OW29569   3.761   3.449   0.253 -0.1399 -0.3401 -0.1946
 6036SOL    HW129570   3.799   3.501   0.182 -0.9996  1.7143  0.8593
 6036SOL    HW229571   3.843   3.401   0.260 -0.7896 -1.0801  2.6467
 6037SOL     OW29572   4.521   3.889   4.776  0.3188  0.0241  0.9968
 6037SOL    HW129573   4.584   3.903   4.706 -0.2479  0.5565  0.5899
 6037SOL    HW229574   4.526   3.794   4.790 -2.3036 -0.2315  0.2218
 6038SOL     OW29575   0.867   0.686   3.691 -0.0684  0.2779  0.2087
 6038SOL    HW129576   0.942   0.632   3.668 -0.6459 -0.7863  0.8491
 6038SOL    HW229577   0.855   0.735   3.609  0.4413 -0.3234 -0.2288
 6039SOL     OW29578   4.641   1.429   0.245  0.2066 -0.0413  0.0888
 6039SOL    HW129579   4.648   1.334   0.238  0.5890  0.0484 -0.7846
 6039SOL    HW229580   4.575   1.440   0.313  0.6585  0.7668  0.3994
 6040SOL     OW29581   3.984   4.516  10.694 -0.0238 -0.6542  0.1820
 6040SOL    HW129582   4.015   4.518  10.785 -2.4264 -0.1949  1.0219
 6040SOL    HW229583   3.900   4.562  10.681  0.4533  0.1452 -0.0615
 6041SOL     OW29584   4.235   3.874   5.730 -0.6921  0.5292  0.5995
 6041SOL    HW129585   4.297   3.942   5.706 -0.4934  1.1559  2.8366
 6041SOL    HW229586   4.274   3.808   5.674 -0.8898  1.9137 -1.1496
 6042SOL     OW29587   2.221   0.090   2.787  0.3151 -0.2860  0.2460
 6042SOL    HW129588   2.192   0.173   2.749 -1.2390 -0.7321  0.4619
 6042SOL    HW229589   2.308   0.121   2.813  0.8459 -2.1747  0.7549
 6043SOL     OW29590   3.046   4.221   4.868  0.3760 -0.0739 -0.3947
 6043SOL    HW129591   3.071   4.129   4.858  1.0052 -0.0890  1.2837
 6043SOL    HW229592   2.970   4.220   4.926  0.0868 -1.2385 -0.8018
 6044SOL     OW29593   1.700   3.209   4.385 -0.4176 -0.7212  0.0474
 6044SOL    HW129594   1.698   3.145   4.456  1.3833 -0.3359  0.4508
 6044SOL    HW229595   1.790   3.241   4.388 -0.5161 -0.5426  1.4717
 6045SOL     OW29596   1.135   1.785   2.135 -0.2025  0.3366 -0.3563
 6045SOL    HW129597   1.169   1.843   2.068  2.0113  1.4395  1.6960
 6045SOL    HW229598   1.199   1.806   2.204  0.1006 -0.8289 -0.2841
 6046SOL     OW29599   3.023   1.863  10.917 -0.2036  0.7082 -0.1391
 6046SOL    HW129600   3.083   1.926  10.877 -0.4456  0.1376 -1.4067
 6046SOL    HW229601   3.035   1.777  10.878 -1.2156  1.7364 -2.7635
 6047SOL     OW29602   4.036   1.734   3.371  0.4912  0.2801  0.3609
 6047SOL    HW129603   3.978   1.803   3.402 -2.6761 -2.5967  0.8864
 6047SOL    HW229604   4.013   1.668   3.437  1.9652 -0.6286 -0.0307
 6048SOL     OW29605   2.388   4.296  11.687  0.1762 -0.0301  0.4800
 6048SOL    HW129606   2.363   4.260  11.602  0.1969 -1.2442  0.9913
 6048SOL    HW229607   2.482   4.282  11.673 -0.1969 -0.0474 -2.0230
 6049SOL     OW29608   2.702   1.338   3.194  0.1317 -0.1274 -0.5635
 6049SOL    HW129609   2.616   1.379   3.201 -0.1633 -1.0127  1.1000
 6049SOL    HW229610   2.711   1.326   3.100  0.0885 -1.1733 -0.4382
 6050SOL     OW29611   1.101   4.110   6.241  0.1243 -0.1048 -0.1839
 6050SOL    HW129612   1.092   4.196   6.200 -0.0857 -0.2470 -0.4349
 6050SOL    HW229613   1.024   4.065   6.205  1.9708 -1.7103 -2.1313
 6051SOL     OW29614   4.220   2.700   5.522 -0.2412 -0.2286 -0.5084
 6051SOL    HW129615   4.287   2.768   5.525  0.9538 -1.2988 -2.7685
 6051SOL    HW229616   4.148   2.762   5.507 -0.2231  0.1304  0.8944
 6052SOL     OW29617   2.506   1.554  16.782 -0.1459 -0.3134 -0.0040
 6052SOL    HW129618   2.547   1.595  16.859  0.3627 -2.1203  0.6956
 6052SOL    HW229619   2.503   1.463  16.811  0.7658  0.9476  4.0756
 6053SOL     OW29620   0.467   3.994  17.658 -0.4480 -0.1034  0.7641
 6053SOL    HW129621   0.465   4.035   0.060 -0.8389  2.8379 -0.6595
 6053SOL    HW229622   0.477   4.074  17.607  1.5416 -1.4722 -0.9822
 6054SOL     OW29623   2.857   2.368  14.036  0.4140  0.8711 -0.0872
 6054SOL    HW129624   2.860   2.423  13.958  0.2373  1.8310  0.5875
 6054SOL    HW229625   2.768   2.334  14.026  0.1135  1.2092  1.4519
 6055SOL     OW29626   3.453   3.440   6.324 -0.0360  0.3443  0.1355
 6055SOL    HW129627   3.408   3.401   6.400 -0.8605  0.3033 -0.3739
 6055SOL    HW229628   3.385   3.432   6.256  0.0957 -0.3358  0.0785
 6056SOL     OW29629   2.531   4.048  16.854  0.7805 -0.2565 -0.1886
 6056SOL    HW129630   2.466   4.096  16.801  1.2888 -0.9541 -1.4334
 6056SOL    HW229631   2.490   4.068  16.938 -2.2170 -1.5462 -1.3442
 6057SOL     OW29632   3.661   2.997   6.917 -0.1624  0.4291  0.6641
 6057SOL    HW129633   3.752   3.011   6.893  0.0085  1.7978  2.0940
 6057SOL    HW229634   3.635   3.081   6.956  0.7695  0.8135  0.4568
 6058SOL     OW29635   1.784   4.276   9.184  0.0960  0.1776  0.3393
 6058SOL    HW129636   1.836   4.327   9.246 -1.7082  1.2382  0.9468
 6058SOL    HW229637   1.712   4.252   9.241  0.9954 -1.4421  0.8205
 6059SOL     OW29638   3.513   2.511  14.821  0.0230 -0.1182 -0.1429
 6059SOL    HW129639   3.448   2.557  14.874  0.2425  0.5808 -0.4896
 6059SOL    HW229640   3.496   2.417  14.833 -1.4935  0.3732  1.5337
 6060SOL     OW29641   4.144   1.222   7.789 -0.2770 -0.2288  0.2931
 6060SOL    HW129642   4.117   1.306   7.825  0.1723 -0.3055  0.8012
 6060SOL    HW229643   4.183   1.248   7.706 -0.0600  1.3392  0.8944
 6061SOL     OW29644   1.306   1.737   7.578  0.2874  0.4814  0.0416
 6061SOL    HW129645   1.328   1.809   7.518 -0.8245 -0.2828 -1.2652
 6061SOL    HW229646   1.354   1.756   7.659 -1.9503 -1.4372  1.8154
 6062SOL     OW29647   3.994   2.708   6.288 -0.0412  0.2683  0.5208
 6062SOL    HW129648   4.039   2.625   6.306  1.1205  1.0188  1.0568
 6062SOL    HW229649   3.992   2.705   6.193  0.1440  0.1253  0.5208
 6063SOL     OW29650   0.475   4.009   4.556 -0.4987 -0.3520 -0.0876
 6063SOL    HW129651   0.480   4.052   4.471  0.1118 -0.9582 -0.3590
 6063SOL    HW229652   0.404   4.060   4.594 -1.3659 -1.7131  0.1151
 6064SOL     OW29653   4.489   4.552  11.550  0.7223 -0.6425  0.2955
 6064SOL    HW129654   4.525   4.606  11.621 -1.2070 -0.2372  0.9562
 6064SOL    HW229655   4.417   4.508  11.594 -0.3912  0.0623 -0.8383
 6065SOL     OW29656   4.688   0.891   6.812  0.4753  0.8891 -0.5994
 6065SOL    HW129657   0.046   0.872   6.864 -3.4418  0.4458  5.2364
 6065SOL    HW229658   4.709   0.982   6.789 -1.3241  1.7616  1.1512
 6066SOL     OW29659   2.643   3.980   1.891 -0.1345  0.0093  0.0751
 6066SOL    HW129660   2.597   3.974   1.808  1.8755  1.0031 -1.1026
 6066SOL    HW229661   2.647   4.075   1.903 -0.2591  0.0681 -0.3605
 6067SOL     OW29662   4.139   4.614   7.170 -0.0696 -0.3930 -0.5906
 6067SOL    HW129663   4.159   4.703   7.199  0.1810 -1.0036  1.0816
 6067SOL    HW229664   4.212   4.609   7.108 -1.2556 -2.8652 -1.7750
 6068SOL     OW29665   4.040   0.323  14.760  0.1556 -0.1644  0.0160
 6068SOL    HW129666   4.093   0.275  14.824 -1.7098 -0.2478  1.5025
 6068SOL    HW229667   4.007   0.395  14.813 -0.5697 -1.9072  1.9221
 6069SOL     OW29668   0.447   2.936  17.312 -0.1499 -0.0018  0.0403
 6069SOL    HW129669   0.436   2.871  17.382  0.4092  0.4488  0.5457
 6069SOL    HW229670   0.526   2.978  17.348  0.4474  1.4040 -2.9252
 6070SOL     OW29671   0.574   3.014   7.073 -0.6984  0.2285  0.6934
 6070SOL    HW129672   0.581   3.054   6.986  0.2214 -0.1079  0.6122
 6070SOL    HW229673   0.661   2.977   7.084 -1.0664 -0.6906  0.5034
 6071SOL     OW29674   1.187   1.061   3.738  0.1298  0.4545  0.1900
 6071SOL    HW129675   1.146   1.147   3.749  0.9714  1.0276 -1.0907
 6071SOL    HW229676   1.141   1.027   3.661 -0.6316 -2.4073  1.9132
 6072SOL     OW29677   2.005   1.814   9.584 -0.1692  0.1584  0.8654
 6072SOL    HW129678   2.100   1.804   9.577  0.1485  2.6070  2.0471
 6072SOL    HW229679   2.001   1.825   9.678 -2.8124  0.6568  0.6937
 6073SOL     OW29680   0.122   4.395   5.146  0.0804  0.0597  0.0051
 6073SOL    HW129681   0.124   4.336   5.221 -2.3550  0.4839  0.4083
 6073SOL    HW229682   0.049   4.358   5.095 -1.8717  1.3326  1.8858
 6074SOL     OW29683   0.365   1.645   6.308  0.2805 -0.2828 -0.2322
 6074SOL    HW129684   0.341   1.716   6.368 -2.7401 -2.3704  1.0807
 6074SOL    HW229685   0.347   1.563   6.356  1.2560 -0.6718 -0.5407
 6075SOL     OW29686   0.689   1.521   7.031 -0.3571 -0.0204 -0.2424
 6075SOL    HW129687   0.652   1.457   7.091  0.9342 -0.0573  0.5226
 6075SOL    HW229688   0.735   1.463   6.969  0.9809  1.5188 -0.6922
 6076SOL     OW29689   4.489   3.933  15.147  0.5716 -0.9389 -1.0170
 6076SOL    HW129690   4.416   3.985  15.112  1.1938  0.5340 -0.1056
 6076SOL    HW229691   4.560   3.964  15.091  0.3702  0.9270 -0.2121
 6077SOL     OW29692   2.760   3.636   5.905  0.0987  0.0428  0.1335
 6077SOL    HW129693   2.842   3.624   5.858 -0.2246 -0.7230 -0.2472
 6077SOL    HW229694   2.693   3.630   5.836  0.0967  0.6018  0.0863
 6078SOL     OW29695   2.287   1.393   8.961  0.5999 -0.6933  0.2845
 6078SOL    HW129696   2.296   1.300   8.941  1.9899 -0.4225 -0.3355
 6078SOL    HW229697   2.225   1.384   9.033 -0.3682 -0.7159 -0.5620
 6079SOL     OW29698   3.322   4.242   6.006  0.0956 -0.4069  0.8878
 6079SOL    HW129699   3.326   4.292   5.924 -1.1973 -0.8195  0.5746
 6079SOL    HW229700   3.320   4.152   5.976  1.4752 -0.7709  1.8770
 6080SOL     OW29701   2.445   2.191   3.215 -0.4477 -1.0300  0.4867
 6080SOL    HW129702   2.541   2.192   3.209 -0.5688  0.5515 -1.2211
 6080SOL    HW229703   2.421   2.122   3.153  1.3769 -0.0743 -1.2964
 6081SOL     OW29704   1.112   3.752  15.312 -0.1778  1.4197 -0.0615
 6081SOL    HW129705   1.143   3.661  15.308 -0.3479  1.4121 -1.4555
 6081SOL    HW229706   1.161   3.773  15.391  2.6893 -1.3407 -1.1140
 6082SOL     OW29707   0.456   2.582   3.360  0.1235  0.5340  0.3893
 6082SOL    HW129708   0.533   2.536   3.392  1.1372  2.0970  0.1922
 6082SOL    HW229709   0.421   2.522   3.294 -1.0934 -0.8370  2.2568
 6083SOL     OW29710   4.329   1.506  12.227 -0.7159 -0.3933 -0.0860
 6083SOL    HW129711   4.390   1.564  12.181 -1.4505  1.3895  1.2250
 6083SOL    HW229712   4.385   1.428  12.219  0.5488  0.4250  0.9575
 6084SOL     OW29713   3.612   3.551   1.507 -0.3102 -0.5402 -0.0823
 6084SOL    HW129714   3.677   3.584   1.568 -0.8030  0.1960  0.0417
 6084SOL    HW229715   3.652   3.575   1.424 -0.9453 -2.3414 -0.9163
 6085SOL     OW29716   2.381   4.043   2.108  0.4331 -0.3346 -0.4292
 6085SOL    HW129717   2.342   4.051   2.195 -0.2229  1.0771 -0.8603
 6085SOL    HW229718   2.461   3.992   2.122  1.1635  0.9313 -0.0171
 6086SOL     OW29719   0.670   4.363   2.504  0.3162  0.1800  0.1966
 6086SOL    HW129720   0.707   4.292   2.557  1.2569  1.3269  1.0426
 6086SOL    HW229721   0.580   4.367   2.537  0.4241 -0.1744  0.5363
 6087SOL     OW29722   0.382   1.340   5.944 -0.0432 -0.2169  0.1565
 6087SOL    HW129723   0.443   1.280   5.987  0.3380  1.3277  1.7669
 6087SOL    HW229724   0.306   1.333   6.002  0.5449  1.2663  1.0930
 6088SOL     OW29725   1.202   2.475  12.535 -0.4522 -0.2206  0.0830
 6088SOL    HW129726   1.107   2.486  12.531 -0.4212  0.0715  0.1456
 6088SOL    HW229727   1.196   2.424  12.615 -0.0570  0.3367  0.4758
 6089SOL     OW29728   2.806   0.259  10.894  0.2098  0.1184 -0.4505
 6089SOL    HW129729   2.747   0.324  10.856 -1.8517 -2.0659 -0.9894
 6089SOL    HW229730   2.893   0.299  10.887  0.7733 -1.1997 -1.0222
 6090SOL     OW29731   0.374   1.387  16.037 -0.4776 -0.1353 -0.4563
 6090SOL    HW129732   0.442   1.340  15.989 -0.6284 -0.6083 -0.2043
 6090SOL    HW229733   0.403   1.377  16.127  2.4022 -1.9798 -1.5593
 6091SOL     OW29734   1.864   1.856  15.368  0.3090 -0.1200  0.6942
 6091SOL    HW129735   1.882   1.937  15.321 -1.1180 -0.2245 -0.0154
 6091SOL    HW229736   1.799   1.810  15.315 -0.7607  2.9323 -0.6580
 6092SOL     OW29737   1.453   4.090   7.500 -0.8428 -0.4966 -0.4033
 6092SOL    HW129738   1.399   4.119   7.427 -2.1733  3.0585  2.0023
 6092SOL    HW229739   1.413   4.006   7.520  0.1414 -0.8062  0.2669
 6093SOL     OW29740   1.933   3.489   2.618  0.4919 -0.2085 -0.1940
 6093SOL    HW129741   1.911   3.542   2.541  0.6493  0.3692  0.1602
 6093SOL    HW229742   1.969   3.409   2.579  2.6994  0.5818  0.2192
 6094SOL     OW29743   4.145   2.529   1.962  0.1582  0.3187  0.4584
 6094SOL    HW129744   4.203   2.605   1.951 -0.9462  1.2952  1.3794
 6094SOL    HW229745   4.086   2.532   1.887  1.7694 -0.5794 -0.8512
 6095SOL     OW29746   0.564   3.740   7.663  0.0853  0.0084  0.1435
 6095SOL    HW129747   0.527   3.658   7.694 -0.2100  0.3516  0.6927
 6095SOL    HW229748   0.505   3.759   7.589  0.6982  1.8408  0.1077
 6096SOL     OW29749   1.873   1.881   9.355 -0.1000 -0.4546  0.3125
 6096SOL    HW129750   1.923   1.842   9.427 -0.6802  0.8270  1.4342
 6096SOL    HW229751   1.845   1.804   9.307  1.0782 -1.2800  0.9576
 6097SOL     OW29752   3.853   2.972   0.967 -0.0380 -0.2301  0.1725
 6097SOL    HW129753   3.832   2.878   0.962 -4.3623  0.8072 -1.2559
 6097SOL    HW229754   3.776   3.021   0.940  0.6658  1.1317  0.6683
 6098SOL     OW29755   3.820   1.857   3.678  0.3620  0.0479 -0.6089
 6098SOL    HW129756   3.837   1.768   3.710 -1.8877 -0.8897 -2.0235
 6098SOL    HW229757   3.724   1.859   3.676  0.3369 -0.0232  0.7238
 6099SOL     OW29758   4.402   2.459   4.232 -0.3494 -0.0492 -0.5481
 6099SOL    HW129759   4.438   2.407   4.303  0.4610 -0.8497 -1.5469
 6099SOL    HW229760   4.435   2.415   4.154 -0.5206  1.2475 -1.3465
 6100SOL     OW29761   2.030   4.102   1.961 -0.5485 -0.1418  0.5253
 6100SOL    HW129762   2.106   4.056   1.926  0.3274  1.1087  0.7623
 6100SOL    HW229763   2.043   4.195   1.942 -2.1795 -0.1303 -0.5467
 6101SOL     OW29764   0.036   4.540   3.196 -0.1567 -0.3165 -0.3043
 6101SOL    HW129765   4.663   4.561   3.198  0.6849  3.3902  0.4877
 6101SOL    HW229766   0.068   4.588   3.273 -0.3384  2.4781 -2.0066
 6102SOL     OW29767   2.666   3.276  16.407  0.8574 -0.6155 -0.1048
 6102SOL    HW129768   2.633   3.186  16.407 -1.3385  0.1994 -0.0437
 6102SOL    HW229769   2.593   3.328  16.373  0.4253 -0.7864  0.5690
 6103SOL     OW29770   2.647   4.395  16.912  0.3205  0.0716  0.1216
 6103SOL    HW129771   2.615   4.432  16.830  0.0585 -0.7342 -0.1457
 6103SOL    HW229772   2.562   4.353  16.928 -0.6949  1.1117 -2.5702
 6104SOL     OW29773   1.637   3.786  11.306  0.0601 -0.2042  0.9655
 6104SOL    HW129774   1.584   3.773  11.227 -0.4084  0.7235  1.1194
 6104SOL    HW229775   1.712   3.825  11.260 -0.2351 -1.0816 -0.2604
 6105SOL     OW29776   0.157   0.887   4.968  0.4903 -0.3383 -0.0701
 6105SOL    HW129777   0.184   0.978   4.958  0.8727 -0.6355 -1.7292
 6105SOL    HW229778   0.186   0.870   5.057  0.7768 -0.7519 -0.2424
 6106SOL     OW29779   4.226   1.631  16.521  0.1628 -0.3851 -0.2175
 6106SOL    HW129780   4.168   1.610  16.595  1.9052 -1.8618  0.7360
 6106SOL    HW229781   4.168   1.681  16.464  1.5578 -2.5299 -3.4568
 6107SOL     OW29782   0.225   1.950  14.584 -0.1480  0.4792  0.5212
 6107SOL    HW129783   0.234   1.864  14.624  0.6220 -0.0578 -0.8151
 6107SOL    HW229784   0.136   1.948  14.549  0.0590 -0.4912  0.0426
 6108SOL     OW29785   2.104   0.865   4.459 -0.1019  0.1495 -0.3434
 6108SOL    HW129786   2.070   0.896   4.375  1.9831 -0.0302 -1.2619
 6108SOL    HW229787   2.199   0.864   4.447  0.0240 -2.0333  0.8252
 6109SOL     OW29788   2.794   1.592   2.921  0.3628  0.1551 -0.3369
 6109SOL    HW129789   2.828   1.677   2.950  3.3123 -1.3420  0.5759
 6109SOL    HW229790   2.703   1.616   2.903 -0.0492 -2.5129 -1.6781
 6110SOL     OW29791   1.557   0.047   1.221 -0.6539  0.0436 -0.3430
 6110SOL    HW129792   1.569   0.132   1.180  0.6420  0.3002  0.5678
 6110SOL    HW229793   1.504   4.715   1.160 -1.8562  0.5558  0.2841
 6111SOL     OW29794   3.575   0.175  13.054 -0.1035  0.0048 -0.4500
 6111SOL    HW129795   3.645   0.119  13.019 -0.5568 -1.0079  0.2552
 6111SOL    HW229796   3.615   0.261  13.045 -1.6062  0.7527 -0.0088
 6112SOL     OW29797   0.451   4.067   5.868 -0.2456 -0.1855 -0.7960
 6112SOL    HW129798   0.505   4.141   5.896  0.4784 -0.7344 -0.7550
 6112SOL    HW229799   0.521   4.005   5.848  0.9082  0.5176  1.0508
 6113SOL     OW29800   3.204   0.178   4.642 -0.0267 -0.5299 -0.0281
 6113SOL    HW129801   3.123   0.227   4.653 -1.6050 -2.5779 -2.4987
 6113SOL    HW229802   3.217   0.138   4.728 -1.7285  1.4594  1.1498
 6114SOL     OW29803   2.281   2.872   5.283 -0.5402 -0.6736  0.2909
 6114SOL    HW129804   2.200   2.828   5.256 -0.2338 -0.4056 -1.0956
 6114SOL    HW229805   2.274   2.952   5.230  0.4347  0.1768  1.4604
 6115SOL     OW29806   0.214   3.011  15.930  0.1642  0.3083 -0.1233
 6115SOL    HW129807   0.182   2.991  15.842  0.8049  0.3636 -0.3634
 6115SOL    HW229808   0.252   2.927  15.953 -3.0704 -1.0170  0.3391
 6116SOL     OW29809   3.349   3.266  11.620  0.1522 -0.1568  0.0729
 6116SOL    HW129810   3.259   3.233  11.627  0.9121 -2.0247  1.1439
 6116SOL    HW229811   3.377   3.199  11.558 -0.0478  0.9474 -1.2021
 6117SOL     OW29812   3.023   1.596   7.673  0.2170 -0.2280 -0.7170
 6117SOL    HW129813   3.034   1.691   7.675  0.6297 -0.3099  0.8987
 6117SOL    HW229814   3.058   1.561   7.755 -1.1007  1.4639  0.5537
 6118SOL     OW29815   4.438   3.194   4.150  0.2861  0.2821 -0.3330
 6118SOL    HW129816   4.353   3.233   4.133 -0.2262 -1.2437 -1.2617
 6118SOL    HW229817   4.419   3.164   4.239 -0.4980  0.8826 -0.2997
 6119SOL     OW29818   3.722   3.282  11.507  0.2711 -0.3764  0.0616
 6119SOL    HW129819   3.780   3.210  11.486  1.7925  1.2512 -1.2939
 6119SOL    HW229820   3.690   3.252  11.592  1.4591 -0.2236  0.5624
 6120SOL     OW29821   4.323   1.382   7.063  0.0104 -0.1583  0.0897
 6120SOL    HW129822   4.406   1.342   7.036  0.5443  1.5862 -0.8663
 6120SOL    HW229823   4.309   1.459   7.008 -1.9706  0.1622  1.0421
 6121SOL     OW29824   4.093   3.150   8.940  0.7273  0.3004 -0.0599
 6121SOL    HW129825   4.079   3.082   8.873 -2.6667  1.3894 -0.4702
 6121SOL    HW229826   4.052   3.102   9.012  2.4499  0.4462  1.0275
 6122SOL     OW29827   3.898   3.865   7.908  0.1523 -0.2820  0.0278
 6122SOL    HW129828   3.847   3.912   7.843  2.6375  1.2271 -0.8573
 6122SOL    HW229829   3.919   3.780   7.868 -2.7978 -1.6701  1.4023
 6123SOL     OW29830   0.094   3.185   1.852  0.0022 -0.5349  0.0259
 6123SOL    HW129831   0.153   3.131   1.904  1.5892  1.4659  0.2946
 6123SOL    HW229832   0.152   3.255   1.824  1.3960 -1.8261 -0.3052
 6124SOL     OW29833   0.352   2.443  12.768 -0.2439 -0.1794 -0.4845
 6124SOL    HW129834   0.408   2.518  12.787  1.8606 -1.8866 -0.0481
 6124SOL    HW229835   0.413   2.370  12.768 -1.2029 -0.9915 -1.2805
 6125SOL     OW29836   1.655   4.404   5.576  0.6779 -0.1110  0.1676
 6125SOL    HW129837   1.713   4.478   5.596 -0.3127  1.2916 -2.0853
 6125SOL    HW229838   1.571   4.448   5.590 -0.2215 -1.5536 -0.8280
 6126SOL     OW29839   4.327   1.643   3.650 -0.3137 -0.2415 -0.0018
 6126SOL    HW129840   4.329   1.571   3.588 -0.4528 -0.3314  0.0983
 6126SOL    HW229841   4.394   1.614   3.712  2.4112  1.2299 -2.2706
 6127SOL     OW29842   3.057   0.611   2.111  0.3844  0.5418  0.1279
 6127SOL    HW129843   3.067   0.603   2.016  1.5212  0.1204  0.2752
 6127SOL    HW229844   3.109   0.687   2.137 -1.1176  2.6218 -2.8994
 6128SOL     OW29845   0.385   0.156   9.415 -0.2487 -0.1047  0.4429
 6128SOL    HW129846   0.350   0.163   9.326  3.4448  2.3679 -0.8534
 6128SOL    HW229847   0.308   0.199   9.451 -0.8930  0.3080 -1.4148
 6129SOL     OW29848   2.914   3.658  12.764  0.0323  0.5964  0.2883
 6129SOL    HW129849   2.888   3.701  12.846 -1.2620 -0.7595  0.6011
 6129SOL    HW229850   2.863   3.579  12.781 -0.7752  1.1173  0.3255
 6130SOL     OW29851   3.948   2.466  13.166 -0.2040  0.1715  0.4725
 6130SOL    HW129852   3.897   2.424  13.235  1.8150 -1.9636  0.6388
 6130SOL    HW229853   3.871   2.503  13.123 -0.6985 -1.3420  0.0915
 6131SOL     OW29854   2.190   1.601   2.348  0.3210  0.4213 -0.1049
 6131SOL    HW129855   2.148   1.587   2.263  0.0519 -0.5814  0.1915
 6131SOL    HW229856   2.245   1.523   2.354  1.5798  1.4080  0.9670
 6132SOL     OW29857   1.454   1.652   7.902  0.1368 -0.0111 -0.2727
 6132SOL    HW129858   1.531   1.670   7.847  0.8733  0.0250  0.7664
 6132SOL    HW229859   1.491   1.598   7.972  0.9107  2.5705  1.2845
 6133SOL     OW29860   2.985   1.420   0.664  0.3976  0.3736 -0.1221
 6133SOL    HW129861   2.936   1.353   0.710  0.9537 -1.5122 -2.3061
 6133SOL    HW229862   2.965   1.408   0.572  1.6665 -3.9452  0.1954
 6134SOL     OW29863   3.840   3.685  11.103 -0.0546 -0.1588 -0.2571
 6134SOL    HW129864   3.887   3.760  11.067  0.2256 -0.3378 -0.2622
 6134SOL    HW229865   3.768   3.733  11.144  0.7406  1.1634 -0.4178
 6135SOL     OW29866   2.889   1.769   4.689  0.1969 -0.1826  0.1851
 6135SOL    HW129867   2.983   1.784   4.678 -0.1407  2.7368  1.3618
 6135SOL    HW229868   2.866   1.740   4.601  1.1686 -1.3121  0.3054
 6136SOL     OW29869   0.102   2.708   5.758  0.1818  0.2461  0.0701
 6136SOL    HW129870   0.007   2.719   5.764 -0.0960 -0.7224 -2.6195
 6136SOL    HW229871   0.113   2.654   5.836 -1.8902 -1.1525 -0.6280
 6137SOL     OW29872   3.059   3.696  11.459 -0.0522 -0.1052 -0.5273
 6137SOL    HW129873   3.095   3.612  11.489 -1.0653  0.0049  1.0046
 6137SOL    HW229874   2.991   3.662  11.401  0.7087 -2.1955 -0.2005
 6138SOL     OW29875   4.282   2.353   3.405 -0.2170  0.0980 -0.0473
 6138SOL    HW129876   4.239   2.316   3.328  1.4660  0.4755 -1.1596
 6138SOL    HW229877   4.282   2.448   3.393 -2.0858  0.3857  2.2426
 6139SOL     OW29878   3.024   3.967   5.121  0.4683  0.2692 -0.3789
 6139SOL    HW129879   3.015   4.039   5.184  1.8728  0.4404 -0.3752
 6139SOL    HW229880   3.096   3.999   5.068  2.3159 -1.9391  0.7730
 6140SOL     OW29881   1.869   4.146   6.778 -0.2244  0.0777  0.0070
 6140SOL    HW129882   1.783   4.108   6.760 -0.6875  0.9134  0.4623
 6140SOL    HW229883   1.872   4.204   6.701 -2.2637  0.6683  0.3565
 6141SOL     OW29884   4.246   0.580   4.462 -0.2485 -0.6646  0.2054
 6141SOL    HW129885   4.221   0.493   4.493  2.0903 -0.4716  2.6833
 6141SOL    HW229886   4.194   0.641   4.514 -0.4641 -1.2007  0.6309
 6142SOL     OW29887   4.277   4.067  15.030  0.3938  0.2158  0.2637
 6142SOL    HW129888   4.263   3.988  14.977 -1.8020 -0.1700  1.4159
 6142SOL    HW229889   4.187   4.099  15.038 -0.3418 -1.8694  0.4892
 6143SOL     OW29890   1.231   4.152   0.858 -0.5789 -0.6518 -0.2067
 6143SOL    HW129891   1.178   4.188   0.786 -1.3965  0.5046  0.9529
 6143SOL    HW229892   1.251   4.065   0.824  2.9007  2.1818 -5.3223
 6144SOL     OW29893   4.143   0.608   2.168  0.3499  0.4336  0.5393
 6144SOL    HW129894   4.100   0.612   2.253 -2.8803  0.6321 -1.0949
 6144SOL    HW229895   4.070   0.587   2.110  0.3100  1.1145  0.3392
 6145SOL     OW29896   1.468   1.245   5.228 -0.2726  0.0490  0.0748
 6145SOL    HW129897   1.544   1.198   5.195 -0.5721  0.4622 -1.1947
 6145SOL    HW229898   1.428   1.294   5.156 -1.4542 -2.4593 -0.9866
 6146SOL     OW29899   0.980   3.481  13.544 -0.0780 -0.2524  0.1316
 6146SOL    HW129900   0.906   3.542  13.543  0.9213  0.9313  0.0374
 6146SOL    HW229901   0.947   3.426  13.616 -2.5053  2.1328  0.8575
 6147SOL     OW29902   3.514   4.100   3.332 -0.2212 -0.3049  0.3423
 6147SOL    HW129903   3.500   4.071   3.242  0.3985  0.2577  0.0610
 6147SOL    HW229904   3.472   4.185   3.347 -0.4135 -0.1783 -0.9225
 6148SOL     OW29905   1.729   1.433   8.359 -0.0882  0.1636 -0.4022
 6148SOL    HW129906   1.706   1.349   8.319  0.3777  0.3265 -1.0055
 6148SOL    HW229907   1.754   1.482   8.281 -1.1348  1.3128 -0.0149
 6149SOL     OW29908   1.866   1.636   5.619  0.4866  0.7669 -0.1234
 6149SOL    HW129909   1.866   1.705   5.553  0.9580  2.6335  1.8161
 6149SOL    HW229910   1.961   1.641   5.634  0.2408  3.2792  0.6021
 6150SOL     OW29911   3.786   1.117   8.374 -0.0689  0.0572 -0.2112
 6150SOL    HW129912   3.777   1.201   8.330 -1.5295 -0.1699 -0.3433
 6150SOL    HW229913   3.693   1.095   8.381  0.6617 -2.3018  2.0428
 6151SOL     OW29914   1.688   2.512   6.811 -0.0551  0.4337 -0.5242
 6151SOL    HW129915   1.735   2.582   6.766 -0.3804  1.6485  1.0192
 6151SOL    HW229916   1.750   2.469   6.870 -0.7438 -1.0270 -0.8769
 6152SOL     OW29917   0.319   2.402   8.154 -0.1403  0.1712  0.2378
 6152SOL    HW129918   0.357   2.433   8.072  0.3870 -3.6989 -0.9724
 6152SOL    HW229919   0.384   2.437   8.215 -1.2470  1.6585  0.5518
 6153SOL     OW29920   3.484   1.112  10.324  0.3793  0.2286  0.3173
 6153SOL    HW129921   3.571   1.076  10.309  0.0182  0.0902 -1.4441
 6153SOL    HW229922   3.514   1.187  10.375 -3.7605  1.5226  0.8468
 6154SOL     OW29923   3.220   1.724   5.516  0.0396 -0.2188 -0.3432
 6154SOL    HW129924   3.269   1.765   5.444  1.7621  0.3558  1.1672
 6154SOL    HW229925   3.131   1.716   5.483 -0.1956  0.9780  0.0107
 6155SOL     OW29926   0.375   4.615  17.426  0.4927  0.1586  0.1265
 6155SOL    HW129927   0.425   4.588  17.503  0.3274  0.1074  0.2159
 6155SOL    HW229928   0.357   4.708  17.442  0.7992  0.3355 -0.5518
 6156SOL     OW29929   2.045   0.822  10.222 -0.2432 -0.3563 -0.0955
 6156SOL    HW129930   1.973   0.801  10.281  0.6017 -1.4231  0.5603
 6156SOL    HW229931   2.029   0.754  10.157 -3.6277  0.7297 -0.3681
 6157SOL     OW29932   2.235   4.032   1.432  0.0225 -0.0642  0.0699
 6157SOL    HW129933   2.310   4.037   1.372  1.3123  0.1571  1.7075
 6157SOL    HW229934   2.234   4.109   1.488  1.6115 -0.4587  0.6469
 6158SOL     OW29935   2.368   0.711   5.573 -0.3149  0.1253 -0.3168
 6158SOL    HW129936   2.351   0.620   5.596 -1.6500  1.5050  4.1607
 6158SOL    HW229937   2.322   0.709   5.489  1.7622 -0.0901 -1.4590
 6159SOL     OW29938   4.118   3.980   1.340 -0.0297  0.2645  0.4079
 6159SOL    HW129939   4.132   3.937   1.256 -2.0693 -2.2323  1.3218
 6159SOL    HW229940   4.072   3.904   1.377 -1.6237  0.6010 -0.9114
 6160SOL     OW29941   1.822   3.573   7.753  0.2015 -0.1938  0.3177
 6160SOL    HW129942   1.859   3.591   7.839  0.5046  1.9154 -0.2653
 6160SOL    HW229943   1.778   3.656   7.736  0.7770  0.3385  1.4263
 6161SOL     OW29944   1.722   3.967  16.086  0.3325 -0.1156 -0.2112
 6161SOL    HW129945   1.746   3.980  16.178 -3.1713 -0.4062  0.7488
 6161SOL    HW229946   1.639   4.015  16.087 -0.9076 -2.2614  0.7030
 6162SOL     OW29947   2.115   3.960  11.104 -0.9958 -0.1993 -0.0412
 6162SOL    HW129948   2.084   4.032  11.158  1.6514 -0.6500  2.0808
 6162SOL    HW229949   2.117   4.007  11.021  3.4288  1.0507  0.7887
 6163SOL     OW29950   0.517   1.985   7.471 -0.1824  0.4952  0.4609
 6163SOL    HW129951   0.469   2.036   7.536  0.1440 -0.5566  1.5206
 6163SOL    HW229952   0.463   1.906   7.462 -1.2420  1.4559 -1.6816
 6164SOL     OW29953   2.240   2.007   7.869 -0.7202 -0.5238  0.1654
 6164SOL    HW129954   2.311   2.071   7.867 -0.5882 -0.6698  0.1795
 6164SOL    HW229955   2.295   1.929   7.870  0.5172  0.4246  3.6658
 6165SOL     OW29956   4.131   3.275   3.292 -0.2146 -0.3321  0.0145
 6165SOL    HW129957   4.063   3.261   3.226 -0.1772 -0.6421  0.0415
 6165SOL    HW229958   4.188   3.339   3.249  1.6276 -2.6340 -0.9827
 6166SOL     OW29959   2.075   0.733   6.675  0.1675 -0.2436 -0.1118
 6166SOL    HW129960   2.086   0.642   6.702 -2.4856 -0.2306  1.0103
 6166SOL    HW229961   2.060   0.779   6.758 -0.1656 -2.1266  0.8594
 6167SOL     OW29962   4.394   4.356   5.352  0.2321 -0.3140  0.0508
 6167SOL    HW129963   4.312   4.384   5.392  1.3551  1.8641  0.8732
 6167SOL    HW229964   4.409   4.438   5.304 -2.2740  0.2955  0.3221
 6168SOL     OW29965   2.735   2.505   5.169  0.1358  0.0832 -0.0485
 6168SOL    HW129966   2.812   2.535   5.218  0.0105  0.5553 -0.1334
 6168SOL    HW229967   2.702   2.441   5.232  1.8587 -0.3639  0.3953
 6169SOL     OW29968   1.607   0.783   8.998 -0.0802 -0.1641  0.5794
 6169SOL    HW129969   1.545   0.746   9.061 -3.2099 -0.6577 -2.7906
 6169SOL    HW229970   1.547   0.796   8.925 -0.1431  2.6739  1.1162
 6170SOL     OW29971   4.218   0.234  16.185  0.1880  0.4567  0.6065
 6170SOL    HW129972   4.166   0.171  16.235  1.5543 -1.3094 -0.2175
 6170SOL    HW229973   4.157   0.273  16.122 -0.8268  0.5011  1.6168
 6171SOL     OW29974   2.171   2.621   5.762 -0.0594  0.2577 -0.1299
 6171SOL    HW129975   2.083   2.591   5.785  0.2529 -1.9008 -1.7343
 6171SOL    HW229976   2.163   2.713   5.787  0.0034  0.1656  0.2373
 6172SOL     OW29977   3.113   1.807   3.475 -0.0263 -0.5896 -0.4407
 6172SOL    HW129978   3.072   1.785   3.391 -1.8180  1.4269 -0.1175
 6172SOL    HW229979   3.032   1.844   3.512  0.7521  1.8635 -1.2101
 6173SOL     OW29980   3.734   4.443   2.067  0.6914 -0.1606  0.4148
 6173SOL    HW129981   3.814   4.454   2.119  0.3607 -0.7473  1.0544
 6173SOL    HW229982   3.679   4.391   2.125  0.4884  2.2739  2.4226
 6174SOL     OW29983   3.663   2.934   7.595 -0.2848  0.0039 -0.0736
 6174SOL    HW129984   3.642   2.841   7.603 -1.3659  0.2287 -0.2536
 6174SOL    HW229985   3.751   2.932   7.560  0.6806  1.3332  2.2760
 6175SOL     OW29986   2.654   1.689   6.886  0.2305 -0.2511 -0.2461
 6175SOL    HW129987   2.574   1.726   6.924 -0.3653  0.1482 -1.8946
 6175SOL    HW229988   2.698   1.771   6.864 -1.0759  0.6938  0.6463
 6176SOL     OW29989   3.170   1.379   2.799  0.2381 -0.3067  0.0181
 6176SOL    HW129990   3.234   1.326   2.752 -0.1378  0.3620 -1.2396
 6176SOL    HW229991   3.183   1.459   2.748  2.2385 -0.0296  0.9246
 6177SOL     OW29992   3.581   1.887   6.714  0.1009 -0.2674 -0.6570
 6177SOL    HW129993   3.624   1.873   6.798  0.6384  2.2425 -0.5031
 6177SOL    HW229994   3.496   1.917   6.745  1.2020  0.7853  1.3154
 6178SOL     OW29995   2.923   3.347  11.366 -0.2863 -0.2218  0.5115
 6178SOL    HW129996   2.909   3.317  11.276  0.2126  2.6477 -0.5299
 6178SOL    HW229997   2.846   3.394  11.397 -0.7529 -0.0196 -0.9662
 6179SOL     OW29998   4.454   4.608   5.247  0.3440  0.0471  0.1744
 6179SOL    HW129999   4.543   4.599   5.212 -0.5480  0.5258 -2.2297
 6179SOL    HW230000   4.406   4.659   5.182 -0.1079 -1.5381 -0.7115
 6180SOL     OW30001   1.063   4.016   1.045 -0.7063 -0.0435 -0.2289
 6180SOL    HW130002   1.085   4.068   1.122 -0.3027 -0.7894  0.1686
 6180SOL    HW230003   1.113   4.060   0.976 -0.6202  0.3944  0.1146
 6181SOL     OW30004   0.699   2.539   9.412  0.4035 -0.1482 -0.6374
 6181SOL    HW130005   0.754   2.486   9.354  2.0220  2.0370 -1.1014
 6181SOL    HW230006   0.693   2.609   9.347 -2.8471  1.3643  1.3038
 6182SOL     OW30007   4.086   1.889   2.836 -0.6323 -0.1241 -0.0157
 6182SOL    HW130008   4.147   1.827   2.796 -0.2319 -1.0586  2.0316
 6182SOL    HW230009   4.000   1.849   2.826 -0.6530 -0.4183  1.3238
 6183SOL     OW30010   2.466   4.463  16.689  0.4169 -0.1736 -0.5027
 6183SOL    HW130011   2.387   4.517  16.685 -0.4448 -1.3818  0.5278
 6183SOL    HW230012   2.425   4.377  16.699  1.7551 -0.8143 -0.4982
 6184SOL     OW30013   2.506   2.739   7.026 -0.2520 -0.1043  0.0800
 6184SOL    HW130014   2.548   2.654   7.013  0.1510 -0.2754  2.5362
 6184SOL    HW230015   2.507   2.755   7.120 -1.0253 -0.7323  0.1969
 6185SOL     OW30016   0.939   3.820   7.716 -0.0231 -0.0425 -0.4747
 6185SOL    HW130017   0.916   3.765   7.641 -1.2792 -2.5111  1.7152
 6185SOL    HW230018   0.865   3.881   7.718  0.4151  0.3533  3.0365
 6186SOL     OW30019   4.234   0.158  17.525  0.4360 -0.1714 -0.4389
 6186SOL    HW130020   4.150   0.127  17.492  0.0232  0.5355 -0.0747
 6186SOL    HW230021   4.296   0.091  17.498 -0.8059 -1.7832  0.6957
 6187SOL     OW30022   0.053   1.068   6.022 -0.3931 -0.4129  0.2111
 6187SOL    HW130023   0.121   1.012   5.984 -1.3940 -0.0326 -2.1945
 6187SOL    HW230024   4.701   1.005   6.024 -1.3092  0.6366  0.2399
 6188SOL     OW30025   0.030   2.827  16.230 -0.1518  0.2151 -0.4359
 6188SOL    HW130026   0.082   2.754  16.264  1.7212  1.1562 -1.2719
 6188SOL    HW230027   4.675   2.818  16.287  0.7784  0.2287  0.7938
 6189SOL     OW30028   3.649   4.221   2.200  0.0765  0.1007  0.4444
 6189SOL    HW130029   3.560   4.186   2.207 -0.0374  0.5159  1.0746
 6189SOL    HW230030   3.686   4.157   2.140  0.4861 -1.3874  2.2894
 6190SOL     OW30031   1.046   0.911  13.876 -0.1848 -0.4574  0.5800
 6190SOL    HW130032   1.011   0.975  13.814 -0.4329  1.0091  2.2247
 6190SOL    HW230033   1.129   0.956  13.892 -0.9467 -0.2389  3.9911
 6191SOL     OW30034   1.237   2.683   3.330  0.3413 -0.1517  1.0870
 6191SOL    HW130035   1.156   2.712   3.372  0.2390  0.6270  0.3527
 6191SOL    HW230036   1.306   2.697   3.394 -0.0761  0.2574  1.4473
 6192SOL     OW30037   0.283   0.310   3.780  0.3914  0.2698 -0.5065
 6192SOL    HW130038   0.307   0.239   3.720 -1.1406  0.4630 -1.3419
 6192SOL    HW230039   0.285   0.371   3.707  1.6397  0.3567 -0.3940
 6193SOL     OW30040   4.053   2.141  17.126 -0.9106  0.0820  0.1404
 6193SOL    HW130041   3.996   2.179  17.193 -1.9598  0.7448 -1.1297
 6193SOL    HW230042   4.034   2.198  17.051 -2.4566 -1.0688 -0.3471
 6194SOL     OW30043   2.733   1.511   4.998  0.1876 -0.1344 -0.3171
 6194SOL    HW130044   2.775   1.493   4.914  0.6075  3.7593 -0.9457
 6194SOL    HW230045   2.731   1.424   5.038 -0.4991 -0.5042 -1.1532
 6195SOL     OW30046   1.665   1.575   6.659  0.0456  0.8165  0.0006
 6195SOL    HW130047   1.694   1.631   6.588  1.3827  0.3200  0.1403
 6195SOL    HW230048   1.703   1.620   6.735  3.0289 -1.7148  0.0108
 6196SOL     OW30049   4.628   4.253  15.339  0.1054 -0.0095  0.1516
 6196SOL    HW130050   4.550   4.302  15.365 -0.1875  0.2932 -1.3292
 6196SOL    HW230051   4.650   4.288  15.253  0.8783  0.1730  0.4174
 6197SOL     OW30052   2.986   4.573   4.086  0.1576 -0.1067  0.2680
 6197SOL    HW130053   3.004   4.634   4.014 -1.1411 -0.8697 -0.7187
 6197SOL    HW230054   3.071   4.529   4.092 -1.0776 -2.2033  1.9546
 6198SOL     OW30055   4.035   1.718   2.222  0.1164  0.2407 -0.2135
 6198SOL    HW130056   3.965   1.680   2.275 -0.2268  2.8366  1.2159
 6198SOL    HW230057   3.991   1.729   2.138 -1.7339  1.7707  0.9569
 6199SOL     OW30058   1.283   4.519   8.468 -0.3750 -0.4666 -0.2416
 6199SOL    HW130059   1.370   4.529   8.431 -0.3156  0.7849  0.2327
 6199SOL    HW230060   1.252   4.609   8.453  0.4297  0.1042  1.4921
 6200SOL     OW30061   0.267   2.082   7.903 -0.9308  0.0100  0.4175
 6200SOL    HW130062   0.304   2.094   7.990 -0.9044  1.6746  0.1853
 6200SOL    HW230063   0.288   1.991   7.880  1.2779  0.3704  1.0829
 6201SOL     OW30064   2.764   3.238   2.835 -0.4906 -0.2132  0.4422
 6201SOL    HW130065   2.809   3.267   2.914 -1.4200  0.4476  0.7273
 6201SOL    HW230066   2.756   3.319   2.785  0.5722 -2.2091 -2.9195
 6202SOL     OW30067   1.327   2.031  17.034  0.4474 -0.2931  0.6401
 6202SOL    HW130068   1.301   2.064  16.948 -3.0810 -0.9742  1.4659
 6202SOL    HW230069   1.263   1.960  17.039 -0.8167  0.8327  0.2151
 6203SOL     OW30070   2.038   1.075   9.718 -0.6698 -0.2930  0.1081
 6203SOL    HW130071   2.026   1.026   9.799 -2.4734  0.5482  0.3318
 6203SOL    HW230072   1.945   1.087   9.700 -0.6657  0.7134  0.7617
 6204SOL     OW30073   0.987   3.117   9.161  0.7383 -0.0727 -0.4699
 6204SOL    HW130074   1.018   3.204   9.135 -1.3230  0.3192 -1.5781
 6204SOL    HW230075   0.897   3.123   9.130  0.8153 -0.9687 -0.8451
 6205SOL     OW30076   4.492   3.902   4.399  0.0676  0.1523  0.0938
 6205SOL    HW130077   4.435   3.837   4.358  0.1975 -0.4899  0.9370
 6205SOL    HW230078   4.549   3.917   4.323  0.5080 -0.7113  0.2605
 6206SOL     OW30079   1.510   3.065  16.128 -0.1385  1.0904 -0.1531
 6206SOL    HW130080   1.492   3.138  16.187  2.2382  0.7754  1.0115
 6206SOL    HW230081   1.507   3.114  16.047  0.0442  0.3257 -0.6283
 6207SOL     OW30082   3.879   3.199   3.718 -0.8290  0.1910  0.0396
 6207SOL    HW130083   3.898   3.260   3.789 -1.9484 -0.3167  0.7694
 6207SOL    HW230084   3.931   3.238   3.648 -1.2747  0.8559  0.0707
 6208SOL     OW30085   3.609   1.296   4.270  0.0755  0.2157  0.3142
 6208SOL    HW130086   3.604   1.372   4.211  1.8999 -0.8163 -1.1683
 6208SOL    HW230087   3.629   1.336   4.355  0.7989  0.8356 -0.1421
 6209SOL     OW30088   1.559   3.830   0.568 -0.0906 -0.1352 -0.0182
 6209SOL    HW130089   1.610   3.900   0.527 -0.6154  1.3327  1.8112
 6209SOL    HW230090   1.586   3.748   0.527 -1.6501  0.3569 -2.0029
 6210SOL     OW30091   3.609   1.911   2.410  0.0441 -0.2542 -0.0110
 6210SOL    HW130092   3.690   1.936   2.367  0.6359  0.0314  1.2527
 6210SOL    HW230093   3.604   1.822   2.376 -0.2319 -1.2742  2.6384
 6211SOL     OW30094   1.999   2.902  17.500 -0.1054 -0.3523  0.1873
 6211SOL    HW130095   1.938   2.829  17.515  1.0399 -1.2176  0.6345
 6211SOL    HW230096   1.942   2.979  17.504  0.3276  0.1800 -4.1138
 6212SOL     OW30097   2.687   0.235   2.051 -0.1367 -0.3933 -0.5086
 6212SOL    HW130098   2.656   0.242   1.961  0.5759  0.9922 -0.6445
 6212SOL    HW230099   2.779   0.213   2.038 -0.2658 -1.1410 -0.1516
 6213SOL     OW30100   2.138   2.989   0.464  0.1291  0.0190 -0.2807
 6213SOL    HW130101   2.096   2.920   0.412  0.8393  0.4340 -1.3919
 6213SOL    HW230102   2.064   3.050   0.471  0.6280  0.4716  1.0759
 6214SOL     OW30103   1.313   3.847   9.071 -0.4449 -0.8052 -0.2159
 6214SOL    HW130104   1.241   3.904   9.100 -0.5606 -0.3438 -1.4313
 6214SOL    HW230105   1.382   3.899   9.111 -0.2186  0.3131 -2.0392
 6215SOL     OW30106   4.467   1.396   4.599 -0.0458  0.3641  0.3163
 6215SOL    HW130107   4.486   1.305   4.623 -2.8369 -0.5358 -0.9669
 6215SOL    HW230108   4.375   1.399   4.624 -0.8088 -0.8574 -2.3419
 6216SOL     OW30109   3.102   3.439  10.929  0.2777 -0.8376  0.3700
 6216SOL    HW130110   3.061   3.383  10.863 -0.7858  1.1244 -0.6770
 6216SOL    HW230111   3.139   3.384  10.997  0.4825  1.1807  1.9086
 6217SOL     OW30112   3.528   2.296   5.278  0.4781  0.6149 -0.2578
 6217SOL    HW130113   3.455   2.293   5.340  0.9119 -0.0534  0.2203
 6217SOL    HW230114   3.498   2.230   5.217  3.6289 -0.2030 -0.9366
 6218SOL     OW30115   0.551   0.439  12.020 -0.5585 -0.2943 -0.4799
 6218SOL    HW130116   0.512   0.455  11.934  0.2301 -1.4955 -1.0558
 6218SOL    HW230117   0.487   0.373  12.046 -1.6420  1.1073  0.4277
 6219SOL     OW30118   3.640   2.559  13.908 -0.6359  0.5071 -0.0989
 6219SOL    HW130119   3.699   2.608  13.851 -1.6436 -1.0736 -2.4976
 6219SOL    HW230120   3.598   2.634  13.949 -2.0399 -0.3068 -0.0485
 6220SOL     OW30121   3.733   0.407   5.637 -0.4098  0.2669 -0.0966
 6220SOL    HW130122   3.686   0.464   5.697  2.2754  0.2226  2.0132
 6220SOL    HW230123   3.765   0.339   5.696 -0.8836 -1.0525 -1.3637
 6221SOL     OW30124   3.894   4.455   9.288 -0.1890 -0.2263  0.3357
 6221SOL    HW130125   3.988   4.442   9.291 -0.5689 -2.9085  0.5106
 6221SOL    HW230126   3.881   4.444   9.382  3.2127 -0.9542  0.7191
 6222SOL     OW30127   4.429   1.705   2.268  0.6485  0.3733 -0.0414
 6222SOL    HW130128   4.421   1.632   2.206 -0.3534  0.5039 -0.0629
 6222SOL    HW230129   4.523   1.721   2.255  0.5046  0.4450 -1.0118
 6223SOL     OW30130   1.403   4.264  16.234 -0.5720  0.0078 -0.1309
 6223SOL    HW130131   1.457   4.342  16.218  0.0277 -0.3201  0.3201
 6223SOL    HW230132   1.313   4.288  16.215 -0.2082  2.9171  1.8255
 6224SOL     OW30133   4.548   0.728   9.976 -0.1805 -0.2933 -0.0190
 6224SOL    HW130134   4.592   0.810   9.953 -0.2906  0.2592  1.7334
 6224SOL    HW230135   4.488   0.731   9.902 -1.0007 -0.4485  0.6370
 6225SOL     OW30136   0.470   4.443   7.387  0.3234  0.3832  0.0195
 6225SOL    HW130137   0.399   4.380   7.400  2.3526 -2.0770 -0.9116
 6225SOL    HW230138   0.431   4.528   7.367  0.1165 -0.0083 -1.2394
 6226SOL     OW30139   0.032   3.973  17.134  0.2520 -0.0919 -0.1107
 6226SOL    HW130140   4.707   4.039  17.081  1.1212  0.4847 -0.1297
 6226SOL    HW230141   0.123   3.998  17.123  0.8361 -1.6522  1.2386
 6227SOL     OW30142   0.076   0.335   4.759  0.0505  0.2632 -0.4672
 6227SOL    HW130143   0.022   0.317   4.836 -0.2407  0.4819 -0.6186
 6227SOL    HW230144   0.016   0.369   4.692  1.4077  0.9320 -1.3410
 6228SOL     OW30145   4.004   3.808   3.192 -0.9481 -0.5233 -0.0712
 6228SOL    HW130146   4.099   3.810   3.192 -0.9819  0.5604 -2.7717
 6228SOL    HW230147   3.992   3.894   3.232 -1.0413 -0.2614 -0.6615
 6229SOL     OW30148   1.031   2.326   9.585  0.2605  0.2843  0.0341
 6229SOL    HW130149   1.079   2.371   9.653  1.3361 -0.9745  0.1053
 6229SOL    HW230150   0.944   2.364   9.599  1.0680  0.5857  4.0209
 6230SOL     OW30151   4.554   2.513   0.524  0.2578 -0.2040 -0.3795
 6230SOL    HW130152   4.649   2.505   0.534  0.6832  0.8190 -3.4406
 6230SOL    HW230153   4.541   2.421   0.544 -1.7647 -0.5616 -3.3394
 6231SOL     OW30154   1.943   3.772   0.517  0.0536 -0.3929 -0.0495
 6231SOL    HW130155   1.864   3.720   0.504 -1.0491  1.2097  0.3480
 6231SOL    HW230156   1.998   3.705   0.559 -0.1982  0.4736  1.6567
 6232SOL     OW30157   4.308   3.229   1.766 -0.4135 -0.2380 -0.4054
 6232SOL    HW130158   4.228   3.265   1.727  0.7717  1.8463 -0.8539
 6232SOL    HW230159   4.337   3.305   1.815  1.1337 -0.9045 -0.2931
 6233SOL     OW30160   0.354   2.577   9.124  0.3823  0.2519  0.0571
 6233SOL    HW130161   0.425   2.513   9.118  1.7984  1.7566  0.7273
 6233SOL    HW230162   0.371   2.611   9.036  0.7428  0.2816  0.1374
 6234SOL     OW30163   1.985   0.353  13.272 -0.0692 -0.0103  0.1243
 6234SOL    HW130164   2.036   0.355  13.191 -1.2544 -0.3429 -0.6382
 6234SOL    HW230165   1.942   0.268  13.260 -1.6655  0.7234  0.6160
 6235SOL     OW30166   1.954   1.126   2.897  0.0659 -0.2725 -0.3781
 6235SOL    HW130167   1.865   1.153   2.876  0.5819  1.0651 -0.8477
 6235SOL    HW230168   1.989   1.137   2.808  2.5210 -2.1505  0.3492
 6236SOL     OW30169   2.989   0.167   6.856 -0.2585  0.6505 -0.0356
 6236SOL    HW130170   3.029   0.102   6.914  0.9021  0.5014 -1.0298
 6236SOL    HW230171   3.033   0.138   6.777 -3.0298 -2.1627 -0.5540
 6237SOL     OW30172   0.067   0.884   5.517 -0.2722 -0.5768  0.1860
 6237SOL    HW130173   0.115   0.950   5.468 -0.3062 -0.2346  0.6172
 6237SOL    HW230174   0.093   0.906   5.606 -0.4460  0.9109 -0.1428
 6238SOL     OW30175   3.563   2.706   4.860  0.4690  0.0019 -0.0577
 6238SOL    HW130176   3.499   2.651   4.815 -0.8345  1.9351 -0.5470
 6238SOL    HW230177   3.553   2.675   4.950  0.5814  1.1628  0.3443
 6239SOL     OW30178   1.921   1.643  14.547 -1.0160 -0.1670  0.2787
 6239SOL    HW130179   1.941   1.614  14.458  0.2618  2.7680 -0.4052
 6239SOL    HW230180   1.987   1.713  14.549 -0.5029 -0.6182 -0.7436
 6240SOL     OW30181   4.085   3.222  10.377  0.3645  0.0982 -0.0259
 6240SOL    HW130182   4.001   3.217  10.423 -0.8084 -1.0055 -2.2601
 6240SOL    HW230183   4.062   3.267  10.295 -0.1066  0.8072  0.5013
 6241SOL     OW30184   1.719   2.551   1.753  0.3570  0.4877  0.1211
 6241SOL    HW130185   1.640   2.519   1.709  1.6598 -2.0144 -0.4012
 6241SOL    HW230186   1.764   2.469   1.772  0.5356  0.4060 -0.6240
 6242SOL     OW30187   3.606   4.524   5.610 -0.4051  0.6259 -0.2581
 6242SOL    HW130188   3.535   4.588   5.603 -2.3368 -1.7266 -2.2817
 6242SOL    HW230189   3.648   4.551   5.691  0.5809 -0.8172 -0.2913
 6243SOL     OW30190   0.596   1.721  10.566  0.4133 -0.0949 -0.1333
 6243SOL    HW130191   0.649   1.800  10.575  1.8679 -0.8798 -1.8286
 6243SOL    HW230192   0.536   1.746  10.495  0.5949  0.9850  0.0899
 6244SOL     OW30193   0.634   4.545  16.164  0.3789 -0.0313  0.2414
 6244SOL    HW130194   0.634   4.499  16.080 -0.1674 -1.1210  0.8422
 6244SOL    HW230195   0.559   4.604  16.157 -1.7507 -2.8469 -0.5582
 6245SOL     OW30196   3.204   3.201   8.130  0.3147  0.1216 -0.5098
 6245SOL    HW130197   3.163   3.127   8.085  1.1121  0.7565 -2.2691
 6245SOL    HW230198   3.292   3.195   8.093  0.5923  0.2826  0.1318
 6246SOL     OW30199   2.596   0.822   2.554 -0.6029 -0.0594 -0.0848
 6246SOL    HW130200   2.529   0.802   2.620  0.4783 -1.3584  0.6190
 6246SOL    HW230201   2.551   0.850   2.474 -0.3544  0.2326 -0.1206
 6247SOL     OW30202   1.225   0.960   8.990  0.6276 -0.4659 -0.0267
 6247SOL    HW130203   1.271   0.890   8.944  1.9271 -1.9257  3.4463
 6247SOL    HW230204   1.173   0.920   9.059  0.7823  1.2586  1.1152
 6248SOL     OW30205   3.695   3.903   5.194  0.2224 -0.4247 -0.6828
 6248SOL    HW130206   3.649   3.884   5.275  2.0195  1.3746  0.7523
 6248SOL    HW230207   3.784   3.878   5.220  0.7823  1.5764 -0.7028
 6249SOL     OW30208   2.237   1.786   5.699  0.3667  0.0005  0.0066
 6249SOL    HW130209   2.329   1.811   5.706  0.7536 -0.6239 -2.7494
 6249SOL    HW230210   2.244   1.718   5.766 -1.8307  0.6207  0.8569
 6250SOL     OW30211   2.084   1.435   4.471  0.3892 -0.7568 -0.1246
 6250SOL    HW130212   2.155   1.382   4.435 -1.9396 -1.8372 -3.0684
 6250SOL    HW230213   2.131   1.519   4.470 -1.3159  0.2114  1.4981
 6251SOL     OW30214   1.298   4.554  17.262 -0.4649  0.0717 -0.2369
 6251SOL    HW130215   1.220   4.566  17.316 -0.2743 -3.2941  0.7992
 6251SOL    HW230216   1.346   4.633  17.286 -0.1961 -0.2680  0.3367
 6252SOL     OW30217   0.893   4.233  13.777  0.0318  0.6253 -0.4010
 6252SOL    HW130218   0.820   4.171  13.784  0.3503  0.3327  0.3130
 6252SOL    HW230219   0.954   4.202  13.844 -0.9174 -2.7067 -1.0744
 6253SOL     OW30220   1.905   1.320   6.803 -0.6029  0.0432  0.5321
 6253SOL    HW130221   1.823   1.365   6.822  0.4689  3.0135 -1.7671
 6253SOL    HW230222   1.947   1.338   6.887 -0.7981  0.3506  0.5638
 6254SOL     OW30223   4.598   0.526   7.726  0.5068 -0.4027 -0.1230
 6254SOL    HW130224   4.689   0.555   7.723  0.2454  0.3214 -1.3721
 6254SOL    HW230225   4.576   0.548   7.816 -2.4395 -1.9689 -0.4557
 6255SOL     OW30226   0.373   2.292   9.736 -0.0245  0.3597  0.3674
 6255SOL    HW130227   0.398   2.366   9.680  0.4832  0.6440  0.9813
 6255SOL    HW230228   0.436   2.223   9.713  0.6040  1.4622 -1.2891
 6256SOL     OW30229   0.561   2.518   4.392 -0.1557  0.0916  0.7589
 6256SOL    HW130230   0.609   2.598   4.370  2.0336 -1.2893  0.5753
 6256SOL    HW230231   0.482   2.556   4.431  0.7676 -0.0972  2.8252
 6257SOL     OW30232   4.687   4.559  15.184 -0.2132  0.4205  0.3343
 6257SOL    HW130233   0.012   4.478  15.161  0.7106  0.7950  0.8257
 6257SOL    HW230234   0.038   4.619  15.204  1.2657 -1.7832  1.7355
 6258SOL     OW30235   2.376   3.998   7.954 -0.9596 -0.1159  0.0325
 6258SOL    HW130236   2.471   4.002   7.963 -1.0840 -0.9330  1.7567
 6258SOL    HW230237   2.372   3.922   7.897 -1.9120 -0.0816  0.0468
 6259SOL     OW30238   3.151   1.317  16.397 -0.0135  0.1394  0.3156
 6259SOL    HW130239   3.116   1.316  16.486 -1.5476 -0.0260 -0.2761
 6259SOL    HW230240   3.068   1.329  16.351  1.7701  2.4872 -2.2069
 6260SOL     OW30241   2.231   3.791   3.425  0.4362  0.4458  0.2054
 6260SOL    HW130242   2.256   3.757   3.511  0.2760 -0.5272 -0.1308
 6260SOL    HW230243   2.178   3.720   3.388  2.6988 -0.9944 -0.2750
 6261SOL     OW30244   0.495   0.405   6.386 -0.0894  0.1384 -0.2979
 6261SOL    HW130245   0.440   0.479   6.357  0.0857  0.5319  0.3699
 6261SOL    HW230246   0.581   0.441   6.362  0.2532 -0.8033 -0.4554
 6262SOL     OW30247   0.638   3.501  15.584  0.1732 -0.3954 -0.0312
 6262SOL    HW130248   0.646   3.407  15.566  0.2281  0.0001 -2.1425
 6262SOL    HW230249   0.665   3.505  15.675 -1.0319 -0.7122  0.3450
 6263SOL     OW30250   0.340   2.806  16.044  0.0317 -0.0416  0.1985
 6263SOL    HW130251   0.331   2.791  16.138  0.5315 -1.5585  0.0188
 6263SOL    HW230252   0.433   2.824  16.034  0.6150 -3.5425 -0.7395
 6264SOL     OW30253   3.920   1.845   6.849  0.4987  0.2035 -0.2069
 6264SOL    HW130254   3.874   1.770   6.811 -0.3249 -0.2470  1.6905
 6264SOL    HW230255   3.869   1.866   6.928  1.3231  1.6336 -0.0435
 6265SOL     OW30256   0.696   3.318  12.352  0.7570  0.3796  0.1436
 6265SOL    HW130257   0.693   3.332  12.257 -1.5773  3.0060  0.6184
 6265SOL    HW230258   0.765   3.253  12.357 -2.7550 -3.3834 -0.6461
 6266SOL     OW30259   3.279   1.473   1.275 -0.0506 -0.4920 -0.4529
 6266SOL    HW130260   3.374   1.481   1.284 -0.4503  0.9571  2.3594
 6266SOL    HW230261   3.260   1.379   1.265  0.2495 -0.5454 -0.5116
 6267SOL     OW30262   3.937   2.334   7.812  0.3651 -0.3480 -0.2225
 6267SOL    HW130263   3.921   2.243   7.790 -0.0731 -0.3544  0.1250
 6267SOL    HW230264   3.991   2.357   7.737 -0.2190 -3.0588 -1.4545
 6268SOL     OW30265   1.873   3.862   7.197 -0.2731 -0.5155 -0.7451
 6268SOL    HW130266   1.823   3.827   7.270  1.0438  0.5626  0.6827
 6268SOL    HW230267   1.868   3.953   7.227 -1.2679 -0.5015 -0.9483
 6269SOL     OW30268   1.447   1.491  13.572 -0.4746  0.2042  0.3395
 6269SOL    HW130269   1.524   1.477  13.517 -0.5870  0.8529  0.0168
 6269SOL    HW230270   1.376   1.498  13.508 -2.3362 -0.3723  2.3185
 6270SOL     OW30271   1.716   3.684  13.310  0.5032  0.1966  0.0008
 6270SOL    HW130272   1.743   3.612  13.367  0.4812  1.1109  1.1771
 6270SOL    HW230273   1.629   3.696  13.348  0.1990 -1.4053 -0.1805
 6271SOL     OW30274   2.118   2.304   6.875  0.2467  0.4479 -0.3477
 6271SOL    HW130275   2.188   2.368   6.890  0.9358 -0.2276 -0.6963
 6271SOL    HW230276   2.153   2.247   6.806 -0.6594  1.7410 -1.8941
 6272SOL     OW30277   3.550   1.835  14.773  0.7387 -0.0517  0.2760
 6272SOL    HW130278   3.600   1.770  14.823  1.2626  0.0093 -0.1698
 6272SOL    HW230279   3.461   1.799  14.778  0.1403  1.6567  1.9437
 6273SOL     OW30280   1.258   2.361  14.463  0.1595 -0.1477 -0.1021
 6273SOL    HW130281   1.304   2.430  14.415 -1.3588  0.3107 -0.9223
 6273SOL    HW230282   1.298   2.291  14.411  0.1802  0.7355 -1.2824
 6274SOL     OW30283   2.637   1.157   3.419  0.2826  0.4820 -0.1381
 6274SOL    HW130284   2.660   1.208   3.341  1.9442 -0.4186 -0.2338
 6274SOL    HW230285   2.546   1.134   3.398  0.1003 -0.1351  1.3127
 6275SOL     OW30286   1.297   3.325  10.741  0.3864  0.5905 -0.8430
 6275SOL    HW130287   1.344   3.243  10.728  1.2812  1.0547 -0.5094
 6275SOL    HW230288   1.370   3.387  10.742  1.5481 -0.8470  2.1079
 6276SOL     OW30289   2.637   4.011   4.249 -0.1172 -0.2340  0.0856
 6276SOL    HW130290   2.646   4.093   4.298  0.5930  1.2211 -2.5028
 6276SOL    HW230291   2.684   3.962   4.317  1.5059  0.7750 -0.3157
 6277SOL     OW30292   1.801   0.531   9.076  0.1477 -0.0544  0.5497
 6277SOL    HW130293   1.777   0.576   9.157 -0.9043  0.4560 -0.0575
 6277SOL    HW230294   1.855   0.595   9.030  1.2963 -0.0889  1.8335
 6278SOL     OW30295   2.321   1.028  17.096 -0.1827  0.0928 -0.0400
 6278SOL    HW130296   2.251   1.048  17.034 -1.1142  0.6666  1.1724
 6278SOL    HW230297   2.339   1.118  17.123 -1.7955  0.1307  0.9390
 6279SOL     OW30298   3.621   4.248   6.871 -0.3343 -0.5919  0.4839
 6279SOL    HW130299   3.643   4.234   6.963  1.8181 -0.7081 -0.0555
 6279SOL    HW230300   3.569   4.171   6.849 -2.7535  1.2550 -0.3553
 6280SOL     OW30301   4.124   1.652  10.924 -0.4516 -0.1527  0.4141
 6280SOL    HW130302   4.150   1.651  10.832  0.1505  1.7419  0.5633
 6280SOL    HW230303   4.149   1.563  10.949  1.5830  0.4979  0.7001
 6281SOL     OW30304   3.374   3.158  12.410  0.0263  0.2044 -0.6254
 6281SOL    HW130305   3.411   3.200  12.332 -3.3652  1.2919 -1.6672
 6281SOL    HW230306   3.306   3.222  12.433 -0.2237  0.6509 -2.5255
 6282SOL     OW30307   2.615   3.282  11.130 -0.5234  0.4382  0.1674
 6282SOL    HW130308   2.693   3.234  11.103 -0.0393  1.2541  0.1159
 6282SOL    HW230309   2.614   3.253  11.221  0.0457  0.6326  0.2312
 6283SOL     OW30310   1.815   2.152   9.378  0.5522 -0.2893  0.1530
 6283SOL    HW130311   1.719   2.144   9.377  0.3564  2.1505 -0.1165
 6283SOL    HW230312   1.836   2.060   9.358 -0.3937 -0.3988 -0.3309
 6284SOL     OW30313   1.198   3.663   1.176  0.1615 -0.0041 -0.2418
 6284SOL    HW130314   1.257   3.614   1.233 -0.8906 -2.4104 -1.2153
 6284SOL    HW230315   1.193   3.618   1.091 -0.1354 -3.8393  1.7890
 6285SOL     OW30316   0.388   4.426   4.974  0.3917 -0.0187 -0.5106
 6285SOL    HW130317   0.333   4.399   4.901  0.2819 -2.4492  0.4716
 6285SOL    HW230318   0.408   4.346   5.023 -0.2313 -0.7215 -1.4116
 6286SOL     OW30319   2.673   3.795   7.495  0.2745  0.2890  1.3404
 6286SOL    HW130320   2.701   3.722   7.549  2.3714 -0.0312 -0.1924
 6286SOL    HW230321   2.732   3.867   7.517 -0.3172  1.5464 -1.1532
 6287SOL     OW30322   2.022   1.521  10.362  0.2042 -0.2969  0.6859
 6287SOL    HW130323   2.077   1.552  10.290 -0.7692 -2.0963 -0.7999
 6287SOL    HW230324   2.037   1.427  10.358 -1.8984 -0.7621  3.2003
 6288SOL     OW30325   1.797   0.237   7.730  0.5697  0.1994 -0.7516
 6288SOL    HW130326   1.808   0.161   7.787 -0.5304  1.1737  0.7441
 6288SOL    HW230327   1.879   0.255   7.683 -0.1132 -0.3870 -2.1503
 6289SOL     OW30328   4.546   1.041   5.526  0.0879  0.3423 -0.6525
 6289SOL    HW130329   4.518   0.986   5.599 -1.4426  0.9356 -0.7831
 6289SOL    HW230330   4.631   1.000   5.511  0.1655  0.8465 -1.5845
 6290SOL     OW30331   2.215   1.884   3.372  0.1663 -0.8966  0.0332
 6290SOL    HW130332   2.245   1.810   3.319  1.9635  0.5162 -0.9425
 6290SOL    HW230333   2.247   1.960   3.323 -1.8809 -0.6930 -0.9688
 6291SOL     OW30334   2.683   1.466   9.388  0.5034  0.4186  0.1505
 6291SOL    HW130335   2.668   1.499   9.300  1.4618 -1.4692 -0.6917
 6291SOL    HW230336   2.728   1.383   9.375 -1.7046 -1.0486  1.6474
 6292SOL     OW30337   1.692   1.858   8.431  0.0921 -0.1832  0.2362
 6292SOL    HW130338   1.759   1.811   8.380 -0.4144 -0.6313 -0.0236
 6292SOL    HW230339   1.732   1.876   8.516  2.5978 -1.5174 -0.6457
 6293SOL     OW30340   1.933   4.024  15.624  0.2886 -0.2143 -0.3317
 6293SOL    HW130341   1.993   3.952  15.647 -1.1167 -0.1381  3.6478
 6293SOL    HW230342   1.886   4.051  15.703  2.5804 -0.7541  1.2376
 6294SOL     OW30343   1.001   3.998   8.583  0.4292 -0.6405  0.2296
 6294SOL    HW130344   0.984   3.957   8.667  1.3377 -1.9588 -0.2262
 6294SOL    HW230345   1.005   4.094   8.590 -0.5078 -0.6178  0.3966
 6295SOL     OW30346   1.308   2.203   3.614  0.1926  0.2212 -0.1694
 6295SOL    HW130347   1.216   2.200   3.641 -0.3798 -1.2782 -2.2909
 6295SOL    HW230348   1.315   2.298   3.611 -2.2055  0.3470 -1.5817
 6296SOL     OW30349   1.976   4.177   5.325  0.8566  0.1311 -0.3088
 6296SOL    HW130350   1.991   4.268   5.302  1.7542 -0.0587 -0.4935
 6296SOL    HW230351   2.066   4.144   5.327  0.8264  0.1055  0.5001
 6297SOL     OW30352   1.148   0.887  12.512  0.1400  0.1034  0.8786
 6297SOL    HW130353   1.064   0.927  12.532  0.5214 -0.4146  3.5041
 6297SOL    HW230354   1.139   0.795  12.537 -2.4342  0.2927  0.6327
 6298SOL     OW30355   1.229   4.646   7.205  0.1694 -0.1679  0.2263
 6298SOL    HW130356   1.195   4.594   7.133 -2.8023  0.2716  1.2943
 6298SOL    HW230357   1.322   4.647   7.182 -0.5034 -1.5992 -2.5022
 6299SOL     OW30358   1.393   3.895  15.406  0.1005 -0.2557 -0.3572
 6299SOL    HW130359   1.404   3.804  15.433 -1.6854 -0.3090  0.1992
 6299SOL    HW230360   1.450   3.947  15.462 -0.1356 -1.0042  0.5867
 6300SOL     OW30361   1.412   0.580   8.552  0.3084 -0.7887 -0.4883
 6300SOL    HW130362   1.390   0.659   8.502  1.8356 -1.5841 -2.3971
 6300SOL    HW230363   1.492   0.557   8.506  0.6480 -0.4361 -0.0809
 6301SOL     OW30364   2.500   3.717   1.728  0.3556 -0.0910 -0.0173
 6301SOL    HW130365   2.420   3.765   1.751  0.8391 -0.2171  1.9231
 6301SOL    HW230366   2.523   3.753   1.642 -1.6816 -0.7223 -0.8252
 6302SOL     OW30367   0.993   2.613  17.057  0.1237 -0.5878 -0.0590
 6302SOL    HW130368   1.001   2.690  17.001  0.1371  0.3278  1.2130
 6302SOL    HW230369   0.937   2.643  17.128 -0.6396 -1.1230 -0.4362
 6303SOL     OW30370   0.145   3.730   9.230 -0.3876  0.5830  0.0232
 6303SOL    HW130371   0.146   3.637   9.208  0.7586  0.3918  0.9114
 6303SOL    HW230372   0.088   3.728   9.308  1.6138 -2.0489  1.4076
 6304SOL     OW30373   1.066   1.254   2.820  0.7516 -0.0526  0.1667
 6304SOL    HW130374   0.979   1.218   2.835  0.7323 -0.5443 -1.0978
 6304SOL    HW230375   1.118   1.200   2.880  1.6215  0.7943  0.1757
 6305SOL     OW30376   2.785   3.639   4.039  0.0686  0.5281 -0.6039
 6305SOL    HW130377   2.743   3.599   3.963 -2.8422  0.4333  1.0489
 6305SOL    HW230378   2.823   3.720   4.005 -0.5650  0.4648 -1.4520
 6306SOL     OW30379   1.103   0.468  17.009 -0.2585  0.3771  0.0028
 6306SOL    HW130380   1.182   0.436  17.053  1.1936  0.3998 -2.5930
 6306SOL    HW230381   1.132   0.505  16.925  0.1278 -1.2763 -0.5948
 6307SOL     OW30382   4.577   1.096   5.020  0.8331  0.5802 -0.3632
 6307SOL    HW130383   4.571   1.171   5.080 -0.3346  1.6529 -1.8125
 6307SOL    HW230384   4.578   1.025   5.083  0.9521 -0.2535 -1.3048
 6308SOL     OW30385   1.088   2.967   5.670 -0.4387  0.3082 -0.6628
 6308SOL    HW130386   1.121   3.041   5.721  1.0689 -0.1234 -0.9938
 6308SOL    HW230387   1.087   2.890   5.727 -2.4064  1.0655  0.3032
 6309SOL     OW30388   0.969   1.679   3.087 -0.2789  0.3540  0.0243
 6309SOL    HW130389   1.002   1.769   3.090 -0.2217  0.3658 -1.0355
 6309SOL    HW230390   0.993   1.675   2.995  1.8636 -1.9856  0.6963
 6310SOL     OW30391   2.741   4.720   7.535  0.4652  0.6498 -0.4889
 6310SOL    HW130392   2.680   0.056   7.582 -0.2692 -1.7524  1.4435
 6310SOL    HW230393   2.772   0.053   7.462  1.4228 -0.2398 -0.7476
 6311SOL     OW30394   0.429   0.443   8.665  0.2559 -0.0837 -0.1266
 6311SOL    HW130395   0.380   0.461   8.584  1.0289  0.7162 -0.4277
 6311SOL    HW230396   0.368   0.475   8.732 -2.6636 -1.9155 -1.9030
 6312SOL     OW30397   0.120   3.884   7.839 -0.0846 -0.1185  0.0381
 6312SOL    HW130398   0.123   3.790   7.819  1.0425 -0.0672 -0.0179
 6312SOL    HW230399   0.061   3.881   7.915  0.7566  0.7561  0.7240
 6313SOL     OW30400   1.599   3.107   2.558 -0.1796 -0.7972  0.4264
 6313SOL    HW130401   1.586   3.202   2.553  2.9637 -0.2743  2.4220
 6313SOL    HW230402   1.563   3.075   2.476  0.7429 -2.2141  0.5773
 6314SOL     OW30403   2.213   3.144   7.146  0.3310  0.3438 -0.0533
 6314SOL    HW130404   2.195   3.056   7.113 -2.0791  0.4387  1.0145
 6314SOL    HW230405   2.173   3.205   7.084 -2.3485 -0.8406  0.5405
 6315SOL     OW30406   1.371   0.120   2.600  0.1670 -0.0786  0.2455
 6315SOL    HW130407   1.338   0.210   2.599  0.2843 -0.0243  1.6213
 6315SOL    HW230408   1.285   0.078   2.608  0.2907 -0.2895  0.4685
 6316SOL     OW30409   4.301   1.427   6.358 -0.2578  0.0848  0.3381
 6316SOL    HW130410   4.387   1.383   6.363 -1.0395 -1.5480 -0.5244
 6316SOL    HW230411   4.256   1.359   6.307 -0.3964  1.3879 -1.2681
 6317SOL     OW30412   3.867   2.688   8.281  0.0218 -0.2898 -0.5592
 6317SOL    HW130413   3.833   2.705   8.193 -0.4201  3.0409  0.2219
 6317SOL    HW230414   3.846   2.772   8.322  1.0443 -0.6819  0.7833
 6318SOL     OW30415   4.670   2.108  16.280  0.8514  0.6786  0.3744
 6318SOL    HW130416   4.662   2.197  16.244 -1.5125 -0.9990 -3.1702
 6318SOL    HW230417   4.626   2.068  16.206 -0.4211  2.7230  0.0135
 6319SOL     OW30418   0.258   4.466   0.184  0.6380 -0.4409 -0.1431
 6319SOL    HW130419   0.216   4.542   0.224  0.3089 -0.0120 -1.3085
 6319SOL    HW230420   0.193   4.396   0.183 -0.1816  0.3072  0.3987
 6320SOL     OW30421   1.821   2.951   4.094  0.4140 -0.6256  0.1239
 6320SOL    HW130422   1.731   2.928   4.070 -0.5978  0.3632  2.9528
 6320SOL    HW230423   1.875   2.884   4.053  0.4086 -0.6987  0.2364
 6321SOL     OW30424   3.487   1.369   9.588  0.1185  0.2959  0.1580
 6321SOL    HW130425   3.481   1.368   9.684  1.4978  0.6211  0.2383
 6321SOL    HW230426   3.524   1.283   9.569 -1.3920 -0.2417 -0.4242
 6322SOL     OW30427   3.979   1.027   7.537  0.3463  0.3218 -0.1801
 6322SOL    HW130428   3.923   1.078   7.596 -0.2276 -1.5746  0.8978
 6322SOL    HW230429   4.038   1.085   7.488  0.6463 -0.0551 -0.2624
 6323SOL     OW30430   2.686   2.755   8.432  0.0870 -0.1483 -0.2540
 6323SOL    HW130431   2.765   2.809   8.432  0.4771 -0.7100 -2.4147
 6323SOL    HW230432   2.721   2.668   8.414  0.9079  0.0579  0.3794
 6324SOL     OW30433   2.031   1.964   4.867 -0.5774 -0.3057 -0.0058
 6324SOL    HW130434   2.080   1.977   4.786 -0.0632  0.7644  0.4729
 6324SOL    HW230435   2.083   1.893   4.905  0.2735 -0.1171 -0.8154
 6325SOL     OW30436   0.358   0.944   9.552 -0.0933 -0.3370 -0.3091
 6325SOL    HW130437   0.345   1.035   9.524 -1.3725 -0.5646 -0.4696
 6325SOL    HW230438   0.383   0.951   9.644 -1.1307  0.7683 -0.1120
 6326SOL     OW30439   2.877   3.843  16.409  0.1056  0.2297  0.0715
 6326SOL    HW130440   2.810   3.822  16.344  1.1245  2.2313 -1.6163
 6326SOL    HW230441   2.917   3.756  16.408  2.7461  1.4593 -1.4704
 6327SOL     OW30442   0.918   1.500   2.222  0.1006 -0.2708 -0.8077
 6327SOL    HW130443   0.829   1.518   2.190  0.1190  2.5989  0.6952
 6327SOL    HW230444   0.940   1.429   2.162 -1.4860 -1.3812 -0.0984
 6328SOL     OW30445   1.893   2.497   7.198 -0.5970 -0.5207 -0.5718
 6328SOL    HW130446   1.883   2.588   7.170  0.9293  0.1751  1.1062
 6328SOL    HW230447   1.865   2.450   7.120 -0.6503 -1.1137 -0.2002
 6329SOL     OW30448   0.268   0.547   6.303 -0.5292  0.7228  0.3124
 6329SOL    HW130449   0.180   0.551   6.266  0.5240  1.6516 -2.1066
 6329SOL    HW230450   0.301   0.631   6.270  3.1304 -0.3293  1.3262
 6330SOL     OW30451   3.581   0.557   3.494  0.1020  0.7083  0.2005
 6330SOL    HW130452   3.521   0.489   3.522 -0.3067 -0.7134 -4.1467
 6330SOL    HW230453   3.645   0.552   3.565 -0.0682  1.9483  0.4540
 6331SOL     OW30454   1.593   2.771  15.038  0.2655  0.3540  0.0937
 6331SOL    HW130455   1.660   2.706  15.017  0.8019  1.4802 -1.6748
 6331SOL    HW230456   1.624   2.843  14.982 -0.8719  0.6107 -0.2015
 6332SOL     OW30457   4.532   3.125   0.519 -0.7083 -0.0585 -0.6947
 6332SOL    HW130458   4.483   3.161   0.593 -2.0443 -0.6526 -1.2960
 6332SOL    HW230459   4.604   3.187   0.504 -1.3540  0.7712 -0.3740
 6333SOL     OW30460   2.066   4.009   0.593  0.2464 -0.1108  0.0756
 6333SOL    HW130461   2.098   4.018   0.683 -0.1706 -0.3259  0.2472
 6333SOL    HW230462   2.024   3.923   0.594 -0.4018  0.2028 -0.2471
 6334SOL     OW30463   2.678   1.336   5.189  0.0835 -0.5900  0.3675
 6334SOL    HW130464   2.662   1.383   5.270  0.8859 -0.1050  0.2403
 6334SOL    HW230465   2.669   1.245   5.218 -0.5166  0.1640  2.5065
 6335SOL     OW30466   2.931   3.968   2.318  0.5799  0.3812  0.1380
 6335SOL    HW130467   2.935   3.953   2.224 -0.1138  3.1059 -0.3274
 6335SOL    HW230468   3.024   3.988   2.331  0.9713 -1.2480 -0.1479
 6336SOL     OW30469   4.353   1.191   2.358 -0.0579 -0.2370 -0.3581
 6336SOL    HW130470   4.401   1.119   2.399 -0.2604  1.1683  2.3716
 6336SOL    HW230471   4.274   1.202   2.410  0.8510  0.3783  0.9123
 6337SOL     OW30472   0.830   2.822   6.076 -0.4151  0.4316 -0.2489
 6337SOL    HW130473   0.915   2.820   6.031 -0.3206  0.9651 -0.0860
 6337SOL    HW230474   0.789   2.737   6.057 -3.0430  1.1729  2.1632
 6338SOL     OW30475   1.389   3.838   1.226 -0.6887 -0.4698  0.6795
 6338SOL    HW130476   1.381   3.780   1.301 -2.4681 -1.7454 -0.5010
 6338SOL    HW230477   1.316   3.801   1.176 -0.6644 -0.0385  0.3235
 6339SOL     OW30478   4.627   0.189  12.569 -0.3001 -0.4530  0.5023
 6339SOL    HW130479   4.590   0.137  12.498  0.6045  0.0459 -0.3259
 6339SOL    HW230480   4.602   0.131  12.641 -0.7705  0.3597  0.9921
 6340SOL     OW30481   1.608   0.598  13.381 -0.1033  0.1177  0.0291
 6340SOL    HW130482   1.671   0.555  13.439 -0.0844 -1.2602 -0.9908
 6340SOL    HW230483   1.536   0.620  13.440  0.2691 -0.5762  0.7352
 6341SOL     OW30484   3.193   2.995   2.218  0.3821  0.2017  0.2946
 6341SOL    HW130485   3.250   3.070   2.207  1.7211 -0.6384  1.4570
 6341SOL    HW230486   3.130   3.008   2.147 -0.9066 -0.1396  1.3677
 6342SOL     OW30487   4.539   2.794  14.354 -0.7028 -0.0232  0.3228
 6342SOL    HW130488   4.567   2.883  14.331  2.6971 -1.3914 -0.8148
 6342SOL    HW230489   4.468   2.774  14.294  1.7484  1.7960 -3.1523
 6343SOL     OW30490   3.730   1.233  12.527 -0.3092  0.4662  0.4786
 6343SOL    HW130491   3.742   1.319  12.566 -1.7784  1.0050 -0.2412
 6343SOL    HW230492   3.790   1.235  12.453 -0.0102 -0.7333  0.6825
 6344SOL     OW30493   0.197   3.794   2.215  0.7260 -0.3367  0.0063
 6344SOL    HW130494   0.131   3.725   2.211 -0.8295  1.2283 -1.6646
 6344SOL    HW230495   0.257   3.776   2.142  0.9283  0.7428 -0.1030
 6345SOL     OW30496   3.141   0.035   8.665  0.1175 -0.0564  0.1967
 6345SOL    HW130497   3.077   0.006   8.600 -0.4875  0.3055  0.6367
 6345SOL    HW230498   3.117   0.127   8.677  1.1926  0.2559  0.0187
 6346SOL     OW30499   1.892   2.467   5.501  0.9511  0.1169 -0.0014
 6346SOL    HW130500   1.804   2.447   5.533  1.5849  0.4849  2.0109
 6346SOL    HW230501   1.940   2.468   5.584 -2.0986  0.3881  1.7986
 6347SOL     OW30502   3.859   4.096   7.574 -0.0507 -0.0394 -0.4120
 6347SOL    HW130503   3.775   4.141   7.560  1.2110  2.3267 -0.3623
 6347SOL    HW230504   3.834   4.014   7.532  1.3772 -0.9529  0.5292
 6348SOL     OW30505   0.166   2.286   4.836 -0.2324 -0.0796  0.5655
 6348SOL    HW130506   0.253   2.325   4.837 -1.3183  2.4105 -1.7390
 6348SOL    HW230507   0.114   2.355   4.794 -1.8562 -0.9133  1.2240
 6349SOL     OW30508   2.639   1.033  15.519  0.2960  0.4316  0.1249
 6349SOL    HW130509   2.598   1.085  15.589  0.8707 -0.1692  0.9042
 6349SOL    HW230510   2.721   1.016  15.565 -0.3651 -2.3530  0.3018
 6350SOL     OW30511   2.898   3.192   4.755  0.3451 -0.4620 -0.7036
 6350SOL    HW130512   2.874   3.106   4.721 -0.1897  0.2406 -2.1426
 6350SOL    HW230513   2.929   3.175   4.844 -0.9732  2.0066  0.2223
 6351SOL     OW30514   3.886   1.626   5.665 -0.7517 -0.3216 -0.0355
 6351SOL    HW130515   3.975   1.661   5.672 -0.8450 -0.0032 -0.4893
 6351SOL    HW230516   3.885   1.577   5.583  1.3318 -0.5632  0.0648
 6352SOL     OW30517   4.013   1.374   6.500 -0.4529 -0.4756  0.0596
 6352SOL    HW130518   4.064   1.341   6.426 -0.3552 -0.5683  0.1703
 6352SOL    HW230519   3.990   1.462   6.468 -1.3032 -1.2343 -1.4356
 6353SOL     OW30520   3.753   0.260   6.306  0.5326  0.3907  0.0744
 6353SOL    HW130521   3.725   0.175   6.272 -3.3504  2.0797 -0.9907
 6353SOL    HW230522   3.845   0.235   6.299  0.0785 -1.0511 -0.6056
 6354SOL     OW30523   1.948   3.361   0.948  0.1895 -0.1745 -0.2313
 6354SOL    HW130524   1.957   3.337   0.856 -2.3644  0.3149 -0.6066
 6354SOL    HW230525   2.003   3.439   0.941 -0.4251  0.5712  3.1080
 6355SOL     OW30526   0.679   2.759   4.374 -0.5003  0.1452 -0.5278
 6355SOL    HW130527   0.605   2.817   4.359  0.3011  0.9619 -1.3588
 6355SOL    HW230528   0.728   2.806   4.442 -0.1118 -0.4189 -0.4190
 6356SOL     OW30529   2.371   1.646  11.797 -0.8789  0.2470  0.3459
 6356SOL    HW130530   2.368   1.578  11.864  0.7769  0.2228  0.4042
 6356SOL    HW230531   2.290   1.626  11.751  0.9865 -1.9474 -2.0154
 6357SOL     OW30532   4.501   3.441  17.564 -0.2741  0.5627 -0.1669
 6357SOL    HW130533   4.586   3.452  17.608 -0.1494  0.8779 -0.4866
 6357SOL    HW230534   4.497   3.348  17.543  0.3224  0.3116  0.8130
 6358SOL     OW30535   2.973   0.327   4.606  0.1518 -0.2855 -0.1615
 6358SOL    HW130536   2.918   0.403   4.587  1.9650  1.5516  1.7880
 6358SOL    HW230537   2.966   0.280   4.524  2.2769 -0.0296 -0.4936
 6359SOL     OW30538   1.104   4.442  15.910 -0.4873  0.4320 -0.3307
 6359SOL    HW130539   1.168   4.408  15.848 -0.2546 -0.6294  0.4928
 6359SOL    HW230540   1.097   4.533  15.882 -0.9754  0.6528  0.4978
 6360SOL     OW30541   3.823   1.665   4.434 -0.3046  0.1036 -0.2868
 6360SOL    HW130542   3.877   1.670   4.355  1.5734 -1.2965  0.8925
 6360SOL    HW230543   3.796   1.756   4.434  1.4198  0.6364 -2.3390
 6361SOL     OW30544   2.142   4.194   8.652 -0.0278 -0.9223 -0.3656
 6361SOL    HW130545   2.173   4.163   8.737 -0.7004 -0.0860  0.1850
 6361SOL    HW230546   2.083   4.124   8.624 -0.8200 -0.4463  0.1084
 6362SOL     OW30547   0.941   3.153   6.876  0.0573  0.2723  0.5602
 6362SOL    HW130548   0.860   3.195   6.902 -0.2166  0.3438 -0.4247
 6362SOL    HW230549   0.917   3.062   6.894  1.1007  0.1155  1.2144
 6363SOL     OW30550   3.918   1.908   0.898 -0.7755 -0.0897 -0.0230
 6363SOL    HW130551   3.869   1.828   0.880 -1.0788  0.0186  0.3212
 6363SOL    HW230552   3.892   1.937   0.985 -0.4372  0.7632 -0.2056
 6364SOL     OW30553   0.224   1.778   7.203 -0.0095  0.6542 -0.5111
 6364SOL    HW130554   0.276   1.717   7.254 -2.7567 -0.6438  0.7455
 6364SOL    HW230555   0.222   1.735   7.117 -1.7278 -1.7945  0.7595
 6365SOL     OW30556   3.996   4.343   9.016  0.1162  0.2665  0.2715
 6365SOL    HW130557   3.936   4.370   9.085 -1.5942 -2.3383 -0.1685
 6365SOL    HW230558   4.067   4.300   9.062  2.5402  1.4596 -2.3180
 6366SOL     OW30559   3.039   2.943  16.292  0.1209  0.0716  0.1348
 6366SOL    HW130560   3.021   3.028  16.254  0.3591  0.3087  0.5482
 6366SOL    HW230561   2.972   2.891  16.249 -0.8893  0.7336  0.9181
 6367SOL     OW30562   1.158   1.466   2.696 -0.1835 -0.7980 -0.1934
 6367SOL    HW130563   1.140   1.381   2.736 -2.9176  0.0593  0.3869
 6367SOL    HW230564   1.106   1.529   2.746 -0.8577 -1.6932  0.2340
 6368SOL     OW30565   2.082   1.611   2.603  0.0114 -0.0053  0.0716
 6368SOL    HW130566   2.132   1.647   2.529 -1.0007 -0.1747 -0.7020
 6368SOL    HW230567   2.005   1.573   2.560  0.0106 -0.3757  0.4092
 6369SOL     OW30568   2.144   4.027   6.768 -0.5372  0.1073 -0.2058
 6369SOL    HW130569   2.193   4.010   6.849 -0.7158 -0.2390 -0.1700
 6369SOL    HW230570   2.125   4.119   6.784 -1.6851 -0.3891  1.4116
 6370SOL     OW30571   0.824   2.444  11.655  0.1843 -0.7599  0.3908
 6370SOL    HW130572   0.908   2.402  11.639  0.0128 -1.4530  1.2925
 6370SOL    HW230573   0.849   2.516  11.713 -0.7842 -0.3492  0.3114
 6371SOL     OW30574   1.999   0.362   4.394 -0.5401 -0.6012 -0.2911
 6371SOL    HW130575   1.916   0.350   4.440  0.9884 -0.4857  2.5315
 6371SOL    HW230576   2.039   0.439   4.434  1.1833 -2.2390  1.1654
 6372SOL     OW30577   1.999   2.413   6.285 -0.0036  0.2575  0.0863
 6372SOL    HW130578   2.024   2.363   6.208 -0.0063  2.4207 -1.3269
 6372SOL    HW230579   2.087   2.438   6.314  0.2173 -0.2759 -0.1215
 6373SOL     OW30580   1.708   1.885  10.949  0.3957  0.2478  0.1494
 6373SOL    HW130581   1.638   1.950  10.950  0.7077  0.5875 -0.3084
 6373SOL    HW230582   1.785   1.942  10.953  0.7639 -0.4862  3.6939
 6374SOL     OW30583   0.711   1.503   8.186  0.3078 -0.7019 -0.0387
 6374SOL    HW130584   0.790   1.468   8.143 -0.2575 -2.0846  0.0556
 6374SOL    HW230585   0.733   1.485   8.277  0.4045 -0.0532  0.0706
 6375SOL     OW30586   3.727   1.424   3.085  0.1584  0.6246  0.1472
 6375SOL    HW130587   3.646   1.450   3.130  0.4411 -0.7416  1.4275
 6375SOL    HW230588   3.783   1.500   3.100  1.6391 -0.6868  1.3549
 6376SOL     OW30589   4.215   3.833   7.424  0.4958  0.2717  0.1298
 6376SOL    HW130590   4.224   3.749   7.379  2.0041 -0.0593  1.0690
 6376SOL    HW230591   4.137   3.860   7.376  2.0749  1.0196 -2.0069
 6377SOL     OW30592   3.004   1.640   3.231 -0.3359  0.2016 -0.0709
 6377SOL    HW130593   2.997   1.573   3.164  1.5414  0.1321 -0.2137
 6377SOL    HW230594   3.009   1.718   3.176 -2.8930  0.7692  0.5429
 6378SOL     OW30595   4.690   3.507   5.105 -0.2469 -0.1829 -0.6771
 6378SOL    HW130596   4.715   3.512   5.197 -0.7126 -0.2775 -0.5472
 6378SOL    HW230597   0.059   3.523   5.074  0.0204 -2.8892 -1.3168
 6379SOL     OW30598   1.896   1.325  13.833  0.0680 -0.5936  0.3597
 6379SOL    HW130599   1.839   1.347  13.907  1.4769  0.4121  1.1596
 6379SOL    HW230600   1.833   1.281  13.776  0.1771  1.3047 -1.2123
 6380SOL     OW30601   0.071   1.280   5.559  0.7342 -0.1218  0.1167
 6380SOL    HW130602   0.080   1.351   5.623  0.5031  0.4890 -0.5314
 6380SOL    HW230603   4.698   1.295   5.543  0.5127 -1.3013  0.2990
 6381SOL     OW30604   2.545   0.179   7.570 -0.0425  0.4501 -0.4203
 6381SOL    HW130605   2.598   0.237   7.515 -2.3907 -0.3894 -3.5101
 6381SOL    HW230606   2.465   0.171   7.517 -1.3256 -0.4012  1.6338
 6382SOL     OW30607   2.676   4.538   3.825  0.0344 -0.1687  1.0974
 6382SOL    HW130608   2.713   4.455   3.797 -2.0249 -0.9475  0.6618
 6382SOL    HW230609   2.608   4.541   3.758  0.2968  0.1998  0.8485
 6383SOL     OW30610   0.714   2.830  10.058  0.3857  0.2254 -0.9108
 6383SOL    HW130611   0.807   2.842  10.041  0.2000  1.2858 -1.1370
 6383SOL    HW230612   0.711   2.885  10.136  0.5193 -1.2378  0.1449
 6384SOL     OW30613   3.547   0.967   3.690 -0.5908  0.2252 -0.2356
 6384SOL    HW130614   3.505   0.940   3.608  1.8402 -2.0074 -0.7289
 6384SOL    HW230615   3.471   1.009   3.731  0.9406  1.8389  0.9675
 6385SOL     OW30616   0.149   1.302   5.150  0.1147  0.3289  0.2332
 6385SOL    HW130617   0.180   1.388   5.121  0.5880  0.5517  1.4043
 6385SOL    HW230618   0.143   1.250   5.070  1.3325  1.6787 -0.7317
 6386SOL     OW30619   1.364   1.848  10.359  0.4737 -0.2476  0.4290
 6386SOL    HW130620   1.318   1.778  10.405  2.3241 -0.7805  1.4337
 6386SOL    HW230621   1.424   1.793  10.308 -0.0410 -0.6550  0.2609
 6387SOL     OW30622   0.935   3.367   3.439  0.7530 -0.0831  0.6115
 6387SOL    HW130623   0.933   3.307   3.513 -2.1331 -1.2965 -0.4374
 6387SOL    HW230624   0.906   3.450   3.475  2.6744  2.0132 -2.6387
 6388SOL     OW30625   2.570   0.321   8.508  0.1619  0.0391 -0.0979
 6388SOL    HW130626   2.506   0.303   8.439 -0.7768  0.6078  0.6393
 6388SOL    HW230627   2.545   0.267   8.582 -1.7481  2.4038  0.9948
 6389SOL     OW30628   3.200   0.673   2.471 -0.1073  0.1525 -0.2173
 6389SOL    HW130629   3.190   0.725   2.391 -0.3470  0.8717  0.2735
 6389SOL    HW230630   3.216   0.583   2.446  0.0586 -0.1680  1.0450
 6390SOL     OW30631   2.808   3.318   4.324 -0.0927 -0.0105 -0.4820
 6390SOL    HW130632   2.733   3.374   4.346  0.0990 -0.4338  1.2744
 6390SOL    HW230633   2.790   3.244   4.381 -1.0341  0.3232 -0.3426
 6391SOL     OW30634   3.221   4.541  14.290  0.1563 -0.6876  0.1240
 6391SOL    HW130635   3.255   4.469  14.344  0.6069 -1.4409 -1.1604
 6391SOL    HW230636   3.127   4.520  14.285 -0.3017  1.7565 -1.0252
 6392SOL     OW30637   3.216   2.986  13.438  0.4355  0.0865  0.1588
 6392SOL    HW130638   3.132   2.959  13.403  0.4334 -0.0773  0.2929
 6392SOL    HW230639   3.280   2.986  13.366 -1.1359 -0.3491 -1.2305
 6393SOL     OW30640   2.630   1.782   8.754  0.1581  0.2429  0.2258
 6393SOL    HW130641   2.666   1.823   8.833  1.2667  0.5616 -0.4516
 6393SOL    HW230642   2.560   1.730   8.792 -0.0693  0.1029 -0.3866
 6394SOL     OW30643   3.066   1.113   6.966 -0.0382  0.4689 -0.6308
 6394SOL    HW130644   3.101   1.025   6.977 -1.4007  0.1528  1.1626
 6394SOL    HW230645   3.145   1.167   6.964 -0.7138  1.4749 -0.0943
 6395SOL     OW30646   3.004   3.216  11.112  0.9038 -0.1462  0.4262
 6395SOL    HW130647   3.038   3.155  11.046  0.4467  1.0895 -0.9475
 6395SOL    HW230648   3.021   3.161  11.188  0.2406 -1.2991 -0.2577
 6396SOL     OW30649   3.070   4.623   7.952 -0.1961 -0.5224  0.4699
 6396SOL    HW130650   3.025   4.659   7.875 -1.2804  2.8354  2.6525
 6396SOL    HW230651   3.030   4.680   8.018 -0.1169 -0.3223  0.3449
 6397SOL     OW30652   4.015   4.192   2.533 -0.0480  0.3402 -0.2107
 6397SOL    HW130653   4.022   4.167   2.441 -1.5836 -0.8227 -0.0097
 6397SOL    HW230654   3.994   4.284   2.525 -1.0993 -0.1934 -3.4004
 6398SOL     OW30655   4.438   3.414  12.421 -0.2613 -0.3428  0.0325
 6398SOL    HW130656   4.457   3.332  12.466 -1.9135 -0.3272  0.7483
 6398SOL    HW230657   4.365   3.382  12.368 -0.3584  0.8591 -0.5589
 6399SOL     OW30658   4.079   2.800   4.241 -0.0147 -0.5980  0.5495
 6399SOL    HW130659   4.160   2.848   4.260 -1.4781  1.0652  2.5828
 6399SOL    HW230660   4.026   2.823   4.317 -0.1004  0.9113  0.0291
 6400SOL     OW30661   0.256   2.750  14.774  0.3567 -0.3069 -0.0380
 6400SOL    HW130662   0.246   2.747  14.679 -3.5484 -1.2661  0.3730
 6400SOL    HW230663   0.163   2.739  14.795  0.4530  0.2307  0.6710
 6401SOL     OW30664   2.170   2.672   9.144 -0.2511  0.5684  0.3181
 6401SOL    HW130665   2.148   2.610   9.075 -0.2561 -0.1475  0.9662
 6401SOL    HW230666   2.165   2.608   9.216  0.6999  0.2993  0.1384
 6402SOL     OW30667   0.436   2.846   3.242 -0.2874  0.2563 -0.2647
 6402SOL    HW130668   0.445   2.758   3.279  1.4504  0.7340  0.4826
 6402SOL    HW230669   0.486   2.840   3.161 -2.8625 -1.7160 -1.7098
 6403SOL     OW30670   0.645   4.714  10.445 -0.4862 -0.1249  0.1916
 6403SOL    HW130671   0.652   0.050  10.368 -0.6353 -0.4999 -0.0939
 6403SOL    HW230672   0.613   4.631  10.410  0.1276  0.6081 -2.1514
 6404SOL     OW30673   4.133   4.054  14.755  0.3582  0.1976  0.2778
 6404SOL    HW130674   4.136   4.090  14.666  3.6890 -0.0973  0.2648
 6404SOL    HW230675   4.073   4.116  14.797  0.9260  0.3995  0.7848
 6405SOL     OW30676   4.411   0.091   0.072 -0.2796 -0.3099  0.0424
 6405SOL    HW130677   4.403   0.165   0.133  0.7832  0.0257 -0.2366
 6405SOL    HW230678   4.324   0.099   0.031 -0.4439 -0.6262  0.3320
 6406SOL     OW30679   2.298   3.865   7.525  0.6983 -0.4557 -0.0828
 6406SOL    HW130680   2.260   3.804   7.463  3.0424 -2.6851  0.6805
 6406SOL    HW230681   2.283   3.955   7.495  0.5810 -0.4019  0.1353
 6407SOL     OW30682   0.294   0.131   6.856  0.0615  0.6483 -0.4084
 6407SOL    HW130683   0.297   0.121   6.761  2.3097 -0.9157 -0.1587
 6407SOL    HW230684   0.280   0.225   6.871 -1.3396  0.7108 -2.1646
 6408SOL     OW30685   2.417   0.590  11.017  0.3666 -0.0433 -0.2180
 6408SOL    HW130686   2.464   0.587  10.934  0.1414 -2.4814 -0.2649
 6408SOL    HW230687   2.412   0.682  11.042 -0.0575 -0.6768  2.0041
 6409SOL     OW30688   4.267   1.132   4.626  0.5611  0.3171 -0.0589
 6409SOL    HW130689   4.344   1.152   4.679  1.1507  0.9704 -1.1713
 6409SOL    HW230690   4.237   1.222   4.635  0.3447  0.2782 -0.4010
 6410SOL     OW30691   2.506   0.801  16.381 -0.0860 -0.1748 -0.0561
 6410SOL    HW130692   2.548   0.723  16.418 -0.0589 -1.5038 -2.8112
 6410SOL    HW230693   2.433   0.770  16.328 -0.1560 -0.5894  0.2930
 6411SOL     OW30694   4.719   1.146   7.295 -0.7238  0.6512 -0.0516
 6411SOL    HW130695   4.683   1.210   7.356 -2.9116 -2.1515  1.5879
 6411SOL    HW230696   4.641   1.097   7.269 -0.2816 -0.1154  0.0734
 6412SOL     OW30697   1.190   1.667   7.992  0.3634 -0.8421  0.4085
 6412SOL    HW130698   1.260   1.657   7.927 -0.3433 -2.4136 -0.0930
 6412SOL    HW230699   1.206   1.752   8.033  1.2691  0.8929 -3.5532
 6413SOL     OW30700   0.593   3.851   5.787 -0.4343 -0.4702 -0.3788
 6413SOL    HW130701   0.573   3.774   5.840  1.7530  0.0664  1.2065
 6413SOL    HW230702   0.619   3.818   5.701  0.6654  1.3808 -0.7451
 6414SOL     OW30703   2.484   1.729  17.167  0.3010 -0.4693 -0.0183
 6414SOL    HW130704   2.397   1.697  17.145  1.0575 -2.5332 -0.0270
 6414SOL    HW230705   2.531   1.646  17.160  0.1764 -0.5919  0.7091
 6415SOL     OW30706   3.153   2.299  15.251 -0.4748  0.1941 -0.2606
 6415SOL    HW130707   3.215   2.282  15.321  1.1862 -0.1418 -1.7964
 6415SOL    HW230708   3.099   2.222  15.266  0.2349 -0.4897 -1.2456
 6416SOL     OW30709   1.597   0.020   2.497 -0.8371 -0.3221  0.2350
 6416SOL    HW130710   1.595   0.081   2.423  1.1577  0.2623  0.6533
 6416SOL    HW230711   1.514   0.043   2.538 -1.5100  0.6229 -1.6802
 6417SOL     OW30712   3.491   2.606   4.184  0.3666  0.3048 -0.3051
 6417SOL    HW130713   3.466   2.521   4.147  0.6749  0.7732 -1.5987
 6417SOL    HW230714   3.421   2.659   4.145  1.0702  0.8450 -0.8176
 6418SOL     OW30715   2.668   1.145   1.523  0.4299 -0.6708 -0.1586
 6418SOL    HW130716   2.575   1.144   1.546 -0.2573 -0.0567 -2.8373
 6418SOL    HW230717   2.687   1.235   1.497 -1.3605 -0.5486 -1.0586
 6419SOL     OW30718   3.234   2.897   7.796 -0.3809 -0.2195  0.0120
 6419SOL    HW130719   3.265   2.842   7.724 -2.3942 -1.7250  0.2587
 6419SOL    HW230720   3.284   2.866   7.871 -0.5881  0.4131  0.4084
 6420SOL     OW30721   3.535   3.668   7.211 -0.4808 -0.6992 -0.0543
 6420SOL    HW130722   3.459   3.724   7.227  0.6571  0.2848  1.9495
 6420SOL    HW230723   3.576   3.668   7.298  0.6966 -0.7133 -0.6044
 6421SOL     OW30724   2.187   3.973   4.247 -0.1539 -0.4326 -0.2521
 6421SOL    HW130725   2.142   4.057   4.251 -1.1184 -0.9345 -0.4691
 6421SOL    HW230726   2.263   4.007   4.200 -2.6371  1.3498 -2.9843
 6422SOL     OW30727   1.747   1.290   5.910  0.1047 -0.4982  0.1940
 6422SOL    HW130728   1.787   1.332   5.834  0.2004  0.6310  0.8512
 6422SOL    HW230729   1.668   1.250   5.875 -0.3038 -1.1403  1.8427
 6423SOL     OW30730   2.007   0.257  10.600 -0.4478 -0.0696 -0.7166
 6423SOL    HW130731   2.028   0.238  10.691 -0.6616  0.5668 -0.5357
 6423SOL    HW230732   2.057   0.340  10.600 -1.6796  0.6562  1.3504
 6424SOL     OW30733   0.202   3.915   0.914 -0.3106  0.1376 -0.5780
 6424SOL    HW130734   0.230   3.852   0.980 -0.2342  1.1533  0.3444
 6424SOL    HW230735   0.255   3.990   0.940  0.8904 -0.4953 -1.2114
 6425SOL     OW30736   2.742   0.900   5.850  0.2197  0.0927 -0.6230
 6425SOL    HW130737   2.661   0.851   5.839 -0.8709  1.2277  2.3885
 6425SOL    HW230738   2.721   0.982   5.806  1.6362  1.1076  0.5835
 6426SOL     OW30739   4.166   1.394   7.299 -0.4822  0.7028  0.0545
 6426SOL    HW130740   4.108   1.467   7.278  0.8739  1.6723 -0.2409
 6426SOL    HW230741   4.239   1.402   7.238 -0.7884  0.1994 -0.3787
 6427SOL     OW30742   4.445   1.593   0.670  0.3934  0.0564  0.3178
 6427SOL    HW130743   4.408   1.681   0.664  1.8234  0.5707 -0.9130
 6427SOL    HW230744   4.436   1.559   0.581 -0.2060  0.0853  0.3663
 6428SOL     OW30745   3.020   3.606  16.658  0.0945 -0.4452 -0.0885
 6428SOL    HW130746   3.027   3.611  16.563 -1.4161 -0.9546 -0.2165
 6428SOL    HW230747   3.104   3.640  16.689 -1.3945  0.9241  2.4991
 6429SOL     OW30748   0.944   2.559   2.727  0.1191 -0.3632 -0.2341
 6429SOL    HW130749   0.925   2.474   2.688 -0.9335  0.4821 -1.5302
 6429SOL    HW230750   1.010   2.595   2.668  2.4311 -2.2361  1.1976
 6430SOL     OW30751   4.539   2.751   6.550  0.1984  0.0569 -0.0318
 6430SOL    HW130752   4.555   2.672   6.602  0.9783 -0.9063 -1.7335
 6430SOL    HW230753   4.573   2.819   6.608  0.8529  0.9466 -1.4333
 6431SOL     OW30754   1.471   4.370   2.990  0.3491  0.1894 -0.2638
 6431SOL    HW130755   1.489   4.300   2.927 -0.5596  0.3069 -0.6485
 6431SOL    HW230756   1.393   4.336   3.035  1.1987  0.5636  1.4598
 6432SOL     OW30757   3.115   0.828  15.570 -0.4522 -0.4711  0.1891
 6432SOL    HW130758   3.202   0.831  15.611  0.4741 -1.4908 -1.6811
 6432SOL    HW230759   3.123   0.748  15.519 -1.8297 -1.0317  0.8682
 6433SOL     OW30760   1.419   2.911   5.106  0.1894  0.0799 -0.0240
 6433SOL    HW130761   1.496   2.862   5.076  1.8783  2.0059  1.1785
 6433SOL    HW230762   1.424   2.909   5.202  0.4922  2.1878  0.0034
 6434SOL     OW30763   2.323   3.843   3.749  0.3078 -0.4207  0.3372
 6434SOL    HW130764   2.234   3.809   3.748 -0.7292  2.2597 -0.4305
 6434SOL    HW230765   2.325   3.897   3.828 -2.8871  1.3589 -0.7904
 6435SOL     OW30766   2.970   4.635   8.856  0.4483 -0.2925  0.3862
 6435SOL    HW130767   2.901   4.692   8.822  1.9126  1.4479  0.2824
 6435SOL    HW230768   3.051   4.657   8.809  1.6450  1.0553  3.0610
 6436SOL     OW30769   2.866   1.499  13.569 -0.1374 -0.0714  0.4905
 6436SOL    HW130770   2.909   1.518  13.652 -0.3224  2.0255  0.1112
 6436SOL    HW230771   2.778   1.491  13.605  0.3563 -1.5067  1.3428
 6437SOL     OW30772   0.305   1.663   9.797 -0.0502 -0.4108 -0.1754
 6437SOL    HW130773   0.247   1.725   9.752 -0.2738 -1.0623 -0.7965
 6437SOL    HW230774   0.382   1.716   9.816  0.3439 -1.6618  1.7348
 6438SOL     OW30775   3.454   2.485   4.518 -0.0295  0.1984  0.1218
 6438SOL    HW130776   3.405   2.485   4.435  1.4314  0.8478 -0.7343
 6438SOL    HW230777   3.542   2.503   4.486  0.0747  1.1426  0.9704
 6439SOL     OW30778   4.571   0.197  10.544  0.1517 -0.4360 -0.3488
 6439SOL    HW130779   4.590   0.145  10.467 -2.9138 -1.9928 -0.0475
 6439SOL    HW230780   4.647   0.200  10.602  1.5658 -1.4483 -2.1675
 6440SOL     OW30781   2.835   2.879   9.313 -0.6408  0.6806 -0.3809
 6440SOL    HW130782   2.800   2.868   9.402  0.1560  0.0348 -0.1502
 6440SOL    HW230783   2.927   2.859   9.333 -0.7473  0.1591 -0.4329
 6441SOL     OW30784   1.819   0.965   7.653  0.1156 -0.9532  0.2011
 6441SOL    HW130785   1.830   1.052   7.616  0.8520 -1.3819 -0.5800
 6441SOL    HW230786   1.768   0.965   7.734 -0.6209 -1.5781 -0.2613
 6442SOL     OW30787   3.694   2.522   3.558  0.3126 -0.0506  0.3978
 6442SOL    HW130788   3.771   2.490   3.605  0.9543  1.5153  0.4189
 6442SOL    HW230789   3.699   2.618   3.558  0.9836 -0.0885  1.4328
 6443SOL     OW30790   1.609   0.327   7.901  0.2803  0.4162 -0.2186
 6443SOL    HW130791   1.675   0.312   7.833  0.6321  0.9552  0.0014
 6443SOL    HW230792   1.561   0.395   7.854  0.6370  0.3525 -0.6764
 6444SOL     OW30793   1.484   3.143   3.851  0.5446 -0.5820 -0.3610
 6444SOL    HW130794   1.395   3.158   3.882  0.7377  1.0622 -0.5696
 6444SOL    HW230795   1.511   3.061   3.892  1.4689  0.0521  0.2996
 6445SOL     OW30796   2.149   4.168   5.556  0.1869  0.3791 -0.3934
 6445SOL    HW130797   2.186   4.123   5.631  1.0205 -2.6899 -2.6723
 6445SOL    HW230798   2.183   4.113   5.486  0.1414 -0.1515 -0.0001
 6446SOL     OW30799   2.531   2.580  17.293  0.1164  0.6535 -0.1501
 6446SOL    HW130800   2.577   2.573  17.377  1.6727  2.1936 -0.8771
 6446SOL    HW230801   2.563   2.500  17.251  1.1402  0.5746  0.7761
 6447SOL     OW30802   1.001   4.700   8.861 -0.3826 -0.2426 -0.0673
 6447SOL    HW130803   0.910   4.674   8.873 -0.3570 -0.1650  0.2965
 6447SOL    HW230804   0.992   0.075   8.870  1.1091 -0.2157  1.1363
 6448SOL     OW30805   2.048   0.145   2.152 -0.2028  0.1309  0.1859
 6448SOL    HW130806   2.020   0.086   2.083 -1.4257  0.0251  0.7810
 6448SOL    HW230807   2.018   0.228   2.114 -3.3543 -0.4558  1.3928
 6449SOL     OW30808   2.733   3.967  11.540  0.1114 -0.1233 -0.3949
 6449SOL    HW130809   2.671   4.021  11.590  0.5198  0.1536 -0.1921
 6449SOL    HW230810   2.811   4.021  11.549  0.0430  0.1749 -1.5162
 6450SOL     OW30811   2.701   3.017  17.200  0.2627  0.1966 -0.3050
 6450SOL    HW130812   2.745   3.001  17.283  1.3300  0.2584 -0.8483
 6450SOL    HW230813   2.609   2.996  17.217  0.5119 -0.5226  0.1501
 6451SOL     OW30814   0.758   3.068   6.630  0.1883 -0.2805 -0.0110
 6451SOL    HW130815   0.730   3.126   6.559  0.5172  2.7878  2.3955
 6451SOL    HW230816   0.701   2.991   6.620  0.1633 -0.4077  1.0837
 6452SOL     OW30817   2.382   1.146   7.077 -0.5046 -0.4037  0.6930
 6452SOL    HW130818   2.464   1.187   7.048 -1.4172  0.9322  0.0075
 6452SOL    HW230819   2.325   1.178   7.007 -0.2938  0.4328  0.9084
 6453SOL     OW30820   4.603   1.456   4.359  0.3187 -0.7505 -0.5471
 6453SOL    HW130821   4.575   1.376   4.315  0.5756 -1.0387 -0.1808
 6453SOL    HW230822   4.543   1.469   4.433 -2.0510 -1.2521 -2.3563
 6454SOL     OW30823   4.207   2.479   2.281 -0.1555 -0.1290  0.0627
 6454SOL    HW130824   4.190   2.483   2.375 -0.3215  1.9460 -0.0565
 6454SOL    HW230825   4.222   2.568   2.249 -1.7451 -0.4878 -1.7133
 6455SOL     OW30826   1.488   3.178   9.198  0.3736  0.2645  0.8233
 6455SOL    HW130827   1.475   3.192   9.291  0.0890 -1.7664  1.1058
 6455SOL    HW230828   1.476   3.263   9.156  2.9872  0.5153  0.5979
 6456SOL     OW30829   2.952   2.110  14.415  0.1296 -0.1071 -0.2040
 6456SOL    HW130830   2.975   2.051  14.344  0.3858  1.0378 -1.0625
 6456SOL    HW230831   2.968   2.195  14.374 -0.9690  0.2483  0.1002
 6457SOL     OW30832   1.311   4.628  17.651 -0.0259 -0.1129  0.2219
 6457SOL    HW130833   1.330   4.549   0.018  1.1011  0.9196  1.4007
 6457SOL    HW230834   1.339   4.693   0.031  2.7485 -0.0948 -0.9905
 6458SOL     OW30835   4.320   0.993   1.638 -0.0622 -0.0701 -0.1898
 6458SOL    HW130836   4.347   0.944   1.560  0.1175  1.0168 -0.8083
 6458SOL    HW230837   4.355   1.081   1.631  1.4769 -0.4010  3.3645
 6459SOL     OW30838   0.781   2.428   3.466 -0.2275  0.2105  0.5445
 6459SOL    HW130839   0.809   2.338   3.476 -0.4760 -0.2914 -3.2746
 6459SOL    HW230840   0.800   2.440   3.373 -1.2265  0.3247  0.3543
 6460SOL     OW30841   1.917   1.493   9.117  0.4257 -0.4561 -0.0609
 6460SOL    HW130842   1.904   1.493   9.022 -0.9146 -1.4242  0.1329
 6460SOL    HW230843   1.852   1.556   9.149  1.4130  0.6296 -0.2072
 6461SOL     OW30844   0.454   3.202   2.151  0.3153 -0.6060 -0.4244
 6461SOL    HW130845   0.429   3.161   2.234  0.3436 -1.7210 -0.9692
 6461SOL    HW230846   0.487   3.284   2.188 -0.4557  0.3847 -1.9207
 6462SOL     OW30847   3.491   1.459  14.678 -0.1700 -0.0490 -0.0380
 6462SOL    HW130848   3.512   1.457  14.771 -1.8552  1.0626  0.3584
 6462SOL    HW230849   3.424   1.391  14.669 -0.7978  0.5569  0.0275
 6463SOL     OW30850   3.461   0.798   8.856  0.1401  0.0256  0.1658
 6463SOL    HW130851   3.384   0.804   8.913  0.9371 -0.5378  1.3045
 6463SOL    HW230852   3.473   0.703   8.861  0.9312  0.1777  1.1193
 6464SOL     OW30853   2.634   3.735   2.001  0.1000  0.0847  0.0338
 6464SOL    HW130854   2.611   3.812   1.950  0.6651 -0.6647 -1.3501
 6464SOL    HW230855   2.628   3.770   2.090  0.4786  0.0969  0.0557
 6465SOL     OW30856   3.735   2.517   8.678 -0.1398  0.1179  0.1116
 6465SOL    HW130857   3.650   2.476   8.660  0.3246 -0.4318 -0.8259
 6465SOL    HW230858   3.765   2.454   8.744  3.6197 -1.2143 -2.8677
 6466SOL     OW30859   1.380   3.163   9.473 -0.6580  0.0490 -0.1994
 6466SOL    HW130860   1.386   3.235   9.537  0.0894  0.3960 -0.6513
 6466SOL    HW230861   1.420   3.096   9.529  0.3877  1.0980  0.3107
 6467SOL     OW30862   2.875   2.111   6.586  0.5514 -0.5891 -0.1158
 6467SOL    HW130863   2.892   2.122   6.492  1.4371  1.5204  0.2856
 6467SOL    HW230864   2.937   2.175   6.621 -2.6925  2.1429  0.6963
 6468SOL     OW30865   2.061   1.808  11.346 -0.2003 -0.2620  0.2332
 6468SOL    HW130866   2.060   1.712  11.347 -2.9063 -0.1966  1.4328
 6468SOL    HW230867   2.022   1.824  11.431 -3.6525 -1.8761 -1.0210
 6469SOL     OW30868   1.044   4.009  15.502  0.3435  0.1565  0.1534
 6469SOL    HW130869   1.053   4.102  15.524  1.8479  0.7758 -3.1429
 6469SOL    HW230870   0.963   4.009  15.452  1.9399  2.5203 -2.4869
 6470SOL     OW30871   3.496   3.594   7.644  0.2064  0.2762 -0.3680
 6470SOL    HW130872   3.499   3.582   7.549  0.7595  0.6549 -0.3994
 6470SOL    HW230873   3.464   3.508   7.671  1.1964 -0.2724 -0.9190
 6471SOL     OW30874   1.640   0.219  17.606 -0.5499 -0.1906  0.3903
 6471SOL    HW130875   1.657   0.238  17.514 -0.9923 -1.7101  0.0151
 6471SOL    HW230876   1.626   0.309  17.638 -1.1618 -0.2674  0.3407
 6472SOL     OW30877   2.937   1.050   2.159 -0.2781 -0.5483 -0.4814
 6472SOL    HW130878   2.959   1.135   2.198  1.0909 -0.9101 -0.4953
 6472SOL    HW230879   2.846   1.036   2.187 -0.5685  2.5313  0.1742
 6473SOL     OW30880   3.019   3.944  11.037  0.3102  0.4508 -0.5926
 6473SOL    HW130881   2.925   3.937  11.022  0.3270 -1.6120  0.3504
 6473SOL    HW230882   3.041   3.852  11.024  2.4966  0.8756  0.1341
 6474SOL     OW30883   4.295   3.764   7.679 -0.0799  0.2926  0.6891
 6474SOL    HW130884   4.242   3.684   7.679 -1.9490  1.5312 -0.0874
 6474SOL    HW230885   4.285   3.786   7.586 -0.5127  1.4790  1.0139
 6475SOL     OW30886   1.890   1.384   4.684 -0.2656  0.2620  0.0221
 6475SOL    HW130887   1.981   1.376   4.655  0.4194  0.3904  2.1707
 6475SOL    HW230888   1.886   1.313   4.748  1.4453 -0.1365 -0.3007
 6476SOL     OW30889   1.289   4.689  11.486  0.3078  0.1859 -0.4895
 6476SOL    HW130890   1.320   4.599  11.491  0.6129  0.1461 -2.9425
 6476SOL    HW230891   1.196   4.671  11.471  0.5109 -0.9108 -0.4408
 6477SOL     OW30892   0.518   0.990  12.138  0.1613 -0.4369  0.1827
 6477SOL    HW130893   0.571   0.990  12.218  0.9454 -0.7120 -0.3358
 6477SOL    HW230894   0.482   0.902  12.133  0.1035 -0.3482 -0.9759
 6478SOL     OW30895   4.013   0.652  11.925  0.0184 -0.0767  0.5614
 6478SOL    HW130896   3.979   0.716  11.864  2.2840 -0.3577 -0.9963
 6478SOL    HW230897   4.104   0.673  11.904 -0.0827 -0.9973 -0.7884
 6479SOL     OW30898   0.257   3.759  16.774  0.0683 -0.1724  0.0561
 6479SOL    HW130899   0.245   3.827  16.709  1.8770 -0.4772 -0.6105
 6479SOL    HW230900   0.175   3.714  16.758 -1.5146  4.2549 -4.2511
 6480SOL     OW30901   1.329   1.930   3.714 -0.4375 -0.0983  0.0084
 6480SOL    HW130902   1.267   1.957   3.781 -0.4715  0.4665 -0.2554
 6480SOL    HW230903   1.351   2.019   3.687 -1.3446 -0.2565 -1.2423
 6481SOL     OW30904   1.947   0.971   2.532 -0.5102 -0.5495 -0.3609
 6481SOL    HW130905   1.935   0.886   2.489 -0.7504 -0.4105 -0.5718
 6481SOL    HW230906   1.875   1.027   2.502  1.6182  2.0435 -0.5978
 6482SOL     OW30907   2.003   1.345   5.385 -0.1274  0.3425  0.3760
 6482SOL    HW130908   1.990   1.434   5.354 -1.0456  0.1429  0.1921
 6482SOL    HW230909   2.077   1.322   5.329 -1.7324 -2.2328 -0.6601
 6483SOL     OW30910   2.111   1.015   5.286 -0.2858 -0.1816 -0.1874
 6483SOL    HW130911   2.195   1.022   5.331 -0.6489 -0.8203  0.6015
 6483SOL    HW230912   2.048   1.041   5.353 -0.3763  1.4423 -0.8898
 6484SOL     OW30913   1.229   0.727   7.723  0.0377  0.4583 -0.5164
 6484SOL    HW130914   1.198   0.639   7.701 -0.3604  0.5651 -0.3909
 6484SOL    HW230915   1.293   0.746   7.654  0.5553  0.3665 -0.0587
 6485SOL     OW30916   1.703   1.638   7.764 -0.3847  0.2170  0.1320
 6485SOL    HW130917   1.799   1.642   7.761 -0.4396  1.1682 -0.4719
 6485SOL    HW230918   1.707   1.549   7.729 -1.2649  0.2528 -0.0529
 6486SOL     OW30919   1.415   2.445   3.714  0.0204 -0.2357 -0.1731
 6486SOL    HW130920   1.447   2.520   3.663 -0.1744  0.6443  0.9876
 6486SOL    HW230921   1.392   2.479   3.801  1.7323 -2.4165  1.1498
 6487SOL     OW30922   3.094   0.536   1.831  0.4309  0.3837 -0.3471
 6487SOL    HW130923   3.141   0.500   1.756 -0.2645 -0.0759 -0.5612
 6487SOL    HW230924   3.023   0.474   1.815  0.8669  0.0737 -1.0559
 6488SOL     OW30925   4.484   0.746   9.710 -0.4737  0.4200 -0.1633
 6488SOL    HW130926   4.503   0.667   9.661  1.1685  1.3819 -1.0760
 6488SOL    HW230927   4.511   0.815   9.648  2.6780  1.0677  1.9492
 6489SOL     OW30928   3.419   3.572   5.909  0.0396 -0.2133  0.1590
 6489SOL    HW130929   3.361   3.534   5.975 -0.9772  0.7403 -0.1642
 6489SOL    HW230930   3.386   3.661   5.897 -0.0613  0.0201  2.1880
 6490SOL     OW30931   3.126   1.908  15.505  0.4862 -0.2760  0.3531
 6490SOL    HW130932   3.160   1.981  15.557 -1.2845 -0.7795  2.2257
 6490SOL    HW230933   3.129   1.834  15.565  1.2981 -0.2584  0.3420
 6491SOL     OW30934   4.044   1.059   6.488  0.0035  0.1420 -0.1893
 6491SOL    HW130935   3.965   1.031   6.533  1.8417  0.1982  3.1077
 6491SOL    HW230936   4.093   1.069   6.570 -1.4885  0.9580  0.5877
 6492SOL     OW30937   4.412   0.913   3.705 -0.2472  0.6674  0.3176
 6492SOL    HW130938   4.459   0.832   3.683 -0.3390  0.6776  0.0793
 6492SOL    HW230939   4.405   0.953   3.618 -2.0479 -0.2810  0.0114
 6493SOL     OW30940   3.177   1.279   7.619 -0.1065 -0.1552 -0.3053
 6493SOL    HW130941   3.090   1.269   7.657  0.2405  2.2086  1.1007
 6493SOL    HW230942   3.167   1.228   7.539 -0.5704 -1.7527  0.7647
 6494SOL     OW30943   4.054   1.411   2.725  0.0947 -0.4367  0.1860
 6494SOL    HW130944   4.069   1.495   2.683 -0.9479  0.1145  0.9116
 6494SOL    HW230945   3.988   1.435   2.790  0.0791  1.3324 -0.5058
 6495SOL     OW30946   3.791   1.885  14.631  0.0980 -0.1541  0.6794
 6495SOL    HW130947   3.714   1.876  14.687  0.1903 -0.1130  0.8137
 6495SOL    HW230948   3.853   1.926  14.691 -0.7005 -0.1183  1.4857
 6496SOL     OW30949   3.187   3.086  11.775 -0.3217 -0.2365  0.1921
 6496SOL    HW130950   3.143   3.125  11.850 -0.5815 -0.5062  0.1780
 6496SOL    HW230951   3.114   3.086  11.713 -1.3673  0.0970  1.4254
 6497SOL     OW30952   2.734   4.295   6.776 -0.1770 -0.2851  0.2019
 6497SOL    HW130953   2.681   4.374   6.763 -0.2491 -0.1684  1.2190
 6497SOL    HW230954   2.822   4.332   6.789  0.4005 -1.2536 -0.9310
 6498SOL     OW30955   0.703   3.323   3.682  0.5319 -0.2374 -0.0912
 6498SOL    HW130956   0.615   3.323   3.719  0.5030 -0.6411 -0.1635
 6498SOL    HW230957   0.677   3.341   3.592  0.8828  0.3508 -0.0732
 6499SOL     OW30958   0.153   0.010   2.855  0.2258 -0.0875 -0.6351
 6499SOL    HW130959   0.175   4.700   2.766 -1.9672  1.2559 -1.6388
 6499SOL    HW230960   0.063   0.035   2.834 -0.2863 -0.6949  0.8496
 6500SOL     OW30961   4.266   1.114   9.165 -0.3901 -0.3669  0.0990
 6500SOL    HW130962   4.269   1.045   9.100 -0.6936 -1.6207  1.4150
 6500SOL    HW230963   4.344   1.091   9.217 -0.4754  1.6996  1.1440
 6501SOL     OW30964   2.422   4.349   5.337 -0.1208  0.0324  0.6851
 6501SOL    HW130965   2.417   4.405   5.415  3.5198  0.6052  0.5253
 6501SOL    HW230966   2.434   4.416   5.270 -0.8239  0.1682  0.6926
 6502SOL     OW30967   1.741   3.382   5.026  0.1855 -0.1486 -0.4187
 6502SOL    HW130968   1.732   3.423   4.940 -1.8994  0.6804  0.1844
 6502SOL    HW230969   1.818   3.419   5.069  0.9713  0.2612 -2.2072
 6503SOL     OW30970   2.919   0.667   5.871  0.0091 -0.1117  0.0251
 6503SOL    HW130971   2.847   0.722   5.839  0.1020  0.4089  0.7238
 6503SOL    HW230972   2.995   0.685   5.816 -0.1314 -1.2813 -0.5737
 6504SOL     OW30973   1.746   1.294   2.946 -0.2908 -0.6418  0.3390
 6504SOL    HW130974   1.739   1.385   2.918  0.7145 -1.1868 -1.6594
 6504SOL    HW230975   1.660   1.274   2.982 -0.7356 -0.9816 -0.9117
 6505SOL     OW30976   3.070   2.652   4.119  0.3953  0.4866 -0.6544
 6505SOL    HW130977   3.065   2.667   4.214  1.3453 -0.1604 -0.5062
 6505SOL    HW230978   3.006   2.718   4.092  0.4055  1.0026  0.5662
 6506SOL     OW30979   3.502   3.338   5.818  0.3511  0.1379  0.0208
 6506SOL    HW130980   3.422   3.291   5.840 -0.3677  1.3205 -0.0918
 6506SOL    HW230981   3.488   3.432   5.827  2.7604  0.5726 -0.7108
 6507SOL     OW30982   4.196   1.629   6.943  0.0199  0.2274  0.1659
 6507SOL    HW130983   4.172   1.606   6.853  0.2513  0.4145  0.0561
 6507SOL    HW230984   4.117   1.585   6.973 -0.1257 -0.2098 -0.8255
 6508SOL     OW30985   0.158   1.740   7.999  0.4193  0.0372 -0.7124
 6508SOL    HW130986   0.187   1.789   8.076  1.4996 -1.1462 -0.3688
 6508SOL    HW230987   0.067   1.731   8.026  0.1841  1.9928 -0.8388
 6509SOL     OW30988   4.656   1.413  17.121  0.6175  0.0026  0.1126
 6509SOL    HW130989   4.680   1.438  17.210 -0.8395 -0.9788  0.7819
 6509SOL    HW230990   4.579   1.361  17.142  0.5511  0.3147  0.6309
 6510SOL     OW30991   3.594   1.311   4.819  0.4752 -0.3825  0.0801
 6510SOL    HW130992   3.571   1.361   4.897 -0.2552 -0.4270 -0.1031
 6510SOL    HW230993   3.507   1.300   4.780  0.3413 -0.6875  0.4637
 6511SOL     OW30994   2.313   1.396  17.057  0.1012  0.1297  0.2982
 6511SOL    HW130995   2.257   1.378  16.982 -1.1851 -1.0038  1.5221
 6511SOL    HW230996   2.289   1.486  17.081 -0.1725  0.2953 -0.5789
 6512SOL     OW30997   4.254   3.658  16.713 -0.0904  0.4452 -0.2558
 6512SOL    HW130998   4.235   3.713  16.637  0.7810  0.5791 -0.3715
 6512SOL    HW230999   4.297   3.586  16.668 -1.7941 -1.2783  0.8637
 6513SOL     OW31000   2.625   1.285   4.837 -0.2852 -0.2022  0.1222
 6513SOL    HW131001   2.681   1.217   4.875 -0.2118 -0.6407 -0.7675
 6513SOL    HW231002   2.690   1.342   4.797  1.5348 -2.9419 -0.8740
 6514SOL     OW31003   1.615   2.764   4.675 -0.0073 -0.1822 -0.3264
 6514SOL    HW131004   1.528   2.739   4.706  0.7062 -1.0826  0.9263
 6514SOL    HW231005   1.662   2.705   4.733 -1.4402  1.4140  2.4710
 6515SOL     OW31006   1.734   0.116   8.368 -0.1688  0.2942 -0.3035
 6515SOL    HW131007   1.695   0.121   8.280  0.2455 -2.6422 -0.6596
 6515SOL    HW231008   1.795   0.042   8.365 -1.0194 -0.4652  0.9535
 6516SOL     OW31009   1.362   4.213  17.009 -0.1704  0.0416 -0.1732
 6516SOL    HW131010   1.302   4.138  17.011 -0.9726  0.6618 -1.4176
 6516SOL    HW231011   1.402   4.197  17.095 -0.5312  0.4081  0.0624
 6517SOL     OW31012   2.145   0.684   5.099 -0.2754  0.1995 -0.1716
 6517SOL    HW131013   2.209   0.735   5.149  0.5728 -1.5860  0.5686
 6517SOL    HW231014   2.087   0.659   5.170  1.1667 -1.2991  0.4948
 6518SOL     OW31015   0.857   0.016   5.956  0.3162  0.1453 -0.7013
 6518SOL    HW131016   0.802   4.681   6.010  0.9610  0.9436  0.7841
 6518SOL    HW231017   0.938   0.012   6.007  0.6336 -1.2019 -1.3218
 6519SOL     OW31018   3.111   3.120   6.425  1.1036 -0.0351  0.0084
 6519SOL    HW131019   3.205   3.098   6.423  0.3093 -3.3884 -0.7609
 6519SOL    HW231020   3.082   3.139   6.336  3.4708 -0.2340 -0.8178
 6520SOL     OW31021   1.588   4.319   4.246  0.7698 -0.0914  0.1588
 6520SOL    HW131022   1.631   4.313   4.331  0.7012 -0.4535  0.1660
 6520SOL    HW231023   1.592   4.227   4.220 -2.2634 -1.0926  3.1629
 6521SOL     OW31024   4.586   2.518   8.534  0.0791  0.3471  0.2147
 6521SOL    HW131025   4.562   2.610   8.531 -0.7448  0.1548  1.0112
 6521SOL    HW231026   4.550   2.494   8.449  1.6673  0.2391 -0.4298
 6522SOL     OW31027   0.039   2.955   2.316 -0.7391  0.7057  0.3716
 6522SOL    HW131028   4.712   2.878   2.286  2.9191 -0.9288 -1.1485
 6522SOL    HW231029   0.128   2.921   2.303 -0.9243  0.0138  0.9148
 6523SOL     OW31030   2.916   0.200  11.712  0.0908  0.4376 -0.4740
 6523SOL    HW131031   2.922   0.218  11.618  4.8448  0.7897 -0.0998
 6523SOL    HW231032   3.009   0.179  11.721 -0.3641 -0.1264  2.8321
 6524SOL     OW31033   4.027   3.256   7.487  0.5369  0.7075 -0.0944
 6524SOL    HW131034   4.040   3.333   7.543  0.4404 -0.2204  1.1772
 6524SOL    HW231035   3.984   3.199   7.550  0.4400  0.3075 -0.5209
 6525SOL     OW31036   2.103   0.295   7.289 -0.7958 -0.2161 -0.5629
 6525SOL    HW131037   2.054   0.356   7.344  2.4318  1.7274  0.1455
 6525SOL    HW231038   2.039   0.297   7.217 -1.4125 -0.1723 -0.0197
 6526SOL     OW31039   1.341   1.444   6.137 -0.0665 -0.3870  0.0176
 6526SOL    HW131040   1.352   1.466   6.045 -1.3523  2.7797  0.6493
 6526SOL    HW231041   1.433   1.435   6.162 -0.0702 -0.6355 -0.0583
 6527SOL     OW31042   4.274   3.147   5.339  0.0394  0.1284 -0.1740
 6527SOL    HW131043   4.274   3.233   5.381 -0.8618 -0.2628  0.6137
 6527SOL    HW231044   4.204   3.157   5.274 -0.4060  1.7751  0.5517
 6528SOL     OW31045   3.798   2.312   0.984 -0.5428 -0.0765 -0.3200
 6528SOL    HW131046   3.777   2.219   0.988 -1.3507  0.0177 -2.1693
 6528SOL    HW231047   3.778   2.332   1.075 -2.9599 -1.8564 -0.4588
 6529SOL     OW31048   4.162   3.879   1.087  0.5231 -0.6146 -0.5880
 6529SOL    HW131049   4.138   3.824   1.013 -0.6278 -1.6754  0.5860
 6529SOL    HW231050   4.149   3.963   1.043 -0.4381 -0.8310 -0.7109
 6530SOL     OW31051   0.411   0.239   7.539  0.3807 -0.4545  0.5098
 6530SOL    HW131052   0.501   0.248   7.570  0.0335  1.3344  0.9959
 6530SOL    HW231053   0.377   0.327   7.555  0.4361 -0.3156 -0.1430
 6531SOL     OW31054   1.548   0.640  13.836 -0.1086  0.4318  0.0505
 6531SOL    HW131055   1.542   0.597  13.922  0.3094 -1.3164 -0.7849
 6531SOL    HW231056   1.524   0.730  13.859 -0.7013 -0.0942  1.5503
 6532SOL     OW31057   1.268   3.076   6.194  0.5347 -0.3722  0.4311
 6532SOL    HW131058   1.173   3.083   6.203  0.6434  0.0955  1.2189
 6532SOL    HW231059   1.289   2.983   6.200  0.8691 -0.5149 -2.5679
 6533SOL     OW31060   0.926   4.273   8.688  0.2157  0.2016  0.0003
 6533SOL    HW131061   0.951   4.234   8.772  0.2904  2.8844  1.2574
 6533SOL    HW231062   0.986   4.348   8.679 -0.7904  0.6934 -2.6621
 6534SOL     OW31063   0.350   0.309   4.807  0.6840  0.2310 -0.1694
 6534SOL    HW131064   0.372   0.326   4.899  0.4601 -2.2096  0.3302
 6534SOL    HW231065   0.255   0.296   4.807  0.7472 -0.2362 -1.6324
 6535SOL     OW31066   4.175   0.813  16.539 -0.0943 -0.4072 -0.0875
 6535SOL    HW131067   4.166   0.833  16.446  0.8667  0.1199 -0.0694
 6535SOL    HW231068   4.247   0.751  16.545 -0.6994 -1.0048  1.0982
 6536SOL     OW31069   1.502   2.276  12.003 -0.5622 -0.4563 -0.1698
 6536SOL    HW131070   1.592   2.308  12.012 -0.4427 -0.4872 -1.1515
 6536SOL    HW231071   1.448   2.352  12.022 -1.1659 -0.8315 -0.3919
 6537SOL     OW31072   2.675   4.604   5.536 -0.1516  0.6734 -0.6499
 6537SOL    HW131073   2.711   4.591   5.448 -0.5656  0.6846 -0.8250
 6537SOL    HW231074   2.582   4.614   5.514 -0.6928 -1.4858  0.7036
 6538SOL     OW31075   1.745   3.541   5.860 -0.5635 -0.0191  0.1339
 6538SOL    HW131076   1.721   3.448   5.867  0.7374 -0.3391  0.3102
 6538SOL    HW231077   1.801   3.534   5.783  1.9982  0.6417  1.9122
 6539SOL     OW31078   0.926   1.521  15.775  0.2578 -0.3950  0.3731
 6539SOL    HW131079   0.893   1.610  15.759 -1.2374 -1.1233 -0.5470
 6539SOL    HW231080   0.917   1.484  15.687  1.7895 -0.1337  0.1027
 6540SOL     OW31081   2.124   3.593   1.182 -0.0873  0.6404  0.1867
 6540SOL    HW131082   2.082   3.629   1.104  0.9130  0.2246 -0.5409
 6540SOL    HW231083   2.133   3.672   1.235 -1.6751 -1.3359  3.4157
 6541SOL     OW31084   2.809   3.779  12.556 -0.1519 -0.1657  0.4670
 6541SOL    HW131085   2.857   3.859  12.578  0.8518 -0.9763  1.2484
 6541SOL    HW231086   2.832   3.727  12.634 -0.3826 -2.0937 -0.7518
 6542SOL     OW31087   4.021   1.015   8.232 -0.4280  0.1182  0.3170
 6542SOL    HW131088   3.935   1.010   8.272 -0.3572 -1.4993  0.2777
 6542SOL    HW231089   3.992   1.049   8.147  0.8457  0.3292 -0.0474
 6543SOL     OW31090   1.278   2.298   7.476 -0.2827 -0.5730  0.1094
 6543SOL    HW131091   1.193   2.259   7.458 -1.1214  0.8487  0.9768
 6543SOL    HW231092   1.313   2.242   7.545 -1.5389 -0.7684  0.5818
 6544SOL     OW31093   3.976   2.862  13.293 -0.0932 -0.1582 -0.5721
 6544SOL    HW131094   3.989   2.952  13.264  2.5039 -0.8477 -1.5020
 6544SOL    HW231095   4.025   2.863  13.375 -1.2507 -0.8677  0.1371
 6545SOL     OW31096   1.420   1.696   6.584  0.4164  0.4761 -0.3068
 6545SOL    HW131097   1.487   1.652   6.636  0.5646 -0.9556 -1.6965
 6545SOL    HW231098   1.427   1.633   6.511  0.4644  0.6630 -0.4633
 6546SOL     OW31099   0.488   3.625   5.346 -0.0825 -0.3115 -0.3551
 6546SOL    HW131100   0.452   3.569   5.415  0.9792 -1.6423 -0.8596
 6546SOL    HW231101   0.578   3.590   5.347  0.6330  1.5683  0.1249
 6547SOL     OW31102   3.834   1.810   7.695  0.5382  0.7278 -0.7241
 6547SOL    HW131103   3.756   1.754   7.702  1.0164  0.0674 -0.6462
 6547SOL    HW231104   3.892   1.737   7.671  0.5189 -0.7439  3.6353
 6548SOL     OW31105   4.057   1.833   8.910  0.2835  0.0798 -0.5579
 6548SOL    HW131106   4.091   1.744   8.915  1.8096  0.6496 -0.7014
 6548SOL    HW231107   3.969   1.829   8.873 -0.5489 -0.9366  1.5362
 6549SOL     OW31108   2.289   2.418  15.356  0.4288 -0.4494 -0.0615
 6549SOL    HW131109   2.275   2.473  15.279 -0.6879 -1.2363 -0.4238
 6549SOL    HW231110   2.255   2.334  15.327 -1.2761  0.9431 -2.1409
 6550SOL     OW31111   0.415   4.395   8.525 -0.3110 -0.1671  0.3152
 6550SOL    HW131112   0.499   4.433   8.500  0.0788 -0.8251  0.6675
 6550SOL    HW231113   0.431   4.349   8.606  1.9042  1.4481  0.7996
 6551SOL     OW31114   0.584   0.524   2.233 -0.4218  0.1669 -0.5223
 6551SOL    HW131115   0.651   0.563   2.288 -0.7264 -0.0293 -0.0082
 6551SOL    HW231116   0.636   0.483   2.164  0.6561  0.3207  0.2014
 6552SOL     OW31117   3.313   1.449   5.160  0.7694 -0.1617 -0.0635
 6552SOL    HW131118   3.321   1.354   5.173 -1.5011 -0.4526 -0.7464
 6552SOL    HW231119   3.239   1.455   5.100  1.0736 -0.9016 -0.5204
 6553SOL     OW31120   3.519   2.899  17.170 -0.3311 -0.5376  0.6688
 6553SOL    HW131121   3.478   2.908  17.084 -0.8290  1.7188  1.1475
 6553SOL    HW231122   3.458   2.844  17.220 -1.9036  0.5490 -0.0296
 6554SOL     OW31123   3.963   0.140  17.441  0.0750  0.2733 -0.1130
 6554SOL    HW131124   3.922   0.124  17.525  1.7680  0.1560  0.6795
 6554SOL    HW231125   3.892   0.127  17.377  0.3288 -2.7950  0.2286
 6555SOL     OW31126   2.901   1.115   9.676 -0.4002 -0.2457 -0.4653
 6555SOL    HW131127   2.872   1.083   9.762 -2.7622  1.0627 -0.7706
 6555SOL    HW231128   2.930   1.203   9.700 -2.3999 -0.2296  1.9202
 6556SOL     OW31129   2.494   3.726   2.534 -0.1813  0.1735  0.3786
 6556SOL    HW131130   2.511   3.815   2.503 -0.7427  0.6352  1.3843
 6556SOL    HW231131   2.439   3.709   2.458 -0.1139 -0.4694  0.4706
 6557SOL     OW31132   3.993   4.407   6.007 -0.3655 -0.2131  0.2181
 6557SOL    HW131133   4.019   4.496   6.031  1.5225 -0.5028 -0.7612
 6557SOL    HW231134   3.901   4.404   6.035  0.5006  1.2137  3.1968
 6558SOL     OW31135   0.793   3.016   0.814 -0.1991 -0.2630  0.5896
 6558SOL    HW131136   0.822   2.953   0.748 -0.7196  0.3329 -0.2110
 6558SOL    HW231137   0.841   2.995   0.893  0.8621  1.7215  0.4699
 6559SOL     OW31138   2.237   2.897   7.045 -0.0377  0.1527 -0.0876
 6559SOL    HW131139   2.180   2.820   7.041 -0.1357  0.1906  0.5852
 6559SOL    HW231140   2.323   2.859   7.065 -0.5325 -0.3018  1.1781
 6560SOL     OW31141   1.570   0.299   0.235  0.1802  0.9024  0.0678
 6560SOL    HW131142   1.636   0.356   0.195  1.4878 -1.3545 -0.9610
 6560SOL    HW231143   1.564   0.245   0.157  3.1139  0.4403  0.1521
 6561SOL     OW31144   3.191   2.780   2.730  0.1772 -0.2336  0.2815
 6561SOL    HW131145   3.231   2.835   2.797 -0.4309 -1.8545  1.9595
 6561SOL    HW231146   3.231   2.694   2.744 -1.4307 -1.2018 -1.1004
 6562SOL     OW31147   0.698   4.353   5.576  0.0358 -0.1180 -0.1612
 6562SOL    HW131148   0.642   4.371   5.500 -1.9723  1.1578  1.6229
 6562SOL    HW231149   0.740   4.435   5.600 -1.1177 -0.1979  2.0793
 6563SOL     OW31150   0.403   0.686   9.054  0.1942  0.4896 -0.9754
 6563SOL    HW131151   0.418   0.609   9.109  0.7716 -1.3955 -3.7360
 6563SOL    HW231152   0.467   0.678   8.983  2.2850 -2.3709  1.2025
 6564SOL     OW31153   1.261   4.232   7.001  0.1933 -0.2009  0.4486
 6564SOL    HW131154   1.176   4.272   7.017  0.4959  1.6280 -2.4255
 6564SOL    HW231155   1.269   4.234   6.905 -3.3482 -0.1754  0.1481
 6565SOL     OW31156   4.289   1.038   4.373 -0.1113 -0.2677 -0.0590
 6565SOL    HW131157   4.303   1.069   4.463  1.0964  1.1521 -0.7422
 6565SOL    HW231158   4.354   1.096   4.333 -1.8118  1.3955 -0.4062
 6566SOL     OW31159   3.444   1.338   3.842 -0.2358  0.2073  0.6572
 6566SOL    HW131160   3.370   1.283   3.865 -0.0378 -2.0810 -4.1375
 6566SOL    HW231161   3.514   1.287   3.880  0.1334 -1.5128 -2.3448
 6567SOL     OW31162   2.026   4.673   8.423  0.2411  0.5834  0.0103
 6567SOL    HW131163   1.991   4.700   8.508  0.5070 -2.3678  1.0826
 6567SOL    HW231164   2.117   4.701   8.437  0.5101 -0.1859 -0.1735
 6568SOL     OW31165   3.017   0.334   3.544 -0.3077  0.3435  0.1905
 6568SOL    HW131166   2.963   0.382   3.481 -1.0897  1.8044  1.9557
 6568SOL    HW231167   3.103   0.343   3.504 -0.7900 -0.0433 -0.9174
 6569SOL     OW31168   0.759   0.984  12.330  0.0546 -0.4598 -0.0388
 6569SOL    HW131169   0.831   0.978  12.394 -0.3939 -0.4925  0.4597
 6569SOL    HW231170   0.727   0.894  12.338  1.1164 -0.7285  1.2107
 6570SOL     OW31171   3.356   2.475   2.515 -0.4135  0.5243 -0.0453
 6570SOL    HW131172   3.265   2.474   2.544  0.4622  1.0292  2.6833
 6570SOL    HW231173   3.390   2.506   2.598 -2.6645  1.3594  0.5547
 6571SOL     OW31174   3.970   1.163  12.321 -0.0297  0.1584  0.1805
 6571SOL    HW131175   3.982   1.251  12.286  4.4137  0.7521  3.1799
 6571SOL    HW231176   3.910   1.121  12.259 -0.7730 -0.9829  1.6876
 6572SOL     OW31177   2.910   1.526   2.532 -0.2211  0.0060  0.6171
 6572SOL    HW131178   2.836   1.485   2.577 -0.4592 -0.2988 -0.0523
 6572SOL    HW231179   2.897   1.528   2.437  0.1474 -0.4208  0.5584
 6573SOL     OW31180   1.749   3.516   8.700  0.4801 -0.4787  0.0423
 6573SOL    HW131181   1.817   3.580   8.677 -0.0861  0.3229  0.5899
 6573SOL    HW231182   1.821   3.459   8.726  0.3807 -0.0710  1.2220
 6574SOL     OW31183   3.258   1.114   8.988  0.6658 -0.2732 -1.3334
 6574SOL    HW131184   3.293   1.066   9.063 -0.9931 -1.0396 -1.0436
 6574SOL    HW231185   3.333   1.160   8.951  1.4776 -1.0607 -0.6656
 6575SOL     OW31186   1.845   4.279   0.225  0.0777 -1.1221  0.2420
 6575SOL    HW131187   1.855   4.360   0.274 -2.4374 -0.9632  0.4990
 6575SOL    HW231188   1.901   4.217   0.271  0.9091  0.8557  1.8983
 6576SOL     OW31189   4.618   0.491  12.510 -0.0074  0.2050  1.0140
 6576SOL    HW131190   4.649   0.415  12.560  1.8777  0.3052  0.0026
 6576SOL    HW231191   4.610   0.452  12.423 -1.3429  1.5584  0.5374
 6577SOL     OW31192   1.977   1.426  13.496 -0.6880 -0.5938 -0.4460
 6577SOL    HW131193   1.978   1.460  13.407 -2.5617  0.0483 -0.2258
 6577SOL    HW231194   1.897   1.455  13.541  0.0219 -0.3493  0.6781
 6578SOL     OW31195   0.856   1.178  13.458 -0.9906  0.7333  0.2826
 6578SOL    HW131196   0.833   1.271  13.466 -1.2406  0.5098  2.2864
 6578SOL    HW231197   0.774   1.139  13.488  2.6849 -4.2729  3.8380
 6579SOL     OW31198   3.853   3.073  10.408  0.0639 -0.2722  0.2201
 6579SOL    HW131199   3.886   3.007  10.469  1.8904  2.5902  2.3451
 6579SOL    HW231200   3.880   3.037  10.323 -1.1554 -1.4320  0.3324
 6580SOL     OW31201   0.216   2.196   5.451  0.0139  0.0193  0.5832
 6580SOL    HW131202   0.235   2.250   5.528 -0.0166  0.0573  0.5637
 6580SOL    HW231203   0.306   2.167   5.434  0.5750  1.3338  1.2938
 6581SOL     OW31204   0.117   1.592   6.737  0.3030 -0.3593  0.0527
 6581SOL    HW131205   0.053   1.635   6.682  0.0678 -1.5899 -0.6439
 6581SOL    HW231206   0.073   1.627   6.815 -0.8496 -1.4128 -0.1308
 6582SOL     OW31207   0.744   0.867  13.823 -0.0167 -0.0555 -0.6300
 6582SOL    HW131208   0.825   0.900  13.784  0.6336 -1.0688 -0.1254
 6582SOL    HW231209   0.734   0.934  13.891  0.4993  1.3586 -1.9418
 6583SOL     OW31210   3.594   2.672   7.581  0.6174 -0.6478 -0.6569
 6583SOL    HW131211   3.502   2.692   7.602  1.0039  0.0294  0.3900
 6583SOL    HW231212   3.580   2.593   7.528  1.4208 -0.4741 -1.1185
 6584SOL     OW31213   3.642   4.207   7.413 -0.8938 -0.2738  0.3285
 6584SOL    HW131214   3.567   4.266   7.406  1.0455  2.2370  0.6496
 6584SOL    HW231215   3.718   4.262   7.394 -3.3075  2.8737 -0.2434
 6585SOL     OW31216   4.645   0.239   6.226 -0.0800  0.4613  0.1907
 6585SOL    HW131217   4.669   0.149   6.250  1.0774  0.7584  0.1366
 6585SOL    HW231218   4.590   0.211   6.153  0.1225  0.4553  0.0399
 6586SOL     OW31219   2.348   4.526   8.215 -0.3450  0.6629 -0.4116
 6586SOL    HW131220   2.318   4.487   8.297  1.6077 -0.9453 -0.4644
 6586SOL    HW231221   2.402   4.454   8.184 -0.1325  0.6930 -0.1027
 6587SOL     OW31222   3.343   0.687   5.292 -0.1330  0.2071 -0.1757
 6587SOL    HW131223   3.438   0.674   5.290 -0.5776 -2.7572 -3.3066
 6587SOL    HW231224   3.323   0.765   5.344 -0.9477 -0.7683  0.9684
 6588SOL     OW31225   1.628   4.606   4.271  0.1695  0.2114 -0.5106
 6588SOL    HW131226   1.599   4.519   4.245 -0.0627  0.9096 -2.6625
 6588SOL    HW231227   1.607   4.617   4.363 -0.5149 -3.5635 -0.2198
 6589SOL     OW31228   4.138   0.504   3.116  0.3335 -0.1929  0.4067
 6589SOL    HW131229   4.101   0.592   3.120 -0.0614 -0.3471  0.0854
 6589SOL    HW231230   4.108   0.468   3.200 -2.1455  0.4136 -0.2132
 6590SOL     OW31231   1.948   2.122   8.317  0.5299 -0.0883 -0.4238
 6590SOL    HW131232   1.859   2.105   8.287 -0.2705  0.2305  1.7508
 6590SOL    HW231233   2.005   2.113   8.241  0.8172  1.1187 -0.3524
 6591SOL     OW31234   3.823   2.843   3.302 -0.6771 -0.8581 -0.5293
 6591SOL    HW131235   3.910   2.830   3.264  0.3170  3.1049  0.4966
 6591SOL    HW231236   3.839   2.845   3.396 -0.1025 -3.1282 -0.5753
 6592SOL     OW31237   3.434   2.936   8.262  0.1856 -0.3523  0.0644
 6592SOL    HW131238   3.342   2.950   8.241 -0.1478 -2.5160  0.1242
 6592SOL    HW231239   3.429   2.875   8.336 -0.4531 -0.0411  0.2721
 6593SOL     OW31240   0.891   4.586   8.517  0.1963  0.0316  0.4389
 6593SOL    HW131241   0.887   4.613   8.609  0.0600 -0.4868  0.5868
 6593SOL    HW231242   0.876   4.673   8.480  1.2327  0.3812  0.8388
 6594SOL     OW31243   2.807   0.869   3.089 -0.0146 -0.4459  0.1385
 6594SOL    HW131244   2.728   0.866   3.035 -1.7439 -1.5103  2.7348
 6594SOL    HW231245   2.792   0.806   3.160 -0.3000  0.2301  0.6909
 6595SOL     OW31246   0.980   1.051   4.089  0.3325 -0.3729  0.2938
 6595SOL    HW131247   0.948   1.139   4.072 -0.1344 -0.2407  1.8533
 6595SOL    HW231248   0.926   1.002   4.027 -0.2578 -1.2355  1.4800
 6596SOL     OW31249   4.552   4.165   5.498  0.2871 -0.3358  0.5877
 6596SOL    HW131250   4.544   4.074   5.471  0.0968 -0.2784  0.4471
 6596SOL    HW231251   4.495   4.214   5.438  2.4684 -0.0181 -1.2256
 6597SOL     OW31252   3.488   0.194   3.293 -0.0875  0.6504 -0.4882
 6597SOL    HW131253   3.452   0.113   3.256 -0.7648  0.6999  0.0561
 6597SOL    HW231254   3.479   0.248   3.214 -0.7580  0.7048 -0.3762
 6598SOL     OW31255   1.899   0.677   5.652 -0.3041  0.7343 -0.7589
 6598SOL    HW131256   1.991   0.667   5.626 -0.3444  0.5533 -0.8360
 6598SOL    HW231257   1.874   0.587   5.630  3.0860 -0.4011  0.0372
 6599SOL     OW31258   0.590   2.906  15.964  0.1240 -0.4524 -0.2740
 6599SOL    HW131259   0.655   2.837  15.962 -0.8301 -1.4227  1.6397
 6599SOL    HW231260   0.645   2.984  15.970  1.4164 -1.4192  0.4073
 6600SOL     OW31261   1.693   0.161  11.891  0.2931  0.1168  0.4305
 6600SOL    HW131262   1.669   0.073  11.860  1.5187  0.3853 -1.2653
 6600SOL    HW231263   1.610   0.204  11.869 -0.9040 -1.0929  2.5443
 6601SOL     OW31264   1.145   0.131   2.272  0.2386  0.5883  0.4512
 6601SOL    HW131265   1.217   0.084   2.230 -0.4936  0.0788 -0.2449
 6601SOL    HW231266   1.114   0.071   2.339  3.2982 -1.0915  0.3538
 6602SOL     OW31267   3.605   1.813   4.025 -0.1382 -0.1764 -0.5291
 6602SOL    HW131268   3.591   1.879   4.092  1.4466  1.2518 -1.5820
 6602SOL    HW231269   3.598   1.874   3.952  0.6784 -1.8552 -2.0175
 6603SOL     OW31270   0.402   2.781   7.477  0.2490  0.0787  0.4251
 6603SOL    HW131271   0.366   2.718   7.415 -1.5680 -0.1447  1.7008
 6603SOL    HW231272   0.366   2.736   7.554  0.6108 -0.7096  0.1338
 6604SOL     OW31273   2.111   4.380   4.765  0.4769  0.1029 -0.3903
 6604SOL    HW131274   2.049   4.377   4.693 -0.1328 -1.3364  0.2088
 6604SOL    HW231275   2.152   4.294   4.758  0.9581  0.3306 -0.3885
 6605SOL     OW31276   2.395   3.003   3.958  0.7970 -0.3426 -0.3758
 6605SOL    HW131277   2.323   3.041   4.008  0.1138 -1.3228 -0.6223
 6605SOL    HW231278   2.408   3.071   3.891 -1.8658  0.0996 -0.4634
 6606SOL     OW31279   3.399   4.278   3.738 -0.3229  0.0585  0.1133
 6606SOL    HW131280   3.405   4.249   3.829  0.9861  1.0449  0.3613
 6606SOL    HW231281   3.336   4.350   3.734 -0.2508  0.0902 -0.4850
 6607SOL     OW31282   4.695   1.724   2.319 -0.2395 -0.0571 -0.4948
 6607SOL    HW131283   0.047   1.763   2.270  1.0597 -0.7015  0.9088
 6607SOL    HW231284   0.019   1.644   2.347 -0.2473  0.5069  1.1134
 6608SOL     OW31285   3.752   1.456   0.165  0.0454 -0.0584  0.2249
 6608SOL    HW131286   3.734   1.504   0.084 -0.4972 -2.0477 -0.8207
 6608SOL    HW231287   3.845   1.468   0.186  0.2965 -2.2295  0.2797
 6609SOL     OW31288   2.409   1.978   2.515 -0.2507  0.6651 -0.1051
 6609SOL    HW131289   2.383   1.928   2.438  1.3218  1.1143 -0.9229
 6609SOL    HW231290   2.345   2.049   2.508 -2.2925 -1.3539 -1.9654
 6610SOL     OW31291   1.129   2.439   8.497 -0.3795  0.1980 -0.1621
 6610SOL    HW131292   1.156   2.354   8.532 -2.0153 -0.6724 -0.9828
 6610SOL    HW231293   1.143   2.489   8.577 -0.0703  0.9778 -0.7056
 6611SOL     OW31294   0.723   4.091   3.667 -0.2799 -0.2019  0.0747
 6611SOL    HW131295   0.788   4.063   3.603 -1.8055 -2.3498 -0.5247
 6611SOL    HW231296   0.730   4.013   3.721  0.6154  0.0119  0.2667
 6612SOL     OW31297   2.817   0.761  12.854  0.1391  0.0178 -0.4474
 6612SOL    HW131298   2.832   0.851  12.881 -0.1057 -0.1647  0.2933
 6612SOL    HW231299   2.722   0.756  12.844  0.1828 -2.6097  0.4961
 6613SOL     OW31300   2.802   2.832  15.092 -0.2044  0.1178 -0.3312
 6613SOL    HW131301   2.839   2.888  15.024  1.2675 -0.7724 -0.2744
 6613SOL    HW231302   2.744   2.769  15.050  0.5448 -0.3582 -0.6508
 6614SOL     OW31303   1.640   3.007   8.481 -0.1408 -0.1867  0.0030
 6614SOL    HW131304   1.725   3.035   8.448  0.0266 -2.1269 -1.1880
 6614SOL    HW231305   1.640   2.915   8.455 -0.0892  0.6213 -2.7703
 6615SOL     OW31306   2.638   4.533   0.795  0.0307  0.5468  0.3377
 6615SOL    HW131307   2.597   4.543   0.881 -1.6226  1.9173 -0.6161
 6615SOL    HW231308   2.689   4.613   0.798  1.5472 -0.3149 -2.3930
 6616SOL     OW31309   3.560   3.961  14.156 -0.0228 -0.0898  0.1878
 6616SOL    HW131310   3.489   3.999  14.105  1.0219  0.9344 -0.5179
 6616SOL    HW231311   3.636   3.990  14.105  0.4674  0.1437  1.0601
 6617SOL     OW31312   1.411   0.699   7.085 -0.4923 -0.0263  0.0826
 6617SOL    HW131313   1.443   0.735   7.002  1.2308 -0.9569  0.3459
 6617SOL    HW231314   1.425   0.774   7.144  0.6433  0.4293 -0.7668
 6618SOL     OW31315   1.039   0.447   6.874  0.0092 -0.0511 -0.2576
 6618SOL    HW131316   0.961   0.455   6.928  0.6655 -1.0337  0.8348
 6618SOL    HW231317   1.099   0.393   6.925 -0.0459 -0.1823 -0.3323
 6619SOL     OW31318   1.406   2.055  17.432  0.2745 -0.0103 -0.3098
 6619SOL    HW131319   1.318   2.078  17.402  1.0904  0.6437 -2.2062
 6619SOL    HW231320   1.399   2.092  17.520 -2.8645  0.7482 -0.8656
 6620SOL     OW31321   1.569   2.465   4.136  0.0276  0.0534 -0.5787
 6620SOL    HW131322   1.637   2.531   4.150  0.2061 -0.2591  0.0148
 6620SOL    HW231323   1.581   2.425   4.222  0.7044  1.4007 -0.0460
 6621SOL     OW31324   0.425   2.887  16.318  0.0531 -1.0192  0.2356
 6621SOL    HW131325   0.425   2.939  16.238  0.1235 -0.2461  0.7366
 6621SOL    HW231326   0.519   2.873  16.330  0.3608  0.9952  0.2078
 6622SOL     OW31327   4.659   0.113   4.086  0.2859  0.2444  0.9168
 6622SOL    HW131328   4.697   0.168   4.155  1.9803  0.6498 -0.3411
 6622SOL    HW231329   4.704   0.158   4.014  0.2034 -1.7640 -0.3714
 6623SOL     OW31330   2.650   4.084   7.993  0.6719 -0.2757  0.1428
 6623SOL    HW131331   2.711   4.144   7.951  1.3851  1.5549  3.7819
 6623SOL    HW231332   2.698   4.065   8.073  0.6519 -2.8302 -0.4603
 6624SOL     OW31333   4.146   0.160   3.450 -0.1202  0.3911  0.0981
 6624SOL    HW131334   4.113   0.138   3.537  2.0813 -0.7187  0.6491
 6624SOL    HW231335   4.120   0.252   3.443  3.0377  1.5034  3.0001
 6625SOL     OW31336   0.845   4.206  16.280  0.6321  0.1391 -0.1516
 6625SOL    HW131337   0.838   4.299  16.259  3.2009  0.0623 -1.3113
 6625SOL    HW231338   0.754   4.177  16.281  1.3080 -1.8799  2.7146
 6626SOL     OW31339   0.278   0.231  11.870 -0.2869  0.6067  0.4663
 6626SOL    HW131340   0.316   0.317  11.848  1.1759 -0.1390  0.0895
 6626SOL    HW231341   0.293   0.236  11.965 -1.3158  0.7926  0.6175
 6627SOL     OW31342   4.705   3.042   4.257  0.1098  0.3487  0.2485
 6627SOL    HW131343   0.060   3.022   4.313  0.0823  1.2878  0.6194
 6627SOL    HW231344   4.636   3.037   4.322 -0.1415  2.7979  0.1777
 6628SOL     OW31345   0.963   0.986  17.383 -0.0599  0.1855 -0.3927
 6628SOL    HW131346   0.909   0.925  17.433 -1.2207  0.0175 -1.8495
 6628SOL    HW231347   1.048   0.945  17.392 -0.4599 -0.1204  1.9644
 6629SOL     OW31348   4.538   2.624   5.128 -0.2595 -0.1223  0.0842
 6629SOL    HW131349   4.498   2.710   5.144  0.3392 -0.0754  1.3497
 6629SOL    HW231350   4.490   2.568   5.190  1.6859 -0.2897  1.4440
 6630SOL     OW31351   1.632   2.486   3.107  0.4208  0.3762  0.3561
 6630SOL    HW131352   1.695   2.418   3.130 -0.7592 -0.4297  1.2455
 6630SOL    HW231353   1.582   2.432   3.046  1.4971  1.6672 -1.6717
 6631SOL     OW31354   0.132   0.232  10.602  0.2714  0.3477 -0.2367
 6631SOL    HW131355   0.117   0.312  10.551 -0.7850 -0.1529 -0.7028
 6631SOL    HW231356   0.222   0.213  10.578 -0.1905  0.6167 -2.2001
 6632SOL     OW31357   3.774   2.929   5.379 -0.0228 -0.1497 -0.8500
 6632SOL    HW131358   3.701   2.873   5.354 -2.1726  2.2481  0.1026
 6632SOL    HW231359   3.735   3.008   5.342  0.9257 -0.0932 -1.7278
 6633SOL     OW31360   3.945   1.368   4.845  0.4698  0.1557  0.5016
 6633SOL    HW131361   4.028   1.414   4.861  1.0276 -0.4523 -0.6908
 6633SOL    HW231362   3.955   1.293   4.904  1.6691 -0.7624 -0.8510
 6634SOL     OW31363   0.729   1.884   2.930  0.3435  0.6782 -0.2381
 6634SOL    HW131364   0.745   1.798   2.969 -0.2085  0.7954  0.2624
 6634SOL    HW231365   0.821   1.906   2.919  0.6195 -1.3891 -1.9995
 6635SOL     OW31366   4.199   0.697   7.345 -0.2348  0.2496  0.6786
 6635SOL    HW131367   4.293   0.692   7.361 -0.1907 -0.3620  0.2232
 6635SOL    HW231368   4.169   0.721   7.433  1.6478 -1.5661  1.8311
 6636SOL     OW31369   3.038   4.533   2.089 -0.4033 -0.3650  0.4757
 6636SOL    HW131370   3.011   4.511   2.178 -2.1090 -1.4066 -0.2874
 6636SOL    HW231371   2.989   4.468   2.038 -1.4283 -0.5157  1.6487
 6637SOL     OW31372   3.171   3.684   3.041  0.4401 -0.3766  0.8056
 6637SOL    HW131373   3.200   3.769   3.074  2.3322 -1.3786  1.7346
 6637SOL    HW231374   3.090   3.706   2.996  0.2552 -1.9099  0.3803
 6638SOL     OW31375   4.496   3.722   2.696 -0.1540  0.3313 -0.2690
 6638SOL    HW131376   4.497   3.792   2.631  0.4805  1.6631  1.1830
 6638SOL    HW231377   4.592   3.715   2.704 -0.3014 -0.4736  0.7531
 6639SOL     OW31378   2.549   2.627  10.838  0.0623 -0.4098  0.2766
 6639SOL    HW131379   2.562   2.540  10.877 -2.7865  0.1622  2.5023
 6639SOL    HW231380   2.519   2.616  10.748 -0.9650  2.6006  0.2451
 6640SOL     OW31381   1.373   0.577   8.000 -0.4589 -0.4916 -0.0294
 6640SOL    HW131382   1.388   0.664   8.039  0.9299 -0.4000 -0.7806
 6640SOL    HW231383   1.305   0.547   8.060 -1.2598  0.3270 -0.5180
 6641SOL     OW31384   4.169   2.343  11.669 -0.5929 -0.0521  0.3608
 6641SOL    HW131385   4.223   2.267  11.649  0.7335  1.1770 -0.6947
 6641SOL    HW231386   4.119   2.358  11.588  0.9492 -0.9061 -0.7454
 6642SOL     OW31387   3.516   0.071   5.044  0.0058 -0.2350 -0.1548
 6642SOL    HW131388   3.437   0.111   5.010  0.2131  0.4838  0.1997
 6642SOL    HW231389   3.558   0.082   4.958  0.4133 -1.8528 -0.1773
 6643SOL     OW31390   0.998   1.283   7.701 -0.2874 -1.0668 -0.0159
 6643SOL    HW131391   1.052   1.359   7.681 -1.3082 -0.1491  0.7259
 6643SOL    HW231392   1.044   1.246   7.777  0.2728 -0.9922 -0.3164
 6644SOL     OW31393   1.438   2.429  13.723 -0.0708 -0.6525 -0.1907
 6644SOL    HW131394   1.343   2.428  13.714  0.0301  3.2775 -2.0650
 6644SOL    HW231395   1.471   2.346  13.690 -0.2943 -1.0143  0.4975
 6645SOL     OW31396   1.713   1.302   1.850  0.0191 -0.4926  0.2492
 6645SOL    HW131397   1.706   1.395   1.871  0.7935 -0.1512 -0.9889
 6645SOL    HW231398   1.791   1.293   1.795  0.8676 -3.0171  1.8908
 6646SOL     OW31399   0.703   0.209  16.663 -0.6061 -0.4957 -0.3566
 6646SOL    HW131400   0.736   0.156  16.591 -2.2714  1.0224 -2.2406
 6646SOL    HW231401   0.747   0.292  16.645 -0.8104  0.1550  2.0637
 6647SOL     OW31402   2.388   0.275  16.477 -0.2832 -0.2627 -0.7462
 6647SOL    HW131403   2.428   0.360  16.459 -0.4378  0.1918  1.0601
 6647SOL    HW231404   2.294   0.290  16.464 -0.1946 -0.9916 -2.2166
 6648SOL     OW31405   4.542   3.380  16.435 -0.1885  0.1889  0.0623
 6648SOL    HW131406   4.636   3.395  16.419  0.4101 -1.6399  1.8819
 6648SOL    HW231407   4.523   3.388  16.341  0.5572 -0.9022 -0.1815
 6649SOL     OW31408   1.276   2.112  10.287  0.1158 -0.4426 -0.4507
 6649SOL    HW131409   1.364   2.150  10.283 -0.7846  1.6207 -0.9160
 6649SOL    HW231410   1.300   2.020  10.282  1.7954 -0.1794  2.8509
 6650SOL     OW31411   1.012   3.580   2.868 -0.1029  0.4927  0.2495
 6650SOL    HW131412   0.928   3.626   2.860  0.4235  1.3055 -0.6067
 6650SOL    HW231413   1.074   3.644   2.835  0.4953  0.4276  1.2548
 6651SOL     OW31414   0.518   2.722   2.310  0.2420  0.2034 -0.5807
 6651SOL    HW131415   0.584   2.677   2.363  0.6650  1.4518 -0.0591
 6651SOL    HW231416   0.540   2.674   2.230 -0.4451 -2.6778  0.9742
 6652SOL     OW31417   1.770   2.153   8.922  0.0150 -0.1171  0.3820
 6652SOL    HW131418   1.806   2.207   8.852  0.0457 -2.2164 -1.2514
 6652SOL    HW231419   1.827   2.174   8.995  0.9665  0.2659 -0.4752
 6653SOL     OW31420   2.497   2.751  11.154  0.0936 -0.2324 -0.2985
 6653SOL    HW131421   2.437   2.706  11.095 -1.0760  2.1632 -0.9360
 6653SOL    HW231422   2.502   2.836  11.109  0.9311 -0.1213  0.0208
 6654SOL     OW31423   3.039   2.298   2.662 -0.4931  0.4981 -0.1253
 6654SOL    HW131424   2.972   2.301   2.731  0.9885 -1.0680  1.3767
 6654SOL    HW231425   2.998   2.236   2.603 -0.3222 -0.5839  0.8802
 6655SOL     OW31426   0.371   3.456  11.969  0.7182  0.0598 -0.4143
 6655SOL    HW131427   0.400   3.393  12.034 -2.5085 -1.4232 -0.4309
 6655SOL    HW231428   0.451   3.510  11.970 -0.0020  1.1626 -1.4642
 6656SOL     OW31429   1.490   1.503   8.989 -0.7089  0.1420 -0.4911
 6656SOL    HW131430   1.539   1.566   8.936  0.7978 -2.2122 -1.8737
 6656SOL    HW231431   1.550   1.479   9.060 -0.0607 -0.5441 -1.2616
 6657SOL     OW31432   1.472   2.950  10.074 -0.0943 -0.1354 -0.0003
 6657SOL    HW131433   1.419   2.886  10.027  1.3286 -1.2002 -0.1838
 6657SOL    HW231434   1.540   2.948  10.006 -1.2910 -0.1460 -1.1884
 6658SOL     OW31435   2.253   4.700   9.215  0.1609  0.3312  0.2835
 6658SOL    HW131436   2.229   4.684   9.123  1.3419  0.9047 -0.1224
 6658SOL    HW231437   2.167   4.711   9.255 -0.0692  0.9038 -0.3670
 6659SOL     OW31438   1.793   3.607  11.075  0.3031 -0.6870 -0.2835
 6659SOL    HW131439   1.706   3.573  11.099  1.2104 -1.6945  1.6039
 6659SOL    HW231440   1.848   3.550  11.128 -1.3234 -0.3730  1.7670
 6660SOL     OW31441   0.899   3.637  13.813  0.4265 -0.1093 -0.0968
 6660SOL    HW131442   0.867   3.724  13.788  3.2427  0.7826 -0.6513
 6660SOL    HW231443   0.819   3.588  13.797 -0.4938  0.7917  1.7250
 6661SOL     OW31444   2.603   4.176  10.313 -0.2173  0.1033 -0.0635
 6661SOL    HW131445   2.685   4.202  10.354  0.4123  2.8309 -3.1166
 6661SOL    HW231446   2.546   4.250  10.337  0.1365  0.7754 -1.2874
 6662SOL     OW31447   1.322   2.667   9.997 -0.1447 -0.2059  0.1539
 6662SOL    HW131448   1.285   2.643  10.082  0.0703  0.8707  0.5448
 6662SOL    HW231449   1.391   2.601   9.988 -0.8740 -1.2259  1.9091
 6663SOL     OW31450   0.472   3.257  13.090 -0.1841 -0.1068  0.1196
 6663SOL    HW131451   0.560   3.289  13.068 -1.0734  0.6443 -2.3470
 6663SOL    HW231452   0.431   3.341  13.111 -1.0447 -0.8050  1.2400
 6664SOL     OW31453   3.370   3.086   6.939  0.5907 -0.1846  0.5595
 6664SOL    HW131454   3.423   3.087   6.859  1.5420  0.2414  1.1948
 6664SOL    HW231455   3.299   3.148   6.922 -0.4152 -1.2923  0.7530
 6665SOL     OW31456   1.967   3.390   9.030  0.4062 -0.1188  0.1630
 6665SOL    HW131457   2.029   3.357   8.965  0.8452  1.9198 -0.4881
 6665SOL    HW231458   2.017   3.453   9.082  0.4180 -0.4495  0.5441
 6666SOL     OW31459   1.799   2.743   7.093 -0.1374  1.1231 -0.4631
 6666SOL    HW131460   1.710   2.710   7.099  1.4318 -3.0429 -0.1657
 6666SOL    HW231461   1.783   2.833   7.065  0.4428  1.3174 -0.1741
 6667SOL     OW31462   2.508   2.881   2.599 -0.2513  0.2071 -0.2843
 6667SOL    HW131463   2.527   2.811   2.536  1.1973 -0.5477  0.9910
 6667SOL    HW231464   2.537   2.958   2.549  0.7620  0.6188  0.9487
 6668SOL     OW31465   1.173   2.589   9.210  0.3409  0.0553 -1.3076
 6668SOL    HW131466   1.121   2.651   9.261 -0.2046 -2.0268  0.6620
 6668SOL    HW231467   1.165   2.515   9.269 -1.1422  0.1702 -1.3609
 6669SOL     OW31468   1.919   2.283  12.973 -0.9928  0.3225  0.1876
 6669SOL    HW131469   1.960   2.292  12.887 -2.0639  1.6187 -0.1855
 6669SOL    HW231470   1.876   2.365  12.996 -0.3724  0.8540 -0.5261
 6670SOL     OW31471   2.479   3.773   8.146 -0.3640  0.3481  0.1499
 6670SOL    HW131472   2.402   3.735   8.188  0.0381  0.4202  0.9604
 6670SOL    HW231473   2.513   3.828   8.216  0.1489  3.0124 -2.1686
 6671SOL     OW31474   3.519   0.227   2.600 -0.1538 -0.8547 -0.2696
 6671SOL    HW131475   3.566   0.261   2.524  0.0349  0.0452  0.2476
 6671SOL    HW231476   3.567   0.145   2.617 -0.8295 -1.4596 -1.3171
 6672SOL     OW31477   2.503   3.275   7.754  0.3912  0.3391 -0.1979
 6672SOL    HW131478   2.588   3.320   7.757  0.4689  0.2127 -0.5054
 6672SOL    HW231479   2.484   3.250   7.844 -0.9808 -0.2331 -0.6518
 6673SOL     OW31480   0.627   3.225   7.955  0.0430  0.2355  0.4716
 6673SOL    HW131481   0.586   3.185   7.879 -1.5052  3.0198 -0.1687
 6673SOL    HW231482   0.719   3.235   7.930 -0.9758 -0.2904 -3.3905
 6674SOL     OW31483   0.788   2.782   3.091  0.2427 -0.3744  0.3484
 6674SOL    HW131484   0.871   2.782   3.045  0.0675 -0.8631  0.0293
 6674SOL    HW231485   0.725   2.803   3.022 -1.0231 -1.4011  1.1857
 6675SOL     OW31486   3.131   0.242   8.037  0.2101  0.3491 -0.2840
 6675SOL    HW131487   3.100   0.330   8.061  2.6150  1.6305 -1.9046
 6675SOL    HW231488   3.107   0.200   8.119  0.5061 -0.1855 -0.4710
 6676SOL     OW31489   1.669   0.180  13.237  0.2238  0.4942  0.3084
 6676SOL    HW131490   1.622   0.232  13.302  2.4078  0.5074  1.8296
 6676SOL    HW231491   1.742   0.147  13.288  1.7702  0.1060 -2.1770
 6677SOL     OW31492   4.679   3.683   0.564 -0.8748  0.1897 -0.1396
 6677SOL    HW131493   4.608   3.624   0.589  0.4914 -1.7201 -0.8331
 6677SOL    HW231494   0.014   3.672   0.641 -3.5612 -2.2357  1.4350
 6678SOL     OW31495   0.780   1.074   8.794 -0.3032 -0.2535  0.1720
 6678SOL    HW131496   0.802   1.134   8.723 -1.8226 -0.0959 -0.1839
 6678SOL    HW231497   0.689   1.101   8.806 -0.2045 -0.5335  1.4996
 6679SOL     OW31498   3.230   2.950   3.833 -0.2103 -0.9410  0.2449
 6679SOL    HW131499   3.256   2.869   3.877 -1.7961 -1.4208  0.2698
 6679SOL    HW231500   3.296   2.961   3.764  1.0269  1.3595  1.8028
 6680SOL     OW31501   0.447   3.447  15.784  0.3019 -0.0053 -0.0152
 6680SOL    HW131502   0.445   3.355  15.809  1.9420 -0.3989 -1.3781
 6680SOL    HW231503   0.533   3.467  15.819  0.1687  1.9237 -0.7455
 6681SOL     OW31504   1.421   0.775   6.373  0.1317  0.5690  0.1316
 6681SOL    HW131505   1.505   0.822   6.377  0.4470  0.0925 -0.8313
 6681SOL    HW231506   1.444   0.711   6.306  0.8433  0.7622  0.1910
 6682SOL     OW31507   2.913   3.069   6.616  0.0208 -0.0684  0.7279
 6682SOL    HW131508   2.909   3.138   6.682 -1.6139 -0.4104  0.9927
 6682SOL    HW231509   2.963   3.107   6.543 -0.5817 -0.9155 -0.1274
 6683SOL     OW31510   3.108   0.009  15.690  0.3041  0.1006  0.3003
 6683SOL    HW131511   3.114   0.040  15.781 -0.0810 -2.1978  1.1105
 6683SOL    HW231512   3.116   4.635  15.706 -2.4875 -0.1908 -0.0524
 6684SOL     OW31513   3.698   0.329  16.993 -0.1537 -0.3453  0.2850
 6684SOL    HW131514   3.693   0.350  16.900  1.6921 -1.6254 -0.1137
 6684SOL    HW231515   3.780   0.375  17.014 -0.5624  0.7179 -0.4458
 6685SOL     OW31516   3.901   4.208  11.941 -0.4782 -0.2534  0.1154
 6685SOL    HW131517   3.932   4.227  12.030  0.4074  2.3205 -0.7331
 6685SOL    HW231518   3.816   4.169  11.962 -0.8255  0.4539  0.0456
 6686SOL     OW31519   3.403   2.508   4.773 -0.3847  0.3063  0.3959
 6686SOL    HW131520   3.414   2.485   4.680 -0.9587 -1.1608  0.6900
 6686SOL    HW231521   3.447   2.435   4.816 -0.7873 -1.5586 -2.3204
 6687SOL     OW31522   0.542   1.160  10.619 -0.3738  0.2482 -0.1840
 6687SOL    HW131523   0.542   1.180  10.713 -0.7395 -0.4267 -0.0439
 6687SOL    HW231524   0.520   1.246  10.584  1.0303  0.6049 -0.1736
 6688SOL     OW31525   2.089   1.149  11.684  0.3015  0.1257  0.0257
 6688SOL    HW131526   2.010   1.199  11.703  0.4033  0.0982  0.5151
 6688SOL    HW231527   2.073   1.072  11.738  0.2550  0.0095 -0.1535
 6689SOL     OW31528   3.101   2.155   2.920  0.6535  0.1636  0.0801
 6689SOL    HW131529   3.021   2.190   2.961 -1.4272 -1.1645 -2.8087
 6689SOL    HW231530   3.060   2.134   2.836  1.5299 -0.6160 -0.1554
 6690SOL     OW31531   0.304   3.410  17.580 -0.0838  0.4579  0.3999
 6690SOL    HW131532   0.271   3.407  17.670  0.5839  2.2423  0.6998
 6690SOL    HW231533   0.385   3.458  17.598  0.0331 -0.6431  2.7266
 6691SOL     OW31534   1.616   0.535   5.594 -0.6401 -0.6233 -0.2700
 6691SOL    HW131535   1.522   0.536   5.608 -1.0745 -2.4188 -2.9057
 6691SOL    HW231536   1.631   0.555   5.502 -0.7044 -1.9707 -0.5844
 6692SOL     OW31537   3.855   0.486  17.212 -0.0115  0.1078  0.0333
 6692SOL    HW131538   3.792   0.532  17.267  0.6124 -0.1401  0.9414
 6692SOL    HW231539   3.866   0.544  17.136  3.0579 -0.0348  0.3855
 6693SOL     OW31540   2.902   1.834  14.246 -0.5527  0.3050  0.6040
 6693SOL    HW131541   2.966   1.767  14.222  0.8194  2.0615 -0.5836
 6693SOL    HW231542   2.822   1.783  14.257 -0.2224 -0.2668  0.3540
 6694SOL     OW31543   1.517   2.064   6.422  0.6157 -0.1447 -0.3086
 6694SOL    HW131544   1.597   2.047   6.371  1.2757  1.3014  0.2438
 6694SOL    HW231545   1.459   1.993   6.395 -0.2078  0.7881 -0.9605
 6695SOL     OW31546   0.753   4.097  14.230 -0.1067 -0.3932 -0.2329
 6695SOL    HW131547   0.803   4.142  14.162 -1.9796 -0.9951 -2.0203
 6695SOL    HW231548   0.821   4.048  14.275  0.5831  0.5033 -0.2899
 6696SOL     OW31549   1.430   0.335   8.705  0.4794 -0.1486 -0.0622
 6696SOL    HW131550   1.347   0.340   8.752 -0.0234 -0.2042 -0.9551
 6696SOL    HW231551   1.411   0.408   8.646  0.1285  0.5456  0.9038
 6697SOL     OW31552   0.581   4.142   6.238  0.6841  0.1187  0.2076
 6697SOL    HW131553   0.609   4.068   6.183  1.9122  0.9557 -0.3015
 6697SOL    HW231554   0.494   4.168   6.209  0.6953 -1.4570 -1.2159
 6698SOL     OW31555   0.511   4.214  14.091  0.7592 -0.5682 -0.4475
 6698SOL    HW131556   0.551   4.154  14.153 -0.4570  0.2747  1.1530
 6698SOL    HW231557   0.438   4.256  14.137  0.8878 -0.3376 -0.4509
 6699SOL     OW31558   1.035   4.084  16.172 -0.2169 -0.2020  0.1755
 6699SOL    HW131559   0.969   4.136  16.219  1.1484  0.6719  1.1333
 6699SOL    HW231560   0.979   4.007  16.163  0.0362 -0.6735  2.7362
 6700SOL     OW31561   0.271   3.900   0.380  0.1829  0.3076  0.1929
 6700SOL    HW131562   0.212   3.964   0.340 -0.0599  0.8469  1.4289
 6700SOL    HW231563   0.265   3.912   0.475 -1.1789  1.5890 -0.0658
 6701SOL     OW31564   2.424   1.600   9.829  0.6043  0.2373  0.5018
 6701SOL    HW131565   2.373   1.604   9.910 -0.2955 -0.4903 -0.0288
 6701SOL    HW231566   2.386   1.523   9.787 -2.0796  2.4825 -1.1750
 6702SOL     OW31567   3.930   0.311  12.940  0.0621  0.3483  0.1473
 6702SOL    HW131568   3.860   0.346  12.996  1.2988  0.3398  1.6915
 6702SOL    HW231569   4.001   0.366  12.973 -0.7556  1.0029  0.8240
 6703SOL     OW31570   3.957   4.264   4.477  0.2394 -0.0366 -0.5493
 6703SOL    HW131571   3.923   4.293   4.562 -0.6670  0.0961 -0.9599
 6703SOL    HW231572   4.002   4.346   4.458 -1.8701  1.6006  1.4991
 6704SOL     OW31573   1.824   4.306   3.061 -0.2714  0.1966 -0.4081
 6704SOL    HW131574   1.919   4.295   3.067 -0.4019 -1.2654 -1.1665
 6704SOL    HW231575   1.795   4.217   3.080 -1.8924  0.8983  0.4196
 6705SOL     OW31576   3.128   3.522   7.060  0.3617 -0.5706  0.5175
 6705SOL    HW131577   3.171   3.528   7.145  1.1559  0.2404  0.0564
 6705SOL    HW231578   3.044   3.563   7.081  1.1463  1.6074 -0.5948
 6706SOL     OW31579   1.845   2.900  16.187 -0.1078  0.0701  0.1323
 6706SOL    HW131580   1.857   2.877  16.095 -2.1857 -0.8022  0.0879
 6706SOL    HW231581   1.760   2.866  16.215  0.9599 -1.1512  1.8931
 6707SOL     OW31582   2.771   0.678   3.292  0.0246 -0.0760  0.1041
 6707SOL    HW131583   2.828   0.606   3.319  0.8501 -0.6399 -3.1731
 6707SOL    HW231584   2.696   0.668   3.351 -1.6807  1.7183 -1.7785
 6708SOL     OW31585   2.682   4.646   9.307  0.3729  0.2178  0.3548
 6708SOL    HW131586   2.674   4.718   9.370 -0.7490 -0.0215  0.4822
 6708SOL    HW231587   2.687   4.694   9.225 -0.8303  0.1412  0.2379
 6709SOL     OW31588   1.272   1.973   6.889 -0.0777  0.0322 -0.2278
 6709SOL    HW131589   1.340   1.983   6.822 -0.8976  1.9689 -0.7764
 6709SOL    HW231590   1.247   1.881   6.879 -1.4783  0.4906 -0.9224
 6710SOL     OW31591   3.195   1.582   2.591  0.3329  0.1310  0.4094
 6710SOL    HW131592   3.105   1.565   2.564  0.5598 -0.4986  0.0573
 6710SOL    HW231593   3.227   1.596   2.502 -1.7056  1.0727 -0.1836
 6711SOL     OW31594   1.394   2.045   5.426  0.2895 -0.2550  0.2415
 6711SOL    HW131595   1.334   2.066   5.354 -0.5745  0.7181  1.2434
 6711SOL    HW231596   1.441   1.968   5.395  2.5048  1.5060 -0.8225
 6712SOL     OW31597   2.389   1.653  14.375 -0.6431 -0.1607 -0.1995
 6712SOL    HW131598   2.390   1.648  14.470 -2.5054 -0.6147 -0.2025
 6712SOL    HW231599   2.389   1.560  14.352  1.3467  0.1527 -1.4738
 6713SOL     OW31600   1.643   2.732   3.962 -0.3100 -0.1486  0.2753
 6713SOL    HW131601   1.713   2.702   4.020 -0.8108  0.9136  1.4200
 6713SOL    HW231602   1.600   2.792   4.023 -0.2105  1.9719 -1.7487
 6714SOL     OW31603   0.163   3.318  11.785  0.4070 -0.1921 -0.2453
 6714SOL    HW131604   0.094   3.268  11.741  2.8033 -1.3717 -2.6670
 6714SOL    HW231605   0.240   3.268  11.757  0.9436  0.4376  0.1083
 6715SOL     OW31606   1.820   0.955   4.076 -0.0229 -0.1544 -0.0618
 6715SOL    HW131607   1.816   0.931   3.983 -1.5607  0.7138 -0.2140
 6715SOL    HW231608   1.758   0.896   4.118  2.0968 -1.8854  0.6350
 6716SOL     OW31609   3.224   3.592  11.197  0.1575 -0.0074 -0.5916
 6716SOL    HW131610   3.156   3.654  11.170  0.9038  0.9871 -0.2095
 6716SOL    HW231611   3.307   3.632  11.170 -0.4552  0.5470 -1.6569
 6717SOL     OW31612   4.249   0.886   4.791  0.3578  0.3758 -0.7025
 6717SOL    HW131613   4.293   0.962   4.754 -0.8271  0.9404 -0.9302
 6717SOL    HW231614   4.197   0.846   4.721  0.9659 -0.3035 -0.7651
 6718SOL     OW31615   1.936   3.578   4.517  0.6217 -0.0131 -0.0820
 6718SOL    HW131616   2.005   3.549   4.458 -0.4017 -1.0864 -0.7363
 6718SOL    HW231617   1.872   3.598   4.448  1.7887  2.4339 -0.4382
 6719SOL     OW31618   3.998   1.586   4.610  0.1552 -0.4499 -0.2841
 6719SOL    HW131619   4.072   1.616   4.558 -0.4164 -1.1759 -1.5154
 6719SOL    HW231620   3.926   1.623   4.558  2.9752  0.6038 -3.4093
 6720SOL     OW31621   2.626   4.502   6.072  0.0940  0.8899 -0.5070
 6720SOL    HW131622   2.562   4.521   6.140 -1.9269 -1.8809 -1.6302
 6720SOL    HW231623   2.711   4.482   6.110  0.1400  0.7617 -0.6779
 6721SOL     OW31624   0.562   3.653   7.360  0.0565  0.1226  0.0780
 6721SOL    HW131625   0.612   3.618   7.286  3.3219  0.4294  2.1248
 6721SOL    HW231626   0.502   3.582   7.382  0.2967  0.6012  2.3460
 6722SOL     OW31627   2.438   4.360   1.950  0.2514  0.2556  0.0370
 6722SOL    HW131628   2.408   4.419   2.019  0.8188 -0.3816  0.8204
 6722SOL    HW231629   2.501   4.308   1.999  1.4267  0.1743 -1.5457
 6723SOL     OW31630   0.115   3.918   3.973 -0.0921 -0.1025  0.4413
 6723SOL    HW131631   0.151   4.000   4.007 -0.2620  1.0282 -2.1134
 6723SOL    HW231632   0.027   3.950   3.952  0.2714  1.6960  1.6950
 6724SOL     OW31633   1.558   3.347   4.635  0.3076  0.1022 -0.3693
 6724SOL    HW131634   1.580   3.256   4.617 -1.0887 -0.3389  0.1334
 6724SOL    HW231635   1.462   3.345   4.637  0.3093 -0.6190 -0.7534
 6725SOL     OW31636   4.406   3.217   5.865  0.1266  0.2105  0.6020
 6725SOL    HW131637   4.320   3.239   5.900  0.6241  1.1033  1.2563
 6725SOL    HW231638   4.462   3.254   5.934 -0.1557  0.6946  0.5666
 6726SOL     OW31639   0.676   0.487   9.306 -0.0527 -0.4141  0.3362
 6726SOL    HW131640   0.658   0.415   9.366 -1.4870 -1.8765 -1.8621
 6726SOL    HW231641   0.608   0.550   9.331 -0.8485 -0.5634 -1.4320
 6727SOL     OW31642   4.143   3.046  10.656  0.6853  0.1089  0.4996
 6727SOL    HW131643   4.106   3.133  10.665 -0.8145 -0.5579  0.7042
 6727SOL    HW231644   4.066   2.992  10.639  1.5250 -0.7887 -0.5154
 6728SOL     OW31645   1.618   1.796   5.103  0.2834  0.1907 -0.2472
 6728SOL    HW131646   1.670   1.752   5.035  0.3692 -0.5566  0.3064
 6728SOL    HW231647   1.539   1.741   5.102  1.2748 -1.2341 -1.1483
 6729SOL     OW31648   2.393   4.020   2.379 -0.4349 -0.1663 -0.4239
 6729SOL    HW131649   2.436   4.026   2.464 -0.5233 -1.8639 -0.2600
 6729SOL    HW231650   2.416   4.102   2.336  0.8810 -0.7867 -0.8962
 6730SOL     OW31651   2.989   3.200  11.594  0.4589 -0.1266 -0.2054
 6730SOL    HW131652   2.991   3.203  11.498  1.2623 -0.1645 -0.1840
 6730SOL    HW231653   2.894   3.194  11.606  0.8174 -1.1370  2.1016
 6731SOL     OW31654   4.191   3.353   6.007  0.2127 -0.0223  0.0206
 6731SOL    HW131655   4.182   3.401   5.925  2.4307  2.5688  1.2884
 6731SOL    HW231656   4.168   3.421   6.070  1.1941  0.2124  0.1284
 6732SOL     OW31657   1.340   4.049   8.856  0.1589 -0.5887 -0.1155
 6732SOL    HW131658   1.430   4.018   8.863  0.9992  2.1826  1.4039
 6732SOL    HW231659   1.326   4.137   8.891  0.3380 -1.5065  2.2382
 6733SOL     OW31660   2.789   3.254   8.215  0.1901 -0.1928  0.6731
 6733SOL    HW131661   2.842   3.241   8.293 -1.7650 -0.9318  1.8720
 6733SOL    HW231662   2.761   3.345   8.222  0.0614 -0.2685  1.1134
 6734SOL     OW31663   1.593   4.315   0.579  0.4193  0.8291 -0.0116
 6734SOL    HW131664   1.618   4.404   0.555 -0.2942  0.5316 -1.8582
 6734SOL    HW231665   1.670   4.262   0.560  0.2804 -0.5150  3.2080
 6735SOL     OW31666   0.875   3.942   6.162 -0.0356  0.0224  0.2037
 6735SOL    HW131667   0.784   3.926   6.188  0.4947 -0.5511  1.6648
 6735SOL    HW231668   0.870   3.897   6.078  2.0015 -2.0299  1.2061
 6736SOL     OW31669   0.645   0.697   6.090  0.2153  0.0304 -0.3532
 6736SOL    HW131670   0.593   0.741   6.157  0.6660 -0.1165  0.0972
 6736SOL    HW231671   0.670   0.616   6.133 -2.2311 -0.6076 -0.1527
 6737SOL     OW31672   2.955   2.883   7.186 -0.8927 -0.0818 -0.5527
 6737SOL    HW131673   2.999   2.959   7.148 -0.9890  1.0403  1.5968
 6737SOL    HW231674   2.920   2.916   7.269  2.1774  0.8506  0.3781
 6738SOL     OW31675   0.707   3.979  15.508  0.8185  0.4816 -0.4133
 6738SOL    HW131676   0.617   3.947  15.513  1.2266 -0.6067  0.1246
 6738SOL    HW231677   0.711   4.031  15.428 -0.6620  0.3971 -0.5519
 6739SOL     OW31678   4.529   4.310   2.211 -0.9405  0.0766  0.0928
 6739SOL    HW131679   4.537   4.322   2.116  2.4114 -1.4976  0.1653
 6739SOL    HW231680   4.466   4.380   2.228 -1.1082 -0.0097 -0.1670
 6740SOL     OW31681   1.991   3.989   0.294 -0.1338  0.2312  0.2255
 6740SOL    HW131682   1.912   3.954   0.253  1.3435 -0.2623 -2.2746
 6740SOL    HW231683   2.003   3.924   0.363  2.1740 -1.9146 -2.1721
 6741SOL     OW31684   1.516   0.271  12.758 -0.0929  0.1697 -0.1197
 6741SOL    HW131685   1.539   0.310  12.842  0.6987 -0.1190 -0.2038
 6741SOL    HW231686   1.427   0.306  12.752  0.4978  1.6902 -0.0350
 6742SOL     OW31687   2.734   2.208  11.343  0.0330  0.8152  0.2691
 6742SOL    HW131688   2.779   2.130  11.310  0.0294  1.3243 -0.9530
 6742SOL    HW231689   2.775   2.206  11.429  2.5944 -0.5112 -0.9841
 6743SOL     OW31690   1.426   4.004   5.551 -0.1499 -0.8194 -0.2003
 6743SOL    HW131691   1.471   4.014   5.468 -0.6621  0.8899 -0.2841
 6743SOL    HW231692   1.480   4.056   5.611  0.8705 -1.2106 -0.7893
 6744SOL     OW31693   4.081   2.171   4.303 -0.1517  0.0442 -0.6804
 6744SOL    HW131694   4.006   2.161   4.245 -1.3861 -0.1638  0.9434
 6744SOL    HW231695   4.034   2.226   4.366 -1.4501  0.4284 -2.0062
 6745SOL     OW31696   3.699   4.515  12.635  0.2871  0.1326  0.0451
 6745SOL    HW131697   3.631   4.519  12.567  1.0534 -2.6058 -0.8947
 6745SOL    HW231698   3.768   4.557  12.584 -0.3817 -0.3580 -1.2862
 6746SOL     OW31699   0.106   4.428   7.506 -0.2193  0.5774  0.2509
 6746SOL    HW131700   0.111   4.515   7.546 -0.2946  1.8618 -2.5404
 6746SOL    HW231701   0.061   4.373   7.570  0.9442 -2.4234 -1.5144
 6747SOL     OW31702   1.972   2.962   5.152 -0.0142  0.0400  0.2681
 6747SOL    HW131703   2.008   2.873   5.158  0.4498  0.1143 -1.3721
 6747SOL    HW231704   1.878   2.949   5.162 -0.2483 -0.2865 -2.2203
 6748SOL     OW31705   1.404   0.026   1.799 -0.2884  0.7783  0.1121
 6748SOL    HW131706   1.346   4.691   1.747 -2.0747  0.2342  2.6689
 6748SOL    HW231707   1.455   0.059   1.725  1.3100 -1.7605  0.0848
 6749SOL     OW31708   2.160   2.702   6.631  0.0662  0.3596  0.1696
 6749SOL    HW131709   2.235   2.681   6.685  0.6120  0.6026 -0.4939
 6749SOL    HW231710   2.104   2.750   6.693 -0.2191  0.0735  0.1345
 6750SOL     OW31711   4.202   3.847   9.080  0.3692 -0.5119 -0.1864
 6750SOL    HW131712   4.169   3.757   9.072 -0.4917 -0.0419 -2.0739
 6750SOL    HW231713   4.247   3.837   9.164  0.8149 -2.4094 -0.6550
 6751SOL     OW31714   4.695   0.752  12.634 -0.9171 -0.3006  0.2048
 6751SOL    HW131715   0.063   0.764  12.601 -2.4352 -0.8852 -3.9876
 6751SOL    HW231716   4.656   0.678  12.589 -2.6364  1.0072 -0.4569
 6752SOL     OW31717   1.551   4.096   3.229  0.6052 -0.7669 -0.0933
 6752SOL    HW131718   1.612   4.073   3.159  0.9828 -1.6288  0.5197
 6752SOL    HW231719   1.610   4.084   3.304 -0.4234 -0.3915  0.7774
 6753SOL     OW31720   4.709   2.788   4.654  0.3654  0.1258  0.7256
 6753SOL    HW131721   0.038   2.862   4.689 -0.7097  1.6561 -1.0536
 6753SOL    HW231722   4.620   2.809   4.684 -0.5187  0.1516 -1.9648
 6754SOL     OW31723   4.146   3.755   2.804 -0.4498 -0.5989  0.0332
 6754SOL    HW131724   4.090   3.833   2.810 -2.6497 -2.1671  0.2808
 6754SOL    HW231725   4.119   3.709   2.884  0.2006  1.1335  1.2661
 6755SOL     OW31726   2.818   1.986  15.196  0.3411  0.1479 -0.6405
 6755SOL    HW131727   2.744   2.040  15.222  0.2948 -0.2583  0.0755
 6755SOL    HW231728   2.782   1.898  15.203  0.5261  0.3496  2.8213
 6756SOL     OW31729   2.515   2.730  16.679  0.2814  0.2797  0.1359
 6756SOL    HW131730   2.556   2.686  16.604 -0.8761 -1.1899  0.3672
 6756SOL    HW231731   2.586   2.717  16.743  0.5625  0.9358 -0.0415
 6757SOL     OW31732   3.791   3.345   9.495 -0.9281  0.0892  0.4448
 6757SOL    HW131733   3.729   3.279   9.464 -0.1917 -0.4634  0.1495
 6757SOL    HW231734   3.838   3.358   9.412 -1.6481 -0.1065  0.0116
 6758SOL     OW31735   0.794   1.130  17.155 -0.3230  0.3721 -0.1872
 6758SOL    HW131736   0.720   1.074  17.177 -1.6271  1.7284 -1.0959
 6758SOL    HW231737   0.864   1.068  17.136  0.0052  0.1899  1.6828
 6759SOL     OW31738   1.449   0.167   7.072  0.4540 -0.2341  0.1356
 6759SOL    HW131739   1.356   0.184   7.057  0.6863  0.8904 -0.0342
 6759SOL    HW231740   1.483   0.256   7.060 -0.5882  0.1759  0.2701
 6760SOL     OW31741   3.388   0.215   4.116 -0.4413 -0.9588 -0.1317
 6760SOL    HW131742   3.447   0.144   4.092 -0.0621 -1.4783  2.3351
 6760SOL    HW231743   3.444   0.248   4.186 -2.0768  2.1933 -0.3404
 6761SOL     OW31744   1.305   2.112   2.566 -0.2365 -0.2827 -0.6606
 6761SOL    HW131745   1.375   2.064   2.522 -1.0760 -2.4590  0.3707
 6761SOL    HW231746   1.350   2.175   2.623 -1.2857 -1.0554  1.0222
 6762SOL     OW31747   1.728   3.752   1.532  0.5281 -0.4208  0.3489
 6762SOL    HW131748   1.772   3.706   1.604  0.7853  0.5905  0.8293
 6762SOL    HW231749   1.782   3.726   1.457 -0.2049  1.0836 -0.6850
 6763SOL     OW31750   2.929   1.104   3.217  0.4830 -0.0142 -0.2109
 6763SOL    HW131751   2.889   1.186   3.188 -0.3556  0.4633  2.2530
 6763SOL    HW231752   2.904   1.046   3.146 -0.6182 -0.2988  0.4122
 6764SOL     OW31753   4.654   2.028  15.323 -0.4410 -0.4170  0.6667
 6764SOL    HW131754   0.003   1.988  15.271 -2.3253 -0.9114 -1.4196
 6764SOL    HW231755   4.593   1.955  15.323 -0.2907 -0.5440  0.7122
 6765SOL     OW31756   0.914   4.226   9.298 -0.1424 -0.6103  0.0548
 6765SOL    HW131757   0.899   4.137   9.330  0.1771 -0.9273 -0.6797
 6765SOL    HW231758   0.863   4.281   9.358  0.0722  0.4819 -0.7649
 6766SOL     OW31759   0.625   0.004   2.602 -0.0780 -0.3771  0.1597
 6766SOL    HW131760   0.639   0.028   2.510  0.1223 -0.7501  0.0924
 6766SOL    HW231761   0.712   4.697   2.631  0.4480  1.2679  0.1311
 6767SOL     OW31762   4.081   3.577   7.023  0.5323  0.1575  0.5267
 6767SOL    HW131763   4.085   3.672   7.012  1.1042 -0.1498 -2.1494
 6767SOL    HW231764   4.008   3.563   7.083  1.5149 -0.0443  1.6649
 6768SOL     OW31765   2.424   4.645   5.768 -0.1003  0.5972  0.5660
 6768SOL    HW131766   2.343   4.689   5.794  0.3367  1.8880 -0.2378
 6768SOL    HW231767   2.477   4.675   5.842  1.8614 -2.9891  0.6128
 6769SOL     OW31768   4.565   3.984   8.748 -0.2370 -0.1159 -0.4651
 6769SOL    HW131769   4.629   3.941   8.803  1.6133  1.9363 -1.0086
 6769SOL    HW231770   4.550   4.066   8.794  0.4324 -1.1427  1.5482
 6770SOL     OW31771   3.486   3.640  14.880 -0.3579 -0.2763  0.0357
 6770SOL    HW131772   3.545   3.582  14.929 -0.9150  0.0495  1.0835
 6770SOL    HW231773   3.418   3.575  14.860  0.5942 -1.3108  0.1452
 6771SOL     OW31774   1.330   0.479   6.846  0.2475 -0.1023  0.3167
 6771SOL    HW131775   1.282   0.557   6.874  0.4019  0.2088 -0.2852
 6771SOL    HW231776   1.394   0.470   6.916  1.4881 -0.0128 -0.7977
 6772SOL     OW31777   3.359   2.249  15.797  0.0093  0.1439 -0.3365
 6772SOL    HW131778   3.313   2.262  15.879  1.2069  0.2901  0.3159
 6772SOL    HW231779   3.411   2.174  15.824  0.0855 -0.7018 -2.8136
 6773SOL     OW31780   1.619   1.544  13.836  0.0350 -0.5389 -0.4115
 6773SOL    HW131781   1.548   1.596  13.872  0.2303 -1.0445  0.7221
 6773SOL    HW231782   1.572   1.462  13.822  1.7588 -1.6063 -0.0163
 6774SOL     OW31783   0.549   1.755  12.802 -0.4578  0.0278  0.0044
 6774SOL    HW131784   0.571   1.804  12.723  2.8421  0.5175  1.2260
 6774SOL    HW231785   0.635   1.720  12.826 -0.6349  0.0565  0.6803
 6775SOL     OW31786   4.387   4.433   4.463  0.1162 -0.2709  0.1626
 6775SOL    HW131787   4.461   4.376   4.482  1.0675  0.8897 -0.1042
 6775SOL    HW231788   4.435   4.515   4.467  0.6861 -0.6668  1.8097
 6776SOL     OW31789   4.007   4.082   3.302 -0.0244  0.3513  0.0193
 6776SOL    HW131790   4.053   4.142   3.242  0.6065  1.7516  1.9171
 6776SOL    HW231791   3.922   4.125   3.311  0.4101  1.0363  0.8065
 6777SOL     OW31792   0.014   4.394   9.741 -0.2602 -0.2748  0.2691
 6777SOL    HW131793   0.035   4.369   9.831  3.7003 -1.3828 -0.9624
 6777SOL    HW231794   4.645   4.359   9.737 -0.0399 -0.9004  0.8255
 6778SOL     OW31795   1.125   2.064  13.791  0.0545 -0.1312  0.3602
 6778SOL    HW131796   1.162   2.150  13.772  1.4938 -0.8583 -0.1437
 6778SOL    HW231797   1.137   2.005  13.717 -0.3067  0.6029 -0.2790
 6779SOL     OW31798   2.090   0.060   3.100  0.2111 -0.4653 -0.4788
 6779SOL    HW131799   2.178   0.041   3.065 -0.1978 -2.8783 -0.1326
 6779SOL    HW231800   2.088   0.016   3.184  0.8190 -1.7249 -1.1283
 6780SOL     OW31801   0.550   0.599   5.862 -0.2679 -0.0380 -0.1534
 6780SOL    HW131802   0.617   0.538   5.830 -0.3023  0.9064 -1.9982
 6780SOL    HW231803   0.583   0.627   5.947  0.1291 -0.2210 -0.2457
 6781SOL     OW31804   0.222   1.173  14.106  0.1710 -0.0203  0.2723
 6781SOL    HW131805   0.249   1.118  14.179  1.1349  0.5712  0.3693
 6781SOL    HW231806   0.130   1.188  14.125 -0.3441 -1.6517 -1.0152
 6782SOL     OW31807   3.624   1.326  10.458 -0.1136  0.5103 -0.3987
 6782SOL    HW131808   3.597   1.415  10.480  0.9246  0.7409 -0.0509
 6782SOL    HW231809   3.708   1.326  10.505 -0.1887 -3.5835 -0.2592
 6783SOL     OW31810   2.875   3.425   6.509 -0.6599  0.1086  0.1131
 6783SOL    HW131811   2.784   3.418   6.539 -0.3315 -1.5668  0.7413
 6783SOL    HW231812   2.857   3.450   6.419  0.6432  1.6010  0.2755
 6784SOL     OW31813   0.821   3.241   1.848 -0.0098  0.4031 -0.0088
 6784SOL    HW131814   0.912   3.267   1.856  0.0474  0.3855 -0.6358
 6784SOL    HW231815   0.816   3.194   1.765 -0.0338 -2.3578  1.5605
 6785SOL     OW31816   3.247   2.958   4.254  0.4545  0.3782 -0.6714
 6785SOL    HW131817   3.169   2.923   4.297  1.0326  1.2988  1.1212
 6785SOL    HW231818   3.225   3.041   4.213  1.3918  0.4086 -1.1227
 6786SOL     OW31819   4.234   3.442  17.337 -0.2975  0.4598 -0.0842
 6786SOL    HW131820   4.232   3.505  17.410 -1.2277 -0.9329  1.0965
 6786SOL    HW231821   4.267   3.496  17.265  1.1442 -0.3779 -0.0498
 6787SOL     OW31822   0.641   1.073  13.983 -0.3451  0.4880 -0.6125
 6787SOL    HW131823   0.691   1.071  14.064 -3.0496  0.3313  1.0431
 6787SOL    HW231824   0.649   1.159  13.942 -0.1915  0.1598 -1.2691
 6788SOL     OW31825   2.838   2.345   1.589 -0.2285 -0.6169  1.0500
 6788SOL    HW131826   2.764   2.328   1.530  0.8073 -0.8314 -0.1903
 6788SOL    HW231827   2.803   2.410   1.650  0.2592 -0.2122  0.8950
 6789SOL     OW31828   1.282   3.951   7.923 -0.3862 -0.2057  0.2254
 6789SOL    HW131829   1.218   3.880   7.928 -0.0754 -0.4494  0.8076
 6789SOL    HW231830   1.274   3.982   7.833  1.6154 -4.3631 -1.3947
 6790SOL     OW31831   0.216   2.946   5.739  0.5332 -0.0034  0.3679
 6790SOL    HW131832   0.148   2.982   5.682 -0.5840  0.7872  2.1754
 6790SOL    HW231833   0.176   2.864   5.768 -3.5150  2.6282  2.3720
 6791SOL     OW31834   3.719   2.905   8.214  0.3749  0.1344  0.6933
 6791SOL    HW131835   3.762   2.989   8.229  0.1527  0.1348  1.3137
 6791SOL    HW231836   3.625   2.916   8.224  0.1515  0.8453 -2.2067
 6792SOL     OW31837   1.010   3.394   5.697  0.8618  0.5163  0.3442
 6792SOL    HW131838   0.921   3.366   5.677  1.0277 -0.3556  0.8399
 6792SOL    HW231839   1.046   3.386   5.609  0.1430  0.9820  0.0050
 6793SOL     OW31840   3.453   4.492   4.554  0.6061  0.3524  0.5858
 6793SOL    HW131841   3.366   4.524   4.533  0.4874  0.7785  1.7262
 6793SOL    HW231842   3.430   4.435   4.628 -0.3315 -1.2198 -0.9247
 6794SOL     OW31843   2.519   4.395   1.250  0.2535  0.2333  0.0773
 6794SOL    HW131844   2.508   4.305   1.220  0.0849  0.4989 -0.6444
 6794SOL    HW231845   2.522   4.440   1.165  0.8368 -0.5553 -0.3143
 6795SOL     OW31846   4.580   3.668   1.019 -0.0661 -0.6474  0.1744
 6795SOL    HW131847   4.529   3.688   1.098 -2.9845 -2.3778 -1.2563
 6795SOL    HW231848   4.514   3.692   0.954 -1.2159 -2.3900  0.6674
 6796SOL     OW31849   3.809   1.274   6.674  0.5722 -0.8197  1.0965
 6796SOL    HW131850   3.867   1.327   6.619 -1.9959  1.2553  0.3844
 6796SOL    HW231851   3.812   1.191   6.628 -2.4151 -0.5374  0.4304
 6797SOL     OW31852   0.210   0.861  13.880  0.1210  0.1797 -0.0563
 6797SOL    HW131853   0.134   0.907  13.917  1.1985  1.7505  0.2329
 6797SOL    HW231854   0.243   0.794  13.940 -1.2261 -0.0410  0.4572
 6798SOL     OW31855   1.259   1.911   2.916  0.3556  0.0335 -0.0578
 6798SOL    HW131856   1.344   1.867   2.915  1.2347  1.7373 -0.4844
 6798SOL    HW231857   1.246   1.904   3.010  0.0227  1.9691  0.0428
 6799SOL     OW31858   3.541   2.936   2.755  0.0315  0.0194 -0.5870
 6799SOL    HW131859   3.469   2.905   2.810  2.2458 -2.5205  0.9366
 6799SOL    HW231860   3.591   2.854   2.755 -0.1432 -0.0907 -0.0454
 6800SOL     OW31861   4.588   3.362   3.974 -0.7092 -0.2092  0.5107
 6800SOL    HW131862   4.530   3.325   4.041 -0.8228  1.2814  1.2368
 6800SOL    HW231863   4.519   3.360   3.907 -0.5999  0.8755  0.3785
 6801SOL     OW31864   2.307   0.928   8.062  0.4082 -0.3393  0.5110
 6801SOL    HW131865   2.327   0.923   8.155 -3.2425  1.8330  1.3736
 6801SOL    HW231866   2.213   0.932   8.075  0.4556  3.0168 -0.0487
 6802SOL     OW31867   2.163   0.088  12.855  0.1969  0.0305 -0.8846
 6802SOL    HW131868   2.256   0.089  12.832  0.2047  1.8431 -0.8337
 6802SOL    HW231869   2.132   0.011  12.808  1.0590 -0.2910 -0.9243
 6803SOL     OW31870   0.686   1.850  12.563  0.2829  0.1046  0.2470
 6803SOL    HW131871   0.781   1.842  12.556  0.5833  3.6172  0.1183
 6803SOL    HW231872   0.648   1.767  12.535  0.4223  0.6230 -1.4955
 6804SOL     OW31873   0.644   3.243   0.782 -0.3638 -0.4732  0.0091
 6804SOL    HW131874   0.709   3.173   0.796  0.4790  0.6753  1.7760
 6804SOL    HW231875   0.611   3.261   0.870 -1.7024  0.3014 -0.6503
 6805SOL     OW31876   4.084   3.129   6.138 -0.0746 -0.2748  0.5904
 6805SOL    HW131877   4.108   3.202   6.081  2.4006 -0.1173  1.8680
 6805SOL    HW231878   4.171   3.094   6.155 -1.1320 -2.6758  0.9994
 6806SOL     OW31879   2.123   4.703   7.051  0.1274 -0.2900  0.3672
 6806SOL    HW131880   2.082   4.664   6.974 -0.6647  1.5136 -0.1160
 6806SOL    HW231881   2.130   4.627   7.109  3.5877  1.0289  1.6792
 6807SOL     OW31882   2.001   1.903  11.593 -0.3643 -0.0128 -0.2998
 6807SOL    HW131883   2.014   1.992  11.627  0.6240 -0.4156  0.3787
 6807SOL    HW231884   1.908   1.882  11.598 -0.1125 -0.6277  1.8781
 6808SOL     OW31885   1.236   3.891  10.686 -0.0825  0.4213  0.1658
 6808SOL    HW131886   1.240   3.817  10.626 -0.0018 -0.2239  0.9620
 6808SOL    HW231887   1.197   3.836  10.755  0.0983  1.8087  1.3933
 6809SOL     OW31888   2.696   1.389   9.767  0.3123  0.0909  0.3420
 6809SOL    HW131889   2.679   1.480   9.742 -0.7258 -0.1217  0.2796
 6809SOL    HW231890   2.790   1.374   9.759  0.4621  1.5677 -0.6747
 6810SOL     OW31891   1.928   4.551   3.722  0.0954  0.0012  0.1207
 6810SOL    HW131892   1.960   4.577   3.809 -1.6445 -0.5810  0.9330
 6810SOL    HW231893   2.010   4.540   3.676 -1.2869 -1.8956 -1.8717
 6811SOL     OW31894   2.287   4.292   2.539  0.3528  0.0929  0.3655
 6811SOL    HW131895   2.202   4.260   2.571  0.4344  0.2847  0.7791
 6811SOL    HW231896   2.290   4.388   2.547 -0.6981 -0.2583  4.8085
 6812SOL     OW31897   0.448   2.073   3.393  0.5476  0.8758 -0.0219
 6812SOL    HW131898   0.398   2.038   3.320 -0.6512 -1.9647  2.1545
 6812SOL    HW231899   0.522   2.110   3.345 -0.2658  1.3389 -0.9148
 6813SOL     OW31900   4.273   2.350   5.877  0.3506 -0.1056  0.2350
 6813SOL    HW131901   4.188   2.309   5.895 -0.7606  1.8274 -0.6566
 6813SOL    HW231902   4.262   2.407   5.801  3.7911 -0.9000 -0.8614
 6814SOL     OW31903   2.824   2.822   9.591 -0.6939  0.1017 -0.2174
 6814SOL    HW131904   2.734   2.828   9.626 -0.9887  0.8285 -1.1140
 6814SOL    HW231905   2.878   2.848   9.666 -2.5069  1.3542  0.6593
 6815SOL     OW31906   3.914   3.156   7.706  0.0164 -0.2903  0.2596
 6815SOL    HW131907   3.823   3.186   7.703 -0.0438 -0.6278 -1.0246
 6815SOL    HW231908   3.928   3.147   7.801  0.6889 -1.0161  0.0839
 6816SOL     OW31909   4.642   0.010   2.727 -0.7805 -0.8528  0.1126
 6816SOL    HW131910   4.593   4.673   2.786  0.2633 -0.3962  1.4243
 6816SOL    HW231911   4.634   4.688   2.641 -1.5175 -0.3606 -0.0554
 6817SOL     OW31912   1.637   0.603   9.584 -1.0911 -0.2470  0.9176
 6817SOL    HW131913   1.703   0.644   9.641 -0.4428  1.3607 -0.9877
 6817SOL    HW231914   1.561   0.657   9.601 -1.3315 -0.1722 -0.4044
 6818SOL     OW31915   2.273   0.872   6.201 -0.1460 -0.0428  0.4659
 6818SOL    HW131916   2.284   0.869   6.296 -0.4448 -0.2568  0.4924
 6818SOL    HW231917   2.360   0.867   6.161 -0.8441  0.9601 -1.1703
 6819SOL     OW31918   0.540   0.999   5.109  1.0034 -0.2954  0.7664
 6819SOL    HW131919   0.496   0.920   5.076  1.0357 -0.5677  1.3942
 6819SOL    HW231920   0.486   1.015   5.186 -0.7924  1.2103 -0.7719
 6820SOL     OW31921   0.550   4.529   1.847 -0.7422 -0.6115  0.4102
 6820SOL    HW131922   0.614   4.480   1.898 -0.9992 -0.4956  0.8486
 6820SOL    HW231923   0.467   4.514   1.892 -0.8054 -0.2025  0.4367
 6821SOL     OW31924   3.968   2.639   3.660 -0.2580 -0.4012  0.6252
 6821SOL    HW131925   3.896   2.678   3.709 -1.1147 -0.8259 -0.3050
 6821SOL    HW231926   4.026   2.715   3.657  1.5369 -1.7588  0.8147
 6822SOL     OW31927   1.729   4.161  13.306 -0.3112 -0.1810  0.6015
 6822SOL    HW131928   1.688   4.124  13.385 -2.1496  1.6349  0.4902
 6822SOL    HW231929   1.809   4.203  13.336 -1.3145  1.9881  0.2350
 6823SOL     OW31930   2.803   4.432   6.340 -0.6315 -0.1709  0.5580
 6823SOL    HW131931   2.872   4.438   6.274 -0.5401 -1.6168  0.5161
 6823SOL    HW231932   2.857   4.390   6.407  0.8230  0.4031 -0.2617
 6824SOL     OW31933   3.439   2.084   8.289  0.4064  0.5535 -0.1003
 6824SOL    HW131934   3.421   2.067   8.382 -0.2753  1.9841  0.0211
 6824SOL    HW231935   3.534   2.071   8.288  0.4288  0.6037  1.0205
 6825SOL     OW31936   0.877   2.656   1.708 -0.3305 -0.1871  0.2514
 6825SOL    HW131937   0.856   2.656   1.614 -0.0326 -4.7140  0.1756
 6825SOL    HW231938   0.828   2.732   1.739 -0.4423  0.0833 -0.5795
 6826SOL     OW31939   2.581   1.671  11.515  0.3691 -0.2836  0.0811
 6826SOL    HW131940   2.603   1.733  11.445  1.3596  0.1368  0.7571
 6826SOL    HW231941   2.665   1.624  11.516 -0.1171 -1.1293  0.7365
 6827SOL     OW31942   1.809   4.341   7.929  0.4094  0.4643  0.4843
 6827SOL    HW131943   1.814   4.262   7.875 -1.1632  0.5394  0.2109
 6827SOL    HW231944   1.723   4.332   7.970  0.1340 -0.8509 -0.3832
 6828SOL     OW31945   0.624   3.782   0.067  0.1848  0.2113 -0.6671
 6828SOL    HW131946   0.585   3.766   0.153  1.9220 -2.0105 -0.2934
 6828SOL    HW231947   0.582   3.863   0.040 -0.3650  0.9711  2.4121
 6829SOL     OW31948   1.889   4.696   4.116 -0.5259 -0.5263 -0.0132
 6829SOL    HW131949   1.935   0.060   4.119  0.1756 -0.9592  1.1332
 6829SOL    HW231950   1.856   4.691   4.205 -0.9602  0.4450 -0.1213
 6830SOL     OW31951   1.187   3.472  16.721 -0.2070  0.3502  0.5744
 6830SOL    HW131952   1.214   3.560  16.748  1.9528 -0.3675  0.6934
 6830SOL    HW231953   1.110   3.456  16.777 -1.1909  0.4564 -0.7591
 6831SOL     OW31954   1.138   3.659  16.205 -0.2776 -0.8364  0.1422
 6831SOL    HW131955   1.115   3.567  16.216 -2.8251 -0.3910 -1.3528
 6831SOL    HW231956   1.084   3.705  16.269 -0.7702  2.2084 -2.4523
 6832SOL     OW31957   3.291   4.126  11.357  0.2091  0.0863  0.0821
 6832SOL    HW131958   3.267   4.199  11.298 -1.1712  0.1279  0.7032
 6832SOL    HW231959   3.279   4.053  11.297 -0.0822  0.1796  0.0276
 6833SOL     OW31960   3.955   4.703   8.370 -0.0800  0.2240 -0.1343
 6833SOL    HW131961   3.918   4.686   8.283 -0.3272  2.1735 -0.4054
 6833SOL    HW231962   3.894   4.650   8.420 -0.7374 -1.4405 -2.6922
 6834SOL     OW31963   1.490   1.016  12.274 -0.1002 -0.5520  0.3090
 6834SOL    HW131964   1.396   1.017  12.253 -0.4226 -1.4062  1.7667
 6834SOL    HW231965   1.504   1.075  12.348  0.4516  1.4953 -1.4276
 6835SOL     OW31966   0.170   2.370  12.532 -0.7012  0.7050  0.0718
 6835SOL    HW131967   0.091   2.325  12.560  0.5573 -1.1140  0.6859
 6835SOL    HW231968   0.215   2.378  12.617  1.4203 -0.1086 -0.9769
 6836SOL     OW31969   0.945   1.129  13.726  0.3902  0.3056 -0.0734
 6836SOL    HW131970   0.925   1.193  13.657 -1.1417  0.2505  0.3031
 6836SOL    HW231971   0.967   1.189  13.797  0.6678 -1.7343  1.5932
 6837SOL     OW31972   3.395   1.508  11.463 -0.4481  0.3720 -0.5001
 6837SOL    HW131973   3.342   1.498  11.384  2.1255 -2.1675 -1.9374
 6837SOL    HW231974   3.349   1.580  11.506  1.7850  1.0757  0.7583
 6838SOL     OW31975   1.616   4.044   6.340 -0.6085 -0.1805 -0.0469
 6838SOL    HW131976   1.523   4.035   6.322 -0.9176  0.2102  1.3119
 6838SOL    HW231977   1.660   3.966   6.305 -1.7541 -1.1019  0.5729
 6839SOL     OW31978   3.934   3.030   6.871 -0.5351 -0.1437 -0.0241
 6839SOL    HW131979   3.967   2.944   6.895  3.4344  1.1939 -0.7866
 6839SOL    HW231980   3.968   3.045   6.783 -0.4915  3.1660  0.5657
 6840SOL     OW31981   3.368   4.264   7.285  0.6028  0.1962  0.0719
 6840SOL    HW131982   3.380   4.323   7.211 -1.1826  1.7139  0.9736
 6840SOL    HW231983   3.380   4.182   7.237  2.5494  0.2371  0.4972
 6841SOL     OW31984   4.321   0.771  15.910  0.4372  0.1079 -0.2268
 6841SOL    HW131985   4.391   0.716  15.945 -0.6330  0.4168  2.3690
 6841SOL    HW231986   4.281   0.804  15.991  1.1678 -2.1964  1.0582
 6842SOL     OW31987   0.711   0.935   4.919  0.1191 -0.2323 -0.3457
 6842SOL    HW131988   0.637   0.969   4.969 -1.4038 -2.0615 -1.3573
 6842SOL    HW231989   0.783   0.945   4.981  0.0554  1.2219 -0.5135
 6843SOL     OW31990   3.165   3.704  12.981  0.6328 -0.5763 -0.0012
 6843SOL    HW131991   3.096   3.769  12.966  0.5053 -0.8972 -0.8056
 6843SOL    HW231992   3.225   3.742  13.045  0.0808 -0.7266  0.6015
 6844SOL     OW31993   0.809   0.774   8.689 -0.3659  0.1409 -0.1465
 6844SOL    HW131994   0.862   0.845   8.726 -1.0157 -0.4220  1.8536
 6844SOL    HW231995   0.777   0.822   8.612 -1.1783  1.1485  0.8125
 6845SOL     OW31996   4.694   4.234   4.768 -0.6725 -0.1246 -0.2565
 6845SOL    HW131997   4.636   4.256   4.695 -0.6107  1.5324  0.1924
 6845SOL    HW231998   4.632   4.212   4.838 -0.3465  0.9012  0.3582
 6846SOL     OW31999   1.952   1.060   5.065  0.5293 -0.3878  0.0463
 6846SOL    HW132000   1.865   1.048   5.103  1.2607  2.1418  2.5302
 6846SOL    HW232001   2.003   1.060   5.146 -0.1728 -0.7299  0.4791
 6847SOL     OW32002   4.330   2.950   5.535 -0.6233  0.5140 -0.1969
 6847SOL    HW132003   4.287   2.991   5.611  0.9213 -1.4442  1.7335
 6847SOL    HW232004   4.305   3.012   5.467 -2.3298  2.4636  2.1793
 6848SOL     OW32005   3.201   2.117  15.640 -0.0155  0.4417 -0.4443
 6848SOL    HW132006   3.258   2.166  15.700 -1.8949  0.1278  1.6114
 6848SOL    HW232007   3.121   2.169  15.642 -0.0340  0.3934  0.1553
 6849SOL     OW32008   4.685   3.810   9.413  0.4035 -0.1955  0.0238
 6849SOL    HW132009   4.653   3.900   9.428  0.1003 -0.3944  0.5801
 6849SOL    HW232010   4.641   3.756   9.479  0.1625  0.9829  0.8326
 6850SOL     OW32011   0.345   2.128   8.169 -0.2786  0.4642  0.1718
 6850SOL    HW132012   0.365   2.222   8.162 -0.2903  0.6772  2.8063
 6850SOL    HW232013   0.253   2.140   8.192 -0.1244  2.3425 -0.1479
 6851SOL     OW32014   1.960   1.747   3.323 -0.5978  0.3691  0.6578
 6851SOL    HW132015   1.995   1.659   3.308 -1.3492  0.5065 -1.9980
 6851SOL    HW232016   2.042   1.787   3.351  0.1834  0.3476 -1.6003
 6852SOL     OW32017   4.151   1.603  10.651  0.4292  0.1007  0.4287
 6852SOL    HW132018   4.229   1.659  10.641  0.3343  0.0084 -0.8742
 6852SOL    HW232019   4.088   1.656  10.602 -0.0845 -1.6415 -0.7993
 6853SOL     OW32020   1.551   3.767   4.622  0.7810  0.3398  0.8095
 6853SOL    HW132021   1.525   3.679   4.594 -1.1004  0.7083  1.4470
 6853SOL    HW232022   1.520   3.820   4.549 -1.2314  0.2950  1.6319
 6854SOL     OW32023   0.689   3.424   9.257  0.6113  0.3087  0.0054
 6854SOL    HW132024   0.736   3.408   9.175  0.8771 -0.6968  0.3577
 6854SOL    HW232025   0.600   3.432   9.222  0.0563  2.0953  1.7985
 6855SOL     OW32026   2.046   0.389  13.988 -0.1489  0.0867 -0.1939
 6855SOL    HW132027   2.125   0.435  14.017 -0.5423 -0.1175  1.1666
 6855SOL    HW232028   2.068   0.297  14.003  0.2847  0.0056 -1.3180
 6856SOL     OW32029   1.873   0.155   2.513 -0.1716  0.1508  0.3510
 6856SOL    HW132030   1.931   0.097   2.563 -1.3097 -0.9763  0.3752
 6856SOL    HW232031   1.813   0.100   2.463 -1.9877 -0.1241  2.8177
 6857SOL     OW32032   3.635   2.220   4.359 -0.4310  0.0724 -0.2105
 6857SOL    HW132033   3.662   2.233   4.450 -0.4213  1.5183 -0.4279
 6857SOL    HW232034   3.545   2.189   4.369  0.4070 -1.6407  2.0960
 6858SOL     OW32035   1.665   0.549   1.210 -0.1729  0.3057 -0.1306
 6858SOL    HW132036   1.613   0.610   1.157  1.2817  0.1093 -1.7742
 6858SOL    HW232037   1.639   0.572   1.299 -0.0109  1.4746 -0.3841
 6859SOL     OW32038   0.036   0.898   3.582  0.1607  0.2613 -0.4126
 6859SOL    HW132039   0.100   0.832   3.608  0.6315  0.2003 -1.7014
 6859SOL    HW232040   0.063   0.969   3.639 -1.2805  1.7023 -1.5104
 6860SOL     OW32041   1.366   0.440   4.892  0.4499  0.6954  0.2578
 6860SOL    HW132042   1.377   0.389   4.811  0.4468 -0.8461  1.2176
 6860SOL    HW232043   1.326   0.376   4.951 -0.6814  0.6395 -0.5722
 6861SOL     OW32044   0.924   0.789   8.248  0.2506  0.0035  0.0839
 6861SOL    HW132045   0.905   0.846   8.323  0.9918  0.2426  0.0894
 6861SOL    HW232046   0.911   0.706   8.293 -0.2872  1.0699  1.9103
 6862SOL     OW32047   4.059   4.544   2.708  0.1201 -0.1892  0.4173
 6862SOL    HW132048   4.097   4.462   2.739  0.7691 -0.5025 -1.2086
 6862SOL    HW232049   4.037   4.530   2.616 -0.2345 -2.3401  0.8399
 6863SOL     OW32050   4.577   1.698  17.209  0.5752 -0.2972 -0.4189
 6863SOL    HW132051   4.593   1.604  17.218 -2.3069 -0.7818 -0.2281
 6863SOL    HW232052   4.490   1.699  17.250  0.2979 -0.0000 -1.0181
 6864SOL     OW32053   3.449   1.476   8.931 -0.1706 -0.2505  0.6349
 6864SOL    HW132054   3.452   1.533   9.008  0.1640  1.0507 -0.3407
 6864SOL    HW232055   3.357   1.452   8.926 -0.3762  0.5969  0.4210
 6865SOL     OW32056   4.459   1.938   5.136 -0.4594 -0.4602  0.4835
 6865SOL    HW132057   4.551   1.916   5.122 -0.7011 -0.6437 -0.8152
 6865SOL    HW232058   4.436   1.979   5.052  2.9809  1.4101  0.4323
 6866SOL     OW32059   0.046   1.331   4.581 -0.6825  0.3296 -0.0871
 6866SOL    HW132060   0.117   1.395   4.594 -1.0342  0.7431 -0.1995
 6866SOL    HW232061   4.700   1.397   4.565 -1.6991 -0.8874 -0.8644
 6867SOL     OW32062   2.858   3.116   4.123  0.1075 -0.4223  0.3424
 6867SOL    HW132063   2.827   3.203   4.147  0.6073  0.1661 -1.1293
 6867SOL    HW232064   2.919   3.091   4.192  1.9922 -0.0364 -1.1711
 6868SOL     OW32065   1.277   1.607   2.322 -0.1127 -0.4089 -0.3725
 6868SOL    HW132066   1.293   1.701   2.327 -1.0762 -0.2821  0.4096
 6868SOL    HW232067   1.348   1.564   2.370  1.2206 -0.4669 -2.3799
 6869SOL     OW32068   2.667   0.387   7.030  0.6379 -0.2093  0.1553
 6869SOL    HW132069   2.582   0.417   6.997  1.3060  0.2879 -1.1357
 6869SOL    HW232070   2.679   0.439   7.109 -1.9946 -0.8038  0.9510
 6870SOL     OW32071   1.561   4.195   9.324  0.3811 -0.0418  0.3846
 6870SOL    HW132072   1.495   4.262   9.340  1.0755  0.1386  2.4251
 6870SOL    HW232073   1.526   4.125   9.379  1.9031 -1.6850 -0.7486
 6871SOL     OW32074   2.741   0.573   6.428 -0.0412  0.0496 -0.4811
 6871SOL    HW132075   2.792   0.614   6.497 -0.8685  0.6353 -0.2117
 6871SOL    HW232076   2.700   0.649   6.386  0.4546  1.6883  1.9711
 6872SOL     OW32077   0.570   2.116   7.187 -0.0121  0.4600  0.0079
 6872SOL    HW132078   0.597   2.208   7.190  0.0916  0.4691 -1.0303
 6872SOL    HW232079   0.551   2.095   7.278  1.9275 -2.5905 -0.2712
 6873SOL     OW32080   1.409   3.981   3.766 -0.4427  0.1237  0.4138
 6873SOL    HW132081   1.460   3.915   3.720 -0.2394 -0.3538  1.3194
 6873SOL    HW232082   1.475   4.027   3.818 -0.7600  1.3213 -0.2288
 6874SOL     OW32083   1.131   0.400   8.792  0.0659  0.1549  0.2667
 6874SOL    HW132084   1.172   0.445   8.867  0.5690 -0.4181  0.3382
 6874SOL    HW232085   1.137   0.314   8.833 -0.2900 -0.2724 -0.6016
 6875SOL     OW32086   3.514   3.344  14.909  0.2862 -0.7004  0.2037
 6875SOL    HW132087   3.598   3.382  14.884 -0.9131  0.1771 -2.5660
 6875SOL    HW232088   3.452   3.367  14.839  0.6059 -0.3997  0.0193
 6876SOL     OW32089   1.965   1.145  12.665  0.4200  0.4102  0.3400
 6876SOL    HW132090   1.943   1.061  12.623 -2.3437  0.5804  1.4432
 6876SOL    HW232091   1.881   1.166  12.706  1.0897 -0.8626  2.3624
 6877SOL     OW32092   0.200   1.470   3.575  0.0451 -0.1707  0.0639
 6877SOL    HW132093   0.275   1.459   3.516 -0.4346  1.4340 -0.8302
 6877SOL    HW232094   0.165   1.381   3.570 -1.3455  0.3496  0.4847
 6878SOL     OW32095   1.309   3.005  10.288 -0.5488 -0.4033  0.0355
 6878SOL    HW132096   1.381   2.976  10.232  0.2402  0.5107  0.5705
 6878SOL    HW232097   1.264   3.046  10.214 -0.2199 -2.2820 -1.2073
 6879SOL     OW32098   2.314   0.995   9.179  0.3301  0.1201  0.6077
 6879SOL    HW132099   2.345   1.039   9.258 -2.6293  0.9481  1.2832
 6879SOL    HW232100   2.368   0.915   9.186 -0.1034 -0.3235 -1.0988
 6880SOL     OW32101   2.764   4.267   4.290  0.3966  0.0653  0.6086
 6880SOL    HW132102   2.773   4.305   4.377  0.3670  2.1454 -0.2844
 6880SOL    HW232103   2.753   4.350   4.242  1.1239 -1.1985 -1.7250
 6881SOL     OW32104   3.345   3.343   5.081  0.4110  0.2890  0.0030
 6881SOL    HW132105   3.306   3.410   5.025  0.5301  0.7720  0.4973
 6881SOL    HW232106   3.419   3.392   5.116 -1.3829  1.3421  2.2706
 6882SOL     OW32107   1.309   1.052   2.661  0.1302 -0.3927 -0.6107
 6882SOL    HW132108   1.247   1.116   2.625 -1.1795 -0.4560  1.5164
 6882SOL    HW232109   1.383   1.112   2.655  1.6427 -2.2414 -0.7167
 6883SOL     OW32110   2.366   1.510  13.706  0.2698  0.1238  0.0352
 6883SOL    HW132111   2.286   1.533  13.753 -0.3936 -1.9984 -0.0457
 6883SOL    HW232112   2.379   1.575  13.637  1.5748 -1.9950 -1.7080
 6884SOL     OW32113   1.456   1.796  13.639 -0.0214  0.1229 -0.1673
 6884SOL    HW132114   1.484   1.704  13.637  1.5297  0.6134 -1.2882
 6884SOL    HW232115   1.527   1.855  13.666 -0.3804  1.0433 -1.2443
 6885SOL     OW32116   3.267   3.979  10.671 -0.5436  0.3601  0.0007
 6885SOL    HW132117   3.236   3.991  10.582  2.4082  0.2037 -1.0512
 6885SOL    HW232118   3.255   4.064  10.714 -1.0867 -0.5670  1.6966
 6886SOL     OW32119   2.226   3.070   2.621 -0.3426 -1.1063 -0.0733
 6886SOL    HW132120   2.226   3.057   2.716 -0.9718 -3.6321 -0.4058
 6886SOL    HW232121   2.200   2.984   2.586 -0.9968 -1.1013  0.4032
 6887SOL     OW32122   2.795   0.792   1.857 -0.0293 -0.1911 -0.5967
 6887SOL    HW132123   2.713   0.785   1.809 -0.8709 -1.1134  0.9824
 6887SOL    HW232124   2.839   0.871   1.824 -1.8258  1.0904  0.1372
 6888SOL     OW32125   4.431   1.724   4.828  0.6991 -0.1765  0.1029
 6888SOL    HW132126   4.391   1.811   4.830  1.1529  0.0179  0.9876
 6888SOL    HW232127   4.391   1.684   4.905  0.6092 -0.9616 -0.3486
 6889SOL     OW32128   1.909   0.249   8.130  0.0717 -0.4265  0.4577
 6889SOL    HW132129   1.948   0.203   8.055 -0.8857 -0.6641  0.1104
 6889SOL    HW232130   1.902   0.337   8.093 -0.5401 -1.0578 -0.9438
 6890SOL     OW32131   2.354   4.558   2.127  0.4158 -0.4747  0.2490
 6890SOL    HW132132   2.346   4.606   2.209  1.2899 -0.9620  0.6198
 6890SOL    HW232133   2.266   4.528   2.105 -0.2783  0.2995  1.9730
 6891SOL     OW32134   0.489   0.544   7.032  0.1461  0.7394  0.2188
 6891SOL    HW132135   0.489   0.506   7.119 -1.1658 -1.5348 -0.8023
 6891SOL    HW232136   0.431   0.620   7.044 -0.5206  0.4251 -0.9647
 6892SOL     OW32137   1.904   3.062   2.358  0.4341  0.3377  0.1038
 6892SOL    HW132138   1.829   3.047   2.300  0.0912  0.0874  0.6051
 6892SOL    HW232139   1.970   3.005   2.319  0.0092 -1.8166  2.5243
 6893SOL     OW32140   1.104   3.108   2.202  0.4102 -0.0519  0.2797
 6893SOL    HW132141   1.047   3.045   2.160  0.8470 -0.9364  1.0182
 6893SOL    HW232142   1.121   3.159   2.122 -0.9355  0.8486  0.5672
 6894SOL     OW32143   4.188   3.023  17.274  0.7801 -0.0074  0.4303
 6894SOL    HW132144   4.131   3.100  17.279  1.1896  0.4000 -1.4122
 6894SOL    HW232145   4.271   3.069  17.286  0.6713  0.3869 -0.3577
 6895SOL     OW32146   0.762   3.402  11.192 -0.2601 -0.4682  0.4463
 6895SOL    HW132147   0.844   3.447  11.213  0.3188  0.0562 -3.0015
 6895SOL    HW232148   0.770   3.378  11.100  0.2257  0.6809  0.1867
 6896SOL     OW32149   4.327   3.439   8.253  0.4003 -0.2463 -0.1385
 6896SOL    HW132150   4.366   3.525   8.266 -0.3022 -0.0958  0.9797
 6896SOL    HW232151   4.329   3.442   8.157 -0.0941  1.2914 -0.0972
 6897SOL     OW32152   0.484   2.748   4.976  0.5922 -0.0683 -0.6222
 6897SOL    HW132153   0.529   2.826   4.942  1.7246 -1.0491 -1.3867
 6897SOL    HW232154   0.409   2.787   5.020 -0.5209 -1.0887 -1.6198
 6898SOL     OW32155   2.561   2.471   6.012 -0.1931 -0.6928  0.3383
 6898SOL    HW132156   2.529   2.552   5.973  0.7990 -0.9694 -1.0573
 6898SOL    HW232157   2.586   2.419   5.935 -3.0920 -1.7527  0.1046
 6899SOL     OW32158   0.985   2.156   6.471  0.0333  0.1405  0.2395
 6899SOL    HW132159   0.902   2.195   6.444  0.1502 -0.5032 -1.0632
 6899SOL    HW232160   0.961   2.063   6.477 -0.6145  0.3613  0.9666
 6900SOL     OW32161   1.323   3.266   1.457  0.7305 -0.1810  0.5636
 6900SOL    HW132162   1.386   3.197   1.434  0.4989 -0.6076  1.2092
 6900SOL    HW232163   1.363   3.293   1.540  1.5137 -4.1427  1.4843
 6901SOL     OW32164   3.301   2.936  17.565 -0.1696 -0.4217  0.3267
 6901SOL    HW132165   3.325   2.970  17.652  0.0136 -2.1785  0.9723
 6901SOL    HW232166   3.270   3.022  17.537 -0.0213 -0.7193 -0.7371
 6902SOL     OW32167   4.328   0.972  11.527  0.1834 -0.4794 -0.5475
 6902SOL    HW132168   4.353   0.986  11.436  0.9330 -0.7191 -0.3828
 6902SOL    HW232169   4.298   1.061  11.544 -0.2228 -1.0237  1.6187
 6903SOL     OW32170   0.813   3.136  10.484 -0.0356  0.1972 -0.3867
 6903SOL    HW132171   0.830   3.230  10.493 -1.0189  0.4444 -0.9876
 6903SOL    HW232172   0.901   3.101  10.493  0.7045  1.9611 -0.7135
 6904SOL     OW32173   3.689   3.224   8.207 -0.1548 -0.3752  0.3526
 6904SOL    HW132174   3.623   3.210   8.275  0.9462  2.3548  1.9598
 6904SOL    HW232175   3.744   3.290   8.249  0.4360 -0.4527 -0.2927
 6905SOL     OW32176   1.902   0.370   5.673 -0.1956 -0.6813 -0.4371
 6905SOL    HW132177   1.971   0.305   5.684  0.4846 -0.1668 -1.6180
 6905SOL    HW232178   1.894   0.373   5.578  0.8762  1.4178 -0.4562
 6906SOL     OW32179   2.651   1.659   0.018 -0.0193  0.3276  0.2257
 6906SOL    HW132180   2.739   1.621   0.022 -0.5798 -1.0569 -0.5895
 6906SOL    HW232181   2.667   1.754   0.018 -0.8060  0.4591  1.3707
 6907SOL     OW32182   4.349   0.631   5.381 -0.2060  0.3098 -0.2433
 6907SOL    HW132183   4.396   0.607   5.460  0.0426  2.6445  0.3236
 6907SOL    HW232184   4.367   0.563   5.316  2.0735 -0.2909  1.0101
 6908SOL     OW32185   0.382   3.536   0.747 -0.1354  0.1488  0.1025
 6908SOL    HW132186   0.444   3.465   0.761 -0.4089 -0.0485  0.3073
 6908SOL    HW232187   0.435   3.594   0.693 -1.0720 -0.7636 -1.7945
 6909SOL     OW32188   0.800   0.053   1.751  0.5093  0.3512  0.0996
 6909SOL    HW132189   0.738   0.090   1.814 -0.3068  2.0456 -1.6757
 6909SOL    HW232190   0.769   4.683   1.752  0.2423  0.4307 -0.4780
 6910SOL     OW32191   2.121   4.498  15.241  0.1950 -0.0245  0.0406
 6910SOL    HW132192   2.026   4.507  15.230 -0.4097 -3.8005  1.8827
 6910SOL    HW232193   2.140   4.518  15.333  3.9432  0.1275 -0.7882
 6911SOL     OW32194   0.353   3.090   4.972  0.1229  0.4817 -0.0499
 6911SOL    HW132195   0.434   3.045   4.948 -0.5776 -1.2316  0.7932
 6911SOL    HW232196   0.335   3.045   5.055 -1.0381  2.7059  0.8901
 6912SOL     OW32197   2.984   1.892   7.267  0.4138  0.1195  0.0921
 6912SOL    HW132198   3.055   1.944   7.230  1.1527 -0.6640  0.4360
 6912SOL    HW232199   3.021   1.805   7.254 -0.8079  0.1162 -3.3369
 6913SOL     OW32200   2.412   2.948  11.346  0.2119  0.2081  0.1829
 6913SOL    HW132201   2.426   2.864  11.304  0.4733  0.3929 -0.1035
 6913SOL    HW232202   2.323   2.924  11.374 -0.5539  1.3432 -1.2513
 6914SOL     OW32203   3.110   1.020   4.977 -0.4692 -0.6214 -0.1877
 6914SOL    HW132204   3.077   1.059   4.897 -0.1963 -0.7907 -0.3852
 6914SOL    HW232205   3.175   1.084   5.007 -1.9493  1.2052 -0.8875
 6915SOL     OW32206   0.955   4.135  12.975  0.1771 -0.1454  0.3116
 6915SOL    HW132207   1.008   4.083  12.915  1.8188  0.1469  1.4812
 6915SOL    HW232208   0.895   4.068  13.007  0.3761 -0.1465  0.6826
 6916SOL     OW32209   2.136   2.427   3.732  0.3221  0.0157  0.1037
 6916SOL    HW132210   2.216   2.470   3.701  0.5435  0.4339  1.2623
 6916SOL    HW232211   2.103   2.374   3.659  0.2712  0.4513 -0.1905
 6917SOL     OW32212   1.733   2.201   7.717  0.2938 -0.3225 -0.4040
 6917SOL    HW132213   1.765   2.196   7.628 -1.9628 -1.3510 -1.1704
 6917SOL    HW232214   1.738   2.110   7.746  0.2998 -1.1497 -3.0886
 6918SOL     OW32215   0.118   3.496   2.702 -0.2102 -0.0962  0.7118
 6918SOL    HW132216   0.076   3.512   2.617 -1.2932  2.4058  1.7168
 6918SOL    HW232217   0.129   3.587   2.728 -0.7972  0.7025 -1.7977
 6919SOL     OW32218   3.213   0.363   5.637  0.1291 -0.2458 -0.2325
 6919SOL    HW132219   3.178   0.274   5.629  1.7426 -0.5038 -4.4195
 6919SOL    HW232220   3.244   0.389   5.550 -0.7161  0.8909 -0.2041
 6920SOL     OW32221   2.261   0.450   8.683 -0.1388  0.0179  0.3436
 6920SOL    HW132222   2.192   0.503   8.723 -1.3304 -1.8578  0.7775
 6920SOL    HW232223   2.327   0.512   8.652 -0.8064  0.3870 -0.3368
 6921SOL     OW32224   3.020   1.779   6.457  0.6816  0.1942  0.0657
 6921SOL    HW132225   3.051   1.869   6.443 -0.8614  0.8776  1.1571
 6921SOL    HW232226   3.093   1.718   6.446  1.0944  0.7811 -0.4361
 6922SOL     OW32227   4.567   1.320  13.184  0.2868  0.9010  0.0037
 6922SOL    HW132228   4.569   1.391  13.249 -0.5726  1.6181 -0.7640
 6922SOL    HW232229   4.477   1.286  13.183  0.1173  1.2826  2.1642
 6923SOL     OW32230   4.690   1.170   0.185 -0.3828 -0.1290  0.1232
 6923SOL    HW132231   4.698   1.130   0.098 -0.2885  0.1667 -0.0023
 6923SOL    HW232232   0.029   1.120   0.241  0.6025  1.6361  0.6603
 6924SOL     OW32233   2.651   1.324  17.487 -0.1673 -0.1984 -0.7434
 6924SOL    HW132234   2.607   1.243  17.512 -0.1858  0.4278  1.2372
 6924SOL    HW232235   2.726   1.342  17.544 -3.0605  2.2682  2.2508
 6925SOL     OW32236   3.882   0.471   7.743 -0.3873 -0.4548  0.0892
 6925SOL    HW132237   3.967   0.467   7.785  1.2817  2.8889 -2.9541
 6925SOL    HW232238   3.873   0.378   7.721 -0.8354 -0.3788 -0.0597
 6926SOL     OW32239   3.484   0.356   7.317  0.0128 -1.3263  0.3839
 6926SOL    HW132240   3.579   0.359   7.331  0.2990  0.7954 -2.1754
 6926SOL    HW232241   3.461   0.309   7.397 -0.8764 -0.1218  0.8227
 6927SOL     OW32242   2.861   3.136   7.432 -0.0929 -0.1341  0.1558
 6927SOL    HW132243   2.799   3.066   7.412  0.1784 -0.1920 -0.5136
 6927SOL    HW232244   2.843   3.161   7.522 -0.8075 -0.9165  0.2348
 6928SOL     OW32245   0.209   1.314   4.348  0.2957 -0.5239 -0.0049
 6928SOL    HW132246   0.139   1.300   4.412 -0.7614  0.5030 -0.9334
 6928SOL    HW232247   0.287   1.322   4.403 -0.2218 -0.3395  0.7047
 6929SOL     OW32248   3.108   3.475  11.751  0.4694 -0.7692 -0.1074
 6929SOL    HW132249   3.153   3.417  11.690  0.9638  0.1589 -0.6211
 6929SOL    HW232250   3.016   3.450  11.744 -0.2083  1.1785  1.4972
 6930SOL     OW32251   0.534   3.008   2.621 -0.1112 -0.9169  0.2572
 6930SOL    HW132252   0.533   2.992   2.715 -1.8535 -1.0050  0.2301
 6930SOL    HW232253   0.585   2.933   2.593  0.4932 -0.3284 -0.2054
 6931SOL     OW32254   2.258   4.071   8.874 -0.2723 -0.5334  0.6130
 6931SOL    HW132255   2.307   3.989   8.863  0.8875  0.1936  0.2784
 6931SOL    HW232256   2.291   4.123   8.947  0.3998 -0.7998  0.4991
 6932SOL     OW32257   4.515   2.686   1.569 -0.0539 -0.8467  0.1161
 6932SOL    HW132258   4.453   2.732   1.626 -0.7791 -0.7069 -0.7717
 6932SOL    HW232259   4.574   2.759   1.549  2.5114 -2.6462  1.1489
 6933SOL     OW32260   1.935   4.646   4.920  0.2631  0.4290 -0.2728
 6933SOL    HW132261   1.969   0.003   4.874 -0.8896  0.0488 -1.7482
 6933SOL    HW232262   1.844   4.649   4.890  0.5253 -0.4441 -1.1645
 6934SOL     OW32263   1.261   3.718   4.713 -0.1194  0.0632  0.1569
 6934SOL    HW132264   1.279   3.794   4.657 -0.1580 -0.1157 -0.1029
 6934SOL    HW232265   1.235   3.645   4.656 -0.8347  0.6218 -0.2446
 6935SOL     OW32266   1.078   3.612   8.612 -1.1250 -0.3555  0.4554
 6935SOL    HW132267   1.111   3.610   8.522 -0.1853  1.0797  0.7696
 6935SOL    HW232268   1.132   3.672   8.664 -0.6963 -0.1131 -0.2767
 6936SOL     OW32269   2.438   3.347  10.909  0.1920 -0.0493  0.1626
 6936SOL    HW132270   2.486   3.430  10.904  0.8328 -0.6368 -3.0141
 6936SOL    HW232271   2.471   3.317  10.994 -1.1680 -0.2296  0.6363
 6937SOL     OW32272   3.003   0.742   7.588 -0.1742 -0.0467 -0.1210
 6937SOL    HW132273   2.909   0.722   7.591 -0.1232 -0.3045 -0.2650
 6937SOL    HW232274   3.036   0.692   7.514 -3.7334 -0.8278 -1.1763
 6938SOL     OW32275   4.552   0.166   8.090 -0.0127 -0.1336  0.9034
 6938SOL    HW132276   4.515   0.247   8.055 -0.3499 -1.3435 -1.5116
 6938SOL    HW232277   4.621   0.205   8.144 -0.8172 -1.5245  2.9526
 6939SOL     OW32278   3.021   0.517  13.760  0.2923 -0.0159  0.1470
 6939SOL    HW132279   2.958   0.463  13.711 -0.2431 -0.0089  0.8269
 6939SOL    HW232280   3.097   0.519  13.702  0.2235 -0.5137  0.0420
 6940SOL     OW32281   0.892   4.039   7.469  0.4486  0.6692  0.0442
 6940SOL    HW132282   0.919   3.990   7.391  0.5845  0.0010  0.5072
 6940SOL    HW232283   0.805   4.003   7.489 -0.6372  1.9215 -2.3013
 6941SOL     OW32284   0.568   4.062   7.211  0.3248  0.4591 -0.6834
 6941SOL    HW132285   0.479   4.029   7.195  0.4637  0.5067 -1.5505
 6941SOL    HW232286   0.587   4.101   7.126  0.5552  0.8453 -0.4538
 6942SOL     OW32287   4.679   1.232   3.797  0.2441 -0.1208  0.3762
 6942SOL    HW132288   4.667   1.203   3.888 -1.6064 -0.5363  0.0041
 6942SOL    HW232289   0.021   1.167   3.766 -1.5736 -0.7910 -1.9146
 6943SOL     OW32290   2.617   0.357  14.478  0.4237  0.3939  0.5032
 6943SOL    HW132291   2.606   0.400  14.563  1.2505  0.2143  0.6943
 6943SOL    HW232292   2.630   0.429  14.417  0.2991 -0.7829 -0.9196
 6944SOL     OW32293   1.973   1.814   6.296  0.1750  0.0181  0.3629
 6944SOL    HW132294   1.999   1.906   6.283  2.1727 -0.1100  3.4313
 6944SOL    HW232295   1.886   1.834   6.330  0.2088 -1.4985  1.3382
 6945SOL     OW32296   3.481   3.108  13.586  0.1432 -0.0325  0.6632
 6945SOL    HW132297   3.569   3.090  13.618  1.3568  3.5513 -0.6390
 6945SOL    HW232298   3.446   3.020  13.601  1.8563 -0.9375 -0.7218
 6946SOL     OW32299   0.323   1.882  15.031 -0.1840  0.3996  0.1371
 6946SOL    HW132300   0.321   1.973  15.001  1.2446  0.9776  1.7496
 6946SOL    HW232301   0.405   1.858  14.988  0.0172  0.8786  0.2560
 6947SOL     OW32302   2.245   0.383  15.281 -0.6565 -0.0256 -0.1783
 6947SOL    HW132303   2.164   0.404  15.235 -0.7887 -1.0112 -0.4095
 6947SOL    HW232304   2.309   0.452  15.265 -0.5607 -0.1054 -0.1435
 6948SOL     OW32305   1.947   3.027   7.081  0.0911  0.9264 -0.0624
 6948SOL    HW132306   1.974   3.017   7.173  2.0777  1.0203 -0.6331
 6948SOL    HW232307   1.852   3.034   7.087 -0.0291 -0.9696  0.4047
 6949SOL     OW32308   1.488   0.721   3.675 -0.1072 -0.5045 -0.2688
 6949SOL    HW132309   1.432   0.682   3.742 -0.0630  0.0589  0.0997
 6949SOL    HW232310   1.426   0.751   3.608 -0.8531 -0.4574  0.4329
 6950SOL     OW32311   3.458   3.382   9.534  0.7138 -0.0629 -0.1309
 6950SOL    HW132312   3.487   3.388   9.444  1.9361 -0.4523  0.2415
 6950SOL    HW232313   3.494   3.296   9.557 -0.3539 -0.6744 -0.7657
 6951SOL     OW32314   1.208   3.347   1.084 -0.4605  0.1320 -0.0965
 6951SOL    HW132315   1.133   3.314   1.133  1.4198 -1.8410  1.4775
 6951SOL    HW232316   1.160   3.378   1.008  0.1034 -2.9011 -1.7131
 6952SOL     OW32317   4.358   0.934   8.959  0.0677  0.6429  0.3801
 6952SOL    HW132318   4.286   0.870   8.963  1.5239 -1.0678 -1.0000
 6952SOL    HW232319   4.336   0.983   8.881  0.0307  0.0854  0.0366
 6953SOL     OW32320   1.744   4.340   8.666  0.2763  0.1115  0.1071
 6953SOL    HW132321   1.669   4.369   8.614 -0.4996 -2.0382  0.0258
 6953SOL    HW232322   1.738   4.403   8.738  0.8969  2.5278 -1.9295
 6954SOL     OW32323   4.541   4.645   4.489 -0.2875 -0.0474  0.0912
 6954SOL    HW132324   4.487   4.698   4.547 -2.7605 -0.7544 -1.5957
 6954SOL    HW232325   4.604   4.608   4.551 -0.8916  0.4217  0.9781
 6955SOL     OW32326   1.011   2.336   7.214 -0.1660  0.3568 -0.2733
 6955SOL    HW132327   1.063   2.341   7.134  1.0073  1.2337  0.5326
 6955SOL    HW232328   0.962   2.254   7.213 -1.7096  1.2412  1.4444
 6956SOL     OW32329   3.733   2.859   4.567 -0.5473 -0.1310  0.1240
 6956SOL    HW132330   3.704   2.844   4.477  0.0966 -1.4819  0.1487
 6956SOL    HW232331   3.652   2.832   4.611 -0.4810  0.1877  0.4364
 6957SOL     OW32332   2.598   3.087   5.127 -0.6918 -0.2365  0.2280
 6957SOL    HW132333   2.683   3.066   5.164 -0.7330  0.7170  0.8727
 6957SOL    HW232334   2.541   3.096   5.203  1.2806 -0.8322  1.7864
 6958SOL     OW32335   3.782   2.233   2.070  0.6292  0.2777  0.0168
 6958SOL    HW132336   3.765   2.228   1.976  2.3554 -0.3903 -0.2478
 6958SOL    HW232337   3.706   2.283   2.101 -1.4858 -2.2423 -1.1666
 6959SOL     OW32338   1.499   2.013  13.417 -0.2323  0.5373 -0.1256
 6959SOL    HW132339   1.535   2.032  13.331 -1.7494  1.8458 -0.4699
 6959SOL    HW232340   1.526   1.932  13.462 -0.3527 -0.3289 -1.6163
 6960SOL     OW32341   2.066   0.373   9.229 -0.1838 -0.1731  0.4287
 6960SOL    HW132342   2.009   0.296   9.217  0.2353  0.0107 -2.9074
 6960SOL    HW232343   2.123   0.351   9.156 -1.7025 -0.4329 -0.6904
 6961SOL     OW32344   0.241   1.695   9.127  0.0059 -0.1046 -0.0720
 6961SOL    HW132345   0.206   1.654   9.048 -1.0362 -1.2327  0.9795
 6961SOL    HW232346   0.292   1.617   9.150 -1.7742 -1.0740  0.5814
 6962SOL     OW32347   4.686   3.062   5.603 -0.3002 -0.1650  0.6479
 6962SOL    HW132348   0.021   3.091   5.530 -2.2328 -0.0741 -0.7727
 6962SOL    HW232349   4.627   3.137   5.603  1.2924  1.1086  0.4735
 6963SOL     OW32350   0.648   4.105   8.233 -0.1302  0.0560  0.0276
 6963SOL    HW132351   0.690   4.066   8.156 -0.0593 -0.4985  0.3523
 6963SOL    HW232352   0.698   4.187   8.239 -0.9048  0.4158  1.4643
 6964SOL     OW32353   3.694   1.672   8.007  0.5820 -0.0715 -0.2782
 6964SOL    HW132354   3.623   1.648   8.066  0.0319  2.4648  0.0972
 6964SOL    HW232355   3.641   1.738   7.962  0.3682 -0.4862 -0.6378
 6965SOL     OW32356   2.326   2.550  16.407 -0.0673  0.3047 -0.0470
 6965SOL    HW132357   2.263   2.492  16.364  0.1308  1.9590 -2.5016
 6965SOL    HW232358   2.273   2.589  16.477 -1.8972 -1.0547 -0.6536
 6966SOL     OW32359   4.634   1.178   7.909  0.4083  0.3854  0.5848
 6966SOL    HW132360   4.640   1.250   7.846  0.1160 -0.4398 -0.3911
 6966SOL    HW232361   4.696   1.115   7.870 -0.5420  0.6795 -1.4263
 6967SOL     OW32362   2.999   3.000   3.703  0.4557 -0.1043  0.4193
 6967SOL    HW132363   3.087   2.967   3.721 -0.5748 -2.0711  1.8493
 6967SOL    HW232364   2.973   2.953   3.624  0.1829 -0.6202  0.8182
 6968SOL     OW32365   4.120   3.541   7.670  0.3471 -0.3492 -0.1906
 6968SOL    HW132366   4.150   3.536   7.579  2.2974 -1.7133  0.5151
 6968SOL    HW232367   4.025   3.542   7.659  0.2429 -0.1935  0.6704
 6969SOL     OW32368   0.150   2.211   3.721 -0.1966  0.1689  0.1779
 6969SOL    HW132369   0.222   2.234   3.662  1.1580 -3.4476  0.4238
 6969SOL    HW232370   0.202   2.146   3.768 -1.0648  0.8257  2.0571
 6970SOL     OW32371   4.646   3.699  11.050 -0.4114 -0.3383 -0.3313
 6970SOL    HW132372   4.623   3.675  10.960 -0.7283 -1.8293  0.1451
 6970SOL    HW232373   4.685   3.786  11.047  2.5576 -1.6328  1.3267
 6971SOL     OW32374   0.095   2.539   3.606 -0.1653  0.9206 -0.1025
 6971SOL    HW132375   0.004   2.539   3.577 -0.1516  0.5629 -0.1415
 6971SOL    HW232376   0.090   2.471   3.674 -1.1437  0.0268 -1.0725
 6972SOL     OW32377   0.745   1.680  11.699 -0.0660  0.2817 -1.2105
 6972SOL    HW132378   0.696   1.600  11.720 -0.5287  0.3575 -1.9883
 6972SOL    HW232379   0.824   1.667  11.753  0.0098  5.6994 -0.0079
 6973SOL     OW32380   1.646   2.152  15.339 -0.4300 -0.2791  0.1890
 6973SOL    HW132381   1.551   2.148  15.324 -0.0328 -0.6797 -2.0913
 6973SOL    HW232382   1.687   2.096  15.273 -1.6273 -0.9764  0.0267
 6974SOL     OW32383   2.989   0.903   3.728  0.3539  0.6898  0.6869
 6974SOL    HW132384   3.002   0.976   3.788  1.7700  0.3265  0.8221
 6974SOL    HW232385   2.978   0.943   3.641 -1.1020 -2.8034 -0.7176
 6975SOL     OW32386   1.995   2.894   6.843  0.6142 -0.2616  0.1110
 6975SOL    HW132387   2.087   2.889   6.870  0.5084  0.0298  0.5227
 6975SOL    HW232388   1.966   2.945   6.919  0.0318  0.6412 -0.7247
 6976SOL     OW32389   4.146   4.676  11.959  0.1375  0.1442  0.5281
 6976SOL    HW132390   4.145   0.049  11.941 -0.9488 -0.2938 -1.6459
 6976SOL    HW232391   4.241   4.661  11.961  0.0886 -0.6423 -2.5566
 6977SOL     OW32392   0.428   4.350   6.924 -1.0636 -0.1849  0.2578
 6977SOL    HW132393   0.390   4.343   6.836  0.8179 -2.5674 -0.3742
 6977SOL    HW232394   0.455   4.441   6.925  0.5962 -0.6573 -0.4130
 6978SOL     OW32395   2.588   0.393   2.793 -0.2445 -0.1134 -0.2930
 6978SOL    HW132396   2.632   0.457   2.849  1.4631 -1.0739 -0.5413
 6978SOL    HW232397   2.568   0.314   2.845  1.0639 -0.5722 -0.4956
 6979SOL     OW32398   0.672   3.527   4.460  0.4228  0.8373  0.0494
 6979SOL    HW132399   0.651   3.620   4.452  1.1263  1.0686  1.0655
 6979SOL    HW232400   0.723   3.516   4.379  0.3216  3.5974 -0.4085
 6980SOL     OW32401   0.219   1.425   7.374  0.1449  0.3956  0.5201
 6980SOL    HW132402   0.252   1.336   7.362 -1.3215  0.0062 -0.5292
 6980SOL    HW232403   0.295   1.475   7.342 -0.3515  0.5282 -0.4534
 6981SOL     OW32404   1.928   3.198   1.569  0.3232  0.2373 -0.1875
 6981SOL    HW132405   1.918   3.266   1.502 -1.4896  2.0661  1.9032
 6981SOL    HW232406   1.915   3.119   1.517 -1.5962  1.5564 -1.7297
 6982SOL     OW32407   4.434   0.995  12.089 -0.0187  0.0626 -0.0811
 6982SOL    HW132408   4.381   1.039  12.156 -0.7972  1.0130 -1.3223
 6982SOL    HW232409   4.411   0.903  12.100 -0.3477  0.5146  3.0919
 6983SOL     OW32410   2.369   3.570   6.029  0.3853 -0.0688  0.0443
 6983SOL    HW132411   2.414   3.638   5.978  2.7970 -0.2045  1.9904
 6983SOL    HW232412   2.399   3.491   5.984 -1.9462 -1.3577  0.7675
 6984SOL     OW32413   0.146   2.014  14.307  0.5305  0.1854  0.1682
 6984SOL    HW132414   0.114   2.099  14.275 -0.3657 -0.5427 -0.8761
 6984SOL    HW232415   0.077   1.998  14.371  0.7351  0.7788  0.5361
 6985SOL     OW32416   1.681   0.668   9.327  0.2231  0.0278 -0.2629
 6985SOL    HW132417   1.677   0.763   9.324  1.2895  0.1763  2.7719
 6985SOL    HW232418   1.656   0.645   9.417 -2.8776 -0.7183 -1.3150
 6986SOL     OW32419   2.241   4.422  16.432 -0.3380 -0.6205  0.0410
 6986SOL    HW132420   2.271   4.506  16.465 -0.6667 -0.6322  0.3770
 6986SOL    HW232421   2.183   4.447  16.361 -1.6212 -1.0040  0.9483
 6987SOL     OW32422   4.597   1.988   8.007  0.0705 -0.4181 -0.3184
 6987SOL    HW132423   4.639   1.912   8.048  0.0795 -1.4362 -2.2071
 6987SOL    HW232424   4.584   2.044   8.084  0.7482 -0.4175 -0.2064
 6988SOL     OW32425   0.551   4.670  12.843  0.1169  0.3572  0.1241
 6988SOL    HW132426   0.507   4.694  12.925 -2.2420  0.1842 -1.0920
 6988SOL    HW232427   0.483   4.674  12.776 -0.6472 -0.6787  0.8486
 6989SOL     OW32428   0.793   1.889   5.886  0.0061 -0.1354 -0.8802
 6989SOL    HW132429   0.749   1.974   5.882 -0.9390 -0.4080  3.4445
 6989SOL    HW232430   0.873   1.897   5.835 -0.3146  1.5760 -1.1115
 6990SOL     OW32431   2.337   0.595   6.359 -0.4172  0.3824 -0.1889
 6990SOL    HW132432   2.296   0.658   6.418 -0.8253 -0.1924  0.1344
 6990SOL    HW232433   2.404   0.550   6.410  1.8306  2.2471 -1.4479
 6991SOL     OW32434   3.476   1.341   1.919  0.1478 -0.0793 -0.3399
 6991SOL    HW132435   3.564   1.307   1.939  0.4087  1.0999  0.5510
 6991SOL    HW232436   3.433   1.256   1.928  1.7786 -0.6262  2.5490
 6992SOL     OW32437   3.780   4.395  16.989 -0.8520 -0.6566 -0.2007
 6992SOL    HW132438   3.803   4.425  16.901  2.1689 -2.0908  0.0764
 6992SOL    HW232439   3.686   4.407  16.983 -0.9795 -0.5319  2.3373
 6993SOL     OW32440   0.816   2.919   1.405 -0.2423  0.2144  0.1589
 6993SOL    HW132441   0.815   2.828   1.433 -0.3881 -0.1804 -1.1265
 6993SOL    HW232442   0.907   2.933   1.377 -0.3256 -1.4621 -0.9046
 6994SOL     OW32443   3.771   2.039   3.025 -0.0352 -0.3811  0.4820
 6994SOL    HW132444   3.711   2.079   3.088  1.4959  3.3846 -0.4544
 6994SOL    HW232445   3.747   2.076   2.940  0.8760  1.1340  0.8825
 6995SOL     OW32446   1.504   4.268  15.503  0.2151  0.2518 -0.0983
 6995SOL    HW132447   1.457   4.291  15.423 -0.5243 -4.3210 -0.9935
 6995SOL    HW232448   1.533   4.353  15.536  0.6621  0.1272 -0.1679
 6996SOL     OW32449   1.602   3.465   0.914  0.2102  0.1708  0.2777
 6996SOL    HW132450   1.694   3.466   0.887 -0.0234 -1.3097 -0.5606
 6996SOL    HW232451   1.597   3.406   0.988 -2.3785  0.3312  0.2028
 6997SOL     OW32452   4.644   2.189  17.506 -0.0366  0.2911  0.9138
 6997SOL    HW132453   4.639   2.115  17.446 -0.2371  2.5999 -1.9170
 6997SOL    HW232454   4.618   2.260  17.447  1.3227  0.4022  0.4703
 6998SOL     OW32455   2.753   0.534   2.405  0.0123  0.2547 -0.3572
 6998SOL    HW132456   2.785   0.485   2.330 -1.1503 -1.8501  0.5001
 6998SOL    HW232457   2.735   0.620   2.368 -0.6469  0.2919  0.0397
 6999SOL     OW32458   3.806   0.546   6.337 -0.0865  0.5174 -0.4582
 6999SOL    HW132459   3.833   0.552   6.246  2.1124  2.5078  0.3206
 6999SOL    HW232460   3.781   0.453   6.333 -0.7074  0.6557  0.2462
 7000SOL     OW32461   0.467   1.676   2.778  0.4106 -0.2395 -0.8330
 7000SOL    HW132462   0.515   1.746   2.733  1.7144 -1.6397 -1.6548
 7000SOL    HW232463   0.518   1.595   2.768  0.7845 -0.2487  1.2094
 7001SOL     OW32464   3.108   1.354   6.530  0.1225  0.2511  0.3550
 7001SOL    HW132465   3.165   1.300   6.474 -0.1062 -1.1387  1.4762
 7001SOL    HW232466   3.025   1.333   6.488  0.0046  0.8321  0.2958
 7002SOL     OW32467   2.944   1.932   9.174 -0.7968 -0.4103 -0.9809
 7002SOL    HW132468   3.010   1.863   9.181  0.5555  1.0271  0.3173
 7002SOL    HW232469   2.953   1.987   9.252 -2.0664 -0.3429 -0.8695
 7003SOL     OW32470   4.701   3.739   6.059 -0.6850  0.4799 -0.5521
 7003SOL    HW132471   4.606   3.739   6.058 -0.6990 -3.1459 -0.5403
 7003SOL    HW232472   0.009   3.741   5.967  0.1903  1.6748 -0.2584
 7004SOL     OW32473   3.919   2.746   8.869  0.2496  0.0939  0.2217
 7004SOL    HW132474   3.859   2.742   8.944  0.2696  0.7822  0.2759
 7004SOL    HW232475   3.985   2.678   8.886 -0.3986 -0.8391 -0.9620
 7005SOL     OW32476   2.279   4.376   0.028  0.2307  0.3761  0.2227
 7005SOL    HW132477   2.270   4.345  17.622 -0.5692 -4.0076  1.8071
 7005SOL    HW232478   2.242   4.306   0.081 -0.1078 -0.4962 -1.1439
 7006SOL     OW32479   4.553   1.712   0.923 -0.1908  0.0981 -0.2941
 7006SOL    HW132480   4.550   1.719   0.827 -1.8015  0.5966 -0.2161
 7006SOL    HW232481   4.464   1.688   0.950  0.5454  0.5554  2.4818
 7007SOL     OW32482   2.905   1.210   8.341 -0.4198 -0.1507  0.6034
 7007SOL    HW132483   2.879   1.293   8.381  0.8912  0.6186 -0.1446
 7007SOL    HW232484   2.866   1.229   8.256 -1.1316  2.1792  1.4365
 7008SOL     OW32485   0.473   3.785   4.181 -0.5330  0.0638  0.3338
 7008SOL    HW132486   0.498   3.792   4.273 -2.3917 -1.5964  0.9569
 7008SOL    HW232487   0.490   3.871   4.142 -0.4354 -0.6248 -1.1305
 7009SOL     OW32488   0.914   3.996  14.447  0.6771 -0.4791 -0.3978
 7009SOL    HW132489   0.921   4.056  14.521  3.1554 -2.7898  1.2102
 7009SOL    HW232490   0.993   4.022  14.399 -1.0889  1.3839 -2.3545
 7010SOL     OW32491   2.714   1.725  11.785 -0.3543  0.1898  0.1489
 7010SOL    HW132492   2.791   1.781  11.771 -0.1849  0.0352  0.4652
 7010SOL    HW232493   2.751   1.638  11.800 -0.0387  0.2274 -0.4164
 7011SOL     OW32494   3.994   4.650   3.376 -0.7823 -0.3938 -0.5080
 7011SOL    HW132495   4.031   0.017   3.388 -2.0709  0.0217  0.4523
 7011SOL    HW232496   3.903   4.677   3.387 -0.6912 -1.0878  2.0155
 7012SOL     OW32497   3.730   4.645   2.344  0.4019 -0.4150  0.0166
 7012SOL    HW132498   3.640   4.618   2.330  0.0804  1.4140 -1.4970
 7012SOL    HW232499   3.740   4.713   2.277  1.4009 -2.1498 -1.6047
 7013SOL     OW32500   3.804   3.746   8.167 -0.2238  0.1445  0.1655
 7013SOL    HW132501   3.874   3.711   8.223  0.6031  1.5805  0.0295
 7013SOL    HW232502   3.858   3.794   8.104  0.4231  0.5927  1.0561
 7014SOL     OW32503   1.919   1.905  15.898 -0.3408  0.2240 -0.9245
 7014SOL    HW132504   1.874   1.965  15.839 -1.5438 -0.8788 -1.1224
 7014SOL    HW232505   1.955   1.968  15.960 -1.1167 -0.0448 -0.1944
 7015SOL     OW32506   1.051   0.284   7.272 -0.4540  0.3360  0.0161
 7015SOL    HW132507   1.114   0.241   7.330  1.0755 -0.9957 -2.6438
 7015SOL    HW232508   0.994   0.211   7.248  0.1632 -1.0839  2.8858
 7016SOL     OW32509   0.940   2.874   9.915 -0.3687  0.2382  0.0598
 7016SOL    HW132510   0.991   2.811   9.864 -1.5740  1.1344 -2.2539
 7016SOL    HW232511   0.909   2.930   9.844  0.1735  0.5985  0.1122
 7017SOL     OW32512   4.663   0.262   4.475 -0.7776 -0.1369  0.2630
 7017SOL    HW132513   4.580   0.285   4.515 -1.3210 -1.0365 -0.3513
 7017SOL    HW232514   4.700   0.193   4.531 -1.9918 -1.6011 -0.7470
 7018SOL     OW32515   2.748   1.386   4.503 -0.0251 -0.0170  0.0955
 7018SOL    HW132516   2.700   1.456   4.460  0.7211  1.0789  1.0409
 7018SOL    HW232517   2.740   1.320   4.435  1.5048  1.0341 -1.0865
 7019SOL     OW32518   0.683   2.938   3.404 -0.0752 -0.9632  0.1754
 7019SOL    HW132519   0.712   3.016   3.355 -1.4742 -0.3960  0.2499
 7019SOL    HW232520   0.620   2.902   3.342 -0.2090 -1.0156  0.3417
 7020SOL     OW32521   3.100   3.255   3.681  0.0667  0.2416  0.4377
 7020SOL    HW132522   3.057   3.298   3.754  0.3510 -2.0615  1.9679
 7020SOL    HW232523   3.074   3.165   3.703 -1.6068 -0.1274 -3.1147
 7021SOL     OW32524   3.546   3.801   9.032 -0.0585 -0.6881  0.9029
 7021SOL    HW132525   3.455   3.832   9.029  1.2063  2.6990 -1.3477
 7021SOL    HW232526   3.577   3.871   9.090 -0.7562  0.0231  0.4120
 7022SOL     OW32527   2.023   1.238  10.330 -0.1644 -0.4170  0.9672
 7022SOL    HW132528   1.974   1.228  10.248  0.7770 -5.0458  1.0101
 7022SOL    HW232529   2.102   1.185  10.327  0.6152  0.8890 -1.6677
 7023SOL     OW32530   3.749   3.569  17.511 -0.7340 -0.3325  0.0531
 7023SOL    HW132531   3.700   3.500  17.465 -1.9295 -0.9074  2.2187
 7023SOL    HW232532   3.760   3.643  17.450  2.1493 -0.2008  0.7506
 7024SOL     OW32533   1.729   4.708  13.833 -0.0519 -0.2337 -0.1811
 7024SOL    HW132534   1.644   4.682  13.796  0.6162 -1.1662 -1.0624
 7024SOL    HW232535   1.727   0.083  13.824  1.3487 -0.2631 -0.7053
 7025SOL     OW32536   2.237   3.056   2.921 -0.0302 -0.0064  0.1891
 7025SOL    HW132537   2.286   2.980   2.891 -0.9238 -0.6337  0.3091
 7025SOL    HW232538   2.157   3.014   2.952 -0.4728  1.3593  0.9152
 7026SOL     OW32539   4.658   2.032   4.034 -0.2014 -0.0504 -0.1814
 7026SOL    HW132540   4.708   1.951   4.032  0.5757  0.4417 -0.8711
 7026SOL    HW232541   4.610   2.024   3.951 -3.3194 -0.1523  1.6385
 7027SOL     OW32542   2.078   2.094   4.431 -0.4499  0.2839  0.2573
 7027SOL    HW132543   2.047   2.033   4.364  0.7972 -1.1651  1.0092
 7027SOL    HW232544   2.111   2.175   4.391 -1.5297 -0.0321 -1.2716
 7028SOL     OW32545   1.612   4.536   9.553  0.1128  0.3254  0.0218
 7028SOL    HW132546   1.679   4.474   9.581 -0.3331 -0.2406 -0.1766
 7028SOL    HW232547   1.536   4.505   9.603  1.8172 -0.4844  2.0998
 7029SOL     OW32548   3.551   3.728   3.214  0.5041 -0.0329 -0.2615
 7029SOL    HW132549   3.486   3.674   3.258  0.9000 -0.3552 -0.0767
 7029SOL    HW232550   3.574   3.785   3.287  0.5452 -2.3067  1.5139
 7030SOL     OW32551   0.990   3.208  10.031 -0.4772  0.6225  0.2661
 7030SOL    HW132552   1.067   3.152  10.020 -2.7304 -2.4120  0.0899
 7030SOL    HW232553   0.951   3.200   9.944  0.8767 -0.1673 -0.2663
 7031SOL     OW32554   3.463   3.667  11.098 -0.0039  0.2629 -0.0533
 7031SOL    HW132555   3.486   3.751  11.059 -0.7127  0.7523  0.5754
 7031SOL    HW232556   3.449   3.615  11.019 -2.9176 -1.7095  1.7533
 7032SOL     OW32557   2.552   2.531   3.361 -0.8835 -0.1773  0.0942
 7032SOL    HW132558   2.580   2.622   3.353 -1.6538  0.2624  2.3155
 7032SOL    HW232559   2.566   2.499   3.272 -0.3021  2.0940 -0.6261
 7033SOL     OW32560   2.222   4.573   0.981 -0.2224 -0.0493 -0.0194
 7033SOL    HW132561   2.277   4.591   1.057 -2.4003 -1.4418  1.9138
 7033SOL    HW232562   2.137   4.610   1.007  1.0340  3.8438 -1.4163
 7034SOL     OW32563   0.389   1.128   5.382  0.4577  0.4221  0.1484
 7034SOL    HW132564   0.318   1.065   5.390 -0.0383  0.9137 -0.3925
 7034SOL    HW232565   0.335   1.205   5.398  0.1967  0.5291 -1.1865
 7035SOL     OW32566   1.613   2.690  17.075 -0.1742 -0.2300 -0.5750
 7035SOL    HW132567   1.673   2.762  17.057 -1.0568  0.8926  1.0857
 7035SOL    HW232568   1.586   2.703  17.165 -0.8786 -0.7361 -0.7025
 7036SOL     OW32569   1.641   2.291   3.390  0.0044  0.6172 -0.5787
 7036SOL    HW132570   1.564   2.332   3.351 -1.6093 -2.6170 -0.7917
 7036SOL    HW232571   1.618   2.294   3.482 -0.4485 -0.1981 -0.6632
 7037SOL     OW32572   3.676   3.222   8.497  0.2376 -0.1991 -0.1133
 7037SOL    HW132573   3.750   3.279   8.518 -0.9738  0.0926  3.3124
 7037SOL    HW232574   3.706   3.141   8.539  0.5777 -0.7342 -1.3944
 7038SOL     OW32575   2.442   3.886  11.095 -0.3701  0.2372 -0.0112
 7038SOL    HW132576   2.482   3.800  11.111 -0.7664  0.1047  0.2673
 7038SOL    HW232577   2.396   3.900  11.178  1.1861  0.1052  0.8683
 7039SOL     OW32578   1.490   0.307  13.996  0.2547  0.1654  0.1977
 7039SOL    HW132579   1.410   0.285  14.043 -0.0829 -0.6176 -0.7496
 7039SOL    HW232580   1.543   0.326  14.074  0.3939 -0.0327  0.1529
 7040SOL     OW32581   4.517   3.999   5.042 -0.2321  0.4181  0.0783
 7040SOL    HW132582   4.507   3.955   4.957  0.7428 -0.2918  0.3376
 7040SOL    HW232583   4.536   3.925   5.099 -1.1168 -0.5520 -0.9077
 7041SOL     OW32584   3.208   1.327   5.731 -0.1972 -0.0290 -0.2209
 7041SOL    HW132585   3.247   1.414   5.733 -1.0897  0.3637  0.0604
 7041SOL    HW232586   3.160   1.323   5.814 -1.2888  0.9912 -0.8084
 7042SOL     OW32587   3.749   0.678   2.079 -0.1791 -0.0896  0.3183
 7042SOL    HW132588   3.807   0.609   2.113 -0.8950 -0.5041  0.6963
 7042SOL    HW232589   3.796   0.691   1.997  1.8046  1.9970  1.7685
 7043SOL     OW32590   2.411   4.142   4.189 -0.2648  0.3684 -0.2255
 7043SOL    HW132591   2.498   4.106   4.170 -0.6546  0.4555 -2.1233
 7043SOL    HW232592   2.421   4.228   4.230  0.9046  0.9970 -1.8470
 7044SOL     OW32593   0.405   1.502   5.282  0.3632  0.3507  0.1265
 7044SOL    HW132594   0.441   1.413   5.286  1.8417  0.9410 -0.3872
 7044SOL    HW232595   0.376   1.514   5.372  1.3120 -0.3274  0.5242
 7045SOL     OW32596   3.550   1.631  15.093  0.3185  0.2392  0.2294
 7045SOL    HW132597   3.586   1.614  15.180  3.9031 -0.7584 -1.4507
 7045SOL    HW232598   3.616   1.607  15.028  0.9552  0.5668  0.7615
 7046SOL     OW32599   2.802   1.022   1.712 -0.1700 -0.2367 -0.1194
 7046SOL    HW132600   2.870   0.986   1.654 -0.9752  0.2102 -1.3531
 7046SOL    HW232601   2.746   1.075   1.654  0.8761 -0.2644 -1.1578
 7047SOL     OW32602   2.083   0.755  10.566  0.6249 -0.3625 -0.5020
 7047SOL    HW132603   2.011   0.818  10.566  1.6499  0.7928  1.4264
 7047SOL    HW232604   2.126   0.762  10.481  1.4519  0.3714 -0.0209
 7048SOL     OW32605   4.407   1.850   7.885 -0.0386  0.0370 -0.0026
 7048SOL    HW132606   4.426   1.881   7.796  1.2330  0.1639  0.3138
 7048SOL    HW232607   4.484   1.890   7.925  0.1054  1.2801 -1.5087
 7049SOL     OW32608   1.099   4.162  14.615  0.0277  0.5558  0.2933
 7049SOL    HW132609   1.060   4.238  14.571  1.2104  0.2057 -1.3993
 7049SOL    HW232610   1.147   4.124  14.541 -0.3754  2.2896 -0.8617
 7050SOL     OW32611   0.024   3.940   6.244 -0.1709  0.1910 -0.0171
 7050SOL    HW132612   0.070   3.894   6.313  0.2409  2.5044  1.2696
 7050SOL    HW232613   0.016   3.875   6.174 -0.0633  0.3888 -0.2152
 7051SOL     OW32614   0.278   1.105   1.258  0.2609 -0.5319 -0.2827
 7051SOL    HW132615   0.256   1.071   1.172  0.8596 -0.0957 -0.6095
 7051SOL    HW232616   0.355   1.049   1.269  0.7452  0.2608  0.4189
 7052SOL     OW32617   2.552   4.325   8.098  0.0892  0.6183 -0.1754
 7052SOL    HW132618   2.527   4.234   8.083 -1.4228  1.2227 -1.2819
 7052SOL    HW232619   2.593   4.345   8.014  0.2234 -0.0381 -0.2636
 7053SOL     OW32620   4.666   1.691   2.815 -0.0722 -0.1510  0.3551
 7053SOL    HW132621   4.609   1.695   2.738 -0.9478 -1.9609  0.9086
 7053SOL    HW232622   4.618   1.643   2.882 -1.5676  1.3572  0.3737
 7054SOL     OW32623   2.229   3.716  15.544 -0.0178  0.3507 -0.0746
 7054SOL    HW132624   2.180   3.732  15.624  1.5507  0.2359  0.9070
 7054SOL    HW232625   2.162   3.687  15.482 -1.2175  1.8241  0.5265
 7055SOL     OW32626   4.541   2.371   3.965 -0.2670  0.0047 -0.0491
 7055SOL    HW132627   4.636   2.371   3.954  0.0804  0.3646  2.8339
 7055SOL    HW232628   4.517   2.342   3.877  0.6060 -3.0081  0.7072
 7056SOL     OW32629   0.723   1.689  17.158  0.2944  0.1617  0.0194
 7056SOL    HW132630   0.710   1.700  17.252  2.9754  3.8751 -0.0399
 7056SOL    HW232631   0.656   1.753  17.134  0.4472 -0.1617 -1.2756
 7057SOL     OW32632   0.913   1.486   7.383 -0.3475  0.7681  0.0326
 7057SOL    HW132633   0.830   1.533   7.371 -0.8510 -0.2545 -0.4552
 7057SOL    HW232634   0.961   1.559   7.423 -0.2606  1.3180 -1.0613
 7058SOL     OW32635   4.049   4.293  16.540  0.9300  0.1398 -0.3518
 7058SOL    HW132636   4.018   4.212  16.580  2.1930 -0.3913 -0.4456
 7058SOL    HW232637   4.141   4.286  16.566  0.3520  1.3085  2.0234
 7059SOL     OW32638   3.372   3.443   4.672 -0.3244  0.0957  0.5701
 7059SOL    HW132639   3.450   3.388   4.663 -0.8792 -0.4516 -0.9103
 7059SOL    HW232640   3.354   3.452   4.578 -3.0177  1.1931  1.1739
 7060SOL     OW32641   1.677   1.234   5.449 -0.2017  0.2223  0.1970
 7060SOL    HW132642   1.739   1.165   5.424 -1.1370  0.1350 -1.8402
 7060SOL    HW232643   1.625   1.246   5.370  0.0279  1.5112  0.2519
 7061SOL     OW32644   0.301   3.086   5.952 -0.2373 -0.1643 -0.5243
 7061SOL    HW132645   0.268   3.018   5.893  0.2793 -1.2741  0.4828
 7061SOL    HW232646   0.254   3.156   5.906 -1.3152  0.4343  1.4994
 7062SOL     OW32647   4.350   2.242   9.914 -0.2372  0.1049 -0.3309
 7062SOL    HW132648   4.292   2.235   9.838  1.9148 -1.4659 -1.8204
 7062SOL    HW232649   4.386   2.153   9.916 -0.2871  0.0701 -0.9819
 7063SOL     OW32650   1.810   3.478   0.675 -0.2316  0.4956 -0.3961
 7063SOL    HW132651   1.818   3.384   0.658 -1.4224  0.2172  0.6131
 7063SOL    HW232652   1.896   3.518   0.683 -2.0130  4.2487  0.0543
 7064SOL     OW32653   2.049   2.350   7.367 -0.5904  0.1898  0.0831
 7064SOL    HW132654   2.018   2.413   7.302 -1.2583 -0.5753 -0.3322
 7064SOL    HW232655   1.972   2.296   7.382  1.1809 -1.8879  1.6857
 7065SOL     OW32656   0.983   0.330   8.152 -0.9474 -0.3220  0.1238
 7065SOL    HW132657   0.997   0.301   8.062  0.5398  0.4754  0.0968
 7065SOL    HW232658   0.914   0.393   8.134 -0.2374 -0.1164 -1.8850
 7066SOL     OW32659   2.542   2.544   9.257  0.1582 -0.1659 -0.4581
 7066SOL    HW132660   2.618   2.537   9.316 -1.8119  0.1297  2.1024
 7066SOL    HW232661   2.477   2.570   9.322  0.2019  1.0149 -0.8980
 7067SOL     OW32662   0.163   1.348   6.650 -0.5171 -0.1413  0.3801
 7067SOL    HW132663   0.223   1.356   6.575  1.5632 -0.5256  2.0278
 7067SOL    HW232664   0.162   1.438   6.683  1.0315 -0.1851  0.5388
 7068SOL     OW32665   3.840   0.178   3.449 -0.6111 -0.3556  0.2144
 7068SOL    HW132666   3.812   0.150   3.536 -0.6921  1.3694  0.7436
 7068SOL    HW232667   3.891   0.256   3.472  1.1598 -2.2662  2.8221
 7069SOL     OW32668   0.887   2.829  13.447 -0.4857  0.5156  0.3081
 7069SOL    HW132669   0.828   2.902  13.466  0.9807  1.9913 -0.8688
 7069SOL    HW232670   0.823   2.758  13.434  1.3409 -1.1471  0.3896
 7070SOL     OW32671   3.491   0.728   4.840 -0.3241  0.0653  0.0579
 7070SOL    HW132672   3.429   0.713   4.769  0.7026 -1.2924 -0.5602
 7070SOL    HW232673   3.451   0.673   4.908  0.5578 -1.0469 -0.3238
 7071SOL     OW32674   3.848   0.707   7.302  0.0023 -0.5062 -0.0142
 7071SOL    HW132675   3.818   0.769   7.368  1.4207  0.2684 -0.1037
 7071SOL    HW232676   3.944   0.714   7.299 -0.2203  2.1750 -1.0465
 7072SOL     OW32677   2.488   0.306  17.387  0.7528  0.0224  0.5023
 7072SOL    HW132678   2.578   0.312  17.354  0.4965  0.0919 -0.1984
 7072SOL    HW232679   2.426   0.337  17.322  0.3488 -2.0904 -0.1246
 7073SOL     OW32680   1.774   2.651   4.188  0.0141 -0.2589 -0.0253
 7073SOL    HW132681   1.835   2.596   4.237  1.3672 -0.3439 -1.8414
 7073SOL    HW232682   1.743   2.703   4.262 -0.3602  0.0983 -0.4320
 7074SOL     OW32683   0.552   0.407   2.494  0.4756  0.7888  0.3064
 7074SOL    HW132684   0.547   0.392   2.400  0.2179 -1.3143  0.6410
 7074SOL    HW232685   0.585   0.496   2.488  0.4081  0.7965  0.0543
 7075SOL     OW32686   3.521   2.366   8.763 -0.1364 -0.8535 -0.2318
 7075SOL    HW132687   3.509   2.272   8.776 -1.9731 -0.4517  1.0537
 7075SOL    HW232688   3.453   2.403   8.820  1.2630 -1.0291  1.5612
 7076SOL     OW32689   3.699   3.439   3.956 -0.5077  0.0898  0.3851
 7076SOL    HW132690   3.732   3.486   3.880  0.5826  0.6118  1.1759
 7076SOL    HW232691   3.625   3.389   3.921 -0.6358  0.8781 -0.4464
 7077SOL     OW32692   2.138   0.183  14.280  0.1224  0.3052  0.2412
 7077SOL    HW132693   2.120   0.105  14.332 -1.6651  0.5727  0.0259
 7077SOL    HW232694   2.095   0.163  14.197 -1.4199  2.0561  0.6126
 7078SOL     OW32695   4.354   2.191   2.232 -0.6626  0.0736  0.1312
 7078SOL    HW132696   4.448   2.204   2.220 -0.3935 -1.4445  0.6338
 7078SOL    HW232697   4.348   2.099   2.205  1.6145  0.1673 -0.7335
 7079SOL     OW32698   3.097   0.642   7.340  0.3730 -0.3183  0.7547
 7079SOL    HW132699   3.077   0.549   7.352  0.7119 -0.5947 -0.7900
 7079SOL    HW232700   3.193   0.639   7.338  0.3609 -0.4216  0.2575
 7080SOL     OW32701   1.125   3.131   2.760 -0.2482 -0.0254 -0.5280
 7080SOL    HW132702   1.211   3.127   2.801  0.5571  1.2822 -2.1060
 7080SOL    HW232703   1.145   3.202   2.698 -1.1211 -0.3659 -1.2146
 7081SOL     OW32704   0.895   4.697   2.604  0.9732  0.0024  0.5377
 7081SOL    HW132705   0.886   0.063   2.562  3.9524  0.6671  1.2969
 7081SOL    HW232706   0.916   4.650   2.523  1.0787  2.6588 -0.9968
 7082SOL     OW32707   4.141   4.202  16.877 -0.1518  0.0273 -0.1035
 7082SOL    HW132708   4.186   4.285  16.895  0.0796 -0.1625  0.1825
 7082SOL    HW232709   4.184   4.145  16.940  1.0112  1.4970  0.4495
 7083SOL     OW32710   0.841   0.489   8.792 -0.6409  0.0890  0.7217
 7083SOL    HW132711   0.936   0.481   8.792 -0.6629 -0.1531  1.8609
 7083SOL    HW232712   0.823   0.477   8.886  0.1372  1.1605  1.0052
 7084SOL     OW32713   2.438   1.496   5.147  0.1254  0.6615 -0.0394
 7084SOL    HW132714   2.524   1.460   5.125 -0.0526 -0.0502  0.4051
 7084SOL    HW232715   2.426   1.571   5.090 -0.7574  0.1916 -0.4683
 7085SOL     OW32716   0.387   4.352   5.463 -0.3261 -0.1188  0.5541
 7085SOL    HW132717   0.320   4.417   5.442  1.7981  2.3819  1.5900
 7085SOL    HW232718   0.336   4.302   5.527  0.0228  0.6017  1.3852
 7086SOL     OW32719   4.169   1.458   5.706 -0.2294 -0.5978  0.1105
 7086SOL    HW132720   4.155   1.542   5.663 -1.7125 -0.5433  0.7095
 7086SOL    HW232721   4.223   1.482   5.781  1.0548 -0.6158 -0.8077
 7087SOL     OW32722   1.867   4.276   7.033 -0.3791  0.0732 -0.4237
 7087SOL    HW132723   1.783   4.231   7.038 -0.1252 -0.1783  1.4972
 7087SOL    HW232724   1.900   4.251   6.946  1.2939 -2.3538  0.9113
 7088SOL     OW32725   3.957   1.126   2.265  1.0636 -0.3811  0.4134
 7088SOL    HW132726   3.891   1.075   2.217  1.4137 -1.0671  0.6575
 7088SOL    HW232727   3.989   1.069   2.335 -0.3463 -1.0851  0.5055
 7089SOL     OW32728   0.573   3.386   8.554  0.1913 -0.2805  0.4871
 7089SOL    HW132729   0.558   3.382   8.460 -0.1645  1.3367  0.4767
 7089SOL    HW232730   0.504   3.328   8.586  0.9721  0.2826  3.2294
 7090SOL     OW32731   3.805   2.882   3.593  0.1015  0.9506 -0.1150
 7090SOL    HW132732   3.813   2.874   3.688 -0.4955 -1.1472 -0.2391
 7090SOL    HW232733   3.873   2.943   3.564  1.4309 -0.8279 -0.7638
 7091SOL     OW32734   4.016   4.265  14.851 -0.3334 -0.0523 -0.1306
 7091SOL    HW132735   3.927   4.293  14.870  0.4096  0.6909  2.3286
 7091SOL    HW232736   4.066   4.345  14.867  0.1463 -0.2502 -0.6511
 7092SOL     OW32737   2.986   1.428   7.198  0.4713  0.7183 -0.3410
 7092SOL    HW132738   2.964   1.435   7.291  0.2437  1.0801 -0.4248
 7092SOL    HW232739   3.017   1.517   7.183  1.0270  0.8293  1.3995
 7093SOL     OW32740   3.705   1.953   7.201  1.0025 -0.4143 -0.0599
 7093SOL    HW132741   3.712   1.858   7.188  0.1565 -0.4399 -0.2862
 7093SOL    HW232742   3.620   1.958   7.245  0.6870  0.7854 -0.8119
 7094SOL     OW32743   2.318   0.565  10.401 -0.6976  0.1069  0.0482
 7094SOL    HW132744   2.375   0.505  10.354 -0.8325  0.4590 -0.5692
 7094SOL    HW232745   2.378   0.637  10.421  0.1528 -1.2611  2.4687
 7095SOL     OW32746   2.920   1.428   7.464 -0.0192  0.1288  0.0332
 7095SOL    HW132747   2.963   1.483   7.529 -0.6553  1.2544 -0.4922
 7095SOL    HW232748   2.852   1.392   7.521  0.4824  0.4907  0.8555
 7096SOL     OW32749   4.150   2.610   7.527  0.8833 -0.4270 -0.2127
 7096SOL    HW132750   4.232   2.561   7.522  0.3397 -1.3311 -0.1543
 7096SOL    HW232751   4.088   2.538   7.537 -0.1575  0.2226 -1.9734
 7097SOL     OW32752   3.704   0.886   5.441 -0.3161  0.0345  0.2993
 7097SOL    HW132753   3.779   0.920   5.391  0.7058  0.6607  2.2743
 7097SOL    HW232754   3.686   0.942   5.516  1.4979  1.1494 -0.0840
 7098SOL     OW32755   3.911   4.632   7.042  0.2050  0.5350 -0.3220
 7098SOL    HW132756   3.938   4.718   7.011  0.8175  0.3851 -0.2034
 7098SOL    HW232757   3.992   4.598   7.081  0.1660  0.0293 -0.6805
 7099SOL     OW32758   3.329   1.167   6.993  0.3762 -0.0229 -0.4457
 7099SOL    HW132759   3.387   1.242   7.006  1.0073 -0.8968  1.7240
 7099SOL    HW232760   3.331   1.132   7.082 -1.1490  0.0531 -0.3804
 7100SOL     OW32761   3.978   1.481   7.062  0.6144 -0.6334 -0.0799
 7100SOL    HW132762   3.942   1.402   7.021 -0.0607 -0.2925 -0.1438
 7100SOL    HW232763   3.911   1.504   7.127 -0.8293  0.8925 -2.1154
 7101SOL     OW32764   1.624   2.701  15.631 -0.2526 -0.5923 -0.0297
 7101SOL    HW132765   1.585   2.625  15.588  3.1680 -2.4265  0.1014
 7101SOL    HW232766   1.538   2.730  15.663  0.6331  2.1248 -0.0545
 7102SOL     OW32767   1.959   2.030   6.690  0.1817 -0.3203 -0.4214
 7102SOL    HW132768   1.917   2.115   6.679  0.7506  0.1106  0.6606
 7102SOL    HW232769   2.053   2.049   6.689  0.8636 -3.7375 -1.5633
 7103SOL     OW32770   3.811   4.511  15.154  0.1947 -0.0976  0.4681
 7103SOL    HW132771   3.898   4.481  15.179 -0.0051 -1.6652 -0.7132
 7103SOL    HW232772   3.779   4.572  15.220  0.5802 -2.6917  3.0131
 7104SOL     OW32773   0.249   4.582   1.931  0.3286  0.5336  0.0140
 7104SOL    HW132774   0.288   4.619   2.010 -0.1440  0.2413  0.3859
 7104SOL    HW232775   0.203   4.660   1.899  3.6890  3.3340  2.0173
 7105SOL     OW32776   1.163   0.685   6.432 -0.5240 -0.2545  0.1183
 7105SOL    HW132777   1.258   0.688   6.418 -0.7056 -2.1272 -1.6124
 7105SOL    HW232778   1.152   0.618   6.499 -1.3149 -1.1304 -0.8788
 7106SOL     OW32779   0.965   4.026   7.007  0.2092  0.1283  0.1758
 7106SOL    HW132780   0.877   3.989   7.008 -0.1419  0.9545 -0.0920
 7106SOL    HW232781   1.004   3.993   6.926 -0.9633 -0.2652 -0.2201
 7107SOL     OW32782   4.116   1.572   5.281  0.1694 -0.2744 -0.4216
 7107SOL    HW132783   4.165   1.649   5.306  1.1498 -0.5515 -1.4842
 7107SOL    HW232784   4.181   1.517   5.237  0.8946 -0.1776  0.5532
 7108SOL     OW32785   4.188   3.963   6.173  0.6666 -0.4940  0.4499
 7108SOL    HW132786   4.193   3.977   6.078  1.3536  2.0911  0.8816
 7108SOL    HW232787   4.094   3.967   6.190  0.9585  0.8056  1.7439
 7109SOL     OW32788   3.646   0.532   5.856  0.3551 -0.9001 -0.0032
 7109SOL    HW132789   3.552   0.549   5.855  0.2236 -1.6163  0.4724
 7109SOL    HW232790   3.686   0.607   5.900 -0.7398  1.2363 -2.6484
 7110SOL     OW32791   4.655   0.596  12.870 -0.5638 -0.5142 -0.7423
 7110SOL    HW132792   4.640   0.647  12.791  0.0279  1.5621  0.4985
 7110SOL    HW232793   4.593   0.633  12.933 -1.1403 -1.2902 -0.8570
 7111SOL     OW32794   2.686   4.220   3.821  0.0163  0.2290 -0.0248
 7111SOL    HW132795   2.673   4.172   3.903  0.3067  0.3573  0.0953
 7111SOL    HW232796   2.766   4.269   3.838  1.5096 -2.3408  0.4079
 7112SOL     OW32797   3.841   3.566   9.697 -0.4380 -0.3433 -0.6503
 7112SOL    HW132798   3.844   3.489   9.639  1.3065 -0.8907  0.1689
 7112SOL    HW232799   3.830   3.641   9.638  0.6816  0.5095  0.2386
 7113SOL     OW32800   3.985   2.140  12.049  0.5489 -0.0028 -0.0119
 7113SOL    HW132801   3.974   2.076  11.978  0.9945  1.6520 -1.5685
 7113SOL    HW232802   3.981   2.217  11.992  1.4725  0.9799  1.2412
 7114SOL     OW32803   4.460   4.706  11.915  0.3075 -0.0010 -0.0264
 7114SOL    HW132804   4.526   4.637  11.917  1.5812  1.1399 -2.2198
 7114SOL    HW232805   4.474   0.026  11.829  0.2087 -0.3300 -0.1996
 7115SOL     OW32806   3.507   0.075   8.671  0.7579  0.1076  0.4544
 7115SOL    HW132807   3.543   0.013   8.734  0.7601 -1.2325 -0.8854
 7115SOL    HW232808   3.446   0.128   8.722 -0.6267 -0.9849 -0.0591
 7116SOL     OW32809   2.005   0.040  13.629  0.2312 -0.2528  0.3694
 7116SOL    HW132810   1.979   4.682  13.678 -0.5294  0.0755  0.4895
 7116SOL    HW232811   1.937   0.105  13.647 -0.2125 -1.1673  1.9651
 7117SOL     OW32812   1.165   3.999   5.253 -0.1360 -0.0665 -0.2678
 7117SOL    HW132813   1.095   4.054   5.287  0.5625  1.4095 -1.2256
 7117SOL    HW232814   1.231   3.980   5.320 -0.6183  0.0014  0.2236
 7118SOL     OW32815   3.371   3.077  12.669 -0.1250 -0.2476 -0.4890
 7118SOL    HW132816   3.327   2.998  12.637 -0.7479 -0.6612  1.3869
 7118SOL    HW232817   3.392   3.115  12.584 -0.9027 -0.3393 -0.7178
 7119SOL     OW32818   0.994   1.862   8.186 -0.0651 -0.6867 -0.0611
 7119SOL    HW132819   0.999   1.870   8.091  0.2534 -0.1560  0.0007
 7119SOL    HW232820   1.043   1.937   8.219 -0.2114 -0.0180 -1.3752
 7120SOL     OW32821   3.137   1.997  11.151 -0.1113 -0.2309 -0.8833
 7120SOL    HW132822   3.121   1.984  11.057  0.2390 -0.4015 -0.9203
 7120SOL    HW232823   3.190   1.920  11.174  0.7049  0.5791 -0.0419
 7121SOL     OW32824   1.412   2.147   4.301 -1.1141 -0.6360  0.1298
 7121SOL    HW132825   1.367   2.073   4.260 -0.5063 -1.7700  1.4975
 7121SOL    HW232826   1.497   2.150   4.257 -0.6050 -2.9489  0.9380
 7122SOL     OW32827   3.347   1.787   8.280  0.3380 -0.3247  0.0909
 7122SOL    HW132828   3.406   1.837   8.224  0.8920 -0.5282  0.4973
 7122SOL    HW232829   3.262   1.792   8.235  1.4424  1.8161 -1.7476
 7123SOL     OW32830   2.474   3.699   3.039 -0.1182  0.2758 -0.1582
 7123SOL    HW132831   2.425   3.756   3.098  0.7186  2.7287 -1.8290
 7123SOL    HW232832   2.426   3.716   2.957  0.4810 -1.0441 -0.7703
 7124SOL     OW32833   4.073   1.316  16.047 -0.1208 -0.2634  0.0377
 7124SOL    HW132834   4.084   1.233  16.093  3.6287 -0.9865 -2.1829
 7124SOL    HW232835   4.120   1.301  15.965  0.0174 -0.7154  0.2013
 7125SOL     OW32836   3.581   3.003   6.240 -0.5211 -0.3562 -0.2677
 7125SOL    HW132837   3.608   2.932   6.183 -1.3904 -0.6606 -0.3075
 7125SOL    HW232838   3.668   3.038   6.260 -1.5044  0.6773  2.1926
 7126SOL     OW32839   0.860   1.749   3.487  0.2874  0.1316  0.0857
 7126SOL    HW132840   0.924   1.718   3.552  1.8139  2.1233 -0.4839
 7126SOL    HW232841   0.901   1.833   3.469  3.1081 -1.1988  0.3785
 7127SOL     OW32842   4.103   3.994   7.733  0.1044 -0.6988 -0.1012
 7127SOL    HW132843   4.162   3.928   7.696 -0.8247 -1.7383  0.2439
 7127SOL    HW232844   4.093   3.969   7.825  0.8912  0.9194  0.4168
 7128SOL     OW32845   2.309   2.038  14.259 -0.2928 -0.2147  0.2361
 7128SOL    HW132846   2.325   2.064  14.350 -3.0966  2.2270  0.0380
 7128SOL    HW232847   2.381   1.977  14.245 -1.5399 -1.8886  1.0908
 7129SOL     OW32848   3.892   2.211  11.627 -0.2002 -0.0833  0.0909
 7129SOL    HW132849   3.964   2.157  11.659 -0.3384  1.0331  2.2666
 7129SOL    HW232850   3.812   2.167  11.655 -1.0021  0.9903 -0.5336
 7130SOL     OW32851   1.427   4.007   8.145  0.3617  0.3760 -0.0615
 7130SOL    HW132852   1.344   3.998   8.098  0.9762  0.3662 -1.1436
 7130SOL    HW232853   1.387   4.056   8.217  0.8884 -0.4452  0.7918
 7131SOL     OW32854   1.358   0.324   2.068 -0.0296 -0.1841 -0.0896
 7131SOL    HW132855   1.358   0.228   2.064 -2.6305 -0.2877  2.5395
 7131SOL    HW232856   1.437   0.355   2.024 -0.3874 -0.4996 -0.9498
 7132SOL     OW32857   1.226   2.774  12.588  0.1350 -0.2023  0.1578
 7132SOL    HW132858   1.278   2.694  12.586  0.1824 -0.2403  2.4689
 7132SOL    HW232859   1.295   2.839  12.599  0.3268 -0.7948  2.6066
 7133SOL     OW32860   3.673   0.423  13.047  0.4998 -0.0806 -0.0793
 7133SOL    HW132861   3.647   0.454  13.134  0.1590  1.1385 -0.6262
 7133SOL    HW232862   3.674   0.504  12.998 -3.3767 -0.3839 -0.6712
 7134SOL     OW32863   0.892   3.257   7.799 -0.1582  0.1382  0.1530
 7134SOL    HW132864   0.980   3.247   7.762  0.0739  0.2214  0.6692
 7134SOL    HW232865   0.837   3.270   7.723 -1.9251 -1.4735  1.1418
 7135SOL     OW32866   4.381   3.751  10.024  0.2611 -0.0379  0.4479
 7135SOL    HW132867   4.394   3.689   9.952 -1.9642 -0.1641  0.1598
 7135SOL    HW232868   4.298   3.715  10.055 -0.2441  1.6933  1.1046
 7136SOL     OW32869   3.710   0.825   7.874 -0.5613  0.3762 -0.0002
 7136SOL    HW132870   3.712   0.847   7.967 -0.5438 -1.3197  0.4022
 7136SOL    HW232871   3.659   0.901   7.846 -0.4720 -0.0669 -1.3479
 7137SOL     OW32872   1.182   4.516   6.968 -0.2123 -0.3012  0.1369
 7137SOL    HW132873   1.266   4.470   6.976  1.7573  3.1539 -0.7770
 7137SOL    HW232874   1.176   4.534   6.874 -2.1513 -1.3290  0.0820
 7138SOL     OW32875   1.833   3.959  14.488 -0.4104 -0.1398  0.7440
 7138SOL    HW132876   1.828   3.974  14.582 -3.1111 -0.8851  0.7371
 7138SOL    HW232877   1.907   4.011  14.457 -1.7922  1.6905  0.4482
 7139SOL     OW32878   0.512   0.718  15.426 -0.1337  0.6516  0.4553
 7139SOL    HW132879   0.596   0.726  15.472  2.2031  0.6512 -3.7934
 7139SOL    HW232880   0.539   0.671  15.347 -0.1542 -0.2699  0.9978
 7140SOL     OW32881   1.111   3.760  15.610 -0.1752 -0.3135  0.3465
 7140SOL    HW132882   1.024   3.756  15.571 -0.2081 -0.0722  0.3944
 7140SOL    HW232883   1.137   3.851  15.597  2.2895 -1.0820 -0.0710
 7141SOL     OW32884   4.543   2.895  10.313  0.4416 -0.0746  0.3253
 7141SOL    HW132885   4.590   2.834  10.257  0.7545  1.3320 -0.9304
 7141SOL    HW232886   4.614   2.950  10.345 -1.0217  1.5432  0.7890
 7142SOL     OW32887   4.170   4.061  12.919 -0.3576 -0.2506 -0.0652
 7142SOL    HW132888   4.208   4.014  12.993  1.5311  2.2609  0.5638
 7142SOL    HW232889   4.196   4.151  12.939 -1.4800 -0.0196  0.3720
 7143SOL     OW32890   0.372   3.174   5.611 -0.4948 -0.5209 -0.8533
 7143SOL    HW132891   0.459   3.155   5.574  0.3103 -0.0549  0.8349
 7143SOL    HW232892   0.337   3.091   5.643 -2.9152  1.1093  0.7329
 7144SOL     OW32893   1.301   4.158   3.188  0.5883 -0.0106 -0.0207
 7144SOL    HW132894   1.392   4.139   3.212  0.7743 -0.7982 -1.3130
 7144SOL    HW232895   1.267   4.081   3.233  1.7346 -1.2594 -1.2818
 7145SOL     OW32896   4.080   1.836  12.798 -0.0645  0.2223 -0.3577
 7145SOL    HW132897   4.152   1.777  12.775 -0.6288  0.2998 -2.3283
 7145SOL    HW232898   4.063   1.804  12.887  0.1038 -2.8011 -1.4355
 7146SOL     OW32899   2.603   2.016   4.068 -0.0348  0.1464  0.6859
 7146SOL    HW132900   2.516   2.047   4.091 -0.3014 -0.2895  0.2874
 7146SOL    HW232901   2.659   2.076   4.117 -0.3956  1.0794 -0.0501
 7147SOL     OW32902   2.328   0.017   3.360  0.5905  0.0657 -0.6858
 7147SOL    HW132903   2.378   4.660   3.385  2.6803  1.8906  0.8196
 7147SOL    HW232904   2.340   0.013   3.265 -0.5673  2.5219 -0.9408
 7148SOL     OW32905   4.453   3.498   1.603 -0.5472 -0.4584 -0.5577
 7148SOL    HW132906   4.535   3.546   1.600  0.3488 -1.8477  1.4818
 7148SOL    HW232907   4.445   3.483   1.697  2.9771  0.7754 -0.1017
 7149SOL     OW32908   0.647   2.820   6.619 -0.2203 -0.5085 -0.0494
 7149SOL    HW132909   0.690   2.813   6.534 -1.4678  0.5226 -0.7517
 7149SOL    HW232910   0.710   2.787   6.683  2.1234  0.1106 -2.0515
 7150SOL     OW32911   0.771   3.908  13.736 -0.0623  0.6763 -0.1149
 7150SOL    HW132912   0.848   3.956  13.705 -0.2064  0.7670 -0.3282
 7150SOL    HW232913   0.728   3.971  13.793 -0.3755 -1.1601  1.6673
 7151SOL     OW32914   1.122   3.694   8.340 -0.4483 -0.4804  0.0397
 7151SOL    HW132915   1.092   3.708   8.250 -1.9594  2.5196  1.0080
 7151SOL    HW232916   1.133   3.788   8.352 -0.9989 -0.3997 -0.0762
 7152SOL     OW32917   1.212   1.286  12.386 -0.4202 -0.1081  0.0235
 7152SOL    HW132918   1.306   1.269  12.396 -0.0865 -0.0727 -2.9773
 7152SOL    HW232919   1.208   1.381  12.392 -0.3685 -0.0191 -1.3960
 7153SOL     OW32920   0.274   3.424   3.016 -0.0625 -0.2300  0.5230
 7153SOL    HW132921   0.370   3.415   3.018 -0.1914 -1.0985  3.4499
 7153SOL    HW232922   0.247   3.356   3.078 -0.4118 -1.3729 -0.8801
 7154SOL     OW32923   0.466   0.757   6.298 -0.0614  0.0834  0.3179
 7154SOL    HW132924   0.402   0.828   6.293  0.0637  0.1295 -0.6865
 7154SOL    HW232925   0.488   0.774   6.389  2.5939  0.5274 -0.4085
 7155SOL     OW32926   4.065   3.707   1.278  0.0100 -0.5047 -0.6209
 7155SOL    HW132927   4.106   3.624   1.253 -0.5007 -1.1747  0.7953
 7155SOL    HW232928   4.093   3.764   1.206 -2.7526 -0.1538 -1.4144
 7156SOL     OW32929   2.684   2.939   1.787  0.2673 -0.4231  0.3292
 7156SOL    HW132930   2.596   2.975   1.773  0.4209 -0.8685 -1.7722
 7156SOL    HW232931   2.687   2.959   1.881 -0.3085 -1.3870  0.5545
 7157SOL     OW32932   2.803   1.615   1.943 -0.0338  0.5815 -0.3877
 7157SOL    HW132933   2.825   1.591   1.853 -2.5477  1.0089 -1.1207
 7157SOL    HW232934   2.752   1.542   1.978  1.3815 -0.0362  0.3933
 7158SOL     OW32935   2.828   3.824   3.432  0.7523 -0.0588  0.1930
 7158SOL    HW132936   2.819   3.737   3.392  1.2590 -0.4641  0.9696
 7158SOL    HW232937   2.752   3.815   3.490  0.1263  2.0573 -0.3065
 7159SOL     OW32938   3.360   3.911   5.218  0.1525 -0.6758 -0.5661
 7159SOL    HW132939   3.373   3.954   5.134 -1.1289  0.8561  0.0084
 7159SOL    HW232940   3.307   3.834   5.199 -0.2185 -1.1737  2.4106
 7160SOL     OW32941   1.929   4.314  10.752 -0.2028  0.2555  0.4905
 7160SOL    HW132942   1.860   4.277  10.696  1.8692 -1.8299 -0.7089
 7160SOL    HW232943   1.962   4.376  10.687 -2.3956 -0.5698 -1.4213
 7161SOL     OW32944   4.011   3.281  17.576 -0.0962 -0.4309 -0.3682
 7161SOL    HW132945   4.009   3.193  17.613 -0.6050  0.3848  1.5662
 7161SOL    HW232946   3.976   3.268  17.488 -0.2520 -2.9740  0.0891
 7162SOL     OW32947   2.106   3.854   1.278  0.2000  0.0455  0.3321
 7162SOL    HW132948   2.093   3.911   1.202 -2.0350 -1.5605 -0.4874
 7162SOL    HW232949   2.143   3.918   1.339  0.2020  0.9978 -0.6579
 7163SOL     OW32950   2.067   4.599   3.944 -0.0548  0.4547 -0.0437
 7163SOL    HW132951   2.112   4.602   4.029 -0.4072 -0.3296  0.1776
 7163SOL    HW232952   1.989   4.649   3.969 -0.0399  0.4354  0.0439
 7164SOL     OW32953   0.257   2.177  12.361  0.3835  0.2154 -0.1889
 7164SOL    HW132954   0.220   2.259  12.394  0.8352  1.0193 -1.6733
 7164SOL    HW232955   0.267   2.131  12.444 -0.4082 -0.6989 -0.6065
 7165SOL     OW32956   3.863   0.197   5.387 -0.3700  0.5034 -0.4270
 7165SOL    HW132957   3.911   0.243   5.456  1.6452  1.5812 -2.5475
 7165SOL    HW232958   3.855   0.112   5.430  0.1325 -0.6830 -2.6839
 7166SOL     OW32959   2.972   0.938   6.779  0.2716 -0.4371  0.1541
 7166SOL    HW132960   2.877   0.944   6.790 -0.0171 -1.1361 -1.9350
 7166SOL    HW232961   2.996   0.993   6.853  3.8587 -0.7478 -0.7814
 7167SOL     OW32962   1.982   3.813   3.090 -0.2983  0.1850  0.5777
 7167SOL    HW132963   1.969   3.830   3.183 -1.3258 -0.9202  0.6318
 7167SOL    HW232964   2.021   3.726   3.084  1.7184  1.2077 -0.8330
 7168SOL     OW32965   4.024   2.480   4.755 -0.4438  0.0370  0.1691
 7168SOL    HW132966   3.944   2.509   4.800  1.1217  1.2327  2.1992
 7168SOL    HW232967   4.069   2.461   4.838 -2.4014 -2.0118  0.7641
 7169SOL     OW32968   2.555   2.386   5.597 -0.1251 -0.2246  0.5885
 7169SOL    HW132969   2.477   2.392   5.652 -0.4018  3.5532 -0.1891
 7169SOL    HW232970   2.615   2.337   5.653 -1.4154 -2.1639  0.2926
 7170SOL     OW32971   2.461   0.689   2.268  0.3722 -0.1957  0.2774
 7170SOL    HW132972   2.501   0.662   2.351 -1.1108  0.0913  1.0811
 7170SOL    HW232973   2.513   0.644   2.201 -0.7861  0.1458 -0.8415
 7171SOL     OW32974   1.141   0.884   6.766  0.0206 -0.7595 -0.0528
 7171SOL    HW132975   1.226   0.857   6.729  0.1688  1.3511 -1.2594
 7171SOL    HW232976   1.138   0.820   6.837  1.3055 -0.8371 -0.0644
 7172SOL     OW32977   0.972   3.902   6.738 -0.3096  0.0731 -0.0774
 7172SOL    HW132978   0.984   3.808   6.756  0.3806  0.3858  1.1143
 7172SOL    HW232979   0.963   3.907   6.643 -0.0389  1.9689  0.0067
 7173SOL     OW32980   2.852   3.570   7.372  0.1528  0.4866  0.7169
 7173SOL    HW132981   2.922   3.630   7.347  1.7132 -1.1591  1.1217
 7173SOL    HW232982   2.841   3.585   7.466 -1.5416  1.3047  0.3981
 7174SOL     OW32983   4.119   1.729   5.700  0.1353  0.2041 -0.2572
 7174SOL    HW132984   4.149   1.790   5.768 -1.4558  0.9591 -0.2237
 7174SOL    HW232985   4.179   1.759   5.632  1.8283 -0.6443  0.8724
 7175SOL     OW32986   0.172   1.424   4.880  0.0577 -0.0151  0.2723
 7175SOL    HW132987   0.084   1.455   4.858  0.2619  0.7431  0.4879
 7175SOL    HW232988   0.196   1.487   4.948 -1.0474  0.6751  0.0379
 7176SOL     OW32989   2.680   0.594   6.038 -0.1814 -0.1203 -0.3713
 7176SOL    HW132990   2.765   0.613   5.999  0.2589  0.4402  0.8610
 7176SOL    HW232991   2.630   0.570   5.960 -2.0712 -0.6921  1.0186
 7177SOL     OW32992   3.059   3.627   5.496  0.4754  0.4749 -0.6528
 7177SOL    HW132993   2.989   3.691   5.484 -1.4453 -0.8348  3.3892
 7177SOL    HW232994   3.129   3.683   5.530  1.5040  0.1723 -2.2920
 7178SOL     OW32995   4.243   2.158   5.620  0.2854 -0.0328  0.3358
 7178SOL    HW132996   4.230   2.252   5.606 -1.9589 -0.1962  1.2188
 7178SOL    HW232997   4.325   2.152   5.668 -0.2423 -1.3515  1.0623
 7179SOL     OW32998   0.944   1.551   8.007  0.2776  0.8882 -0.0088
 7179SOL    HW132999   1.020   1.610   8.005  0.9927  0.0065  1.0124
 7179SOL    HW233000   0.889   1.614   7.960 -0.1197  0.4281 -0.1500
 7180SOL     OW33001   2.048   2.329  11.468 -0.8532  1.1534  0.4019
 7180SOL    HW133002   2.073   2.280  11.547  0.7049 -1.1610 -1.4840
 7180SOL    HW233003   2.056   2.261  11.401 -0.4028 -0.2516  1.8836
 7181SOL     OW33004   2.090   1.757  15.718 -0.3957 -0.2432 -0.4826
 7181SOL    HW133005   2.069   1.772  15.625  0.0488 -0.8662 -0.6826
 7181SOL    HW233006   2.014   1.797  15.760  1.6897  2.5724  0.6207
 7182SOL     OW33007   1.271   3.361  10.415 -0.3229 -0.0781  0.1095
 7182SOL    HW133008   1.343   3.379  10.355 -2.9698  0.1447 -2.9414
 7182SOL    HW233009   1.312   3.315  10.489  0.6057 -0.9188 -0.9272
 7183SOL     OW33010   1.516   0.456   2.834  0.0059  0.0222 -0.5342
 7183SOL    HW133011   1.514   0.361   2.823 -3.2774 -0.3960  3.4706
 7183SOL    HW233012   1.598   0.463   2.785  0.5013 -0.8239  0.1710
 7184SOL     OW33013   1.639   4.514  12.595  0.4455 -0.6389  0.5109
 7184SOL    HW133014   1.574   4.556  12.540  1.6360 -0.4549 -0.7634
 7184SOL    HW233015   1.617   4.546  12.682  0.3026  1.5759 -0.3332
 7185SOL     OW33016   0.970   2.197  13.494  0.1023  0.1743 -0.1992
 7185SOL    HW133017   0.917   2.165  13.566  0.5532  0.1608  0.1284
 7185SOL    HW233018   0.917   2.185  13.415 -0.1829  0.3854 -0.0369
 7186SOL     OW33019   1.699   0.302   8.961 -0.1338  0.3858  0.6898
 7186SOL    HW133020   1.751   0.238   9.010  1.1044  1.3734  0.6744
 7186SOL    HW233021   1.745   0.385   8.973 -0.4221  0.9923 -2.2930
 7187SOL     OW33022   1.057   2.033   7.442 -0.4956  0.3062 -0.6131
 7187SOL    HW133023   0.975   2.037   7.392  0.1418 -0.7676 -1.7587
 7187SOL    HW233024   1.037   2.048   7.534  2.1507  1.3808 -0.2108
 7188SOL     OW33025   4.377   2.285   2.935  0.1458  0.8858 -0.4014
 7188SOL    HW133026   4.297   2.251   2.895 -0.8378 -0.1204  2.3743
 7188SOL    HW233027   4.349   2.262   3.024  1.0454  2.2350  0.2181
 7189SOL     OW33028   0.802   0.093  13.514 -0.1663 -0.3553  0.0015
 7189SOL    HW133029   0.733   0.038  13.552  0.4583 -1.9871 -1.2162
 7189SOL    HW233030   0.862   0.074  13.586  0.2883  0.6763 -0.1067
 7190SOL     OW33031   0.927   2.161  14.536  1.3094 -0.8488 -0.2368
 7190SOL    HW133032   0.918   2.233  14.473  0.9854 -0.3153  0.4067
 7190SOL    HW233033   0.855   2.102  14.514 -0.3769  1.6051 -1.4018
 7191SOL     OW33034   0.710   3.446  14.375 -0.2818  0.4253  0.6018
 7191SOL    HW133035   0.684   3.415  14.288 -0.4492 -0.3137  0.9118
 7191SOL    HW233036   0.800   3.416  14.387  0.3363  1.2633 -1.8711
 7192SOL     OW33037   3.303   4.501  11.370 -0.0652 -0.5930 -0.6165
 7192SOL    HW133038   3.398   4.488  11.371  0.0048 -0.2019 -1.5488
 7192SOL    HW233039   3.287   4.443  11.296  1.7417  1.4898 -2.6342
 7193SOL     OW33040   1.164   3.044   9.691  0.5819  0.7050  0.0915
 7193SOL    HW133041   1.240   3.008   9.644  0.0387 -0.3851  0.0565
 7193SOL    HW233042   1.173   3.137   9.669 -0.4564  0.9544  0.7407
 7194SOL     OW33043   2.646   2.754  13.727  0.1478  0.2499  0.2414
 7194SOL    HW133044   2.555   2.772  13.702  0.2800 -1.7394 -1.7010
 7194SOL    HW233045   2.631   2.746  13.821 -0.5841  0.1305  0.1137
 7195SOL     OW33046   0.871   4.084   4.589 -0.3137  0.7038 -0.1414
 7195SOL    HW133047   0.951   4.135   4.575  0.8278 -1.4490 -1.3682
 7195SOL    HW233048   0.840   4.124   4.670 -0.1294  0.0150  0.2732
 7196SOL     OW33049   3.009   2.121   4.158  0.0103 -0.3895 -0.7516
 7196SOL    HW133050   3.037   2.042   4.113  2.7278 -0.7471  1.5705
 7196SOL    HW233051   3.005   2.200   4.105  0.6818 -0.7050 -1.2560
 7197SOL     OW33052   2.334   1.363   8.316  0.0961 -0.2805  0.3657
 7197SOL    HW133053   2.314   1.454   8.341 -1.0391 -0.5452  0.3950
 7197SOL    HW233054   2.410   1.351   8.374  0.7823  1.5340 -0.1459
 7198SOL     OW33055   0.067   2.046   1.365  0.1331  0.7948  0.0254
 7198SOL    HW133056   0.093   2.083   1.450 -1.0578  3.5323 -0.8269
 7198SOL    HW233057   4.720   2.107   1.337 -0.0278  1.6789  2.3028
 7199SOL     OW33058   4.503   3.960   2.533 -0.3504 -0.2928  0.2371
 7199SOL    HW133059   4.421   4.009   2.536 -0.5949 -0.6172 -1.0060
 7199SOL    HW233060   4.550   4.031   2.577 -0.2655  0.1419 -0.5588
 7200SOL     OW33061   0.895   4.264  15.861  0.5053 -0.2395  0.2608
 7200SOL    HW133062   0.944   4.185  15.842  1.6396  0.9464 -1.7436
 7200SOL    HW233063   0.962   4.324  15.895  0.0386  0.1403  0.5211
 7201SOL     OW33064   3.498   0.708   6.713 -0.3323  0.1091 -0.0183
 7201SOL    HW133065   3.470   0.740   6.798  2.9038 -0.8438  1.4033
 7201SOL    HW233066   3.592   0.725   6.718 -0.3501  0.4449 -0.7697
 7202SOL     OW33067   3.607   0.549   8.941 -0.0118  0.2620  0.1457
 7202SOL    HW133068   3.691   0.574   8.978 -0.9447  1.7883  1.2495
 7202SOL    HW233069   3.561   0.536   9.024 -0.6476 -1.4892 -0.4652
 7203SOL     OW33070   2.460   0.228   1.457  0.0621 -0.5051 -0.0860
 7203SOL    HW133071   2.466   0.292   1.528  4.7082 -0.3939 -0.5509
 7203SOL    HW233072   2.391   0.258   1.398 -0.5894  0.5614  1.2430
 7204SOL     OW33073   1.193   1.443   2.101  0.0215  0.1841  0.0671
 7204SOL    HW133074   1.255   1.373   2.122 -0.4105 -0.7245 -1.6279
 7204SOL    HW233075   1.210   1.507   2.170 -1.9790 -1.1477  1.7978
 7205SOL     OW33076   3.760   1.213   7.594  0.1558 -0.1571  0.8095
 7205SOL    HW133077   3.665   1.217   7.609  0.6659  0.1013  4.1561
 7205SOL    HW233078   3.786   1.200   7.686  1.5227 -0.2498  0.4038
 7206SOL     OW33079   3.867   3.785   4.465  0.9420  0.4854  0.2398
 7206SOL    HW133080   3.863   3.724   4.539 -3.2361 -1.4858 -1.6539
 7206SOL    HW233081   3.855   3.870   4.508  1.4092  0.1675  1.0037
 7207SOL     OW33082   1.717   0.021  16.542  0.3365 -0.3158 -1.0070
 7207SOL    HW133083   1.755   0.104  16.572  1.0725 -1.2397  0.6531
 7207SOL    HW233084   1.659   0.001  16.616  1.2939  0.9562  0.0929
 7208SOL     OW33085   1.491   3.060  13.615  0.1430  0.1279 -0.1541
 7208SOL    HW133086   1.545   3.066  13.537  0.7170 -1.9400  0.0788
 7208SOL    HW233087   1.525   3.115  13.686  1.0526 -2.0001  1.0511
 7209SOL     OW33088   2.123   4.202   3.666  0.4006 -0.2289  0.7729
 7209SOL    HW133089   2.114   4.172   3.575  0.6036  2.4565 -0.1310
 7209SOL    HW233090   2.032   4.221   3.686 -0.3776 -2.2880 -0.8186
 7210SOL     OW33091   2.975   2.888   5.515  0.1291 -0.3383 -0.7756
 7210SOL    HW133092   3.057   2.846   5.487  1.3994  0.8027  1.2715
 7210SOL    HW233093   2.994   2.880   5.608  1.1640 -1.5303 -1.0848
 7211SOL     OW33094   4.274   2.771   0.365 -0.1168  0.2523 -0.3047
 7211SOL    HW133095   4.194   2.814   0.395  1.4751  3.3423 -0.4848
 7211SOL    HW233096   4.315   2.850   0.328 -0.1906  0.0770 -0.7636
 7212SOL     OW33097   0.441   0.751  15.028 -0.0558  1.0340 -0.8581
 7212SOL    HW133098   0.515   0.735  15.086  0.8981  0.4436 -2.2503
 7212SOL    HW233099   0.467   0.688  14.961 -3.3082 -1.1151 -0.0943
 7213SOL     OW33100   0.249   1.755   2.645 -0.1072  0.5532 -0.6733
 7213SOL    HW133101   0.328   1.728   2.692  1.0363  4.1879 -0.4847
 7213SOL    HW233102   0.292   1.810   2.579 -0.0220 -0.5878 -1.5674
 7214SOL     OW33103   0.754   4.683   2.078 -0.0318 -0.0904  0.1793
 7214SOL    HW133104   0.833   4.650   2.035 -0.2124  2.2396 -1.8638
 7214SOL    HW233105   0.728   4.609   2.134  0.5017 -1.2071 -1.0484
 7215SOL     OW33106   4.597   4.037   8.085  0.3751 -0.3794  0.4874
 7215SOL    HW133107   4.652   4.111   8.112 -4.1973  3.2762 -0.1211
 7215SOL    HW233108   4.644   3.967   8.130  2.3209 -0.8035 -2.1850
 7216SOL     OW33109   1.839   0.501  13.451  1.0238 -0.0166  0.4944
 7216SOL    HW133110   1.877   0.587  13.433 -0.3535  0.5773  0.4295
 7216SOL    HW233111   1.873   0.454  13.374 -1.0264 -2.6579  1.1948
 7217SOL     OW33112   0.208   2.528   6.393 -0.0395 -0.5550  0.1536
 7217SOL    HW133113   0.292   2.502   6.353  0.0470  0.2367 -0.1830
 7217SOL    HW233114   0.168   2.588   6.331 -0.9048  1.0445  2.2798
 7218SOL     OW33115   2.479   3.837   6.240  0.0534  0.1544  0.0698
 7218SOL    HW133116   2.413   3.788   6.289 -1.3841  3.2023  1.2246
 7218SOL    HW233117   2.432   3.857   6.160 -3.2402 -2.2100  1.4066
 7219SOL     OW33118   3.632   3.690   5.048  0.1491 -0.8749 -0.5548
 7219SOL    HW133119   3.631   3.771   5.099  2.7089 -1.0506 -0.1902
 7219SOL    HW233120   3.587   3.632   5.109  0.4588 -1.1616 -0.5948
 7220SOL     OW33121   0.506   4.031   3.527  0.1811 -0.6121 -0.0118
 7220SOL    HW133122   0.486   4.102   3.466 -1.0460  0.0414  1.1389
 7220SOL    HW233123   0.578   4.076   3.570 -0.3857  2.7238 -2.6129
 7221SOL     OW33124   4.188   2.879   0.757  0.3260 -0.2687  0.1152
 7221SOL    HW133125   4.170   2.807   0.817 -2.9949  0.0962 -0.4383
 7221SOL    HW233126   4.267   2.918   0.793  0.6530  0.3183 -1.2059
 7222SOL     OW33127   0.689   0.899  12.830 -0.1592  0.3373  0.0312
 7222SOL    HW133128   0.776   0.859  12.830  0.8185  2.4901  2.4297
 7222SOL    HW233129   0.643   0.855  12.901  0.1717  1.1863  0.7659
 7223SOL     OW33130   1.998   0.191   1.155 -0.8966  0.0834  0.2636
 7223SOL    HW133131   1.961   0.274   1.125  2.2938  1.4554  0.1437
 7223SOL    HW233132   1.938   0.122   1.128 -0.0602  0.1819 -1.8201
 7224SOL     OW33133   3.408   4.385   7.525  0.6477 -0.0096 -0.6108
 7224SOL    HW133134   3.365   4.469   7.510 -0.8592 -0.5269  0.8281
 7224SOL    HW233135   3.396   4.345   7.439  2.1716  1.6135 -1.5673
 7225SOL     OW33136   4.416   3.620   4.767 -0.6030 -0.2106  0.3843
 7225SOL    HW133137   4.351   3.618   4.836  1.9289  1.5062  2.8050
 7225SOL    HW233138   4.360   3.620   4.689  1.3888  2.5392 -1.0127
 7226SOL     OW33139   2.104   3.044  16.397  0.1332 -0.3389  0.3442
 7226SOL    HW133140   2.112   3.139  16.404  1.9596 -0.4212 -0.4272
 7226SOL    HW233141   2.183   3.025  16.347 -0.5439 -1.6472 -0.2348
 7227SOL     OW33142   2.160   0.407   6.255  0.5603 -0.2836 -0.1477
 7227SOL    HW133143   2.218   0.479   6.281 -0.4283  0.4523 -0.0047
 7227SOL    HW233144   2.083   0.435   6.303  1.0270 -0.2283  0.5687
 7228SOL     OW33145   4.085   0.788   9.534  0.1277  0.2418  0.0842
 7228SOL    HW133146   4.086   0.879   9.565  1.3229  0.5223 -0.7841
 7228SOL    HW233147   4.063   0.808   9.443 -0.5691  2.9174  0.8205
 7229SOL     OW33148   0.535   4.717   8.303  0.0080 -0.5212  0.0816
 7229SOL    HW133149   0.479   0.022   8.229 -1.2800  0.7094  1.4864
 7229SOL    HW233150   0.597   4.656   8.263 -0.7207 -0.4358 -1.1921
 7230SOL     OW33151   3.922   0.267   8.133  0.2623  0.1228 -0.3191
 7230SOL    HW133152   3.940   0.357   8.157 -0.9160  0.9684 -2.6229
 7230SOL    HW233153   3.849   0.244   8.190  1.1932  1.5586  1.4715
 7231SOL     OW33154   2.229   3.329   8.946  0.5742 -0.4458  0.4226
 7231SOL    HW133155   2.256   3.248   8.901 -0.8798 -0.2412 -0.7990
 7231SOL    HW233156   2.273   3.323   9.030 -0.2276 -0.3258  0.8436
 7232SOL     OW33157   0.350   1.004   9.269 -0.3822  0.0592  0.3391
 7232SOL    HW133158   0.400   0.975   9.345 -1.3347 -0.0097  0.9404
 7232SOL    HW233159   0.258   0.996   9.297 -0.3081 -1.0192  0.2481
 7233SOL     OW33160   3.765   2.651   1.038  0.5153  0.4248 -0.0801
 7233SOL    HW133161   3.849   2.607   1.022  0.7182  0.8295 -0.1223
 7233SOL    HW233162   3.779   2.658   1.133  1.5812  1.9012 -0.3371
 7234SOL     OW33163   0.171   0.851   2.480  0.6176  0.0484  0.1300
 7234SOL    HW133164   0.246   0.896   2.443  0.5069 -0.2295 -0.4336
 7234SOL    HW233165   0.111   0.866   2.406  1.1580 -0.0390 -0.3247
 7235SOL     OW33166   2.238   2.024   4.663  0.0723 -0.0066  0.8092
 7235SOL    HW133167   2.292   1.967   4.608  0.0870  0.1535  0.6614
 7235SOL    HW233168   2.186   2.071   4.599  1.0560  0.6812  0.5186
 7236SOL     OW33169   4.425   2.798   4.828 -0.1903  0.2621 -0.1126
 7236SOL    HW133170   4.423   2.704   4.846 -0.3325  0.6360  1.8649
 7236SOL    HW233171   4.497   2.835   4.878 -0.6050 -0.9200  1.3471
 7237SOL     OW33172   3.969   0.569   8.821 -0.4649 -0.0660 -0.5189
 7237SOL    HW133173   3.898   0.587   8.759 -0.3433  0.8122 -0.4042
 7237SOL    HW233174   3.923   0.560   8.904  0.6664  2.0677  0.3499
 7238SOL     OW33175   2.807   1.803  13.861 -0.2454  0.4513  0.2367
 7238SOL    HW133176   2.892   1.779  13.899  0.0244  1.0194 -0.0055
 7238SOL    HW233177   2.832   1.808  13.769  2.6386 -0.0092  0.9901
 7239SOL     OW33178   4.655   2.026   2.257 -0.3253 -0.1742  0.4790
 7239SOL    HW133179   4.660   2.080   2.178  0.5973 -0.6695  0.1925
 7239SOL    HW233180   4.712   1.952   2.234  0.4346  0.2260  1.0892
 7240SOL     OW33181   1.324   4.487   1.927 -0.6396  1.1110 -0.0823
 7240SOL    HW133182   1.413   4.518   1.945 -0.1561 -0.7901  0.7153
 7240SOL    HW233183   1.339   4.480   1.833  0.1942  2.6628 -0.0686
 7241SOL     OW33184   4.332   1.000  10.768 -0.4052 -0.5530 -0.2402
 7241SOL    HW133185   4.382   0.928  10.806 -1.6020 -0.8421  0.7649
 7241SOL    HW233186   4.244   0.993  10.805  0.8392  0.2558  2.8672
 7242SOL     OW33187   3.401   0.928   1.791 -0.3538 -0.2110  0.5397
 7242SOL    HW133188   3.435   1.013   1.764  0.3446 -0.3941  0.8316
 7242SOL    HW233189   3.344   0.963   1.859  0.9627  1.4649  0.7619
 7243SOL     OW33190   4.711   2.815   8.723  0.3847  0.3911  0.4945
 7243SOL    HW133191   0.085   2.801   8.725  0.5064  1.2821  0.9404
 7243SOL    HW233192   4.682   2.805   8.814 -0.9528 -0.6315 -0.0327
 7244SOL     OW33193   2.286   3.770  16.562  0.2224 -0.8040  0.3382
 7244SOL    HW133194   2.272   3.678  16.539  1.2610 -1.5842  2.9047
 7244SOL    HW233195   2.341   3.796  16.488 -1.2917  0.8442 -0.2329
 7245SOL     OW33196   3.502   4.219   9.733 -0.4408 -0.0168  0.2235
 7245SOL    HW133197   3.428   4.225   9.673  0.6002 -1.7159 -1.2071
 7245SOL    HW233198   3.567   4.269   9.684 -0.5710  1.1389  1.2138
 7246SOL     OW33199   0.848   3.333  14.695 -0.2855 -0.3979  0.0007
 7246SOL    HW133200   0.843   3.428  14.692 -0.5284 -0.4444 -1.1863
 7246SOL    HW233201   0.939   3.314  14.716  0.2289  1.1656 -0.8023
 7247SOL     OW33202   4.192   4.114  17.394 -0.8803 -0.2769  0.1758
 7247SOL    HW133203   4.287   4.124  17.395 -0.8516 -0.4975 -1.4995
 7247SOL    HW233204   4.162   4.116  17.303  0.2350 -0.5726 -0.2009
 7248SOL     OW33205   2.450   2.829   4.446  0.1137 -0.2378  0.3138
 7248SOL    HW133206   2.391   2.904   4.433  0.2322 -0.1450  0.3111
 7248SOL    HW233207   2.473   2.826   4.538 -0.6570  0.1499  0.5245
 7249SOL     OW33208   1.800   4.533  13.449  0.0911  0.2494  0.4056
 7249SOL    HW133209   1.822   4.468  13.516  1.4480  0.2586 -0.0250
 7249SOL    HW233210   1.744   4.590  13.501 -0.6076  0.7981 -0.9474
 7250SOL     OW33211   1.729   3.764   9.220  0.0608 -0.1020  0.4580
 7250SOL    HW133212   1.790   3.726   9.156 -0.2909  1.5553 -0.8361
 7250SOL    HW233213   1.717   3.853   9.188  1.4422 -0.6064 -1.4761
 7251SOL     OW33214   3.802   1.566   6.794  0.5456 -0.1176 -0.1466
 7251SOL    HW133215   3.711   1.535   6.793  0.5170 -0.0440  0.4985
 7251SOL    HW233216   3.807   1.599   6.704  1.4720  0.8867  0.2845
 7252SOL     OW33217   4.391   2.856  12.044  0.9211 -0.4585 -0.0435
 7252SOL    HW133218   4.400   2.768  12.080  2.1011  0.0320  0.8432
 7252SOL    HW233219   4.453   2.876  11.974  0.8482 -0.5230 -0.1257
 7253SOL     OW33220   3.011   3.322   8.643 -0.3114 -0.1201 -0.1421
 7253SOL    HW133221   2.941   3.285   8.697 -0.5019 -2.0899 -1.7296
 7253SOL    HW233222   3.040   3.387   8.707 -0.0091 -1.8213  1.4540
 7254SOL     OW33223   2.143   1.384   6.662  0.1709 -0.6069  0.3196
 7254SOL    HW133224   2.050   1.381   6.688 -0.0062 -0.9211 -0.3600
 7254SOL    HW233225   2.143   1.348   6.574  1.5822 -0.9255  0.4536
 7255SOL     OW33226   2.496   3.426  11.697  0.1137  0.3256  0.2622
 7255SOL    HW133227   2.531   3.510  11.727 -1.8588 -0.2086  4.1449
 7255SOL    HW233228   2.454   3.392  11.777 -1.1841 -3.5363 -2.0365
 7256SOL     OW33229   4.223   3.511  11.442  0.4223 -0.3408  0.2399
 7256SOL    HW133230   4.146   3.498  11.386  1.1150 -1.0889 -0.5364
 7256SOL    HW233231   4.179   3.559  11.512 -1.4999 -1.9479  0.1335
 7257SOL     OW33232   1.254   1.218   5.379 -0.3006 -0.6331  0.3427
 7257SOL    HW133233   1.300   1.206   5.462 -0.2247 -1.0178  0.2447
 7257SOL    HW233234   1.324   1.231   5.315  1.0677 -4.5430  1.0769
 7258SOL     OW33235   2.158   0.022  16.443  0.4924  0.0816  0.6841
 7258SOL    HW133236   2.161   0.016  16.348  2.5111  1.7227  0.6564
 7258SOL    HW233237   2.148   0.116  16.455 -1.2415 -0.2400  1.8274
 7259SOL     OW33238   3.632   3.664   0.388 -0.3268  0.1639 -0.0290
 7259SOL    HW133239   3.663   3.578   0.360  0.3086  0.3694  0.0508
 7259SOL    HW233240   3.540   3.662   0.364 -0.5326  0.0366  0.7544
 7260SOL     OW33241   2.778   2.983  11.101 -0.1729  0.0427 -0.0715
 7260SOL    HW133242   2.783   2.953  11.191  3.6708 -0.4445 -0.4633
 7260SOL    HW233243   2.765   2.903  11.050 -1.7762 -1.0554  2.0620
 7261SOL     OW33244   4.612   0.325   4.954 -0.6115  0.0057 -0.1501
 7261SOL    HW133245   4.674   0.332   5.026 -1.1485  2.5780  0.0485
 7261SOL    HW233246   4.553   0.400   4.965 -1.7583 -0.8490 -0.3610
 7262SOL     OW33247   0.790   0.422   9.887 -0.0949 -0.4978 -0.2860
 7262SOL    HW133248   0.851   0.467   9.829 -1.9986 -0.6251 -2.3801
 7262SOL    HW233249   0.840   0.440   9.967  0.6561  2.3545 -1.3632
 7263SOL     OW33250   2.615   3.130  12.033  0.3103 -0.0974  0.6899
 7263SOL    HW133251   2.594   3.097  12.121 -2.6848 -0.4130 -0.1661
 7263SOL    HW233252   2.541   3.096  11.983  0.2996 -1.1487  1.4051
 7264SOL     OW33253   3.755   4.080   4.393 -0.1421 -0.0104  0.5508
 7264SOL    HW133254   3.831   4.132   4.419 -0.0928 -0.2644  0.9089
 7264SOL    HW233255   3.793   4.044   4.312 -0.4021 -0.2366  0.5309
 7265SOL     OW33256   4.528   1.025   2.525  0.3716  0.1008 -0.3870
 7265SOL    HW133257   4.479   0.957   2.570  0.1070  0.9380  0.5988
 7265SOL    HW233258   4.576   0.973   2.461  1.3080 -0.1737  0.5525
 7266SOL     OW33259   4.592   0.328   1.402  0.5558 -0.6504 -0.2304
 7266SOL    HW133260   4.584   0.246   1.451  0.1620 -0.1126  0.6074
 7266SOL    HW233261   4.509   0.370   1.424  0.8673 -1.0730  1.8224
 7267SOL     OW33262   0.416   4.574   6.699 -0.4312  0.0566  0.9433
 7267SOL    HW133263   0.366   4.623   6.634  0.8063  1.2153  0.8782
 7267SOL    HW233264   0.427   4.639   6.768  0.6322 -0.0508  0.8695
 7268SOL     OW33265   1.353   4.217  10.864 -0.4731 -0.5914 -0.6309
 7268SOL    HW133266   1.326   4.306  10.888 -1.2981 -0.3589 -2.4058
 7268SOL    HW233267   1.337   4.165  10.942 -1.2121 -0.7130 -0.8668
 7269SOL     OW33268   2.708   0.221  11.880  0.2857  0.1450 -0.7758
 7269SOL    HW133269   2.789   0.196  11.834  0.3126  1.6622 -1.5452
 7269SOL    HW233270   2.659   0.255  11.806 -0.0762 -1.1756 -1.1506
 7270SOL     OW33271   0.350   1.136  11.011  0.1155 -0.5910  0.1768
 7270SOL    HW133272   0.424   1.142  10.951 -1.0316 -0.3098 -1.1994
 7270SOL    HW233273   0.392   1.094  11.087 -1.6089 -2.0201  0.3338
 7271SOL     OW33274   0.189   1.319   6.135 -0.4565  0.5086 -0.4547
 7271SOL    HW133275   0.128   1.255   6.098  0.3266 -0.6666  0.2913
 7271SOL    HW233276   0.220   1.285   6.219  0.1850 -1.8733 -1.6479
 7272SOL     OW33277   3.699   1.094   5.617  0.2498  0.4285 -0.0285
 7272SOL    HW133278   3.704   1.170   5.559 -0.6447  0.2037 -0.3996
 7272SOL    HW233279   3.608   1.109   5.641 -0.3801  0.7844 -2.7062
 7273SOL     OW33280   2.515   1.631   7.417 -1.0720  0.4261 -0.0870
 7273SOL    HW133281   2.465   1.549   7.421  1.3362 -1.0320  0.3971
 7273SOL    HW233282   2.578   1.615   7.347 -1.7434  2.0364 -1.0352
 7274SOL     OW33283   2.297   1.439   5.669 -0.4577  0.3154  0.0503
 7274SOL    HW133284   2.319   1.457   5.577 -1.2156 -0.1917 -0.2283
 7274SOL    HW233285   2.378   1.405   5.707 -0.7522 -1.2170 -0.6811
 7275SOL     OW33286   0.488   2.433   7.435 -0.0493 -0.0296 -0.4923
 7275SOL    HW133287   0.488   2.362   7.499  1.5967  1.4295  1.1464
 7275SOL    HW233288   0.581   2.450   7.419  0.4151 -2.2201 -0.1388
 7276SOL     OW33289   4.602   2.107   4.743  0.0857  0.4958  0.2488
 7276SOL    HW133290   4.649   2.023   4.749  0.1298  0.3769 -1.9242
 7276SOL    HW233291   4.675   2.163   4.718 -0.3703  0.9602 -0.0370
 7277SOL     OW33292   1.303   1.010   6.225  0.6180 -0.1153 -0.0898
 7277SOL    HW133293   1.322   0.980   6.314 -0.2688 -3.5126 -1.0395
 7277SOL    HW233294   1.390   1.004   6.186 -0.4690  0.0196 -2.5171
 7278SOL     OW33295   1.179   3.177  16.074  0.0732  0.4997  0.1070
 7278SOL    HW133296   1.237   3.156  16.148 -0.2682 -0.1612  0.1839
 7278SOL    HW233297   1.251   3.186  16.012  1.0922 -1.6240  0.9801
 7279SOL     OW33298   3.267   1.216  11.506  0.0925  0.6243 -0.2341
 7279SOL    HW133299   3.245   1.309  11.505  1.0709  0.8484 -2.0145
 7279SOL    HW233300   3.302   1.212  11.417 -2.7465 -2.9875 -1.1895
 7280SOL     OW33301   2.913   0.720   6.568 -1.1573 -0.5261 -0.0843
 7280SOL    HW133302   2.915   0.792   6.631 -1.3736 -0.2213 -0.4314
 7280SOL    HW233303   2.970   0.658   6.615 -0.8470  0.1572  0.4486
 7281SOL     OW33304   0.168   0.542   7.837  0.4854  0.3674  0.4065
 7281SOL    HW133305   0.246   0.559   7.785 -0.3314  2.4431 -0.1434
 7281SOL    HW233306   0.150   0.449   7.827 -1.8085  0.8748 -0.1996
 7282SOL     OW33307   1.674   1.612  14.656  0.0962 -0.0729  0.1303
 7282SOL    HW133308   1.746   1.628  14.595  1.7400  1.6497  2.5589
 7282SOL    HW233309   1.600   1.658  14.617 -1.8704 -1.5857  2.1120
 7283SOL     OW33310   3.668   0.305   2.376 -0.3036 -0.1208  0.2154
 7283SOL    HW133311   3.760   0.283   2.360 -0.1485 -0.3501  1.3745
 7283SOL    HW233312   3.637   0.268   2.294  0.1697 -0.6006  0.2499
 7284SOL     OW33313   2.053   3.298   6.969  0.2606 -0.4262 -0.5881
 7284SOL    HW133314   2.004   3.216   6.980 -2.0264  0.7306 -2.0350
 7284SOL    HW233315   2.024   3.338   6.887  2.0780 -1.7819 -1.8837
 7285SOL     OW33316   0.737   3.281  17.178  0.3492  0.2774  0.1993
 7285SOL    HW133317   0.745   3.374  17.158  1.3437  0.2987  0.6701
 7285SOL    HW233318   0.824   3.248  17.153  0.2593 -0.0212  0.2775
 7286SOL     OW33319   3.714   4.607   1.007 -0.0270 -0.5757  0.3799
 7286SOL    HW133320   3.679   4.616   0.918  2.4042  0.1572 -0.4775
 7286SOL    HW233321   3.646   4.643   1.064  3.2927  4.8904  0.8585
 7287SOL     OW33322   1.505   3.203   8.074  0.2650  0.3851  0.4716
 7287SOL    HW133323   1.416   3.186   8.044  0.0939  0.1138  1.1282
 7287SOL    HW233324   1.549   3.119   8.064 -0.4395  0.3063 -1.9955
 7288SOL     OW33325   4.062   2.921   0.522 -0.5705 -0.6857 -0.3859
 7288SOL    HW133326   4.008   2.851   0.558 -0.6045 -1.3484 -1.7274
 7288SOL    HW233327   4.119   2.931   0.599 -2.0393  0.4664  0.5397
 7289SOL     OW33328   0.870   2.591   9.609  0.0058  0.2391  0.1020
 7289SOL    HW133329   0.822   2.617   9.687 -1.8921 -1.4153 -0.5105
 7289SOL    HW233330   0.802   2.564   9.547  0.4074  1.9339 -1.1022
 7290SOL     OW33331   0.520   4.303   8.766 -0.2014  0.2419 -0.3244
 7290SOL    HW133332   0.601   4.283   8.718  0.8210 -0.2087  1.5824
 7290SOL    HW233333   0.554   4.313   8.855 -0.7734 -0.2055 -0.0555
 7291SOL     OW33334   2.285   3.688   8.298 -0.5354 -0.6595 -0.3175
 7291SOL    HW133335   2.209   3.744   8.315  1.0831  1.0180  1.4304
 7291SOL    HW233336   2.281   3.630   8.374 -0.7285 -0.1905  0.0271
 7292SOL     OW33337   3.658   1.851   8.897  0.0591 -0.1955 -0.1772
 7292SOL    HW133338   3.652   1.759   8.923 -1.9397 -0.1244 -0.3775
 7292SOL    HW233339   3.707   1.847   8.815 -0.2349  1.2223 -0.4363
 7293SOL     OW33340   0.311   2.493   2.141  0.6761 -0.3878  0.0974
 7293SOL    HW133341   0.337   2.406   2.170 -1.2566 -0.9473  0.1303
 7293SOL    HW233342   0.400   2.527   2.130  1.1517 -1.4188  0.7880
 7294SOL     OW33343   3.362   1.826   3.087 -0.1691 -0.4508  0.0284
 7294SOL    HW133344   3.281   1.776   3.079 -0.8807  0.5712  0.9664
 7294SOL    HW233345   3.378   1.841   2.993 -0.0200 -0.0921  0.1134
 7295SOL     OW33346   3.737   2.565  13.009 -0.1192 -0.1837  0.0458
 7295SOL    HW133347   3.665   2.621  12.979  1.3171  1.0092 -1.1544
 7295SOL    HW233348   3.761   2.522  12.926  0.0911 -1.6853  0.8819
 7296SOL     OW33349   0.807   1.688   6.689  0.6460  0.8145 -0.3755
 7296SOL    HW133350   0.847   1.687   6.776 -0.6431  0.7220  0.2132
 7296SOL    HW233351   0.728   1.640   6.715  2.8123 -2.0449  0.9106
 7297SOL     OW33352   4.354   4.137   8.279  0.6383  0.1235 -0.0871
 7297SOL    HW133353   4.329   4.051   8.244 -2.8284  1.3752 -0.6606
 7297SOL    HW233354   4.449   4.125   8.277  0.4832 -0.8051 -2.0911
 7298SOL     OW33355   4.060   4.125  10.456  0.5210  0.0078  0.0439
 7298SOL    HW133356   4.056   4.219  10.471  0.7307  0.5453 -3.4865
 7298SOL    HW233357   4.015   4.124  10.372  0.5715 -0.7470  0.0259
 7299SOL     OW33358   0.842   1.391   4.080 -0.0836 -0.1839 -0.1865
 7299SOL    HW133359   0.772   1.456   4.090  0.6451  0.6072 -0.2389
 7299SOL    HW233360   0.916   1.449   4.060 -0.0154 -1.3423 -3.2628
 7300SOL     OW33361   4.243   0.751   1.954 -0.2582  0.0134 -0.3264
 7300SOL    HW133362   4.322   0.697   1.960 -0.3122  0.2124  2.1102
 7300SOL    HW233363   4.198   0.729   2.035 -2.4808  1.0664 -1.2721
 7301SOL     OW33364   2.577   0.968   3.873  0.6230 -0.3521 -0.8596
 7301SOL    HW133365   2.580   0.872   3.869 -0.2901 -0.3879 -0.7942
 7301SOL    HW233366   2.620   0.998   3.793 -0.1174  0.1834 -1.0599
 7302SOL     OW33367   1.073   1.022  13.341 -0.2706  0.1383 -0.3005
 7302SOL    HW133368   1.104   0.979  13.421 -3.7895  1.4770  1.7640
 7302SOL    HW233369   1.019   1.089  13.383 -1.2034 -1.5702  1.2041
 7303SOL     OW33370   2.452   0.753   4.151  0.0230 -0.2231  0.0932
 7303SOL    HW133371   2.494   0.731   4.067 -1.9059 -1.7719 -0.4562
 7303SOL    HW233372   2.469   0.667   4.189  0.9009  0.5446  1.4341
 7304SOL     OW33373   2.191   3.385   5.706 -0.2552 -0.2681 -0.6382
 7304SOL    HW133374   2.123   3.399   5.773 -0.2269 -1.9294 -0.2746
 7304SOL    HW233375   2.172   3.462   5.651 -0.3384 -0.3211 -0.6833
 7305SOL     OW33376   1.458   0.928   0.901  0.4017  0.8120 -0.4267
 7305SOL    HW133377   1.437   0.985   0.975 -0.1553 -1.4105  1.1281
 7305SOL    HW233378   1.492   0.852   0.948  0.8140  0.4730 -1.2671
 7306SOL     OW33379   3.388   3.099   8.506  0.2774  0.1319  0.3124
 7306SOL    HW133380   3.471   3.133   8.539 -0.4265  0.2694  1.9445
 7306SOL    HW233381   3.421   3.043   8.436 -1.7740  0.5299 -0.9694
 7307SOL     OW33382   4.480   3.642  17.039  0.2031  0.1361  0.1304
 7307SOL    HW133383   4.433   3.660  17.121 -1.0484  0.1273 -0.5773
 7307SOL    HW233384   4.565   3.669  17.073  0.1760 -1.2305  1.3145
 7308SOL     OW33385   0.921   3.775   6.477  0.0821 -0.6953  0.2216
 7308SOL    HW133386   0.905   3.799   6.385 -0.9764 -0.4890  0.4664
 7308SOL    HW233387   0.996   3.715   6.474 -0.1696 -0.9316 -1.3631
 7309SOL     OW33388   0.496   3.634   2.597  0.3886  0.4938 -0.0770
 7309SOL    HW133389   0.463   3.697   2.533 -1.6979 -0.1641  0.3189
 7309SOL    HW233390   0.455   3.668   2.678  1.2705 -2.1390  1.4654
 7310SOL     OW33391   0.906   0.725   5.938  0.1576 -0.3151 -0.1024
 7310SOL    HW133392   0.820   0.755   5.968  1.7692  0.4447  3.8071
 7310SOL    HW233393   0.944   0.720   6.025 -1.7570 -2.0450  0.6484
 7311SOL     OW33394   1.619   2.365   0.343 -0.9869 -0.3532  0.1698
 7311SOL    HW133395   1.657   2.348   0.429  0.0737 -0.9087 -0.4107
 7311SOL    HW233396   1.663   2.449   0.334 -0.0857 -0.6501  1.7594
 7312SOL     OW33397   0.623   1.828   2.568  0.1640 -0.3515  0.8569
 7312SOL    HW133398   0.624   1.741   2.527  2.7575  0.7341 -1.3834
 7312SOL    HW233399   0.696   1.811   2.628  1.4011  2.8677  0.2310
 7313SOL     OW33400   4.696   1.990  11.045  0.6493 -0.0736 -0.4405
 7313SOL    HW133401   4.604   2.013  11.043  1.0509  1.9290  3.0971
 7313SOL    HW233402   0.012   2.052  10.983 -1.2639  1.8203  0.3587
 7314SOL     OW33403   4.424   1.496   2.099  0.1210  0.4631 -0.3703
 7314SOL    HW133404   4.356   1.430   2.087  0.5752  0.0224 -0.4839
 7314SOL    HW233405   4.443   1.524   2.010  1.7246  0.1671 -0.1061
 7315SOL     OW33406   1.455   0.984  17.340  0.3913  0.1735 -0.1880
 7315SOL    HW133407   1.486   0.938  17.418 -3.4193 -0.1544  1.1314
 7315SOL    HW233408   1.362   0.961  17.338  0.6851 -0.9673 -0.2768
 7316SOL     OW33409   2.877   2.819   4.109 -0.1885  0.0674 -0.5134
 7316SOL    HW133410   2.894   2.903   4.151  0.6690  0.8108 -2.3262
 7316SOL    HW233411   2.792   2.785   4.137 -0.2782 -0.9792 -2.0531
 7317SOL     OW33412   2.747   0.619   7.538 -0.2406  0.3705 -0.3021
 7317SOL    HW133413   2.665   0.642   7.582  0.3872  1.5373  0.2674
 7317SOL    HW233414   2.790   0.549   7.589 -0.5439 -0.4395 -1.1661
 7318SOL     OW33415   2.607   3.166  10.725  0.1549  0.4037  0.1135
 7318SOL    HW133416   2.570   3.246  10.763  0.5896 -0.1252  1.6175
 7318SOL    HW233417   2.693   3.152  10.764  0.5484 -2.5566 -1.8385
 7319SOL     OW33418   4.701   1.032  13.908  0.2895  0.0208  0.2425
 7319SOL    HW133419   4.693   1.119  13.870 -0.2773  0.0802  0.4996
 7319SOL    HW233420   4.688   1.068  13.995 -1.3197  0.6154 -0.2410
 7320SOL     OW33421   4.543   3.172   6.751  0.1694  0.5357  0.2815
 7320SOL    HW133422   4.627   3.216   6.767  0.0011  0.3681  1.6351
 7320SOL    HW233423   4.479   3.240   6.770  0.6102  0.5620  1.7003
 7321SOL     OW33424   1.884   2.531   5.245  0.9316 -0.2619  0.1294
 7321SOL    HW133425   1.873   2.482   5.326 -2.0019 -0.6237 -0.5094
 7321SOL    HW233426   1.905   2.463   5.181 -1.1428 -0.3941 -0.4148
 7322SOL     OW33427   3.318   2.692   3.553  0.4048  0.3745 -0.3626
 7322SOL    HW133428   3.380   2.667   3.622  0.9530  1.8687 -0.3157
 7322SOL    HW233429   3.335   2.786   3.558 -0.5372  0.6056 -1.5856
 7323SOL     OW33430   0.325   2.691   9.376 -0.1866 -0.6803  0.1191
 7323SOL    HW133431   0.326   2.785   9.392 -1.9895 -0.7872  0.8161
 7323SOL    HW233432   0.356   2.682   9.286 -1.5839  0.5198 -0.4825
 7324SOL     OW33433   1.142   4.326  10.321 -0.1218  0.4405  0.1814
 7324SOL    HW133434   1.135   4.232  10.303  1.0399  0.5205 -0.7463
 7324SOL    HW233435   1.150   4.326  10.416 -0.0828  4.2084  0.1613
 7325SOL     OW33436   4.706   3.760   8.346 -0.2361  0.1490 -0.4470
 7325SOL    HW133437   4.679   3.845   8.380 -0.2980 -0.2383  0.4663
 7325SOL    HW233438   0.072   3.785   8.315  0.3302 -0.2853  0.8049
 7326SOL     OW33439   2.636   4.252  10.018 -0.5416 -0.3164  0.4867
 7326SOL    HW133440   2.600   4.338  10.038  0.9880  0.0525  1.6158
 7326SOL    HW233441   2.639   4.215  10.107 -2.1203  0.6685  0.9456
 7327SOL     OW33442   4.023   0.542   9.566  0.1980  0.0685  0.5676
 7327SOL    HW133443   4.057   0.631   9.569  4.6772 -1.6215 -0.2197
 7327SOL    HW233444   4.018   0.523   9.472  2.1061 -2.5097  0.9845
 7328SOL     OW33445   0.591   0.707  12.048  0.0595  0.3448  0.0629
 7328SOL    HW133446   0.582   0.615  12.023 -1.5974  0.4910  0.0921
 7328SOL    HW233447   0.686   0.703  12.059  0.1297  2.2677  0.1180
 7329SOL     OW33448   4.150   1.209   3.901 -0.2722  0.2610  0.6664
 7329SOL    HW133449   4.137   1.224   3.807  0.9256 -0.9415  0.3098
 7329SOL    HW233450   4.157   1.302   3.924  1.5585  0.0290  1.0284
 7330SOL     OW33451   3.779   4.314   0.912  0.0010  0.2058  0.4675
 7330SOL    HW133452   3.769   4.401   0.950 -1.8849  0.3698 -0.4008
 7330SOL    HW233453   3.813   4.328   0.824 -1.8174 -0.2084 -0.2973
 7331SOL     OW33454   2.536   1.291   0.124 -0.0693  0.6378  0.3080
 7331SOL    HW133455   2.499   1.237   0.054  2.0956  0.9646 -1.0736
 7331SOL    HW233456   2.515   1.245   0.206 -1.3803 -0.4030 -0.6090
 7332SOL     OW33457   4.705   3.828  10.709 -0.0765  0.6698 -0.3067
 7332SOL    HW133458   4.623   3.869  10.680  0.2320  0.2899 -1.6651
 7332SOL    HW233459   0.051   3.895  10.698  0.5592  0.0473 -0.2723
 7333SOL     OW33460   2.801   0.965   6.137  0.6799  0.1098  0.3205
 7333SOL    HW133461   2.832   0.983   6.048  0.1807 -0.5137  0.0152
 7333SOL    HW233462   2.719   0.919   6.114  1.0386  1.1912 -3.1813
 7334SOL     OW33463   4.369   2.549   9.159 -0.3129  0.0817 -0.0955
 7334SOL    HW133464   4.371   2.607   9.236 -1.5454  0.9266 -0.6914
 7334SOL    HW233465   4.435   2.599   9.110 -2.4894  1.4914 -1.6077
 7335SOL     OW33466   4.070   3.961  11.745  0.3509 -0.3240 -0.1445
 7335SOL    HW133467   4.036   3.951  11.656  1.0398 -1.0387 -0.3276
 7335SOL    HW233468   4.165   3.961  11.730 -0.0969 -0.5922 -2.9916
 7336SOL     OW33469   2.983   1.550   5.832 -0.8375 -0.1562 -0.5257
 7336SOL    HW133470   3.072   1.565   5.801 -0.6254  1.5649  0.8758
 7336SOL    HW233471   2.945   1.638   5.826  2.2485  0.8845 -4.2095
 7337SOL     OW33472   1.013   2.526   5.790 -0.2453  0.3299  0.1829
 7337SOL    HW133473   1.042   2.492   5.875 -0.7145 -2.8837 -0.9323
 7337SOL    HW233474   0.937   2.468   5.784  0.0182 -0.0273  0.3507
 7338SOL     OW33475   0.478   1.953   6.643 -0.2761  0.0618  0.1313
 7338SOL    HW133476   0.426   2.030   6.664  0.6895  0.5605  0.6918
 7338SOL    HW233477   0.445   1.888   6.706  0.2290  0.2113  0.5570
 7339SOL     OW33478   4.609   2.592   9.335  0.0040  0.4886 -0.1341
 7339SOL    HW133479   4.682   2.563   9.281 -1.1712 -0.9359 -0.9646
 7339SOL    HW233480   4.642   2.668   9.383 -0.2273  2.1674 -2.6344
 7340SOL     OW33481   2.422   2.604   5.417  0.5868 -0.5020  0.0989
 7340SOL    HW133482   2.460   2.528   5.462 -1.2424 -1.6153 -0.2568
 7340SOL    HW233483   2.355   2.561   5.365  1.0858  0.0479 -0.9978
 7341SOL     OW33484   0.700   2.521   6.524 -0.2947 -0.4188 -0.0835
 7341SOL    HW133485   0.751   2.600   6.507 -0.3124 -0.1818  0.9697
 7341SOL    HW233486   0.696   2.500   6.430  0.4886 -3.1335  0.5078
 7342SOL     OW33487   0.402   0.123  14.716 -0.4775 -0.0437  0.3125
 7342SOL    HW133488   0.436   0.052  14.661 -0.7194 -0.2770  0.4612
 7342SOL    HW233489   0.483   0.172  14.722 -0.4508 -0.0425 -0.1056
 7343SOL     OW33490   3.568   1.160   2.122 -0.0938  0.2479  0.5623
 7343SOL    HW133491   3.645   1.103   2.128 -0.7459 -0.9824 -2.3464
 7343SOL    HW233492   3.502   1.091   2.113 -0.6458  0.6018  1.9087
 7344SOL     OW33493   1.417   1.240   5.591  0.5322 -0.3201  0.0218
 7344SOL    HW133494   1.495   1.240   5.536 -0.5671 -0.5970 -1.5751
 7344SOL    HW233495   1.457   1.213   5.673  1.7003 -1.1681 -0.8254
 7345SOL     OW33496   0.259   1.838   7.743 -0.1303  0.0970 -0.5145
 7345SOL    HW133497   0.210   1.798   7.815 -1.9818  2.5312 -0.4551
 7345SOL    HW233498   0.337   1.783   7.733 -0.3934 -0.1882 -1.0220
 7346SOL     OW33499   3.203   3.242  14.557  0.4296 -0.1394 -0.5472
 7346SOL    HW133500   3.257   3.207  14.486 -0.9952 -2.0004 -0.6919
 7346SOL    HW233501   3.198   3.333  14.526  0.6685 -0.0490 -0.3211
 7347SOL     OW33502   1.765   2.219   5.811  0.4305  0.0107 -0.3794
 7347SOL    HW133503   1.689   2.166   5.785  0.8837 -1.0410  0.4052
 7347SOL    HW233504   1.838   2.173   5.769 -0.9504 -0.1226 -2.6242
 7348SOL     OW33505   4.081   1.510   1.484  0.0786  0.2871  0.4351
 7348SOL    HW133506   4.168   1.474   1.503  0.6255  0.7270 -1.2246
 7348SOL    HW233507   4.023   1.444   1.522 -0.5448 -1.1211 -2.9494
 7349SOL     OW33508   4.286   3.237   8.432  0.3903  0.2321  0.1125
 7349SOL    HW133509   4.292   3.158   8.380 -0.6226 -0.8384  1.6460
 7349SOL    HW233510   4.297   3.307   8.367 -1.1266 -0.2309 -0.6433
 7350SOL     OW33511   3.873   1.984   0.101  0.3939 -0.1887 -0.1528
 7350SOL    HW133512   3.875   2.001   0.007  1.7042  1.8848  0.2479
 7350SOL    HW233513   3.792   1.933   0.106 -0.3299  0.8710 -0.9744
 7351SOL     OW33514   1.010   2.154  16.904 -0.6128 -0.5960  0.5784
 7351SOL    HW133515   1.089   2.189  16.862 -2.2693  1.2528 -0.9900
 7351SOL    HW233516   0.992   2.229  16.962 -0.1019  0.2970 -0.4121
 7352SOL     OW33517   1.617   2.622   5.240 -0.6237 -0.6085 -0.2129
 7352SOL    HW133518   1.618   2.673   5.159 -0.9531 -0.3575 -0.0572
 7352SOL    HW233519   1.707   2.626   5.270 -1.0945  1.9737  0.7614
 7353SOL     OW33520   0.681   0.256   3.810 -0.2854  0.5672 -0.1072
 7353SOL    HW133521   0.768   0.283   3.782  0.5514 -0.4449  1.5669
 7353SOL    HW233522   0.636   0.280   3.728 -1.3934 -1.7921 -0.2038
 7354SOL     OW33523   1.498   2.994   6.034 -0.9549 -0.0351 -0.8598
 7354SOL    HW133524   1.429   3.060   6.046  0.0249  1.1913 -1.9260
 7354SOL    HW233525   1.524   3.017   5.945  1.5886 -1.4686 -0.4824
 7355SOL     OW33526   0.381   3.707   7.990  0.5130  0.1419 -0.3119
 7355SOL    HW133527   0.473   3.720   8.016  0.0976  1.2138  0.6224
 7355SOL    HW233528   0.350   3.654   8.064  1.3196  1.2911  0.8582
 7356SOL     OW33529   0.345   2.884   5.453  0.2871 -0.2797  0.0339
 7356SOL    HW133530   0.304   2.929   5.380 -0.0067  0.2132  0.5049
 7356SOL    HW233531   0.334   2.791   5.432  0.6208  0.1338 -1.9035
 7357SOL     OW33532   4.305   2.153   6.927  0.4728 -0.4155 -0.2020
 7357SOL    HW133533   4.234   2.148   6.863 -0.4907  0.7623  0.7625
 7357SOL    HW233534   4.290   2.241   6.963  1.1394 -0.3694 -0.0501
 7358SOL     OW33535   2.017   0.204   0.467  0.3048  0.1766  0.8917
 7358SOL    HW133536   1.999   0.136   0.531  0.1562 -0.7163 -0.0913
 7358SOL    HW233537   1.985   0.277   0.520 -0.5128  1.0127 -0.7318
 7359SOL     OW33538   4.716   1.136   6.633  0.3551 -0.2636  0.4734
 7359SOL    HW133539   4.639   1.188   6.656  1.1284  1.5742 -1.0918
 7359SOL    HW233540   0.075   1.187   6.621 -0.1498  0.5451  0.5755
 7360SOL     OW33541   1.664   3.053   5.769 -0.1093  0.1841 -0.1258
 7360SOL    HW133542   1.662   3.143   5.799 -0.2060  0.3686 -0.6884
 7360SOL    HW233543   1.759   3.058   5.753 -0.1086 -1.5361 -0.7249
 7361SOL     OW33544   3.420   1.559   9.393  0.4503  0.4983  0.1283
 7361SOL    HW133545   3.406   1.559   9.488 -0.7247 -1.1759 -0.0517
 7361SOL    HW233546   3.408   1.466   9.374  3.1475  0.0179  0.8278
 7362SOL     OW33547   3.364   2.357   7.157  0.3093  0.1744 -0.5975
 7362SOL    HW133548   3.299   2.394   7.097 -0.2318 -1.1506 -0.8099
 7362SOL    HW233549   3.326   2.368   7.244  2.5837 -3.4576  0.8522
 7363SOL     OW33550   2.380   0.355  12.006  0.1461 -0.1536 -0.3978
 7363SOL    HW133551   2.329   0.407  12.069 -0.5083 -0.6224 -0.5488
 7363SOL    HW233552   2.316   0.319  11.944  0.1769 -0.1023 -0.4599
 7364SOL     OW33553   4.135   0.338   8.754 -0.0034  0.2881  0.2711
 7364SOL    HW133554   4.086   0.417   8.776  2.7337  2.2970 -0.8522
 7364SOL    HW233555   4.218   0.378   8.727  0.9276 -1.0259  1.1713
 7365SOL     OW33556   0.132   0.435   3.306  0.1911  0.1011 -0.8646
 7365SOL    HW133557   0.052   0.475   3.340  1.2143  0.1359  1.5022
 7365SOL    HW233558   0.116   0.342   3.323 -0.6109  0.2083 -1.0269
 7366SOL     OW33559   2.560   2.854   6.772 -0.3196 -0.5035  0.0370
 7366SOL    HW133560   2.497   2.782   6.769 -0.3604 -0.4084 -1.8201
 7366SOL    HW233561   2.600   2.841   6.858 -0.8960  0.1855  0.4000
 7367SOL     OW33562   0.903   2.574   5.437  0.4388  0.2505 -0.0475
 7367SOL    HW133563   0.941   2.555   5.351 -0.1825  0.7439 -0.4239
 7367SOL    HW233564   0.985   2.582   5.486  0.7094 -2.3778 -0.0473
 7368SOL     OW33565   2.971   3.379  10.263 -0.2153  0.2761  0.1869
 7368SOL    HW133566   2.933   3.382  10.176  1.3103  3.1490 -0.3776
 7368SOL    HW233567   2.952   3.468  10.292 -0.1749  0.6050 -0.8089
 7369SOL     OW33568   4.305   0.205   7.433 -0.3887  0.4189 -0.1507
 7369SOL    HW133569   4.232   0.202   7.495  0.3911 -1.6691  0.6729
 7369SOL    HW233570   4.352   0.281   7.466  2.0561 -1.0693 -0.1724
 7370SOL     OW33571   0.663   2.787  11.574 -0.1373 -0.2855 -0.3771
 7370SOL    HW133572   0.582   2.795  11.525 -0.1260  5.4387  0.5356
 7370SOL    HW233573   0.727   2.823  11.512 -0.5360  2.2425  0.6681
 7371SOL     OW33574   2.783   1.041   4.602  0.4289  0.2011 -0.0372
 7371SOL    HW133575   2.873   1.008   4.593  0.0315 -1.3749  1.7588
 7371SOL    HW233576   2.763   1.079   4.517  0.3140  3.3317  1.3986
 7372SOL     OW33577   1.039   4.399  10.709 -0.2247 -0.1868 -0.3228
 7372SOL    HW133578   1.072   4.333  10.648  0.4573 -1.2912  1.2417
 7372SOL    HW233579   0.952   4.414  10.673 -0.6613 -1.9205 -0.0005
 7373SOL     OW33580   0.252   4.605  15.447  0.8525 -0.1492  0.2910
 7373SOL    HW133581   0.317   4.629  15.513  0.3612  0.3075  0.6105
 7373SOL    HW233582   0.297   4.622  15.364  1.6717  2.1370  1.1886
 7374SOL     OW33583   0.562   3.124   5.889 -0.1919  0.0341  0.8594
 7374SOL    HW133584   0.467   3.124   5.897 -0.0567  0.2155  2.5830
 7374SOL    HW233585   0.586   3.041   5.847  0.6789  0.7480 -0.0491
 7375SOL     OW33586   0.232   0.276   2.879 -0.3087  0.3637  0.5311
 7375SOL    HW133587   0.214   0.182   2.872 -0.3807  0.3966  0.2742
 7375SOL    HW233588   0.199   0.307   2.795 -0.3833  0.0488  0.4430
 7376SOL     OW33589   1.900   0.784   5.906 -0.0005  0.3915  0.1170
 7376SOL    HW133590   1.914   0.764   5.814 -0.3196 -0.4303  0.2438
 7376SOL    HW233591   1.968   0.730   5.946  0.7566  1.1073 -0.2037
 7377SOL     OW33592   2.947   0.246   4.943  0.0759  0.1410  0.1958
 7377SOL    HW133593   3.029   0.274   4.985 -0.2088  1.7521 -0.3397
 7377SOL    HW233594   2.936   0.304   4.868  2.2453  2.8626  1.9791
 7378SOL     OW33595   4.496   2.263   5.300 -0.0988  0.2264  0.3992
 7378SOL    HW133596   4.453   2.348   5.306 -1.5006 -0.6789  3.3434
 7378SOL    HW233597   4.538   2.239   5.382 -0.6605 -1.2494  0.2624
 7379SOL     OW33598   4.112   0.684   9.081  0.6927 -0.0425  0.7870
 7379SOL    HW133599   4.034   0.671   9.135 -0.0993  3.7305  0.5593
 7379SOL    HW233600   4.143   0.595   9.071  0.2459  0.0199 -1.1900
 7380SOL     OW33601   0.828   1.209   9.183 -0.4504  0.0818 -0.1557
 7380SOL    HW133602   0.869   1.221   9.097  1.9493  2.5619  1.3432
 7380SOL    HW233603   0.777   1.290   9.184 -1.8288 -0.7868  1.0721
 7381SOL     OW33604   0.331   3.726  10.666  0.3761  0.1277  0.2129
 7381SOL    HW133605   0.307   3.717  10.574  1.6321 -0.6356 -0.0516
 7381SOL    HW233606   0.260   3.678  10.707 -0.4210  2.9639  2.1498
 7382SOL     OW33607   3.015   2.746  15.258  0.3828 -0.2969 -0.3952
 7382SOL    HW133608   2.938   2.746  15.201 -0.8363 -0.9996  1.2916
 7382SOL    HW233609   3.076   2.709  15.194  0.8769  0.1849 -0.1991
 7383SOL     OW33610   1.001   2.881   5.108  0.3616 -0.1152 -0.0716
 7383SOL    HW133611   0.947   2.953   5.075 -1.2041 -0.7197  1.1707
 7383SOL    HW233612   0.950   2.848   5.182 -0.2800  1.1525  0.0423
 7384SOL     OW33613   2.610   0.209   6.355 -0.5898 -0.7241  0.4190
 7384SOL    HW133614   2.671   0.282   6.346 -1.8778  0.4388  1.1222
 7384SOL    HW233615   2.669   0.136   6.372 -1.1638 -0.8990  1.6476
 7385SOL     OW33616   1.735   1.782   1.374  0.1644  0.3215  0.2728
 7385SOL    HW133617   1.758   1.764   1.283  0.0669 -0.1759  0.3509
 7385SOL    HW233618   1.809   1.838   1.400 -2.2069  3.3506  0.5330
 7386SOL     OW33619   4.316   3.278  11.272  1.1507  0.5203 -0.4493
 7386SOL    HW133620   4.366   3.217  11.217 -0.3411  1.2613 -2.6462
 7386SOL    HW233621   4.231   3.235  11.265  2.8302 -3.1076  1.5126
 7387SOL     OW33622   1.426   4.397   6.151  0.0911  0.0624  0.1275
 7387SOL    HW133623   1.342   4.433   6.123  0.5202  0.4914 -0.6027
 7387SOL    HW233624   1.466   4.400   6.064  2.0509 -3.8268  0.9104
 7388SOL     OW33625   0.789   0.707   4.803 -0.0055  0.0893  0.1209
 7388SOL    HW133626   0.813   0.730   4.713  0.1823  1.1995  0.4588
 7388SOL    HW233627   0.760   0.796   4.822  0.9227  0.3841  0.1588
 7389SOL     OW33628   1.620   1.021   2.809 -0.4722  0.4680  0.5041
 7389SOL    HW133629   1.528   0.995   2.821 -0.7778  1.0638 -0.4730
 7389SOL    HW233630   1.652   1.011   2.898  0.1464  1.6342  0.4057
 7390SOL     OW33631   4.608   2.529   3.325  0.1150 -0.2410  0.0388
 7390SOL    HW133632   4.552   2.531   3.247  2.7107 -6.0541 -1.9682
 7390SOL    HW233633   4.635   2.620   3.338  0.5565 -0.5485  1.2448
 7391SOL     OW33634   1.665   2.908  14.131  0.5245  0.3138 -0.0119
 7391SOL    HW133635   1.689   2.988  14.178  0.4920 -0.8795  2.0621
 7391SOL    HW233636   1.749   2.873  14.103  1.1509  1.3861  0.5570
 7392SOL     OW33637   1.319   4.630  15.268  0.6048  0.1710  0.1364
 7392SOL    HW133638   1.267   4.614  15.347  0.4722 -0.1094 -0.0076
 7392SOL    HW233639   1.271   4.571  15.210  1.7812 -0.9118  0.2832
 7393SOL     OW33640   1.768   0.240  13.591 -0.3799 -0.4837 -0.1000
 7393SOL    HW133641   1.727   0.301  13.653 -2.1822 -0.6976 -1.0921
 7393SOL    HW233642   1.806   0.307  13.535 -2.6009  0.3706 -0.5631
 7394SOL     OW33643   0.209   0.637   4.404 -0.7511 -0.1355 -0.0732
 7394SOL    HW133644   0.211   0.600   4.493  1.5971 -0.3661 -0.2022
 7394SOL    HW233645   0.132   0.593   4.369 -1.0754  0.9208 -0.6720
 7395SOL     OW33646   1.965   3.061   8.285 -0.9008 -0.4382 -0.0463
 7395SOL    HW133647   1.945   3.009   8.207 -0.0106  0.6767 -1.0246
 7395SOL    HW233648   1.948   3.153   8.262  1.2807  0.7361  3.0943
 7396SOL     OW33649   3.787   0.951   2.123  0.1695  0.8508 -0.4761
 7396SOL    HW133650   3.855   0.954   2.055  1.2324 -0.6552  0.5212
 7396SOL    HW233651   3.770   0.858   2.138  1.8104  0.8273  1.1860
 7397SOL     OW33652   2.231   0.400   3.313  0.9942 -0.2472 -0.4402
 7397SOL    HW133653   2.179   0.320   3.312 -0.4301  0.7283 -2.2311
 7397SOL    HW233654   2.305   0.371   3.367  0.5344 -0.7402 -0.0736
 7398SOL     OW33655   4.266   0.048   4.453 -0.1120  0.4312  0.2098
 7398SOL    HW133656   4.238   0.011   4.536  2.3622  0.2525  0.9763
 7398SOL    HW233657   4.340   4.714   4.425  1.4154  1.7170  1.7610
 7399SOL     OW33658   2.185   3.817   4.472 -0.0684  0.0085  0.2303
 7399SOL    HW133659   2.163   3.879   4.402 -1.5557  0.1127  0.7989
 7399SOL    HW233660   2.196   3.868   4.552 -1.6483 -2.6750  2.1371
 7400SOL     OW33661   1.034   1.196   1.439 -0.2018  0.1856  0.5042
 7400SOL    HW133662   1.047   1.277   1.388  0.4366  0.5559  1.2490
 7400SOL    HW233663   1.123   1.182   1.472 -0.2451 -2.6463 -0.5810
 7401SOL     OW33664   2.800   0.010   6.330 -0.3151 -0.2269 -0.6237
 7401SOL    HW133665   2.762   4.643   6.343 -2.6154  0.9765  0.6904
 7401SOL    HW233666   2.893   4.706   6.329 -0.1418  0.4290 -0.5232
 7402SOL     OW33667   3.547   4.167  14.846 -0.3722 -1.1917 -0.5696
 7402SOL    HW133668   3.507   4.149  14.931  0.4407  2.3071  0.5748
 7402SOL    HW233669   3.488   4.239  14.822 -0.6245 -0.4546  2.3297
 7403SOL     OW33670   3.542   2.458   3.073 -0.2642 -0.1564  0.4343
 7403SOL    HW133671   3.568   2.385   3.017 -0.2837  0.2651 -0.1264
 7403SOL    HW233672   3.607   2.452   3.143  1.5499 -0.3763 -1.2651
 7404SOL     OW33673   4.647   1.181   8.968 -0.3708 -0.4047 -0.0237
 7404SOL    HW133674   4.613   1.092   8.971 -0.8463 -0.2314 -0.1600
 7404SOL    HW233675   4.651   1.202   9.061 -2.2116  1.5987 -0.3933
 7405SOL     OW33676   4.539   4.575   2.923 -0.0642 -0.8714 -0.1375
 7405SOL    HW133677   4.552   4.620   3.006  2.2455 -0.0547 -0.9370
 7405SOL    HW233678   4.450   4.593   2.891  1.4359  2.5356 -2.3726
 7406SOL     OW33679   3.575   2.802   5.783  0.6141  0.0543 -0.8095
 7406SOL    HW133680   3.656   2.794   5.733  1.5735 -0.8633  0.8967
 7406SOL    HW233681   3.538   2.888   5.760  1.3421  1.0150  1.6371
 7407SOL     OW33682   1.205   2.935   3.165  0.3140 -0.4101 -0.0136
 7407SOL    HW133683   1.245   2.849   3.181 -0.9472 -0.7720  1.1773
 7407SOL    HW233684   1.133   2.942   3.227  0.9617  0.1902  0.6678
 7408SOL     OW33685   2.750   4.661   2.737 -0.1447  0.2992  0.1247
 7408SOL    HW133686   2.706   4.626   2.660 -0.3229  1.5239 -0.3279
 7408SOL    HW233687   2.700   0.018   2.762  0.7200  0.6440  0.7734
 7409SOL     OW33688   3.438   1.136   5.698  0.4034 -0.1871  0.2566
 7409SOL    HW133689   3.482   1.128   5.783 -0.4480 -0.6852  0.6567
 7409SOL    HW233690   3.356   1.180   5.718  0.8017  0.1551  1.1538
 7410SOL     OW33691   1.989   3.555  11.262  0.4121  0.2007 -0.8126
 7410SOL    HW133692   2.050   3.630  11.266 -1.8758  2.0486 -0.7445
 7410SOL    HW233693   2.037   3.491  11.209 -2.9174 -2.5132 -0.5378
 7411SOL     OW33694   2.102   2.449   3.110  0.0025  0.1480  0.1314
 7411SOL    HW133695   2.148   2.491   3.183 -0.4687  0.2013  0.3956
 7411SOL    HW233696   2.056   2.523   3.071  0.9489  0.5513 -0.2200
 7412SOL     OW33697   0.836   0.756   7.087  0.2980  0.0876  0.2826
 7412SOL    HW133698   0.894   0.832   7.093  2.1826 -1.3509  0.5926
 7412SOL    HW233699   0.830   0.726   6.996 -3.2533  2.3658 -0.2174
 7413SOL     OW33700   1.830   4.506  15.239 -0.3725 -0.3596  0.1829
 7413SOL    HW133701   1.750   4.540  15.198 -0.4829  0.2388  0.8947
 7413SOL    HW233702   1.795   4.484  15.325  0.0438  1.7713  0.9020
 7414SOL     OW33703   0.679   0.198   6.517  0.0968 -0.1970  0.5754
 7414SOL    HW133704   0.613   0.222   6.453  1.1672 -1.5909 -1.0332
 7414SOL    HW233705   0.698   0.277   6.569  0.0030  0.6556 -0.6770
 7415SOL     OW33706   2.682   2.759   3.270  0.0120  0.6791 -0.3888
 7415SOL    HW133707   2.637   2.802   3.197  0.3492 -0.0856 -1.0474
 7415SOL    HW233708   2.768   2.762   3.229 -0.2683 -1.5040 -1.1684
 7416SOL     OW33709   3.075   2.298  13.218 -0.4233 -0.0567  0.4697
 7416SOL    HW133710   3.145   2.324  13.278  0.7477  0.6147 -1.2127
 7416SOL    HW233711   3.081   2.203  13.209  0.9698  0.1328 -0.6857
 7417SOL     OW33712   0.495   0.857  12.612  0.1244  0.4529  0.1497
 7417SOL    HW133713   0.550   0.845  12.535  1.6308 -1.0344  1.4467
 7417SOL    HW233714   0.554   0.852  12.688  1.2728  1.1277 -0.7019
 7418SOL     OW33715   2.055   0.233   7.575 -0.4261  0.3439 -0.3917
 7418SOL    HW133716   2.085   0.287   7.649  1.9670 -1.7013  0.1419
 7418SOL    HW233717   2.124   0.166   7.579 -1.7519 -1.0809 -1.2511
 7419SOL     OW33718   4.244   2.354   7.079 -0.0155  0.0472  0.4244
 7419SOL    HW133719   4.234   2.346   7.174 -0.1385 -1.0422  0.3198
 7419SOL    HW233720   4.162   2.403   7.067  0.1838 -0.1479 -1.7490
 7420SOL     OW33721   4.579   0.933  14.311 -0.1519  0.1491  0.4594
 7420SOL    HW133722   4.553   0.935  14.403 -0.2234  0.0402  0.4431
 7420SOL    HW233723   4.505   0.885  14.273  0.1724 -0.1412  0.1938
 7421SOL     OW33724   1.719   2.089   8.002 -0.5900 -0.8605 -0.3716
 7421SOL    HW133725   1.804   2.112   7.965  1.0332 -2.3867  2.4072
 7421SOL    HW233726   1.678   2.037   7.933  1.1655 -1.2020 -1.1707
 7422SOL     OW33727   1.504   2.515   6.309 -1.0475  0.4425 -0.1844
 7422SOL    HW133728   1.492   2.486   6.400  0.3647 -1.3902 -0.5864
 7422SOL    HW233729   1.459   2.599   6.308  0.3494  1.2060  1.5481
 7423SOL     OW33730   3.508   0.092   3.549  0.5515  0.5402 -0.1015
 7423SOL    HW133731   3.566   0.017   3.561  1.0561  0.9154 -0.2182
 7423SOL    HW233732   3.527   0.122   3.461 -1.9497 -0.0816 -0.8590
 7424SOL     OW33733   2.671   4.493   2.339 -0.4584  0.0535 -0.9426
 7424SOL    HW133734   2.639   4.577   2.305 -0.2193  1.6072  2.6585
 7424SOL    HW233735   2.631   4.499   2.426  3.1514 -1.6586  0.8680
 7425SOL     OW33736   4.702   4.282   1.973 -0.3354  0.1937 -0.1793
 7425SOL    HW133737   0.003   4.210   2.033  0.2613  1.0148  0.5921
 7425SOL    HW233738   4.642   4.243   1.910  1.0603  1.2872 -2.2122
 7426SOL     OW33739   0.459   0.189   7.126 -0.1573 -0.0003 -0.0456
 7426SOL    HW133740   0.513   0.175   7.203 -2.4972 -1.1667  1.3869
 7426SOL    HW233741   0.402   0.260   7.156  0.1237  0.5717 -0.8766
 7427SOL     OW33742   1.454   2.892  10.575  0.6107  0.1332 -0.2264
 7427SOL    HW133743   1.468   2.813  10.627  0.0156 -0.4768 -1.0013
 7427SOL    HW233744   1.393   2.859  10.509 -0.9024 -0.0066  1.2465
 7428SOL     OW33745   4.139   0.700  11.588  0.1484 -0.1019 -0.0617
 7428SOL    HW133746   4.059   0.740  11.623 -0.6952  0.7371 -2.9042
 7428SOL    HW233747   4.097   0.686  11.502  2.9565  1.1850 -1.6302
 7429SOL     OW33748   3.393   1.432  14.950  0.3313 -0.6132  0.8103
 7429SOL    HW133749   3.431   1.513  14.985  1.4934 -0.2112 -1.4143
 7429SOL    HW233750   3.313   1.471  14.914 -0.6973 -0.3417  3.3222
 7430SOL     OW33751   3.377   3.997   6.532  0.0097  0.2400  0.3183
 7430SOL    HW133752   3.338   3.916   6.499  0.1639 -0.0150  0.7538
 7430SOL    HW233753   3.404   3.961   6.617  0.9571 -0.0325 -0.0976
 7431SOL     OW33754   2.733   4.207   7.646 -0.6907  0.8322  0.2842
 7431SOL    HW133755   2.655   4.152   7.647 -1.4029  1.8300  1.7072
 7431SOL    HW233756   2.810   4.158   7.618 -0.5646  0.0634  1.9668
 7432SOL     OW33757   4.596   2.168   8.433  0.1190  0.7606 -0.0070
 7432SOL    HW133758   4.555   2.248   8.465 -1.4834 -0.3348  0.6879
 7432SOL    HW233759   4.569   2.127   8.515 -0.8051  0.2674 -0.5547
 7433SOL     OW33760   1.936   3.249   3.959  0.2472  0.1111  0.2394
 7433SOL    HW133761   1.871   3.271   3.893 -0.1111  1.9027  1.1791
 7433SOL    HW233762   1.882   3.262   4.037  1.1161 -0.6873  0.9702
 7434SOL     OW33763   3.326   2.303  15.466  0.3787 -0.4659  0.2202
 7434SOL    HW133764   3.291   2.231  15.519  3.1158 -2.4564 -0.6435
 7434SOL    HW233765   3.420   2.300  15.486  0.4736 -0.4130 -0.2317
 7435SOL     OW33766   3.995   0.877   9.303  0.6467 -0.7696 -0.6092
 7435SOL    HW133767   4.031   0.956   9.343 -2.6491  1.5228 -2.1712
 7435SOL    HW233768   3.944   0.914   9.231  1.2981  2.2690  0.4708
 7436SOL     OW33769   1.438   2.409   4.699 -0.3115  0.2764 -0.1897
 7436SOL    HW133770   1.518   2.357   4.701  0.0325  0.7845 -1.0084
 7436SOL    HW233771   1.394   2.363   4.771  1.2357 -0.5445  0.2196
 7437SOL     OW33772   2.243   0.094   5.144  0.7174  0.8334 -0.6347
 7437SOL    HW133773   2.258   0.168   5.085  0.2684  1.5949  0.1972
 7437SOL    HW233774   2.331   0.072   5.173  0.6968  0.4193 -0.8875
 7438SOL     OW33775   1.234   4.412  12.798 -0.2355 -0.4667 -0.0581
 7438SOL    HW133776   1.284   4.425  12.879 -0.5916  0.1844  0.0575
 7438SOL    HW233777   1.182   4.493  12.802 -0.0457 -0.2584 -2.1162
 7439SOL     OW33778   0.820   0.549   2.749 -0.6328  0.3219 -0.0180
 7439SOL    HW133779   0.756   0.525   2.683 -1.6427  1.3179  0.5960
 7439SOL    HW233780   0.808   0.482   2.816 -1.4099  0.5282  0.0445
 7440SOL     OW33781   3.526   2.647   5.117  0.0460 -0.0856  0.6090
 7440SOL    HW133782   3.456   2.592   5.151  0.1771  1.0885  2.8242
 7440SOL    HW233783   3.595   2.620   5.179  1.0537  1.3435  0.1188
 7441SOL     OW33784   1.223   3.184  14.938 -0.9530  0.7801 -0.0415
 7441SOL    HW133785   1.131   3.165  14.917 -0.2381 -0.8759 -1.6595
 7441SOL    HW233786   1.210   3.279  14.945 -0.2533  0.9294 -0.7353
 7442SOL     OW33787   2.374   3.407   3.187  0.5165 -0.3199  0.5195
 7442SOL    HW133788   2.405   3.336   3.131  0.8055 -1.2900  1.9232
 7442SOL    HW233789   2.413   3.369   3.265  4.7748  1.4918 -0.7431
 7443SOL     OW33790   1.644   0.213   5.631  0.1701  0.3321  0.1861
 7443SOL    HW133791   1.640   0.266   5.552  2.9936 -0.6419 -0.6149
 7443SOL    HW233792   1.646   0.280   5.699  0.6816 -0.0151  0.5190
 7444SOL     OW33793   3.929   0.562   4.198  0.0598  0.9604 -0.0191
 7444SOL    HW133794   3.932   0.626   4.270  0.1061  0.5717  0.3267
 7444SOL    HW233795   3.998   0.598   4.142 -0.0513 -1.5389 -1.7993
 7445SOL     OW33796   2.739   0.694   9.444  0.8934 -0.0741  0.2445
 7445SOL    HW133797   2.683   0.711   9.519  1.0336  1.4317  0.0011
 7445SOL    HW233798   2.688   0.630   9.395  1.0173 -0.5862  0.7967
 7446SOL     OW33799   2.224   3.538   4.889  1.0504 -0.0646  0.8184
 7446SOL    HW133800   2.259   3.620   4.922  0.2803  0.1799  1.0345
 7446SOL    HW233801   2.251   3.478   4.958 -3.3257 -3.6624 -0.5815
 7447SOL     OW33802   0.388   2.943   9.291  0.1873  0.0795  0.0119
 7447SOL    HW133803   0.435   3.005   9.347  0.3413  0.8712 -1.0009
 7447SOL    HW233804   0.392   2.985   9.205 -0.8873  0.5468  0.1901
 7448SOL     OW33805   2.754   2.038  12.598 -0.0041 -0.3308 -0.3264
 7448SOL    HW133806   2.695   1.966  12.617  1.0615 -0.6383  1.8033
 7448SOL    HW233807   2.760   2.084  12.682 -1.6589 -0.9128  0.1040
 7449SOL     OW33808   1.316   0.010   2.048  0.2063  0.1470  0.4846
 7449SOL    HW133809   1.304   4.638   2.028  1.0024 -0.2032  1.6374
 7449SOL    HW233810   1.349   0.050   1.967 -0.6545 -0.6360 -0.2500
 7450SOL     OW33811   2.387   2.597   2.435 -0.4649  0.0733  0.0421
 7450SOL    HW133812   2.476   2.608   2.468 -0.8494  1.7058  0.5572
 7450SOL    HW233813   2.390   2.520   2.378  0.3392  1.3486 -1.6488
 7451SOL     OW33814   2.137   0.946   2.711 -0.1970 -0.2003 -0.0118
 7451SOL    HW133815   2.169   0.859   2.689  1.3263  0.7685 -1.6858
 7451SOL    HW233816   2.057   0.940   2.659  0.0702 -1.4172 -0.2743
 7452SOL     OW33817   3.789   0.530   2.513  0.0254 -0.3825 -0.4222
 7452SOL    HW133818   3.724   0.466   2.484  1.8192 -2.0448 -0.7687
 7452SOL    HW233819   3.793   0.508   2.606  0.9537  1.1501 -0.0967
 7453SOL     OW33820   0.736   3.948   2.184 -0.3973 -0.0120  0.1407
 7453SOL    HW133821   0.698   4.008   2.120 -0.0348 -0.2810 -0.3290
 7453SOL    HW233822   0.675   3.971   2.254  0.5261 -0.2401  1.0092
 7454SOL     OW33823   0.890   3.562   8.826  0.2521  0.1162 -0.2916
 7454SOL    HW133824   0.980   3.565   8.792  0.4580  1.5795  0.3502
 7454SOL    HW233825   0.862   3.654   8.821  0.6038  0.2400 -0.0485
 7455SOL     OW33826   1.925   3.845   2.139  0.1388  0.3897 -0.3674
 7455SOL    HW133827   1.843   3.895   2.143  0.3904  0.8601 -1.0656
 7455SOL    HW233828   1.989   3.915   2.129  0.2334  0.4305  0.5660
 7456SOL     OW33829   3.500   3.394   2.580  0.3933  0.3540 -0.2215
 7456SOL    HW133830   3.517   3.319   2.637 -0.8235  1.6834  1.8997
 7456SOL    HW233831   3.590   3.413   2.552  1.2046 -0.6793  1.6321
 7457SOL     OW33832   0.075   2.618   8.938  0.6876 -0.5083 -0.0332
 7457SOL    HW133833   0.000   2.561   8.924  1.8106 -1.7393 -1.0142
 7457SOL    HW233834   0.115   2.606   8.852 -1.8442  0.6874 -1.3681
 7458SOL     OW33835   0.114   3.168   7.974 -0.0271 -0.3234 -0.1229
 7458SOL    HW133836   0.055   3.186   8.047  0.3147  0.6374 -0.0872
 7458SOL    HW233837   0.083   3.081   7.947  0.9962 -1.0873  1.1163
 7459SOL     OW33838   1.748   1.430   9.652  0.3270 -0.6195  0.4185
 7459SOL    HW133839   1.718   1.505   9.602  0.1123 -0.0140  1.4646
 7459SOL    HW233840   1.694   1.431   9.731  1.1501  2.6694  0.9397
 7460SOL     OW33841   0.647   3.492  13.396  0.1707  0.8064  0.0291
 7460SOL    HW133842   0.591   3.516  13.322 -0.5011 -1.6700 -0.2725
 7460SOL    HW233843   0.578   3.446  13.445  1.9993 -2.1830 -0.2101
 7461SOL     OW33844   2.424   1.726   5.303  0.0456 -0.4269  0.0219
 7461SOL    HW133845   2.340   1.765   5.326 -0.7068 -2.1437  0.2314
 7461SOL    HW233846   2.402   1.635   5.284  1.0931 -0.7062  0.1252
 7462SOL     OW33847   4.466   4.636   7.291  0.1511 -0.2034 -0.1652
 7462SOL    HW133848   4.486   4.673   7.204  0.0436  0.9507  0.3005
 7462SOL    HW233849   4.525   4.561   7.285 -2.7553 -2.5039 -0.1877
 7463SOL     OW33850   3.442   2.796   8.498  0.5663  0.6868 -0.4617
 7463SOL    HW133851   3.461   2.809   8.590  1.6363 -0.6063 -0.5019
 7463SOL    HW233852   3.433   2.700   8.498 -1.6677  0.9039  1.2942
 7464SOL     OW33853   4.547   3.786   0.127 -0.1197 -0.0085 -0.1157
 7464SOL    HW133854   4.531   3.872   0.086  1.2484  0.3851  0.1700
 7464SOL    HW233855   4.551   3.812   0.219  1.3775 -0.0244 -0.1799
 7465SOL     OW33856   2.477   3.066   5.640  0.2172 -0.0199 -0.3944
 7465SOL    HW133857   2.447   3.117   5.565  0.3101 -0.4469 -0.7220
 7465SOL    HW233858   2.429   2.984   5.629  2.0418 -1.3762  1.7606
 7466SOL     OW33859   4.334   1.930   8.753  0.2582 -0.2304  0.2600
 7466SOL    HW133860   4.254   1.889   8.718 -0.8280  2.0799  0.0725
 7466SOL    HW233861   4.378   1.850   8.783 -0.3304 -0.1218  1.4055
 7467SOL     OW33862   3.947   2.538   2.229  0.1350 -0.2393  0.6644
 7467SOL    HW133863   4.019   2.509   2.285 -0.6154 -2.2414  0.5730
 7467SOL    HW233864   3.966   2.479   2.156 -0.8864 -0.2043  0.3738
 7468SOL     OW33865   2.759   1.945   6.341 -0.5507  0.3046  0.3405
 7468SOL    HW133866   2.832   1.941   6.279 -1.0518  0.5765 -0.2690
 7468SOL    HW233867   2.767   1.861   6.385 -0.7548  0.6930  1.1248
 7469SOL     OW33868   2.351   4.227  12.492 -0.3757 -0.3114  0.5343
 7469SOL    HW133869   2.350   4.208  12.585  2.5465 -1.1201  0.4252
 7469SOL    HW233870   2.320   4.316  12.472  0.2217  0.0286  1.1010
 7470SOL     OW33871   1.719   1.705   9.561  0.3032 -0.3737 -0.1460
 7470SOL    HW133872   1.671   1.755   9.628 -0.4904 -0.7531 -0.4361
 7470SOL    HW233873   1.765   1.785   9.534 -1.6679  1.6808  2.4966
 7471SOL     OW33874   0.394   4.521   4.590  0.2131 -0.5320 -0.6450
 7471SOL    HW133875   0.386   4.459   4.517  1.5195  0.2762 -1.4935
 7471SOL    HW233876   0.311   4.568   4.593 -0.0550 -1.2822  3.4812
 7472SOL     OW33877   3.908   3.569   4.626 -0.1667  0.1887  0.3967
 7472SOL    HW133878   3.981   3.556   4.686 -0.2528 -2.2462 -0.0398
 7472SOL    HW233879   3.856   3.491   4.643  1.8943 -1.1441  0.5341
 7473SOL     OW33880   2.775   0.153  13.311  0.7101 -0.4918 -0.5189
 7473SOL    HW133881   2.824   0.122  13.234 -1.3243 -3.0869 -0.7903
 7473SOL    HW233882   2.684   0.157  13.281  1.1507  0.2349 -1.7600
 7474SOL     OW33883   0.104   3.276   4.181  0.4137  0.4164  0.5647
 7474SOL    HW133884   0.042   3.349   4.192  0.5208  0.3584  1.5358
 7474SOL    HW233885   0.052   3.198   4.204 -0.4685  0.3940 -1.4566
 7475SOL     OW33886   2.683   2.344   3.533 -0.0005  0.4346 -0.2302
 7475SOL    HW133887   2.669   2.384   3.619  0.5166  0.4062 -0.1327
 7475SOL    HW233888   2.634   2.398   3.472 -1.6997  0.9130  1.5736
 7476SOL     OW33889   4.707   2.266  14.270 -0.1764  0.6898  0.5645
 7476SOL    HW133890   0.000   2.308  14.185  1.5594  1.2719  1.1365
 7476SOL    HW233891   4.636   2.322  14.301 -2.0793 -1.7864  0.7267
 7477SOL     OW33892   0.366   0.701   5.690 -0.2859  0.7744  0.4094
 7477SOL    HW133893   0.425   0.671   5.759  1.3953 -0.9507 -1.7473
 7477SOL    HW233894   0.331   0.620   5.651  0.6347  1.2920 -1.4862
 7478SOL     OW33895   3.869   4.652   0.588 -0.2269  0.0887  0.0052
 7478SOL    HW133896   3.859   4.669   0.681 -4.2343 -0.4580 -0.3442
 7478SOL    HW233897   3.784   4.621   0.557 -0.9623  1.7745  0.4069
 7479SOL     OW33898   3.934   1.743  17.573  0.3566 -0.1896  0.0217
 7479SOL    HW133899   3.847   1.713  17.599  0.4787  1.1717  2.0049
 7479SOL    HW233900   3.972   1.731  17.660 -0.7775 -0.5425  0.4680
 7480SOL     OW33901   1.294   0.436   6.347 -0.6352 -0.0292 -0.2245
 7480SOL    HW133902   1.215   0.447   6.294  0.1277 -0.1786 -1.4002
 7480SOL    HW233903   1.270   0.427   6.439  2.1296  2.3111  0.7190
 7481SOL     OW33904   0.751   1.851   8.818 -0.0003 -0.4205  0.1933
 7481SOL    HW133905   0.775   1.783   8.882 -1.9367 -0.0120  1.3653
 7481SOL    HW233906   0.826   1.855   8.760 -0.2669  1.7680  0.0185
 7482SOL     OW33907   3.039   4.082   3.137  0.0989 -0.1279  0.0336
 7482SOL    HW133908   2.960   4.041   3.170 -0.9075  1.5779 -0.2605
 7482SOL    HW233909   3.008   4.097   3.048 -2.0830  1.7627  1.1142
 7483SOL     OW33910   2.730   2.971   5.693 -0.1248 -0.3576 -0.3809
 7483SOL    HW133911   2.645   3.006   5.662 -0.0256  0.3920  0.2038
 7483SOL    HW233912   2.780   2.978   5.612  0.8694  2.4017  0.5002
 7484SOL     OW33913   4.150   4.428   3.481  0.1688  0.1847 -0.0897
 7484SOL    HW133914   4.081   4.374   3.519  0.2326 -0.7239 -1.2636
 7484SOL    HW233915   4.107   4.512   3.467 -0.0415 -0.0798 -1.0358
 7485SOL     OW33916   2.063   4.459   8.746 -0.1423  0.6477 -0.0065
 7485SOL    HW133917   2.107   4.380   8.715 -0.1922  0.6944 -0.1961
 7485SOL    HW233918   1.978   4.466   8.702  0.1804  0.9115 -0.5844
 7486SOL     OW33919   3.379   3.395   6.589  0.0076  0.1748  0.2167
 7486SOL    HW133920   3.396   3.482   6.626  2.7015 -0.3210  0.1542
 7486SOL    HW233921   3.286   3.382   6.610 -0.1080  1.2337  0.3542
 7487SOL     OW33922   4.620   3.356   0.189  0.0398 -0.0908  0.0988
 7487SOL    HW133923   4.670   3.396   0.118  0.1046  0.0654  0.2340
 7487SOL    HW233924   4.658   3.399   0.265  0.4692  1.2691 -0.8840
 7488SOL     OW33925   1.709   3.529  10.225  0.1251  0.0909 -1.0535
 7488SOL    HW133926   1.781   3.492  10.174 -0.4110  0.0606 -1.7947
 7488SOL    HW233927   1.761   3.560  10.299  2.6763 -4.7131 -0.8195
 7489SOL     OW33928   2.549   0.268  17.673 -0.0364  0.3990 -0.2299
 7489SOL    HW133929   2.534   0.290  17.581 -1.0209 -2.0588 -0.6619
 7489SOL    HW233930   2.533   0.353   0.029  2.2937 -0.1347  1.8326
 7490SOL     OW33931   0.434   0.958   3.566 -0.2546  0.1017 -0.1081
 7490SOL    HW133932   0.485   0.951   3.486  1.3947  0.3504  0.9280
 7490SOL    HW233933   0.403   1.049   3.559 -1.5276 -0.3965 -0.9049
 7491SOL     OW33934   1.981   4.687   9.284  0.0222  0.2645 -0.2988
 7491SOL    HW133935   1.957   4.596   9.298 -1.0679  0.6165  0.1539
 7491SOL    HW233936   1.934   0.007   9.358  0.5162  0.2433  0.0258
 7492SOL     OW33937   1.142   3.273   4.070  0.7796  0.2636  0.6507
 7492SOL    HW133938   1.051   3.242   4.071  0.6968  0.4929  0.2660
 7492SOL    HW233939   1.192   3.192   4.058  0.0427 -0.4241  2.2333
 7493SOL     OW33940   1.782   4.432   6.757 -0.0109  0.2104  0.1391
 7493SOL    HW133941   1.819   4.497   6.698  1.2661  0.3835  1.0980
 7493SOL    HW233942   1.849   4.425   6.826  1.0826 -1.5255 -1.0706
 7494SOL     OW33943   3.008   3.938   4.813  0.6703 -0.0100  0.3158
 7494SOL    HW133944   3.041   3.885   4.740  1.0877  0.5216  0.1138
 7494SOL    HW233945   2.916   3.944   4.788  0.5371  0.5224  0.9204
 7495SOL     OW33946   2.521   2.839   8.635 -0.5253 -0.0353 -0.0909
 7495SOL    HW133947   2.594   2.855   8.695 -0.2075 -1.9126 -0.0017
 7495SOL    HW233948   2.559   2.826   8.549 -0.0173  3.6446 -0.4484
 7496SOL     OW33949   4.719   0.534   3.996  0.2265 -0.7946 -0.0033
 7496SOL    HW133950   4.648   0.596   4.012  0.7875  0.0810 -0.9276
 7496SOL    HW233951   4.702   0.463   4.058 -1.7920  0.3462  0.7350
 7497SOL     OW33952   4.583   4.494   8.315 -0.4790 -0.2499  0.1171
 7497SOL    HW133953   4.540   4.574   8.345  0.2384 -0.5617  1.9378
 7497SOL    HW233954   4.513   4.443   8.275 -1.9044  1.2655  0.7129
 7498SOL     OW33955   2.467   2.611   2.079  0.2985  0.1771  0.7700
 7498SOL    HW133956   2.447   2.688   2.133 -2.3442  1.4985 -2.1135
 7498SOL    HW233957   2.560   2.596   2.096  0.4446 -1.2252 -1.2537
 7499SOL     OW33958   0.253   0.740   3.668  0.2047 -0.0915 -0.4519
 7499SOL    HW133959   0.296   0.825   3.661  0.4043  0.0572  2.7710
 7499SOL    HW233960   0.318   0.696   3.722  0.0890  2.3760  1.6754
 7500SOL     OW33961   4.652   1.167  14.160  0.3954  0.0269  0.2857
 7500SOL    HW133962   4.635   1.088  14.213  0.1971  0.2381  0.5368
 7500SOL    HW233963   4.566   1.209  14.157  0.7622  0.8963  1.9151
 7501SOL     OW33964   3.794   4.512   3.822  0.1029  0.0811 -0.3893
 7501SOL    HW133965   3.752   4.478   3.900  0.8074 -1.7663 -0.7972
 7501SOL    HW233966   3.776   4.435   3.768  0.9367 -1.3219  1.3494
 7502SOL     OW33967   1.702   1.545   4.580 -0.1871 -0.3299  0.4929
 7502SOL    HW133968   1.779   1.506   4.622 -1.1040 -2.3653  0.2798
 7502SOL    HW233969   1.744   1.553   4.495 -2.5275  1.6367 -0.4617
 7503SOL     OW33970   3.078   3.023  15.258 -0.0280  0.8393  0.6273
 7503SOL    HW133971   3.042   2.936  15.271  0.4552  0.5114 -0.2434
 7503SOL    HW233972   3.170   2.997  15.259 -0.3218 -0.1736  2.3769
 7504SOL     OW33973   2.820   3.599   1.678 -0.0689 -0.1134  0.1239
 7504SOL    HW133974   2.889   3.533   1.685 -0.4830 -0.4382  1.1349
 7504SOL    HW233975   2.828   3.639   1.591 -0.3047 -1.3540 -0.4565
 7505SOL     OW33976   0.509   4.531   9.165 -0.0598 -0.3695 -0.6664
 7505SOL    HW133977   0.500   4.460   9.228  0.4696  1.1405  1.1121
 7505SOL    HW233978   0.431   4.579   9.193 -0.9033 -2.0520 -0.1649
 7506SOL     OW33979   0.576   2.802  14.465 -0.5627 -0.3465  0.2595
 7506SOL    HW133980   0.635   2.873  14.438  2.4627 -2.6520  0.8683
 7506SOL    HW233981   0.494   2.848  14.446  0.1133  1.1612  1.0231
 7507SOL     OW33982   4.305   3.131  17.616  0.6443  0.4412  0.3091
 7507SOL    HW133983   4.366   3.169  17.680  0.7667  2.3413 -0.9009
 7507SOL    HW233984   4.334   3.162  17.530 -0.6484 -1.8185 -0.9248
 7508SOL     OW33985   0.740   0.601  17.483 -0.2255  0.2643 -0.6166
 7508SOL    HW133986   0.754   0.561  17.569 -2.1750  0.2766 -0.2891
 7508SOL    HW233987   0.769   0.691  17.499  0.1651 -0.1653  1.0411
 7509SOL     OW33988   2.370   3.431   5.109  0.0513 -0.1812  0.0196
 7509SOL    HW133989   2.289   3.455   5.154  1.2728 -0.1596  2.2180
 7509SOL    HW233990   2.430   3.451   5.181  0.9551 -1.3249 -0.4075
 7510SOL     OW33991   0.326   3.143  11.469 -0.1462 -0.3253 -0.5222
 7510SOL    HW133992   0.307   3.050  11.473  2.0688 -0.6908  1.4668
 7510SOL    HW233993   0.332   3.159  11.563  0.9773  1.2106 -0.8501
 7511SOL     OW33994   3.434   4.152   5.683 -0.1115  0.0049 -0.3755
 7511SOL    HW133995   3.514   4.104   5.706  0.9961  2.5669  1.0642
 7511SOL    HW233996   3.419   4.125   5.593 -2.6691 -1.1228  0.3771
 7512SOL     OW33997   3.085   0.300   8.662 -0.2121 -0.1898  0.4530
 7512SOL    HW133998   3.027   0.371   8.687  0.7528  0.7541  0.0065
 7512SOL    HW233999   3.173   0.333   8.680  0.2362  0.5578 -2.9458
 7513SOL     OW34000   0.387   1.407   6.434 -0.0912 -0.1007  0.1036
 7513SOL    HW134001   0.478   1.379   6.428 -0.2613 -0.5713 -0.3048
 7513SOL    HW234002   0.343   1.327   6.403 -0.7039 -0.4606  1.9338
 7514SOL     OW34003   2.421   1.786   7.842  0.3269  0.7336  0.0104
 7514SOL    HW134004   2.408   1.730   7.919  0.6185 -0.1473 -0.5827
 7514SOL    HW234005   2.496   1.744   7.801  1.5285  1.9689  0.9726
 7515SOL     OW34006   2.012   1.019   4.250  0.3321  0.2797 -0.3791
 7515SOL    HW134007   2.080   1.031   4.184  0.8170 -2.5428 -0.3851
 7515SOL    HW234008   1.940   0.998   4.190 -0.1551  2.0081 -0.3984
 7516SOL     OW34009   3.001   3.559   9.411 -0.4031 -0.4413  0.1707
 7516SOL    HW134010   2.982   3.643   9.454 -1.7258 -1.1942  1.0600
 7516SOL    HW234011   3.066   3.522   9.471  0.4721  2.2579  0.9347
 7517SOL     OW34012   2.786   0.170   1.679 -0.1287  0.1396  0.4417
 7517SOL    HW134013   2.831   0.254   1.681  2.0053 -0.9699 -1.9595
 7517SOL    HW234014   2.696   0.192   1.703 -0.3740  1.2825 -1.5722
 7518SOL     OW34015   0.293   2.495  13.771  0.4986 -0.5537 -0.0239
 7518SOL    HW134016   0.260   2.405  13.776  0.2403 -0.3427  1.9351
 7518SOL    HW234017   0.373   2.487  13.822 -0.0894 -0.5724  0.9111
 7519SOL     OW34018   0.954   1.642  12.375  0.7596  0.4436 -0.1094
 7519SOL    HW134019   0.894   1.609  12.442  0.4850 -0.6449 -0.8818
 7519SOL    HW234020   0.982   1.714  12.431  0.4985 -2.0698  3.2878
 7520SOL     OW34021   0.044   0.057   6.648 -0.3160  0.3781 -0.2193
 7520SOL    HW134022   0.087   0.020   6.725 -0.2907  2.4197  0.7396
 7520SOL    HW234023   4.683   0.090   6.687  0.1934  1.7768 -0.3748
 7521SOL     OW34024   3.590   4.464   4.005 -0.6127 -0.2104  0.0603
 7521SOL    HW134025   3.629   4.425   4.083 -0.5489  2.5359  1.4145
 7521SOL    HW234026   3.556   4.390   3.955 -0.3403 -1.3174  1.5215
 7522SOL     OW34027   2.944   3.327   3.883 -0.0766 -0.3768 -0.8337
 7522SOL    HW134028   2.866   3.272   3.896 -1.8826  2.1611 -1.0177
 7522SOL    HW234029   2.909   3.409   3.850 -1.4889 -0.3951  0.6000
 7523SOL     OW34030   4.123   0.558   8.121  0.1204  0.8687  0.4984
 7523SOL    HW134031   4.191   0.499   8.153  0.5199 -0.3348 -2.5146
 7523SOL    HW234032   4.140   0.640   8.167 -0.3000 -0.7645  3.5246
 7524SOL     OW34033   2.937   0.604  14.839  0.0144 -0.8444  0.3761
 7524SOL    HW134034   2.926   0.514  14.870 -0.4274 -0.5938  0.9583
 7524SOL    HW234035   3.031   0.602  14.821  0.1408 -0.8672  1.0485
 7525SOL     OW34036   0.376   3.192  10.442  0.3056  0.2744 -0.0622
 7525SOL    HW134037   0.409   3.281  10.446 -0.1732  0.3961  1.4631
 7525SOL    HW234038   0.281   3.207  10.444  0.0099 -1.7534  2.1352
 7526SOL     OW34039   4.290   1.731   3.042  0.2587  0.3110  0.1510
 7526SOL    HW134040   4.380   1.764   3.046  0.4255 -0.5067  3.1833
 7526SOL    HW234041   4.274   1.709   2.950 -1.7344  0.7985  0.3800
 7527SOL     OW34042   0.189   2.135  15.166  0.4378 -0.1664 -0.4965
 7527SOL    HW134043   0.102   2.174  15.154  0.9258  1.0590 -0.0465
 7527SOL    HW234044   0.212   2.117  15.075 -0.1630 -1.8180 -0.3297
 7528SOL     OW34045   0.599   0.664   9.983 -0.2604 -0.7132  1.0001
 7528SOL    HW134046   0.673   0.724   9.990 -1.6827  1.2347 -0.5630
 7528SOL    HW234047   0.605   0.668   9.887 -0.3368  1.7152  1.1035
 7529SOL     OW34048   1.652   2.310   5.102 -0.3460  0.2411  0.0775
 7529SOL    HW134049   1.567   2.279   5.132 -0.3256  0.9282  0.8593
 7529SOL    HW234050   1.635   2.398   5.136  1.8417  0.8518 -0.3911
 7530SOL     OW34051   0.171   4.518  17.310 -0.0890 -0.3581 -0.3470
 7530SOL    HW134052   0.254   4.557  17.337  0.4386 -2.0206  0.4459
 7530SOL    HW234053   0.195   4.425  17.307  0.5142 -0.1499 -1.8976
 7531SOL     OW34054   2.631   1.243   8.763  0.3065 -0.3496  0.1186
 7531SOL    HW134055   2.716   1.210   8.793  0.1674  0.4153  1.3541
 7531SOL    HW234056   2.573   1.221   8.836 -0.2724  2.1829  0.4032
 7532SOL     OW34057   2.384   1.713   4.000  0.1829  0.5740 -0.1638
 7532SOL    HW134058   2.312   1.689   3.941  0.5978  1.0580 -0.8714
 7532SOL    HW234059   2.451   1.748   3.942 -1.2885 -0.7604 -2.6737
 7533SOL     OW34060   0.757   4.347   8.256  0.2075  0.3534 -0.0296
 7533SOL    HW134061   0.765   4.440   8.274 -0.1995  0.4655 -0.4465
 7533SOL    HW234062   0.840   4.327   8.214  0.0168 -0.3182 -0.0868
 7534SOL     OW34063   3.314   3.062   0.997 -0.1647 -0.8299  0.9485
 7534SOL    HW134064   3.372   3.098   1.064  1.1331 -1.0187 -0.0801
 7534SOL    HW234065   3.228   3.079   1.037 -1.7865 -1.0823 -2.4199
 7535SOL     OW34066   1.121   0.808   9.700 -0.6777 -0.2653 -0.0758
 7535SOL    HW134067   1.044   0.863   9.718 -1.3825 -0.2782 -3.0007
 7535SOL    HW234068   1.178   0.861   9.644  0.0503 -0.2838  0.6516
 7536SOL     OW34069   0.816   3.985  16.888 -0.2632 -0.7123 -0.1860
 7536SOL    HW134070   0.859   4.006  16.806 -1.2307  1.3373 -0.1680
 7536SOL    HW234071   0.757   3.916  16.858 -1.2505  0.1482 -0.2326
 7537SOL     OW34072   0.079   1.382  10.691 -0.2528  0.2965  0.0174
 7537SOL    HW134073   0.013   1.452  10.698  0.0883  0.7667 -1.4273
 7537SOL    HW234074   0.088   1.351  10.781 -1.6073 -0.0596  0.0253
 7538SOL     OW34075   0.663   2.000   8.091 -0.2802 -0.2570 -0.4734
 7538SOL    HW134076   0.627   2.055   8.022 -1.1275 -0.8343 -0.4938
 7538SOL    HW234077   0.756   2.022   8.086  0.5321 -3.2548  1.4340
 7539SOL     OW34078   0.432   1.227   3.723  0.3550 -0.1803 -0.2881
 7539SOL    HW134079   0.476   1.222   3.638 -0.8740 -3.2046 -0.7677
 7539SOL    HW234080   0.450   1.319   3.742 -1.9150  0.2981 -0.4470
 7540SOL     OW34081   3.431   1.115   4.164 -0.5561 -0.2975  0.3798
 7540SOL    HW134082   3.479   1.189   4.201 -1.5915 -0.6282  2.3388
 7540SOL    HW234083   3.371   1.149   4.097  0.6268 -1.7709 -1.4129
 7541SOL     OW34084   0.362   3.097  16.870  0.7011  0.3163 -0.2843
 7541SOL    HW134085   0.272   3.129  16.878  0.6171 -0.2422  0.9991
 7541SOL    HW234086   0.395   3.107  16.959 -1.6711  0.4281  0.5701
 7542SOL     OW34087   0.963   3.334  14.412 -0.1833 -0.2380  0.3339
 7542SOL    HW134088   0.941   3.331  14.505 -2.6472  1.3117 -0.2127
 7542SOL    HW234089   1.028   3.404  14.406 -0.6982  0.1296 -0.9326
 7543SOL     OW34090   1.548   1.379   4.380  0.1488 -0.0039 -0.8132
 7543SOL    HW134091   1.542   1.452   4.441  0.5522 -1.9005  1.4974
 7543SOL    HW234092   1.620   1.332   4.423  0.5171  0.5116 -0.8702
 7544SOL     OW34093   1.280   3.471   3.976 -0.7933 -0.3153  0.2489
 7544SOL    HW134094   1.246   3.384   4.000  2.0998 -1.9624 -1.6280
 7544SOL    HW234095   1.281   3.519   4.059  0.2149 -1.3803  0.8438
 7545SOL     OW34096   1.101   1.128   2.201  0.2172 -0.4928  0.1353
 7545SOL    HW134097   1.057   1.089   2.125 -0.9628  0.6473  0.2372
 7545SOL    HW234098   1.185   1.150   2.161  0.0987  1.4531  0.9702
 7546SOL     OW34099   0.118   2.562  12.827 -0.2492 -0.0727  0.0902
 7546SOL    HW134100   0.198   2.517  12.800  0.9103  0.9464  1.8413
 7546SOL    HW234101   0.146   2.648  12.794  0.0249 -0.3401 -0.3769
 7547SOL     OW34102   0.448   0.973  15.657 -0.4960 -0.0995 -0.2387
 7547SOL    HW134103   0.534   0.932  15.662 -0.4784 -0.0972 -0.5059
 7547SOL    HW234104   0.465   1.029  15.581  1.4114  2.8221  2.3404
 7548SOL     OW34105   1.896   2.199  15.446 -0.1429  0.0801  0.0316
 7548SOL    HW134106   1.960   2.131  15.426 -0.4234 -0.2714  0.3264
 7548SOL    HW234107   1.810   2.161  15.426  0.7420 -1.0030 -1.6836
 7549SOL     OW34108   0.906   0.206   2.418  0.0399  0.5304 -0.1072
 7549SOL    HW134109   0.964   0.200   2.342 -0.0255  2.6236 -0.3451
 7549SOL    HW234110   0.944   0.283   2.462 -1.8531  0.3377  1.8784
 7550SOL     OW34111   0.378   3.988  15.543 -0.1559 -0.4232  0.0469
 7550SOL    HW134112   0.379   4.080  15.571  0.6574 -0.1610 -0.8490
 7550SOL    HW234113   0.293   3.959  15.577  1.8910 -2.2959  3.4796
 7551SOL     OW34114   4.233   2.124   5.306 -0.4947  0.4400 -0.8202
 7551SOL    HW134115   4.248   2.124   5.400 -0.4200 -1.9264 -0.8315
 7551SOL    HW234116   4.323   2.132   5.275 -0.0193 -4.3070 -0.6425
 7552SOL     OW34117   3.102   3.547   4.490  0.3991  0.1771 -0.1744
 7552SOL    HW134118   3.032   3.537   4.426 -0.5442 -0.3430  0.9361
 7552SOL    HW234119   3.056   3.516   4.568 -0.9922  0.4433 -0.8979
 7553SOL     OW34120   1.835   1.457   2.615 -0.1746  0.6788  0.7471
 7553SOL    HW134121   1.781   1.388   2.655  1.2955 -0.8894 -0.0207
 7553SOL    HW234122   1.770   1.505   2.563  1.6908  1.1550 -1.1216
 7554SOL     OW34123   1.065   2.669  15.314 -0.3128  0.0277  0.4860
 7554SOL    HW134124   1.120   2.609  15.364  1.7135  0.2581 -1.5055
 7554SOL    HW234125   1.034   2.605  15.250 -0.2674  1.1213 -0.6274
 7555SOL     OW34126   0.108   0.087   7.059  0.0904  0.1637  0.0060
 7555SOL    HW134127   0.121   4.720   7.095 -1.3490 -0.2733 -0.5213
 7555SOL    HW234128   0.165   0.079   6.983 -0.4771 -0.3870 -0.3551
 7556SOL     OW34129   2.456   1.420   1.657  0.2024  0.3040  0.1948
 7556SOL    HW134130   2.433   1.329   1.639  0.2452  0.3058  0.1272
 7556SOL    HW234131   2.397   1.446   1.727 -0.3704  1.4204 -0.7147
 7557SOL     OW34132   0.552   3.273  14.567 -0.3620 -0.4005  0.1544
 7557SOL    HW134133   0.644   3.292  14.551  0.0938 -2.2839  0.5313
 7557SOL    HW234134   0.525   3.348  14.620  0.7617  0.5532 -0.6264
 7558SOL     OW34135   1.167   4.534   8.996 -0.2028 -0.2598 -0.4282
 7558SOL    HW134136   1.142   4.600   9.060 -0.8961  1.0844 -2.0837
 7558SOL    HW234137   1.118   4.574   8.925  0.0907  1.5297  0.3804
 7559SOL     OW34138   1.221   1.360   7.895 -0.0134  0.3635  0.3124
 7559SOL    HW134139   1.222   1.433   7.833  1.5578 -0.6608 -0.8307
 7559SOL    HW234140   1.226   1.415   7.974 -1.5121  1.4931 -0.3735
 7560SOL     OW34141   1.234   3.963   4.561  0.4845 -0.6732 -0.4108
 7560SOL    HW134142   1.190   3.986   4.643  1.1748  2.2961 -0.8458
 7560SOL    HW234143   1.286   4.043   4.552 -1.4669  0.9130  2.6169
 7561SOL     OW34144   0.642   2.221   3.211 -0.5856  0.5590 -0.1673
 7561SOL    HW134145   0.674   2.308   3.235  4.6202 -1.1791 -0.8329
 7561SOL    HW234146   0.616   2.245   3.122 -0.0897  2.6177  0.2274
 7562SOL     OW34147   2.635   4.190   8.664 -0.1039  0.2778 -0.0400
 7562SOL    HW134148   2.709   4.191   8.725  0.1718  0.9135 -0.3817
 7562SOL    HW234149   2.601   4.101   8.668 -3.3165  1.4969  0.0533
 7563SOL     OW34150   3.488   0.697   6.044 -0.1139 -0.1053  0.6499
 7563SOL    HW134151   3.400   0.660   6.042 -0.0997 -0.0120 -1.1592
 7563SOL    HW234152   3.507   0.681   6.137  0.3717 -2.2094  0.1889
 7564SOL     OW34153   4.055   1.946  11.419 -0.3455 -0.1278 -0.7017
 7564SOL    HW134154   4.103   1.986  11.491 -0.9049  0.4052 -0.6278
 7564SOL    HW234155   4.014   2.024  11.381  2.0565  1.7356  0.5272
 7565SOL     OW34156   4.550   0.415   2.838  0.4818 -0.4920 -0.0987
 7565SOL    HW134157   4.543   0.336   2.785  0.0193 -1.3592  1.2372
 7565SOL    HW234158   4.638   0.443   2.814 -0.1591  1.4990 -0.1128
 7566SOL     OW34159   3.258   1.738  11.567 -0.4247 -0.2191  0.1625
 7566SOL    HW134160   3.227   1.772  11.651  1.9901  1.3375  0.4315
 7566SOL    HW234161   3.201   1.794  11.514 -1.0426 -0.8155  0.2064
 7567SOL     OW34162   2.053   1.779   5.253  0.2241 -0.8061  0.0508
 7567SOL    HW134163   2.127   1.796   5.195 -0.9124  1.7887 -0.6377
 7567SOL    HW234164   2.103   1.752   5.330 -0.9549 -1.9914  0.4040
 7568SOL     OW34165   1.266   0.105   5.660  0.1445  0.3142 -0.1320
 7568SOL    HW134166   1.310   0.085   5.578 -0.6239  0.1824 -0.5100
 7568SOL    HW234167   1.343   0.093   5.715  0.3013  1.4493 -0.1081
 7569SOL     OW34168   2.071   4.085   2.211  0.7409  0.4434  0.1691
 7569SOL    HW134169   2.026   4.164   2.242 -0.9073 -1.1392  1.7664
 7569SOL    HW234170   2.048   4.092   2.118 -1.2835  0.0914  0.6446
 7570SOL     OW34171   0.356   4.697   7.392  0.5010  0.1510  0.0796
 7570SOL    HW134172   0.390   0.064   7.412  0.4491  0.3161 -0.5615
 7570SOL    HW234173   0.312   4.708   7.308  0.7012  1.9225  0.2202
 7571SOL     OW34174   1.294   0.599   9.704 -0.6518 -0.4923  0.2128
 7571SOL    HW134175   1.353   0.665   9.740 -0.1999 -0.7090 -0.1316
 7571SOL    HW234176   1.216   0.654   9.707 -0.6760 -0.4579 -1.0047
 7572SOL     OW34177   2.263   0.257   0.308 -0.1197 -0.4059  0.0672
 7572SOL    HW134178   2.169   0.255   0.322  0.0045 -1.0830  0.8039
 7572SOL    HW234179   2.285   0.191   0.373 -2.4117  1.1858  2.4143
 7573SOL     OW34180   0.819   0.892   3.920  0.3732  0.0829 -0.4503
 7573SOL    HW134181   0.729   0.919   3.900  0.3740 -0.3640 -1.0604
 7573SOL    HW234182   0.834   0.826   3.852 -0.2019  0.1096 -0.5958
 7574SOL     OW34183   1.573   3.769  15.611 -0.6866  0.2077 -0.1462
 7574SOL    HW134184   1.529   3.854  15.623 -1.3104 -0.1533  0.0940
 7574SOL    HW234185   1.581   3.751  15.705  0.8139  0.4537 -0.2259
 7575SOL     OW34186   3.144   4.175   7.685  0.2660 -0.2854  0.0217
 7575SOL    HW134187   3.147   4.270   7.682 -1.0958 -0.2548 -0.1975
 7575SOL    HW234188   3.070   4.148   7.631  0.0339  1.8464 -0.7246
 7576SOL     OW34189   1.623   3.064   0.930 -0.3682  0.3186 -0.4486
 7576SOL    HW134190   1.617   3.160   0.935  0.8118  0.4396 -1.3474
 7576SOL    HW234191   1.699   3.059   0.872  0.2792  0.7084  0.3591
 7577SOL     OW34192   3.836   2.837  10.061 -1.0157 -0.2446 -0.5834
 7577SOL    HW134193   3.809   2.882   9.981  1.0552 -0.8676 -1.6555
 7577SOL    HW234194   3.894   2.892  10.113  1.3833 -2.4666 -0.9041
 7578SOL     OW34195   2.944   3.689   2.440  0.3396 -0.3401  0.1111
 7578SOL    HW134196   2.917   3.775   2.408  0.8245 -1.1495 -2.4818
 7578SOL    HW234197   2.967   3.709   2.531 -0.3478  1.8507 -0.1867
 7579SOL     OW34198   1.168   4.477   6.091 -0.1430 -0.0444  1.0174
 7579SOL    HW134199   1.108   4.461   6.163 -0.0446 -0.2231  1.0594
 7579SOL    HW234200   1.153   4.571   6.080 -2.4227 -0.6797 -1.1532
 7580SOL     OW34201   2.893   4.546   5.724  0.2208  0.0473  0.6785
 7580SOL    HW134202   2.862   4.610   5.787  0.1559 -0.4387  1.1439
 7580SOL    HW234203   2.816   4.538   5.667  1.9235 -0.3832 -1.5637
 7581SOL     OW34204   0.250   0.329   4.496  0.0994  0.0185  0.1412
 7581SOL    HW134205   0.191   0.261   4.528 -3.0847  2.1278 -1.3247
 7581SOL    HW234206   0.274   0.359   4.583  1.5060 -1.5621  0.2950
 7582SOL     OW34207   0.413   0.986   4.740  0.2466 -0.3108  0.1547
 7582SOL    HW134208   0.341   0.973   4.678  1.2301 -0.7236 -0.9039
 7582SOL    HW234209   0.379   1.057   4.794  0.1443 -0.0833 -0.2101
 7583SOL     OW34210   2.005   4.714   0.672 -0.3852  0.2081 -0.2233
 7583SOL    HW134211   1.951   4.650   0.717 -0.2222  0.1230 -0.1482
 7583SOL    HW234212   2.024   4.663   0.593 -1.6338 -1.8611  0.8407
 7584SOL     OW34213   0.907   2.895   3.596 -0.3623  0.4227 -0.3589
 7584SOL    HW134214   0.820   2.897   3.556 -0.0421  2.5722 -0.9709
 7584SOL    HW234215   0.885   2.887   3.688 -0.5791  1.1893 -0.3436
 7585SOL     OW34216   1.004   0.395  13.876 -0.6629 -0.8492 -0.1285
 7585SOL    HW134217   1.046   0.481  13.885  3.0280 -2.4574 -1.8328
 7585SOL    HW234218   1.034   0.364  13.962  0.1725  1.6969  0.5225
 7586SOL     OW34219   3.596   1.033   2.618 -0.2541  0.0427 -0.1911
 7586SOL    HW134220   3.538   0.980   2.563  0.7526  0.2908 -1.4911
 7586SOL    HW234221   3.677   0.999   2.581  0.4191  1.8290 -0.3528
 7587SOL     OW34222   0.494   0.937   8.661  0.1359 -0.5097 -0.2782
 7587SOL    HW134223   0.477   1.017   8.712 -1.0967 -0.4768 -0.7330
 7587SOL    HW234224   0.447   0.870   8.710  0.3086 -1.1447 -0.9966
 7588SOL     OW34225   3.714   0.433  16.730  0.3347  0.6565 -0.4072
 7588SOL    HW134226   3.633   0.424  16.680 -1.1627  0.7319  1.9939
 7588SOL    HW234227   3.783   0.428  16.664  0.5763  1.2744 -0.2051
 7589SOL     OW34228   3.495   1.269   8.093 -0.3508  0.1515  0.2009
 7589SOL    HW134229   3.446   1.306   8.166 -0.7436 -1.6409  0.8678
 7589SOL    HW234230   3.426   1.234   8.036 -1.0752  0.2616  1.0052
 7590SOL     OW34231   2.361   3.873  13.367  0.3907  0.4631 -0.4301
 7590SOL    HW134232   2.399   3.961  13.359 -0.2530  0.7745 -0.0203
 7590SOL    HW234233   2.332   3.857  13.278 -2.8464  3.7052  0.0479
 7591SOL     OW34234   2.781   3.633   8.965 -0.4239 -0.1528  0.0804
 7591SOL    HW134235   2.766   3.721   8.999 -0.9100 -0.4830  0.7182
 7591SOL    HW234236   2.771   3.638   8.870  2.2611 -1.4439 -0.2653
 7592SOL     OW34237   2.000   2.324   4.853  0.1819 -0.5803 -0.2680
 7592SOL    HW134238   1.968   2.235   4.870  1.5900 -0.7920  1.2527
 7592SOL    HW234239   2.016   2.323   4.759 -0.6762 -1.4430 -0.4085
 7593SOL     OW34240   3.279   1.427   8.496 -0.2677 -0.3374  0.0891
 7593SOL    HW134241   3.284   1.493   8.564 -0.4883 -0.8441  0.5965
 7593SOL    HW234242   3.204   1.460   8.447  1.5339  1.9643 -1.0927
 7594SOL     OW34243   4.711   0.311   7.508  0.1311 -0.0752  0.4665
 7594SOL    HW134244   4.642   0.251   7.537  0.3182  0.1380  1.3268
 7594SOL    HW234245   0.054   0.299   7.579  1.8706  3.1733 -0.5557
 7595SOL     OW34246   1.179   2.346   9.337 -0.2890 -0.0471 -0.4729
 7595SOL    HW134247   1.259   2.378   9.377  1.1942 -3.0455 -1.0715
 7595SOL    HW234248   1.131   2.305   9.409  1.0143 -0.4572  0.1578
 7596SOL     OW34249   0.378   3.865  11.331  0.0485 -0.1570 -0.2863
 7596SOL    HW134250   0.424   3.942  11.298 -0.3140 -0.3311 -1.2073
 7596SOL    HW234251   0.447   3.810  11.367 -0.8182 -0.4670  0.9197
 7597SOL     OW34252   2.706   2.944  10.271 -0.3578 -0.3431  0.3048
 7597SOL    HW134253   2.798   2.929  10.291  0.2350 -0.9775 -2.7917
 7597SOL    HW234254   2.672   2.997  10.343 -0.3151 -1.7671  1.3617
 7598SOL     OW34255   0.250   1.437   9.625 -0.8083  0.4933  0.4777
 7598SOL    HW134256   0.271   1.501   9.693  0.9506 -0.6879  1.0389
 7598SOL    HW234257   0.173   1.485   9.593 -0.6198  0.4701 -0.0112
 7599SOL     OW34258   2.129   1.823   3.027  0.3845 -0.9406  0.2226
 7599SOL    HW134259   2.127   1.826   2.931 -1.6113  1.8777  0.3569
 7599SOL    HW234260   2.154   1.731   3.038  1.3029 -0.6981  0.0977
 7600SOL     OW34261   3.035   0.047   6.621  0.5834 -0.1027 -0.5142
 7600SOL    HW134262   2.961   0.002   6.580  0.7889  0.4793 -1.5193
 7600SOL    HW234263   3.116   0.011   6.585 -0.1678 -1.7242 -0.5883
 7601SOL     OW34264   2.459   3.177   3.020 -0.3619  0.5657  0.0031
 7601SOL    HW134265   2.487   3.193   2.930 -0.5494  1.9903  0.2079
 7601SOL    HW234266   2.376   3.136   2.995 -0.9888  0.2753  2.4778
 7602SOL     OW34267   4.296   2.030  10.180 -0.3258  0.1510  0.1722
 7602SOL    HW134268   4.380   1.996  10.211 -0.5526 -0.4060  0.1666
 7602SOL    HW234269   4.289   1.997  10.090  1.7642  0.4043 -0.0987
 7603SOL     OW34270   1.636   3.985   5.329  0.1586 -0.3257 -0.0108
 7603SOL    HW134271   1.662   4.073   5.355 -3.1923  1.5133 -2.9045
 7603SOL    HW234272   1.623   3.994   5.234 -1.7280  0.6529  0.3494
 7604SOL     OW34273   2.429   1.574   7.028  0.5484  0.2840 -0.3896
 7604SOL    HW134274   2.346   1.617   7.009 -1.1357 -2.8291 -0.0207
 7604SOL    HW234275   2.425   1.494   6.976  0.8271  0.8223 -1.2424
 7605SOL     OW34276   1.554   0.136   1.609 -0.0422 -0.0332 -0.2400
 7605SOL    HW134277   1.494   0.203   1.574  0.7640  2.1521  2.5088
 7605SOL    HW234278   1.629   0.191   1.632 -1.6672  2.3503 -0.6252
 7606SOL     OW34279   1.692   0.282   7.472 -0.1582  0.3033  0.1436
 7606SOL    HW134280   1.722   0.300   7.561  1.6883 -0.7857 -0.2698
 7606SOL    HW234281   1.689   0.186   7.476  0.5187  0.1787 -2.4319
 7607SOL     OW34282   3.983   4.111   5.052  0.1560  0.3829 -0.9292
 7607SOL    HW134283   3.958   4.021   5.032 -0.9297  0.2148  1.2528
 7607SOL    HW234284   4.077   4.111   5.029  0.5098  0.8139  0.5250
 7608SOL     OW34285   3.447   3.209   8.020 -0.0383  0.0364 -0.3035
 7608SOL    HW134286   3.521   3.231   8.076  1.0636 -1.7009 -1.0678
 7608SOL    HW234287   3.478   3.129   7.978  0.8551 -0.2141  0.8423
 7609SOL     OW34288   0.641   1.276   7.179 -0.0003 -0.3001 -0.4130
 7609SOL    HW134289   0.724   1.236   7.202  0.5448  3.0769  3.3857
 7609SOL    HW234290   0.633   1.224   7.099 -2.1882  1.2675 -1.2423
 7610SOL     OW34291   1.303   2.235   9.106 -0.1047  0.5482 -0.0034
 7610SOL    HW134292   1.384   2.274   9.074 -0.3077 -0.9474 -2.3338
 7610SOL    HW234293   1.294   2.282   9.189 -0.2426 -2.8609  1.9107
 7611SOL     OW34294   0.809   0.531   0.062 -0.5177  0.5392 -0.0224
 7611SOL    HW134295   0.858   0.613   0.055 -0.2785  0.3555 -0.4481
 7611SOL    HW234296   0.825   0.505   0.153 -0.3517 -0.1418 -0.2442
 7612SOL     OW34297   3.217   2.843  12.679  0.4324 -0.1485  0.3325
 7612SOL    HW134298   3.126   2.841  12.650  0.0634 -0.9093  1.5496
 7612SOL    HW234299   3.205   2.829  12.773 -0.6574  2.4891  0.5717
 7613SOL     OW34300   1.748   2.271   6.393  0.2202 -0.4584  0.2534
 7613SOL    HW134301   1.822   2.305   6.342  0.0299 -0.0102  0.2732
 7613SOL    HW234302   1.683   2.235   6.333  0.4817  1.3164 -1.1249
 7614SOL     OW34303   2.217   1.377   3.429  0.0625 -0.5291 -0.5730
 7614SOL    HW134304   2.133   1.408   3.461 -0.6235 -2.0726 -0.8865
 7614SOL    HW234305   2.221   1.301   3.488 -0.2041 -1.6550 -1.9987
 7615SOL     OW34306   3.373   3.956   6.086 -0.0777  0.7737 -0.1776
 7615SOL    HW134307   3.450   3.957   6.029  1.1669 -1.7198  1.4422
 7615SOL    HW234308   3.411   3.983   6.170 -0.6433  0.6133  0.1325
 7616SOL     OW34309   2.977   2.089   2.482  0.2462 -0.1548  0.0421
 7616SOL    HW134310   2.999   2.062   2.393 -0.3238 -1.7625  0.3890
 7616SOL    HW234311   2.881   2.081   2.483  0.0155  2.4581  0.4543
 7617SOL     OW34312   1.120   1.630  15.002 -0.1092  0.2114  0.6365
 7617SOL    HW134313   1.176   1.704  15.027  2.0568 -0.7061 -1.5084
 7617SOL    HW234314   1.188   1.590  14.947  0.9138  0.7285  1.5222
 7618SOL     OW34315   1.773   1.919   5.914  0.0883  0.3170  0.6184
 7618SOL    HW134316   1.757   1.955   6.001 -1.7955  1.1825 -0.0796
 7618SOL    HW234317   1.863   1.888   5.929  0.5052  1.1801 -0.0407
 7619SOL     OW34318   0.555   0.328   8.350  0.4016 -0.1453 -0.1353
 7619SOL    HW134319   0.581   0.376   8.428 -0.0556 -1.4038  0.7848
 7619SOL    HW234320   0.578   0.238   8.373  1.9477 -0.1991 -1.8827
 7620SOL     OW34321   2.934   4.302   3.901  0.0751  0.2929  0.4570
 7620SOL    HW134322   2.998   4.261   3.843 -1.2023  1.2676 -1.6506
 7620SOL    HW234323   3.003   4.335   3.958 -1.1584  1.4085  1.2978
 7621SOL     OW34324   1.057   4.200   5.440 -0.4931  0.1221  0.0491
 7621SOL    HW134325   1.039   4.271   5.501  1.3992  1.6605 -1.2139
 7621SOL    HW234326   0.968   4.167   5.447 -0.6555  0.4197 -0.5897
 7622SOL     OW34327   4.410   4.076   7.877 -0.1543 -0.3579 -0.4456
 7622SOL    HW134328   4.402   3.983   7.855 -1.4478 -0.3302 -0.1034
 7622SOL    HW234329   4.469   4.067   7.951 -0.0939 -0.9874 -0.5692
 7623SOL     OW34330   1.474   3.915   4.420 -0.6796 -0.0846  0.6929
 7623SOL    HW134331   1.400   3.974   4.432  0.4860  1.2724  1.0721
 7623SOL    HW234332   1.454   3.883   4.332 -1.6401  1.0064  0.5279
 7624SOL     OW34333   4.506   1.577   7.884 -0.0842 -0.7501  0.5599
 7624SOL    HW134334   4.464   1.659   7.911  0.9462  0.2412 -0.8782
 7624SOL    HW234335   4.466   1.512   7.941  0.6562 -2.2485 -0.6511
 7625SOL     OW34336   4.190   4.691  17.283 -0.0286  0.2915 -0.1349
 7625SOL    HW134337   4.150   4.665  17.366  0.3228 -3.1087 -1.0420
 7625SOL    HW234338   4.112   0.004  17.238  0.2883  0.8644 -0.2643
 7626SOL     OW34339   1.798   2.197   7.435  0.1437 -0.0770 -0.4560
 7626SOL    HW134340   1.847   2.117   7.417  0.5829 -0.0693  0.7560
 7626SOL    HW234341   1.768   2.216   7.346 -3.9853  2.5468  1.4942
 7627SOL     OW34342   3.023   3.217   8.397 -0.2181  0.2472 -0.8649
 7627SOL    HW134343   3.022   3.259   8.483  1.7217 -1.9325  0.2194
 7627SOL    HW234344   3.092   3.270   8.357  0.3794 -0.6468 -1.0370
 7628SOL     OW34345   0.946   1.944   0.385 -0.1696 -0.0773  0.0784
 7628SOL    HW134346   0.894   1.924   0.463 -1.2356  1.3963 -0.2447
 7628SOL    HW234347   0.973   1.857   0.357 -1.3727 -0.7908  1.1257
 7629SOL     OW34348   0.171   2.823   4.090  0.0227  0.0108 -0.0406
 7629SOL    HW134349   0.188   2.848   4.180 -0.5342  2.2647 -0.5633
 7629SOL    HW234350   0.105   2.754   4.094  0.0565  0.1132  1.9620
 7630SOL     OW34351   1.510   0.061   0.087  0.0049 -0.0706  0.1157
 7630SOL    HW134352   1.537   4.690   0.077 -0.6189 -0.2621  0.1498
 7630SOL    HW234353   1.565   0.105   0.023  0.4876  0.2415  0.7459
 7631SOL     OW34354   4.133   4.213   6.400  0.0422  0.7000 -0.3259
 7631SOL    HW134355   4.177   4.129   6.416 -1.2313 -0.1763 -1.3755
 7631SOL    HW234356   4.054   4.208   6.453  1.3711  0.1897  1.5863
 7632SOL     OW34357   1.808   0.773   6.872 -0.2809 -0.2714 -0.3690
 7632SOL    HW134358   1.829   0.719   6.948 -1.1176 -1.0327 -0.6801
 7632SOL    HW234359   1.884   0.831   6.870 -0.1060 -0.5245 -1.3060
 7633SOL     OW34360   0.200   2.063   4.636 -0.2905  0.4345 -0.1517
 7633SOL    HW134361   0.172   1.974   4.615  1.7510 -0.9763  2.9886
 7633SOL    HW234362   0.217   2.060   4.731 -0.3436  0.1553 -0.1494
 7634SOL     OW34363   2.618   4.442   8.323 -0.2305 -0.0102  0.1648
 7634SOL    HW134364   2.711   4.454   8.304 -0.1608 -2.2226 -0.9780
 7634SOL    HW234365   2.590   4.404   8.239  0.0935  2.4688 -1.0628
 7635SOL     OW34366   1.186   1.247   4.358 -0.2504  0.3380 -0.1233
 7635SOL    HW134367   1.225   1.235   4.444 -0.1963 -0.3808 -0.2491
 7635SOL    HW234368   1.246   1.312   4.321  0.5464 -0.5866 -0.4295
 7636SOL     OW34369   0.318   3.344   7.964 -0.2127 -0.2354  0.0521
 7636SOL    HW134370   0.243   3.285   7.962 -0.4500 -0.0126  2.2940
 7636SOL    HW234371   0.380   3.280   7.928 -0.3044  0.7507 -1.8655
 7637SOL     OW34372   0.359   3.212   4.227  0.3188  0.2168 -0.2587
 7637SOL    HW134373   0.282   3.244   4.180  1.8468  1.3629 -1.9421
 7637SOL    HW234374   0.413   3.191   4.151  0.2350  1.3684 -0.6419
 7638SOL     OW34375   1.028   3.515   7.701 -0.3048  0.1892 -0.6164
 7638SOL    HW134376   0.954   3.492   7.757  1.9486 -1.3197  1.7038
 7638SOL    HW234377   1.068   3.589   7.745 -1.5312 -0.2212  1.1974
 7639SOL     OW34378   2.322   2.251   8.224 -0.3339  0.3006  0.3191
 7639SOL    HW134379   2.330   2.346   8.221  1.7782  0.1282  0.5312
 7639SOL    HW234380   2.308   2.235   8.317 -2.6707 -1.1141 -0.2546
 7640SOL     OW34381   3.287   1.046   4.402  0.0807  0.2152 -0.6150
 7640SOL    HW134382   3.362   0.988   4.389 -2.4180 -2.7440 -1.7057
 7640SOL    HW234383   3.335   1.122   4.435 -0.5448  1.2582 -2.1179
 7641SOL     OW34384   3.797   1.566   1.374 -0.5197 -0.2717 -0.1632
 7641SOL    HW134385   3.891   1.557   1.381 -0.5475 -0.6866 -0.3476
 7641SOL    HW234386   3.788   1.626   1.448  2.3239 -1.9857  1.5170
 7642SOL     OW34387   4.181   3.977   6.530 -0.4624 -0.0644  0.4824
 7642SOL    HW134388   4.115   3.931   6.582 -1.9076  0.4742 -0.8627
 7642SOL    HW234389   4.222   4.012   6.609  1.0859  1.3223 -0.9219
 7643SOL     OW34390   0.403   4.073   9.164 -0.0518  0.0402  0.3809
 7643SOL    HW134391   0.342   4.051   9.235 -1.3303 -1.0966 -1.0592
 7643SOL    HW234392   0.483   4.043   9.206 -0.1782 -0.5115  0.2287
 7644SOL     OW34393   2.943   4.593   3.040  0.3601  0.2635 -0.6658
 7644SOL    HW134394   3.001   4.662   3.005 -0.9639  2.3718  1.2739
 7644SOL    HW234395   2.997   4.567   3.115 -1.7720 -0.9743  0.4355
 7645SOL     OW34396   2.607   2.152  16.232  0.4461 -0.1202 -0.0806
 7645SOL    HW134397   2.561   2.236  16.237  1.6752  0.6564 -1.8953
 7645SOL    HW234398   2.532   2.097  16.254  1.8098 -1.5891  0.9009
 7646SOL     OW34399   4.360   1.624   8.825  0.3368 -0.1545  0.1920
 7646SOL    HW134400   4.395   1.587   8.744 -2.0338  0.7927 -1.2818
 7646SOL    HW234401   4.319   1.542   8.853  1.3410 -0.2358  1.4039
 7647SOL     OW34402   1.712   2.023   3.261 -0.3739 -0.3981 -0.3135
 7647SOL    HW134403   1.786   2.037   3.201 -0.3141  1.4120  0.1944
 7647SOL    HW234404   1.683   2.112   3.280  0.7977 -0.5059  1.9079
 7648SOL     OW34405   0.169   2.200  10.970 -0.1294  0.2519  0.1640
 7648SOL    HW134406   0.154   2.266  10.902 -0.9205  0.2209  0.3114
 7648SOL    HW234407   0.233   2.253  11.018  0.4983 -1.3102  1.0749
 7649SOL     OW34408   1.318   1.941   7.400 -0.4630  0.0661  0.1606
 7649SOL    HW134409   1.326   1.918   7.307  1.1817  0.2522  0.2506
 7649SOL    HW234410   1.230   1.978   7.405 -0.6744 -0.4268  0.0425
 7650SOL     OW34411   4.670   2.858   6.090  0.2909 -0.0196  0.3478
 7650SOL    HW134412   4.663   2.902   6.005  1.8229 -2.0252 -0.8079
 7650SOL    HW234413   4.579   2.857   6.120 -0.9295 -3.2016 -3.4046
 7651SOL     OW34414   1.051   0.545  14.216  0.1197 -0.2832  0.5710
 7651SOL    HW134415   1.062   0.465  14.165  2.0312  1.2969 -1.4618
 7651SOL    HW234416   1.050   0.619  14.156  1.1651 -1.6723 -1.1416
 7652SOL     OW34417   4.546   3.550  16.773 -0.2479  0.2642  0.4031
 7652SOL    HW134418   4.513   3.605  16.844  0.7909 -0.3375  1.3636
 7652SOL    HW234419   4.479   3.481  16.776 -0.0465  0.0636  0.3210
 7653SOL     OW34420   0.823   1.438  13.567  0.3569  0.0226  0.1044
 7653SOL    HW134421   0.897   1.498  13.572  0.2424  0.2100 -0.5585
 7653SOL    HW234422   0.758   1.506  13.585  2.6139  2.5584 -1.3190
 7654SOL     OW34423   1.543   2.265   6.189 -0.0736  0.3393  0.0307
 7654SOL    HW134424   1.480   2.265   6.117 -0.1599  0.7822  0.1059
 7654SOL    HW234425   1.515   2.347   6.231 -0.3912  0.7295 -0.9325
 7655SOL     OW34426   2.026   0.909  11.857 -0.1794 -0.3168  0.0787
 7655SOL    HW134427   1.970   0.846  11.903 -2.1297  0.0110 -1.8304
 7655SOL    HW234428   1.950   0.954  11.819 -0.2293 -0.1374  0.3832
 7656SOL     OW34429   2.040   1.350   4.153 -0.2733  0.2224 -0.3882
 7656SOL    HW134430   2.005   1.439   4.156 -1.4104 -0.1957 -1.1680
 7656SOL    HW234431   1.971   1.312   4.098 -1.2090  0.3435  0.7026
 7657SOL     OW34432   2.959   2.343   3.126  0.0783  0.1391 -0.0717
 7657SOL    HW134433   2.955   2.437   3.138 -0.6326  0.1160 -0.1280
 7657SOL    HW234434   3.016   2.315   3.198  1.8035 -1.3639 -2.0070
 7658SOL     OW34435   2.330   4.218   1.727  0.2987  0.4112 -0.0630
 7658SOL    HW134436   2.392   4.270   1.778  0.7516 -1.5314  1.3901
 7658SOL    HW234437   2.248   4.253   1.762  0.2265  1.8268 -1.6755
 7659SOL     OW34438   2.594   4.684  12.370  0.1447  0.1116  0.1469
 7659SOL    HW134439   2.587   0.056  12.346 -2.1766  0.0354  0.6176
 7659SOL    HW234440   2.631   4.642  12.292  0.6763 -1.9461  1.5038
 7660SOL     OW34441   4.485   1.902   3.173 -0.1493  1.2285 -0.4696
 7660SOL    HW134442   4.535   1.943   3.243  0.7701  0.5828 -0.7557
 7660SOL    HW234443   4.400   1.894   3.216  0.3135  1.5183  0.4760
 7661SOL     OW34444   0.493   2.858  16.690  0.5547 -0.1614  0.3848
 7661SOL    HW134445   0.419   2.914  16.668  1.2206  0.0878 -1.1860
 7661SOL    HW234446   0.528   2.898  16.769  0.9630  1.2655 -0.5362
 7662SOL     OW34447   2.420   0.085   0.485  0.0946 -0.1252  0.3908
 7662SOL    HW134448   2.484   0.157   0.487  0.2937 -0.2671 -1.0715
 7662SOL    HW234449   2.390   0.075   0.575  1.5481 -0.7272  0.8116
 7663SOL     OW34450   4.083   2.752   4.612 -0.2280 -0.4044  0.6077
 7663SOL    HW134451   4.085   2.675   4.555 -0.2288  0.3451 -0.4040
 7663SOL    HW234452   4.029   2.725   4.687 -2.8065 -0.0976 -1.1572
 7664SOL     OW34453   3.333   2.048   2.799  0.5912 -0.3167 -0.2612
 7664SOL    HW134454   3.281   2.011   2.728 -0.3988 -0.8021  0.7256
 7664SOL    HW234455   3.264   2.074   2.860  0.5886 -0.5760 -0.1527
 7665SOL     OW34456   0.473   1.300  11.739  0.2956 -0.0030  0.4117
 7665SOL    HW134457   0.549   1.359  11.743 -0.0905  0.7312 -2.9323
 7665SOL    HW234458   0.503   1.242  11.809 -0.1758  1.2330  1.6485
 7666SOL     OW34459   2.651   1.041   8.462  0.3827  0.2136  0.5203
 7666SOL    HW134460   2.712   0.970   8.440 -0.3327  0.0624 -0.9987
 7666SOL    HW234461   2.649   1.041   8.558  1.8584  0.0532  0.5642
 7667SOL     OW34462   0.970   3.163   8.548  0.4786 -0.6687 -0.4652
 7667SOL    HW134463   1.033   3.215   8.498 -0.3122  0.2261 -0.5355
 7667SOL    HW234464   1.013   3.160   8.633 -1.3381 -0.5666  0.4515
 7668SOL     OW34465   4.484   2.059   5.721 -0.0305  0.6421 -0.0128
 7668SOL    HW134466   4.523   2.065   5.808 -1.2570 -1.1996  0.6710
 7668SOL    HW234467   4.565   2.072   5.671  1.7922 -0.1425  2.7535
 7669SOL     OW34468   2.059   2.301  16.769  0.8672  0.6249  0.3619
 7669SOL    HW134469   2.019   2.216  16.750 -0.2359  1.7608 -2.3377
 7669SOL    HW234470   1.973   2.343  16.762 -0.5181 -2.0667  1.3320
 7670SOL     OW34471   3.731   3.950   6.468  0.3712 -0.2578  0.6829
 7670SOL    HW134472   3.784   4.007   6.524  0.1746  0.8057 -0.2053
 7670SOL    HW234473   3.739   3.868   6.516 -1.0668 -1.3672 -0.9998
 7671SOL     OW34474   2.013   0.607   9.363 -0.6325 -0.0980  0.0548
 7671SOL    HW134475   2.014   0.547   9.288 -2.2411 -0.9494  0.6927
 7671SOL    HW234476   1.950   0.563   9.420 -1.0872 -0.7313 -0.9239
 7672SOL     OW34477   3.308   2.417   5.871 -0.4637 -0.9232 -0.1330
 7672SOL    HW134478   3.335   2.344   5.817  0.3890 -0.6031 -0.1397
 7672SOL    HW234479   3.370   2.481   5.838 -1.8504  1.0738  1.0854
 7673SOL     OW34480   3.621   2.934  13.129 -0.2728 -1.1504  0.1091
 7673SOL    HW134481   3.640   2.856  13.182 -0.4495 -1.3664 -0.1388
 7673SOL    HW234482   3.537   2.957  13.167  0.2567  0.2267  0.4188
 7674SOL     OW34483   0.432   0.732   4.286 -0.0677 -0.2263  0.2905
 7674SOL    HW134484   0.344   0.719   4.322 -0.1347  1.9663  0.8930
 7674SOL    HW234485   0.485   0.744   4.364  0.2534 -2.5039  0.4424
 7675SOL     OW34486   3.461   1.655   4.809  0.4518  0.5577  0.4702
 7675SOL    HW134487   3.543   1.627   4.770 -0.3009  0.5819 -1.1372
 7675SOL    HW234488   3.468   1.633   4.902  0.0755 -1.4794 -0.0004
 7676SOL     OW34489   1.697   3.029   7.073 -0.2268  0.3980 -0.3038
 7676SOL    HW134490   1.612   2.987   7.090 -0.4667  1.0374  0.0765
 7676SOL    HW234491   1.675   3.122   7.077 -2.9316 -0.1713 -1.2765
 7677SOL     OW34492   3.125   2.732   8.423  0.5495  0.2976 -0.1881
 7677SOL    HW134493   3.170   2.807   8.385  0.6117  0.0433 -0.6058
 7677SOL    HW234494   3.041   2.726   8.378  1.2269 -2.2655 -1.1021
 7678SOL     OW34495   4.040   4.055   0.577  0.2557 -0.3609 -0.0310
 7678SOL    HW134496   3.974   4.056   0.509  2.4051 -1.2915 -2.1374
 7678SOL    HW234497   4.100   3.990   0.542  0.7757  0.1413 -0.0835
 7679SOL     OW34498   4.011   2.671   6.595  0.5245 -0.2997  0.3180
 7679SOL    HW134499   4.007   2.701   6.504 -0.9133  0.4926  0.6443
 7679SOL    HW234500   4.105   2.655   6.602  0.7097  0.7139  0.1359
 7680SOL     OW34501   2.137   0.068   5.922 -0.1512 -0.6179 -0.1900
 7680SOL    HW134502   2.066   0.022   5.878 -2.1683  2.8354 -0.5314
 7680SOL    HW234503   2.150   4.718   5.986  0.3085  0.3655  0.8161
 7681SOL     OW34504   0.021   0.276   3.868 -0.1734  0.0047 -0.2742
 7681SOL    HW134505   0.113   0.284   3.840 -0.6071  0.5177 -1.5549
 7681SOL    HW234506   0.001   0.364   3.902  0.3121 -0.2224  0.5972
 7682SOL     OW34507   2.055   1.204   7.862 -0.7505  0.2052 -0.1339
 7682SOL    HW134508   2.118   1.172   7.926 -0.9147  0.7988  0.3286
 7682SOL    HW234509   2.103   1.213   7.780  0.0252 -2.1332  0.0786
 7683SOL     OW34510   0.926   3.274  13.982 -0.2103 -0.3318  0.0667
 7683SOL    HW134511   0.989   3.331  13.938 -0.4818  0.7039  1.0321
 7683SOL    HW234512   0.971   3.241  14.059 -1.1032 -0.2923  0.6025
 7684SOL     OW34513   1.078   0.698  17.502 -0.7050 -0.1403 -0.1977
 7684SOL    HW134514   1.021   0.721  17.574  1.1216  2.8888  0.3047
 7684SOL    HW234515   1.033   0.626  17.459 -1.9023  0.1622  0.5754
 7685SOL     OW34516   1.722   4.307   9.691 -0.3412 -0.0306 -0.4076
 7685SOL    HW134517   1.742   4.293   9.783  3.8494 -1.2470 -1.4674
 7685SOL    HW234518   1.651   4.244   9.676 -0.9808  0.0640  2.3391
 7686SOL     OW34519   3.268   1.116   3.055  0.1685 -0.4884  0.0669
 7686SOL    HW134520   3.312   1.057   2.994  0.4848 -0.6955  0.4889
 7686SOL    HW234521   3.238   1.176   2.987 -0.0454  0.0211  0.6102
 7687SOL     OW34522   3.844   1.410  16.180  0.2380 -0.1322 -0.5135
 7687SOL    HW134523   3.861   1.323  16.216  0.4261 -0.0794 -0.4765
 7687SOL    HW234524   3.922   1.420  16.126  0.0638  0.1972 -0.7048
 7688SOL     OW34525   0.605   2.357   4.788  0.1445 -0.0316  0.1047
 7688SOL    HW134526   0.551   2.294   4.740 -0.5462  0.5136  0.1768
 7688SOL    HW234527   0.541   2.427   4.797 -1.0166 -0.9973 -0.6428
 7689SOL     OW34528   0.743   2.781  12.091 -0.6540  0.2322  0.2220
 7689SOL    HW134529   0.670   2.735  12.132  0.3167 -1.4443  0.0895
 7689SOL    HW234530   0.806   2.709  12.102 -1.8591 -1.0873 -1.5052
 7690SOL     OW34531   1.442   0.081   3.345 -0.5521 -0.1287 -0.1733
 7690SOL    HW134532   1.360   0.115   3.308 -2.0048 -3.2174  0.1513
 7690SOL    HW234533   1.510   0.128   3.298  1.2232 -1.3885  1.1445
 7691SOL     OW34534   1.942   4.078   1.516  0.1201 -0.1291 -0.1938
 7691SOL    HW134535   1.905   4.005   1.466 -1.0656  0.4285 -0.1189
 7691SOL    HW234536   2.036   4.065   1.505  0.7598  3.5167  1.0529
 7692SOL     OW34537   2.507   0.718   9.896  0.0043 -0.7029  0.0842
 7692SOL    HW134538   2.462   0.776   9.957  1.4313 -0.5560  0.9998
 7692SOL    HW234539   2.557   0.663   9.956  0.3111 -0.2086  0.2806
 7693SOL     OW34540   1.995   2.710   0.610 -0.5906 -0.4313  0.0668
 7693SOL    HW134541   2.012   2.775   0.542 -0.2771 -0.0543  0.5077
 7693SOL    HW234542   2.065   2.646   0.602 -0.4853 -0.0593 -1.9703
 7694SOL     OW34543   3.289   4.685   3.461 -0.0311  0.2557 -0.3572
 7694SOL    HW134544   3.329   4.633   3.391  2.6427  0.8631  0.7361
 7694SOL    HW234545   3.367   0.016   3.481 -0.1823  0.7859 -1.1038
 7695SOL     OW34546   4.527   4.521  16.833  0.0780 -0.0544  0.0735
 7695SOL    HW134547   4.499   4.602  16.791 -3.4465 -1.3222 -0.0433
 7695SOL    HW234548   4.621   4.537  16.831  0.0975 -0.1978 -0.1222
 7696SOL     OW34549   0.634   3.795   4.428  0.0156 -0.1031 -0.0330
 7696SOL    HW134550   0.687   3.857   4.378  0.1498 -1.0628 -1.0803
 7696SOL    HW234551   0.598   3.845   4.502  0.2601  0.7039 -0.4597
 7697SOL     OW34552   0.350   2.877   7.877  0.1387  0.0090 -0.2558
 7697SOL    HW134553   0.339   2.869   7.971  0.9305  1.5635 -0.0272
 7697SOL    HW234554   0.257   2.870   7.856  0.4117  0.4292 -1.6599
 7698SOL     OW34555   4.216   3.308  13.311  0.2909 -0.4694  0.1408
 7698SOL    HW134556   4.129   3.336  13.282 -0.9653 -2.8212  1.6259
 7698SOL    HW234557   4.204   3.216  13.287 -0.5350 -0.5343  0.8000
 7699SOL     OW34558   1.725   4.719  17.453 -0.0948  0.6403  0.3130
 7699SOL    HW134559   1.738   4.699  17.360 -0.9738 -1.1962  0.5873
 7699SOL    HW234560   1.644   0.049  17.455 -0.8358 -0.5249 -0.2003
 7700SOL     OW34561   1.171   4.182   2.943 -0.1450 -0.7560 -0.1575
 7700SOL    HW134562   1.220   4.174   3.024  0.9561  1.1246 -0.6405
 7700SOL    HW234563   1.125   4.099   2.954 -0.3149 -0.6196  0.1485
 7701SOL     OW34564   4.251   1.836  11.107 -0.0755  0.3208 -0.2741
 7701SOL    HW134565   4.239   1.784  11.028  0.4957  0.0511 -0.1816
 7701SOL    HW234566   4.192   1.777  11.154 -1.6045  1.5539 -0.6410
 7702SOL     OW34567   0.347   4.196  14.338 -0.5215 -0.4229  0.4986
 7702SOL    HW134568   0.425   4.241  14.371 -0.6159  0.3973 -0.3974
 7702SOL    HW234569   0.338   4.116  14.389 -1.6572  0.2357  1.3164
 7703SOL     OW34570   4.289   2.709   3.802 -0.0577 -0.6869  0.6723
 7703SOL    HW134571   4.280   2.646   3.873  0.2288 -0.1217  1.2173
 7703SOL    HW234572   4.385   2.720   3.801 -0.3809  2.0318  0.3252
 7704SOL     OW34573   3.603   2.796   7.109  0.1107 -0.1292  0.0931
 7704SOL    HW134574   3.562   2.843   7.182  1.1089  0.4413  0.2766
 7704SOL    HW234575   3.616   2.868   7.048  1.9699  1.4079  2.2990
 7705SOL     OW34576   3.383   3.596   3.990 -0.2195 -0.5231  0.6141
 7705SOL    HW134577   3.297   3.558   4.004 -0.7936  0.2905 -0.6614
 7705SOL    HW234578   3.399   3.554   3.906 -2.2633  1.7004 -0.8801
 7706SOL     OW34579   3.005   0.698   9.358  0.4908 -0.0314  0.1041
 7706SOL    HW134580   2.918   0.677   9.392 -0.2550 -0.0830 -1.8112
 7706SOL    HW234581   3.028   0.762   9.425  3.3032 -1.6560  0.6657
 7707SOL     OW34582   1.437   3.274   3.060  0.2546 -0.7732 -0.3851
 7707SOL    HW134583   1.432   3.226   3.143  2.3515 -0.6989 -0.2232
 7707SOL    HW234584   1.396   3.359   3.079  0.5822 -0.4189 -1.2582
 7708SOL     OW34585   2.184   0.463  16.022 -0.4435  0.7259 -0.1584
 7708SOL    HW134586   2.234   0.381  16.029 -0.1789  0.9139  0.1947
 7708SOL    HW234587   2.160   0.465  15.930 -2.2397 -2.0938  0.2669
 7709SOL     OW34588   0.787   1.264   3.683  0.6835 -0.1864  0.2586
 7709SOL    HW134589   0.759   1.259   3.591  1.0949 -0.1703  0.1344
 7709SOL    HW234590   0.725   1.331   3.714  1.5541  1.2371 -1.0635
 7710SOL     OW34591   0.149   3.192  17.010 -0.0119  0.4607 -0.7627
 7710SOL    HW134592   0.153   3.137  17.088 -1.1490 -0.4897 -1.3658
 7710SOL    HW234593   0.106   3.269  17.046  0.8549  0.4525  0.2835
 7711SOL     OW34594   3.263   3.893  12.476  0.5870  0.3853 -0.2831
 7711SOL    HW134595   3.288   3.874  12.566  0.6508 -1.8026 -0.7639
 7711SOL    HW234596   3.170   3.868  12.480  0.8346 -0.6384 -0.9922
 7712SOL     OW34597   2.832   1.473   4.751  0.2021 -0.0256 -0.8127
 7712SOL    HW134598   2.827   1.437   4.663  0.3488 -0.0353 -0.8173
 7712SOL    HW234599   2.854   1.562   4.724 -2.1579  0.3772 -1.3591
 7713SOL     OW34600   2.992   2.500  12.602 -0.1455 -0.6735 -0.1930
 7713SOL    HW134601   3.053   2.483  12.530  1.3682 -0.8969  1.1392
 7713SOL    HW234602   3.049   2.471  12.674  1.8292  0.2498 -1.3987
 7714SOL     OW34603   0.830   3.820   9.718  0.7508 -0.3532 -0.6332
 7714SOL    HW134604   0.775   3.886   9.761  1.8108  0.0464  0.1017
 7714SOL    HW234605   0.914   3.854   9.749  0.2155  0.3610  0.0302
 7715SOL     OW34606   0.735   1.938   3.279  0.5153  0.1393  0.0343
 7715SOL    HW134607   0.698   2.020   3.248 -1.9517 -1.3450 -0.9686
 7715SOL    HW234608   0.700   1.870   3.221 -0.2352  2.7507 -2.5646
 7716SOL     OW34609   3.550   2.946   3.394  0.7465  0.4765 -0.1354
 7716SOL    HW134610   3.529   2.980   3.307  0.1049 -2.2009 -1.0346
 7716SOL    HW234611   3.629   2.897   3.372  0.6321  0.1915  0.0913
 7717SOL     OW34612   1.606   0.518   8.375 -0.3984  0.2987 -0.3089
 7717SOL    HW134613   1.690   0.481   8.404 -1.0469  0.9506  2.4219
 7717SOL    HW234614   1.590   0.470   8.294  0.6081  1.0387 -0.9425
 7718SOL     OW34615   4.580   1.302   2.206  0.0203  0.1270  0.1588
 7718SOL    HW134616   4.504   1.277   2.259  0.0781 -2.3132 -0.8790
 7718SOL    HW234617   4.565   1.396   2.192 -0.0985  0.1625  0.5274
 7719SOL     OW34618   4.061   1.884   9.175  0.3585  0.3767 -0.1326
 7719SOL    HW134619   4.071   1.873   9.080  2.6120  0.9023  0.0356
 7719SOL    HW234620   3.981   1.835   9.193  1.0971 -0.7751  0.0021
 7720SOL     OW34621   3.835   4.114   2.042 -0.4228  0.0365  0.3331
 7720SOL    HW134622   3.927   4.131   2.023 -0.9414  2.0851 -0.3860
 7720SOL    HW234623   3.797   4.077   1.962  1.2769  1.9299 -1.3615
 7721SOL     OW34624   4.518   0.513   9.517  0.1032  0.5993 -0.4893
 7721SOL    HW134625   4.534   0.420   9.532 -0.6122  0.5344 -0.0817
 7721SOL    HW234626   4.459   0.508   9.442  2.8963 -2.5490 -2.4595
 7722SOL     OW34627   1.259   3.003   7.458 -0.0228  0.5434 -0.2727
 7722SOL    HW134628   1.173   2.976   7.425  0.2491  1.8613 -2.0310
 7722SOL    HW234629   1.313   2.926   7.442 -0.1186  0.8868 -2.1946
 7723SOL     OW34630   1.690   3.585   3.786  0.0520  0.6060 -0.8314
 7723SOL    HW134631   1.712   3.570   3.694  1.0033 -2.5300 -0.0815
 7723SOL    HW234632   1.679   3.494   3.812 -0.0911  1.0813  0.7820
 7724SOL     OW34633   0.304   0.627   7.419  0.0989  0.1602  0.1759
 7724SOL    HW134634   0.370   0.696   7.424  0.2428 -0.1989  3.2211
 7724SOL    HW234635   0.224   0.679   7.414 -1.2201 -1.8742  0.1734
 7725SOL     OW34636   3.322   3.807  16.649  0.0592 -0.2903 -0.2579
 7725SOL    HW134637   3.401   3.859  16.664 -0.7141  0.9288 -0.4023
 7725SOL    HW234638   3.314   3.822  16.554  1.0081 -0.0437 -0.3093
 7726SOL     OW34639   2.231   4.613  16.673 -0.1885  0.1706 -0.3943
 7726SOL    HW134640   2.156   4.627  16.732  0.5508 -0.0764  0.5991
 7726SOL    HW234641   2.225   4.674  16.600  2.1839 -0.0822 -0.7832
 7727SOL     OW34642   2.804   0.399   5.577 -0.6042  0.0436  0.1306
 7727SOL    HW134643   2.753   0.345   5.637 -1.6303 -0.1781 -0.9437
 7727SOL    HW234644   2.871   0.418   5.643 -0.1368 -0.7486 -0.1123
 7728SOL     OW34645   0.892   0.646   4.284  0.5587 -0.6772 -0.0778
 7728SOL    HW134646   0.855   0.636   4.196 -2.4197 -0.9065  1.2030
 7728SOL    HW234647   0.973   0.691   4.262 -0.7514  2.5035  1.7216
 7729SOL     OW34648   1.028   0.740   7.467  0.2208 -0.2468 -0.4936
 7729SOL    HW134649   1.020   0.834   7.478 -3.1064 -0.4628 -1.2173
 7729SOL    HW234650   1.121   0.731   7.442  0.4012 -0.0056  0.1054
 7730SOL     OW34651   4.360   4.202  16.457  0.0335  0.4138  0.1606
 7730SOL    HW134652   4.453   4.224  16.444  0.1558 -0.6573 -0.7753
 7730SOL    HW234653   4.339   4.257  16.533 -0.1520 -1.0994  1.1891
 7731SOL     OW34654   0.104   0.309   6.463  0.0756 -0.6409  0.5258
 7731SOL    HW134655   0.046   0.313   6.387  1.5434  2.4540 -0.4192
 7731SOL    HW234656   0.050   0.338   6.537 -0.7332 -1.4231  0.2397
 7732SOL     OW34657   1.207   1.133   8.600  0.1121  0.0378  0.0398
 7732SOL    HW134658   1.142   1.069   8.627 -1.3803  1.8771  0.8586
 7732SOL    HW234659   1.256   1.088   8.531  2.3541  0.1505  1.5719
 7733SOL     OW34660   2.107   2.309   7.657  0.3929 -0.5330 -1.0177
 7733SOL    HW134661   2.195   2.344   7.671 -0.4365  0.9907  0.4081
 7733SOL    HW234662   2.084   2.363   7.581  1.0999  0.1847 -0.7318
 7734SOL     OW34663   4.236   1.315   7.556  0.6017 -0.0393 -0.1344
 7734SOL    HW134664   4.283   1.395   7.577  1.3490 -0.4299 -0.2924
 7734SOL    HW234665   4.187   1.333   7.476  1.5762  0.5721 -0.6049
 7735SOL     OW34666   0.894   2.770  14.576  0.0840 -0.8330  0.3651
 7735SOL    HW134667   0.861   2.693  14.622 -0.1177 -1.3165 -0.5816
 7735SOL    HW234668   0.830   2.839  14.592 -0.2852 -1.0805 -0.0247
 7736SOL     OW34669   2.121   3.966   8.417 -0.3675  0.7855 -0.1527
 7736SOL    HW134670   2.036   3.991   8.454 -0.4103 -0.8374  0.8220
 7736SOL    HW234671   2.103   3.991   8.326  0.6906 -1.1109 -0.8806
 7737SOL     OW34672   3.331   1.684   1.550  0.0436  0.1275 -0.0164
 7737SOL    HW134673   3.389   1.759   1.563  0.8797 -0.7311  1.0915
 7737SOL    HW234674   3.316   1.698   1.456  0.5976 -0.0060 -0.1235
 7738SOL     OW34675   0.855   3.484   9.908 -0.1380 -0.1511  0.1935
 7738SOL    HW134676   0.891   3.512   9.824 -0.3190  1.2697  0.5990
 7738SOL    HW234677   0.820   3.399   9.880 -0.3448 -0.2726  0.8258
 7739SOL     OW34678   3.339   2.976   8.863 -0.0129  0.8759  0.3035
 7739SOL    HW134679   3.285   3.041   8.819  2.8116  2.3284 -1.0428
 7739SOL    HW234680   3.301   2.899   8.822  3.3029  0.0763 -1.2162
 7740SOL     OW34681   4.304   1.812   9.283  0.4527 -0.2934 -0.0174
 7740SOL    HW134682   4.316   1.894   9.331  0.8063 -0.6061  0.4194
 7740SOL    HW234683   4.213   1.835   9.262  0.5154 -0.2464 -0.2331
 7741SOL     OW34684   1.335   0.164   5.380  0.1150 -0.6800  0.2053
 7741SOL    HW134685   1.356   0.072   5.364 -1.6108 -1.4040  2.0842
 7741SOL    HW234686   1.241   0.149   5.389  0.3347 -2.6343 -0.6211
 7742SOL     OW34687   0.238   1.511   8.910  0.5094 -0.1844 -0.0598
 7742SOL    HW134688   0.174   1.575   8.880  1.1409  0.7766  0.6190
 7742SOL    HW234689   0.198   1.432   8.876 -3.2430  2.8564 -2.6447
 7743SOL     OW34690   3.021   1.864  12.069  0.0386  0.0462 -0.5013
 7743SOL    HW134691   3.020   1.951  12.029 -0.4553 -0.0843 -0.7726
 7743SOL    HW234692   3.043   1.809  11.994 -2.6904  0.0782 -1.3307
 7744SOL     OW34693   4.002   4.104  12.713 -0.1374 -0.6676  0.5422
 7744SOL    HW134694   3.939   4.156  12.763 -1.9761 -2.5957  0.2240
 7744SOL    HW234695   4.070   4.079  12.775  0.9139  0.0404 -0.3223
 7745SOL     OW34696   3.060   3.826   5.898  0.6663  0.2880 -0.2340
 7745SOL    HW134697   3.041   3.741   5.858  1.6234 -0.0337 -0.0030
 7745SOL    HW234698   2.995   3.827   5.968  0.9201  1.7386 -0.0082
 7746SOL     OW34699   4.689   4.288   7.695  0.2375 -0.1943 -0.3504
 7746SOL    HW134700   4.704   4.274   7.789 -1.1692 -0.2399 -0.1296
 7746SOL    HW234701   4.601   4.251   7.685  0.6832 -1.9044  2.0954
 7747SOL     OW34702   0.498   4.311   3.590  0.1116  0.3338 -0.5331
 7747SOL    HW134703   0.450   4.277   3.515 -2.3654  0.6000  0.9555
 7747SOL    HW234704   0.578   4.343   3.548  0.2951 -0.1729 -0.5709
 7748SOL     OW34705   3.599   3.025   7.865 -0.0803 -0.3980 -0.4422
 7748SOL    HW134706   3.677   3.013   7.919  0.0894 -0.9983 -0.8247
 7748SOL    HW234707   3.631   3.011   7.776 -1.1439  0.5384 -0.9789
 7749SOL     OW34708   0.740   2.630  12.879 -0.2136 -0.0069 -0.4615
 7749SOL    HW134709   0.799   2.698  12.909  1.3588 -1.4328 -0.3415
 7749SOL    HW234710   0.666   2.676  12.838  0.4032  1.2488 -0.1632
 7750SOL     OW34711   2.382   0.097  17.145  0.1766  0.2999 -0.6070
 7750SOL    HW134712   2.449   0.132  17.087  1.9005  0.1733  1.3444
 7750SOL    HW234713   2.386   0.006  17.116 -1.5035  0.0977 -0.2323
 7751SOL     OW34714   2.278   4.695   8.544 -0.1909 -0.0164 -0.4413
 7751SOL    HW134715   2.346   0.037   8.567 -2.9912  2.5350  0.8103
 7751SOL    HW234716   2.240   0.008   8.625 -2.1897  0.4552 -1.5779
 7752SOL     OW34717   4.544   1.548   5.494  0.2770  0.0514 -0.2508
 7752SOL    HW134718   4.513   1.594   5.572  0.5657 -0.5904  0.2299
 7752SOL    HW234719   4.576   1.468   5.534  0.2535  1.2804  2.1981
 7753SOL     OW34720   3.854   4.182   8.430  0.1072 -0.2536  0.4893
 7753SOL    HW134721   3.862   4.092   8.462  2.8540 -0.2902 -0.3383
 7753SOL    HW234722   3.938   4.221   8.407  1.3070 -2.8428  0.5501
 7754SOL     OW34723   3.914   0.947  13.459  0.8077 -0.4892  0.2738
 7754SOL    HW134724   3.998   0.972  13.421 -0.5405  1.5697 -1.3071
 7754SOL    HW234725   3.885   0.866  13.417  1.8465 -0.0491 -1.2541
 7755SOL     OW34726   1.991   3.332   6.412  0.0757 -0.6683 -0.6760
 7755SOL    HW134727   1.918   3.306   6.469 -0.4998  0.6352 -0.8272
 7755SOL    HW234728   2.003   3.424   6.436 -0.4401 -0.2414 -2.0706
 7756SOL     OW34729   2.442   3.572   8.977  0.2906 -0.0446  0.2057
 7756SOL    HW134730   2.465   3.526   8.897 -1.7434  0.3936 -0.6305
 7756SOL    HW234731   2.501   3.530   9.039  1.5265  2.2635  0.6044
 7757SOL     OW34732   2.232   0.582  12.083  0.2372 -0.3568  0.2221
 7757SOL    HW134733   2.255   0.649  12.148  0.5715 -0.7000  0.4601
 7757SOL    HW234734   2.224   0.639  12.006 -0.5102  0.0944  0.6352
 7758SOL     OW34735   3.179   4.183  16.831  0.7338 -0.2528 -0.2753
 7758SOL    HW134736   3.156   4.090  16.824 -0.5699  0.0242  0.3974
 7758SOL    HW234737   3.182   4.190  16.926 -1.5700  1.4383 -0.3305
 7759SOL     OW34738   0.398   1.558   5.766 -0.0737  0.2083 -0.5010
 7759SOL    HW134739   0.367   1.491   5.827 -2.0887  1.4577 -0.1400
 7759SOL    HW234740   0.415   1.636   5.817  1.1979  1.4948 -2.9007
 7760SOL     OW34741   1.970   3.870  15.211  0.7344 -0.0708 -0.0584
 7760SOL    HW134742   2.063   3.859  15.232  0.4541  0.2517  1.3787
 7760SOL    HW234743   1.976   3.891  15.118  0.5357 -0.9046 -0.2546
 7761SOL     OW34744   1.507   2.969  16.951  0.4195 -0.2709 -0.3647
 7761SOL    HW134745   1.593   2.948  16.985 -0.2247  1.0962  2.0689
 7761SOL    HW234746   1.457   2.990  17.030 -0.4314 -0.8360 -0.7484
 7762SOL     OW34747   1.385   4.188   5.138 -0.1382 -0.1422  0.2564
 7762SOL    HW134748   1.445   4.117   5.117 -0.0844  0.0196 -0.1453
 7762SOL    HW234749   1.304   4.138   5.132 -0.1532 -0.0840 -0.0775
 7763SOL     OW34750   4.686   3.929   6.829  0.5379 -0.8462  0.7900
 7763SOL    HW134751   0.023   3.967   6.895 -0.7045  0.4978  1.1112
 7763SOL    HW234752   0.015   3.932   6.747  1.1241 -0.4214  1.1648
 7764SOL     OW34753   0.588   3.814  16.794 -0.5425 -0.1940  0.2976
 7764SOL    HW134754   0.496   3.787  16.799  0.0568 -2.3606 -0.6791
 7764SOL    HW234755   0.579   3.876  16.721  2.1193  0.9321  0.9404
 7765SOL     OW34756   2.605   3.425   6.580  0.0958 -0.5244  0.2299
 7765SOL    HW134757   2.550   3.354   6.614 -0.9240  0.0603 -0.1936
 7765SOL    HW234758   2.545   3.486   6.538  0.5196  0.5320  1.1604
 7766SOL     OW34759   0.068   2.501   2.533 -0.4610 -0.3898 -0.0701
 7766SOL    HW134760   4.705   2.457   2.551  0.1734 -1.0201  1.2906
 7766SOL    HW234761   0.045   2.594   2.534 -2.2296 -0.7745 -4.4195
 7767SOL     OW34762   3.999   0.648  11.348 -0.2018  0.4177 -0.4800
 7767SOL    HW134763   3.985   0.675  11.258  1.2397  1.3355 -0.4251
 7767SOL    HW234764   3.966   0.558  11.348 -0.2925  0.4541 -2.8514
 7768SOL     OW34765   0.420   3.503   4.735 -0.2255 -0.0840 -0.0797
 7768SOL    HW134766   0.513   3.492   4.753 -0.0827 -0.7956 -1.2661
 7768SOL    HW234767   0.424   3.578   4.675  0.7126 -0.6384 -0.7246
 7769SOL     OW34768   3.451   0.183   2.987  0.1440 -0.0059  0.0613
 7769SOL    HW134769   3.542   0.159   3.003  0.6382  1.5027 -0.4759
 7769SOL    HW234770   3.418   0.118   3.049  0.8257 -0.7688 -0.3723
 7770SOL     OW34771   3.046   0.482   8.057  0.0744  0.3305 -0.6231
 7770SOL    HW134772   2.952   0.485   8.072  0.8594  0.7176  4.0932
 7770SOL    HW234773   3.059   0.539   7.981  0.7445  0.2765 -0.5506
 7771SOL     OW34774   1.042   1.761   0.647 -0.4958 -0.4923 -0.1076
 7771SOL    HW134775   1.099   1.711   0.589 -1.8004  1.6337 -3.2307
 7771SOL    HW234776   1.016   1.700   0.716  0.1658  0.3342  0.8803
 7772SOL     OW34777   4.446   1.306   3.379  0.3677 -0.0980 -0.3465
 7772SOL    HW134778   4.370   1.360   3.400 -0.0319 -1.3220  1.4174
 7772SOL    HW234779   4.472   1.362   3.306  3.0532 -3.0898 -1.7353
 7773SOL     OW34780   0.331   3.909   7.552  0.0423  0.3914  0.1735
 7773SOL    HW134781   0.317   4.003   7.561 -2.9350 -0.1509  1.3529
 7773SOL    HW234782   0.336   3.898   7.647 -0.7673 -0.9759  0.0513
 7774SOL     OW34783   2.294   3.055   4.453  0.3629 -0.0106  0.7938
 7774SOL    HW134784   2.297   3.131   4.396  0.0924  0.6722  1.6928
 7774SOL    HW234785   2.311   3.087   4.542 -4.2327 -1.3890  2.1710
 7775SOL     OW34786   0.730   0.900   8.060 -0.0098 -0.2171  0.3572
 7775SOL    HW134787   0.791   0.881   8.131 -0.6774 -0.7144  0.8045
 7775SOL    HW234788   0.656   0.851   8.097  0.1778  1.2343  2.6500
 7776SOL     OW34789   3.198   4.284   9.138 -0.4057  0.5710 -0.0611
 7776SOL    HW134790   3.286   4.259   9.112 -0.2158  0.6216  0.5411
 7776SOL    HW234791   3.214   4.291   9.232  0.3712 -0.1635 -0.1409
 7777SOL     OW34792   3.614   1.900   1.794 -0.0712 -0.5483  0.0909
 7777SOL    HW134793   3.556   1.860   1.729 -1.3088  2.8195 -0.8911
 7777SOL    HW234794   3.624   1.993   1.774  0.0708 -0.1537  2.0214
 7778SOL     OW34795   3.541   1.278   6.550 -0.1441  0.5902 -0.2233
 7778SOL    HW134796   3.469   1.274   6.614 -1.4607  1.9779 -1.6271
 7778SOL    HW234797   3.611   1.299   6.611  1.6240  0.5782 -2.2578
 7779SOL     OW34798   3.501   3.554   7.928 -0.0787  0.4589 -0.0167
 7779SOL    HW134799   3.429   3.542   7.990  0.6181 -1.3431  0.4368
 7779SOL    HW234800   3.460   3.613   7.864 -0.2454  1.3325  0.8977
 7780SOL     OW34801   0.772   3.566   3.171 -0.3670 -0.1181  0.0434
 7780SOL    HW134802   0.758   3.510   3.094 -0.6645  2.7789 -2.0247
 7780SOL    HW234803   0.689   3.550   3.216  0.0273  0.9632  1.1658
 7781SOL     OW34804   4.193   0.309   4.526 -0.1511 -0.0364 -0.4625
 7781SOL    HW134805   4.239   0.228   4.502 -2.9562 -0.4687 -4.2078
 7781SOL    HW234806   4.102   0.284   4.542  0.1361 -1.8037 -1.5630
 7782SOL     OW34807   0.090   1.564   4.219 -0.0280  0.4205  0.1235
 7782SOL    HW134808   0.010   1.541   4.267 -0.2629 -0.5874 -0.7603
 7782SOL    HW234809   0.155   1.501   4.251 -0.1240 -0.9492 -2.3509
 7783SOL     OW34810   1.665   4.627   4.826  0.0950 -0.4532 -0.1288
 7783SOL    HW134811   1.652   4.555   4.888 -1.4226 -0.4291 -0.4194
 7783SOL    HW234812   1.604   4.686   4.870 -1.0972 -0.2679 -2.0342
 7784SOL     OW34813   2.932   3.572   7.960 -0.3291 -0.3012 -0.5180
 7784SOL    HW134814   2.872   3.644   7.979 -0.9485 -0.7702 -0.6819
 7784SOL    HW234815   2.974   3.591   7.876 -1.7067 -0.4136 -1.2337
 7785SOL     OW34816   1.727   3.699   1.169  0.1717 -0.6094 -0.1098
 7785SOL    HW134817   1.738   3.770   1.232 -0.3058 -1.8032  1.3283
 7785SOL    HW234818   1.706   3.640   1.241 -0.9861 -0.3553 -0.2308
 7786SOL     OW34819   0.291   2.759  13.685  0.1074  0.0425  0.0538
 7786SOL    HW134820   0.299   2.678  13.735  3.2361 -0.6034 -1.5041
 7786SOL    HW234821   0.307   2.823  13.754  1.4265  0.3664 -0.5589
 7787SOL     OW34822   3.740   0.878   8.864  0.3377  0.5322  0.0309
 7787SOL    HW134823   3.659   0.849   8.823  0.4251  2.4422 -1.4682
 7787SOL    HW234824   3.810   0.874   8.798  0.7125 -1.5651  0.5420
 7788SOL     OW34825   3.624   1.598  15.408 -0.0060  0.1113 -0.1552
 7788SOL    HW134826   3.605   1.619  15.499 -0.2856  0.5719 -0.3166
 7788SOL    HW234827   3.667   1.514  15.422 -1.9398 -0.6390  1.3322
 7789SOL     OW34828   1.188   0.044   8.466 -0.2971 -0.2110  0.0966
 7789SOL    HW134829   1.130   0.032   8.390  0.5840  0.2944 -0.6572
 7789SOL    HW234830   1.214   0.135   8.454 -2.9391  0.3419 -1.4308
 7790SOL     OW34831   2.005   1.573   6.152 -0.4566  0.1719  0.1036
 7790SOL    HW134832   2.031   1.548   6.241  2.5780  0.4684 -0.6963
 7790SOL    HW234833   1.986   1.665   6.169 -0.9451 -0.3148  2.1086
 7791SOL     OW34834   3.413   2.339   1.978  0.2825 -0.1560 -0.3589
 7791SOL    HW134835   3.497   2.351   2.022  0.3399 -1.8048  0.0076
 7791SOL    HW234836   3.353   2.367   2.047 -0.8115 -0.0254 -1.3637
 7792SOL     OW34837   3.766   4.355  14.747 -0.3301 -0.3337 -0.1582
 7792SOL    HW134838   3.791   4.334  14.657  0.8946  0.7215 -0.0551
 7792SOL    HW234839   3.699   4.287  14.760  0.3067 -0.7302  1.1197
 7793SOL     OW34840   1.059   1.151  14.570  0.7559 -0.2180  0.1122
 7793SOL    HW134841   1.143   1.159  14.614  1.5093 -0.5953 -1.2698
 7793SOL    HW234842   1.048   1.237  14.529  0.1381  0.2101  1.1881
 7794SOL     OW34843   4.609   0.575   8.539 -0.0187  0.6542  0.0626
 7794SOL    HW134844   4.600   0.655   8.591  2.4626  1.1404 -0.2858
 7794SOL    HW234845   4.620   0.621   8.456 -2.6509  2.9863  0.9908
 7795SOL     OW34846   3.718   3.281   5.021 -0.1730  0.2341 -0.4428
 7795SOL    HW134847   3.625   3.299   5.036  0.1750  2.3175 -0.8326
 7795SOL    HW234848   3.719   3.194   5.061 -0.3293 -0.5270 -2.1000
 7796SOL     OW34849   1.178   0.764   2.252 -0.2218  0.3927  0.4307
 7796SOL    HW134850   1.168   0.817   2.331  1.1290 -0.6683  1.2957
 7796SOL    HW234851   1.266   0.784   2.221 -0.1082  0.9014  1.0795
 7797SOL     OW34852   3.837   0.072   5.129  0.3254 -0.8800 -0.1051
 7797SOL    HW134853   3.742   0.081   5.126  0.5070  0.2863 -2.1842
 7797SOL    HW234854   3.840   0.108   5.217 -1.3251 -0.1096 -0.3602
 7798SOL     OW34855   2.957   2.826   6.727 -0.0764 -0.2555 -0.1652
 7798SOL    HW134856   3.053   2.826   6.732 -0.0018  1.9999 -2.1284
 7798SOL    HW234857   2.935   2.912   6.694 -0.2991 -0.6785 -1.1263
 7799SOL     OW34858   4.512   1.190   8.474  0.1607 -0.3670 -0.0278
 7799SOL    HW134859   4.570   1.179   8.399 -0.9124 -1.3780 -0.7101
 7799SOL    HW234860   4.550   1.130   8.539  0.6400 -2.1766 -1.9895
 7800SOL     OW34861   1.151   2.742   9.775 -0.1542 -0.1528  0.5268
 7800SOL    HW134862   1.205   2.748   9.697 -0.6049  0.9564  0.3078
 7800SOL    HW234863   1.208   2.724   9.850 -0.7956 -1.2872  0.7493
 7801SOL     OW34864   1.877   4.544   5.182  0.4305  0.1755 -0.4319
 7801SOL    HW134865   1.958   4.514   5.222  1.1657  1.4078 -0.9999
 7801SOL    HW234866   1.908   4.615   5.126  1.7911  1.3166  1.7445
 7802SOL     OW34867   1.945   0.679   7.311 -0.3164 -0.0467  0.0982
 7802SOL    HW134868   1.944   0.606   7.374 -0.3344 -0.2208 -0.1030
 7802SOL    HW234869   1.909   0.745   7.369 -1.3303  0.4118 -1.0663
 7803SOL     OW34870   3.568   0.435   2.770  0.6771  0.6747 -0.3002
 7803SOL    HW134871   3.557   0.386   2.852 -0.5880  0.9384 -0.3073
 7803SOL    HW234872   3.542   0.367   2.708 -1.9400  1.5651 -0.1911
 7804SOL     OW34873   1.708   4.145  15.393  0.7047  0.9312 -0.1415
 7804SOL    HW134874   1.661   4.181  15.318 -1.8588 -0.4610  0.7917
 7804SOL    HW234875   1.649   4.176  15.462 -2.2609  0.0330 -2.2703
 7805SOL     OW34876   2.382   3.246  16.197 -0.4653 -0.0420  0.5224
 7805SOL    HW134877   2.344   3.260  16.284  1.1065 -0.8306  1.3365
 7805SOL    HW234878   2.330   3.169  16.173  2.8859 -2.2717  0.3855
 7806SOL     OW34879   1.417   4.319   3.873 -0.1779 -0.0820  0.1749
 7806SOL    HW134880   1.367   4.398   3.855 -1.1000 -0.7092 -0.0251
 7806SOL    HW234881   1.363   4.276   3.940  0.7665 -1.2828  0.1691
 7807SOL     OW34882   4.592   3.456   6.640  0.0282  0.4096 -0.3665
 7807SOL    HW134883   4.527   3.498   6.583 -0.5243 -0.0173 -0.0580
 7807SOL    HW234884   4.584   3.365   6.611 -1.7056  0.3676  0.2304
 7808SOL     OW34885   0.660   3.058  14.322  0.0728  0.0588  0.0848
 7808SOL    HW134886   0.582   3.032  14.272  0.3523 -2.7230  1.1379
 7808SOL    HW234887   0.704   3.111  14.254  2.1173 -1.7976 -0.0471
 7809SOL     OW34888   2.270   3.978   9.219  0.9526 -0.0788  0.3593
 7809SOL    HW134889   2.284   3.892   9.258 -0.8986 -1.0012 -1.0094
 7809SOL    HW234890   2.362   3.994   9.194  0.0131  2.3871 -1.6166
 7810SOL     OW34891   2.359   3.963  15.638  0.3947 -0.1821 -0.0558
 7810SOL    HW134892   2.307   4.020  15.581 -1.9440 -1.2914  0.9529
 7810SOL    HW234893   2.311   3.881  15.625 -0.4187  0.0144  1.7011
 7811SOL     OW34894   2.914   3.670   0.127 -0.0314  1.1467 -0.0555
 7811SOL    HW134895   2.930   3.746   0.072 -1.7389  1.1211 -0.5894
 7811SOL    HW234896   2.937   3.707   0.212 -0.5228  0.4576  0.3831
 7812SOL     OW34897   2.083   4.662  13.164  0.0943 -0.0156  0.2695
 7812SOL    HW134898   2.149   4.593  13.162 -0.3342 -0.3962 -0.5560
 7812SOL    HW234899   2.013   4.616  13.118 -0.9516  1.8995 -0.0718
 7813SOL     OW34900   2.281   2.913   8.562  0.5327  0.1064 -0.1430
 7813SOL    HW134901   2.259   2.948   8.649 -1.3935  0.0614 -0.5981
 7813SOL    HW234902   2.361   2.867   8.587  0.7361  0.0508 -0.9177
 7814SOL     OW34903   1.594   4.309   8.108  0.0699 -0.2360 -0.2919
 7814SOL    HW134904   1.644   4.320   8.189 -0.3222  1.2833 -0.2621
 7814SOL    HW234905   1.525   4.374   8.121 -0.9352 -0.9340 -2.0043
 7815SOL     OW34906   1.529   1.683   1.508  0.4507 -0.2890  0.6764
 7815SOL    HW134907   1.618   1.709   1.484  0.3111  0.2025  0.6885
 7815SOL    HW234908   1.503   1.770   1.539  1.5890  0.1926  0.2899
 7816SOL     OW34909   2.530   1.908   7.017 -0.2056  0.2648 -0.1444
 7816SOL    HW134910   2.478   1.881   7.092 -0.8572  0.5758 -0.4817
 7816SOL    HW234911   2.603   1.948   7.063 -1.0577 -1.3689  2.6225
 7817SOL     OW34912   2.507   3.128   9.876  0.0186  0.3622  0.4198
 7817SOL    HW134913   2.565   3.172   9.815 -1.1298 -0.8119 -1.5552
 7817SOL    HW234914   2.569   3.092   9.939 -0.1265  2.2337  1.6071
 7818SOL     OW34915   3.175   2.276   5.275 -0.1316  0.0598  0.6767
 7818SOL    HW134916   3.243   2.216   5.246  1.2168  1.9761 -0.0874
 7818SOL    HW234917   3.216   2.345   5.327  0.0894  1.3726 -1.2500
 7819SOL     OW34918   0.755   2.504   7.419  0.1224  0.1324 -0.1541
 7819SOL    HW134919   0.839   2.527   7.459 -0.1090 -1.4351  1.2224
 7819SOL    HW234920   0.718   2.593   7.423 -1.7505 -0.7455  2.0306
 7820SOL     OW34921   1.454   1.720   4.569 -0.2056 -0.3482 -0.3558
 7820SOL    HW134922   1.522   1.658   4.595 -0.5478 -1.3343 -1.8056
 7820SOL    HW234923   1.500   1.775   4.504  0.9058 -0.8297  0.0215
 7821SOL     OW34924   2.539   0.110   5.060  0.3503  0.3960 -0.2854
 7821SOL    HW134925   2.579   0.190   5.024 -2.2522  0.3684 -3.2662
 7821SOL    HW234926   2.554   0.054   4.983  0.5944 -0.0006  0.0513
 7822SOL     OW34927   0.779   4.454   6.041  0.4513  0.1843  0.3957
 7822SOL    HW134928   0.789   4.422   5.951  1.1631  2.7845 -0.4616
 7822SOL    HW234929   0.692   4.417   6.058  1.3228 -1.7242  0.7528
 7823SOL     OW34930   0.176   4.057   4.662  1.0527 -0.1770 -0.1711
 7823SOL    HW134931   0.099   4.092   4.707  0.8948  1.7012 -1.8867
 7823SOL    HW234932   0.126   3.981   4.632  1.5954 -1.5079  2.2465
 7824SOL     OW34933   4.149   0.881   5.069  0.1643 -0.4408 -0.1134
 7824SOL    HW134934   4.191   0.883   4.983 -0.0638 -1.9631 -0.2593
 7824SOL    HW234935   4.220   0.876   5.133 -0.3687 -1.3123  0.4080
 7825SOL     OW34936   2.655   2.674   7.535  0.1677  0.1409  0.6452
 7825SOL    HW134937   2.692   2.635   7.614  0.7373  0.6912  0.6543
 7825SOL    HW234938   2.569   2.634   7.538  0.7667 -1.0902  1.3966
 7826SOL     OW34939   2.120   0.202   5.658 -0.0957 -0.1849 -0.1010
 7826SOL    HW134940   2.133   0.194   5.753  1.6409 -0.3488 -0.3520
 7826SOL    HW234941   2.133   0.111   5.630 -3.2189 -0.2217 -1.3263
 7827SOL     OW34942   2.083   1.520   7.482  0.5086  0.0887 -0.3082
 7827SOL    HW134943   2.064   1.429   7.502  2.0797 -0.1660  0.0218
 7827SOL    HW234944   2.179   1.518   7.478  0.5213 -0.1944  0.2285
 7828SOL     OW34945   4.596   4.120   6.429  0.5136  0.4416 -0.1125
 7828SOL    HW134946   4.527   4.129   6.364 -1.2378  0.2532  1.7339
 7828SOL    HW234947   4.649   4.060   6.376  0.0739  1.5900 -1.8321
 7829SOL     OW34948   3.000   4.102  11.625  0.0345  0.9675 -0.0688
 7829SOL    HW134949   2.959   4.125  11.709 -1.9758  0.6739 -0.9583
 7829SOL    HW234950   3.050   4.181  11.603  0.1882  0.9545  0.2437
 7830SOL     OW34951   2.555   2.405   2.786  0.0225  1.1104 -0.0399
 7830SOL    HW134952   2.484   2.459   2.752  0.9295  0.3718 -3.1015
 7830SOL    HW234953   2.509   2.360   2.857  1.4138 -0.2451 -0.0026
 7831SOL     OW34954   2.436   0.170  13.508 -0.0377  0.7241  0.7290
 7831SOL    HW134955   2.408   0.241  13.451  0.1701 -0.6618 -1.1047
 7831SOL    HW234956   2.362   0.117  13.479 -0.3382  0.3968  2.0738
 7832SOL     OW34957   2.462   4.199  14.288 -0.1915  1.0308 -0.5574
 7832SOL    HW134958   2.420   4.277  14.251  2.1182  2.1897 -0.7508
 7832SOL    HW234959   2.540   4.230  14.332 -1.4782  0.9029  1.7836
 7833SOL     OW34960   2.020   2.787   3.979 -0.0398  0.7402  0.1681
 7833SOL    HW134961   2.051   2.698   3.965  2.7596  2.0277 -1.9273
 7833SOL    HW234962   2.086   2.809   4.044  0.7564 -2.5389  0.4479
 7834SOL     OW34963   3.894   1.574   2.899 -0.3824  0.1155 -0.0255
 7834SOL    HW134964   3.868   1.665   2.885  0.6973  0.1072 -2.1601
 7834SOL    HW234965   3.905   1.584   2.994 -0.8117  0.1736  0.0150
 7835SOL     OW34966   1.278   3.622   4.198  0.1598 -0.2379  0.0983
 7835SOL    HW134967   1.201   3.666   4.235  0.5420 -1.0888  1.8842
 7835SOL    HW234968   1.336   3.697   4.180  3.1548 -2.0172  2.5151
 7836SOL     OW34969   2.076   2.766   7.328  0.6680 -0.7101 -0.1401
 7836SOL    HW134970   2.147   2.798   7.384 -0.7086  2.0926  0.0269
 7836SOL    HW234971   1.995   2.800   7.367  1.6642 -1.7312  2.8028
 7837SOL     OW34972   2.377   4.306  17.007 -0.6029  0.8470  0.0002
 7837SOL    HW134973   2.350   4.252  17.081  0.3947  0.6314  0.1976
 7837SOL    HW234974   2.305   4.290  16.946 -1.5842  0.0527  1.3734
 7838SOL     OW34975   3.492   1.509   3.162 -0.1467 -0.3344 -0.3310
 7838SOL    HW134976   3.427   1.451   3.203  0.6201  2.0935  4.3183
 7838SOL    HW234977   3.476   1.589   3.212  1.7588 -0.9478  1.2148
 7839SOL     OW34978   2.275   1.859  11.611  0.1979  0.1261  0.1194
 7839SOL    HW134979   2.180   1.848  11.606  0.3357 -1.4717  1.1397
 7839SOL    HW234980   2.298   1.908  11.532  1.3989  0.2482  0.5464
 7840SOL     OW34981   0.925   4.368   4.158  0.1093 -0.5881 -0.3801
 7840SOL    HW134982   0.936   4.315   4.080  2.2662 -0.2505 -0.3131
 7840SOL    HW234983   1.010   4.412   4.159 -1.0325  1.6621 -2.0588
 7841SOL     OW34984   0.098   3.979   3.476  0.0977  0.6110 -0.5081
 7841SOL    HW134985   0.101   4.054   3.536 -4.3994 -0.4202  0.9901
 7841SOL    HW234986   0.175   3.926   3.493  0.0091 -0.4580 -3.4106
 7842SOL     OW34987   2.603   3.315   4.674  0.8000  0.0897 -0.0944
 7842SOL    HW134988   2.624   3.353   4.759 -3.1965  2.1984 -0.0427
 7842SOL    HW234989   2.507   3.311   4.679  0.8032 -2.2179 -1.6183
 7843SOL     OW34990   4.218   3.649  12.700 -0.7695  0.1136 -0.1122
 7843SOL    HW134991   4.294   3.603  12.666 -0.8541 -0.3773  0.3591
 7843SOL    HW234992   4.172   3.670  12.618  1.0060  2.2172 -0.5549
 7844SOL     OW34993   3.932   4.293   3.587  0.2649  0.0334 -0.1173
 7844SOL    HW134994   3.885   4.232   3.530 -0.1789 -0.9058  1.2495
 7844SOL    HW234995   3.859   4.355   3.591 -0.5717 -0.9482 -0.2028
 7845SOL     OW34996   3.471   2.182  11.681  0.2266 -0.5313 -0.3847
 7845SOL    HW134997   3.558   2.142  11.685  0.1098 -0.7971 -0.5029
 7845SOL    HW234998   3.496   2.274  11.680 -1.7460 -0.0027 -1.2487
 7846SOL     OW34999   1.103   4.582  17.470 -0.3544 -0.0658  0.0094
 7846SOL    HW135000   1.041   4.647  17.503 -0.9527 -0.6720  0.0757
 7846SOL    HW235001   1.181   4.602  17.522 -0.6231  5.4020 -1.6598
 7847SOL     OW35002   3.268   0.102   5.848  0.0275  0.5144  0.2124
 7847SOL    HW135003   3.251   0.101   5.754  0.1496  0.7698  0.1884
 7847SOL    HW235004   3.180   0.130   5.874 -0.3951 -1.4239  0.8467
 7848SOL     OW35005   2.951   1.641   9.450  0.5247 -0.4640 -0.1648
 7848SOL    HW135006   2.884   1.578   9.479 -1.2321  1.1065 -0.8047
 7848SOL    HW235007   2.956   1.696   9.527  1.8956  0.5350 -0.9755
 7849SOL     OW35008   4.660   1.633   6.283 -0.1823  0.5663 -0.3666
 7849SOL    HW135009   4.638   1.605   6.194 -0.0318  0.0152 -0.2307
 7849SOL    HW235010   4.667   1.548   6.327 -1.5438  0.4977 -0.2670
 7850SOL     OW35011   0.296   0.485   3.528  0.6252 -0.6050 -0.2318
 7850SOL    HW135012   0.256   0.510   3.444 -0.3956  0.3204  0.5435
 7850SOL    HW235013   0.271   0.556   3.587 -0.9635 -0.9140 -0.5260
 7851SOL     OW35014   3.518   2.491   1.738  0.0051  0.4822 -0.1033
 7851SOL    HW135015   3.509   2.582   1.765  0.1381  0.4645 -0.0015
 7851SOL    HW235016   3.502   2.440   1.818 -1.3227  0.2433 -0.5244
 7852SOL     OW35017   1.141   0.796   9.193  0.0248 -0.2459 -0.5405
 7852SOL    HW135018   1.090   0.835   9.264  0.8591  1.3709 -0.8256
 7852SOL    HW235019   1.065   0.752   9.154  0.3012 -2.3970  1.3982
 7853SOL     OW35020   4.317   0.381   1.439  0.1201 -0.0017  0.2857
 7853SOL    HW135021   4.266   0.361   1.361 -0.1746 -1.3280  0.8322
 7853SOL    HW235022   4.344   0.472   1.425 -0.0560  0.1386  0.8477
 7854SOL     OW35023   3.816   2.842  17.153  0.2024 -0.3448  0.8566
 7854SOL    HW135024   3.798   2.910  17.087 -0.8117 -0.9595  0.4900
 7854SOL    HW235025   3.726   2.809  17.155  0.5781 -1.3282  1.3487
 7855SOL     OW35026   3.440   2.252   9.292  0.5113  0.4921 -0.0393
 7855SOL    HW135027   3.436   2.323   9.228 -1.0555  0.9487  0.5770
 7855SOL    HW235028   3.527   2.213   9.284  1.9433  3.8196 -0.7409
 7856SOL     OW35029   1.046   2.800  10.635  0.0477  0.0469  0.1102
 7856SOL    HW135030   1.139   2.795  10.614 -0.1149  0.1778 -0.6419
 7856SOL    HW235031   1.027   2.708  10.618 -0.2180  0.1654 -0.2400
 7857SOL     OW35032   2.655   2.927   9.097  0.1675 -0.2742  0.0267
 7857SOL    HW135033   2.692   2.893   9.178  0.3291  2.3194  1.0452
 7857SOL    HW235034   2.599   2.995   9.134 -0.1229 -1.8263  2.4934
 7858SOL     OW35035   3.025   4.039   4.472  0.2283  0.4379 -0.0272
 7858SOL    HW135036   2.996   4.003   4.388 -0.1542  0.4873  0.0841
 7858SOL    HW235037   3.050   3.956   4.512  0.6875 -0.1991 -1.6127
 7859SOL     OW35038   3.043   1.780   0.643 -0.4676  0.0544  0.3153
 7859SOL    HW135039   3.061   1.745   0.731  1.2932  0.6642  0.2147
 7859SOL    HW235040   2.984   1.715   0.607  0.2577  1.2131 -2.9408
 7860SOL     OW35041   4.244   4.258   7.825  0.4005  0.0926  0.4600
 7860SOL    HW135042   4.293   4.182   7.855  1.3582  0.7926  0.6798
 7860SOL    HW235043   4.201   4.290   7.904  0.0899  1.5686 -0.3050
 7861SOL     OW35044   3.342   0.218  15.320  0.5082  0.1256 -0.2866
 7861SOL    HW135045   3.317   0.158  15.250  0.9661  0.8427 -1.0559
 7861SOL    HW235046   3.253   0.235  15.352  0.3609 -2.2190  0.5567
 7862SOL     OW35047   1.201   2.205  14.697 -0.2872 -0.4206  0.0992
 7862SOL    HW135048   1.178   2.247  14.614  1.3296 -3.2562 -1.7792
 7862SOL    HW235049   1.232   2.279  14.749 -0.3303 -0.1582 -0.2471
 7863SOL     OW35050   3.300   3.750   6.420 -0.1571 -0.4035 -0.2873
 7863SOL    HW135051   3.237   3.770   6.351 -1.7458 -0.4290  1.1744
 7863SOL    HW235052   3.350   3.682   6.375  0.5225  0.0402 -0.2043
 7864SOL     OW35053   4.153   1.614  11.222 -0.7790 -0.1026 -0.4730
 7864SOL    HW135054   4.076   1.654  11.181 -1.0109 -0.7884 -0.7060
 7864SOL    HW235055   4.109   1.580  11.300  0.0171 -2.4657 -1.0639
 7865SOL     OW35056   3.041   0.256  17.427  0.0094  0.3735 -0.4044
 7865SOL    HW135057   2.968   0.198  17.447 -0.1435  1.3027  1.7265
 7865SOL    HW235058   3.078   0.199  17.359  2.1700  1.7111 -0.3832
 7866SOL     OW35059   3.335   1.484  17.238 -0.1565  0.1631  0.2880
 7866SOL    HW135060   3.395   1.438  17.180 -0.0078  1.3605 -0.5034
 7866SOL    HW235061   3.255   1.441  17.207  0.0247 -0.0605  0.1307
 7867SOL     OW35062   3.464   0.498  16.566  0.3967 -0.3447  0.1571
 7867SOL    HW135063   3.395   0.435  16.586 -0.0345 -0.6256 -2.1869
 7867SOL    HW235064   3.425   0.574  16.609 -1.0537 -0.2180 -1.3751
 7868SOL     OW35065   0.697   2.976   8.103 -0.5222  0.1993 -0.2480
 7868SOL    HW135066   0.694   3.071   8.115  2.0222  0.0654  1.4574
 7868SOL    HW235067   0.627   2.944   8.160  0.1029 -0.5755  0.0946
 7869SOL     OW35068   3.019   2.608   6.421  0.2062 -0.2037 -0.2423
 7869SOL    HW135069   2.965   2.571   6.490  1.4857  1.5561  1.6999
 7869SOL    HW235070   3.098   2.604   6.474  1.0053  0.2532 -1.4060
 7870SOL     OW35071   4.702   3.455   2.429  0.2023  0.2677  0.0529
 7870SOL    HW135072   4.673   3.529   2.375 -1.0500 -1.0497 -1.0553
 7870SOL    HW235073   0.055   3.435   2.371  0.6908  1.7278  0.1589
 7871SOL     OW35074   0.817   1.764   2.131 -0.2928  0.3190 -0.4878
 7871SOL    HW135075   0.895   1.714   2.155 -0.7185 -0.2192 -0.2272
 7871SOL    HW235076   0.852   1.839   2.083 -1.6606 -0.9213 -3.4209
 7872SOL     OW35077   2.798   2.790   5.898  0.0651  0.5644 -0.2938
 7872SOL    HW135078   2.892   2.772   5.898  0.2208  1.3555 -1.9547
 7872SOL    HW235079   2.789   2.836   5.814  0.5098  0.9536 -0.1305
 7873SOL     OW35080   4.252   1.011   8.688 -0.0697  0.0516 -0.4496
 7873SOL    HW135081   4.187   1.041   8.625 -1.4216  0.5397  1.1679
 7873SOL    HW235082   4.235   0.917   8.681  1.8900 -0.1592 -2.3221
 7874SOL     OW35083   4.260   3.901   8.174 -0.6407  0.2133  0.2330
 7874SOL    HW135084   4.298   3.864   8.094 -0.2643  0.5879  0.2383
 7874SOL    HW235085   4.305   3.846   8.238 -1.2699 -0.6742 -0.0916
 7875SOL     OW35086   1.681   1.086   5.156 -0.1572 -0.1855 -0.1338
 7875SOL    HW135087   1.648   1.022   5.093 -0.8142 -0.2526  0.2704
 7875SOL    HW235088   1.674   1.050   5.244 -1.7484 -0.1657 -0.2567
 7876SOL     OW35089   3.976   3.955   5.844  0.4571 -0.2104 -0.4454
 7876SOL    HW135090   3.973   3.993   5.756 -0.3609  0.9517  0.0822
 7876SOL    HW235091   4.065   3.920   5.843  0.7570  0.5443 -0.3371
 7877SOL     OW35092   4.570   2.191   7.795 -0.3476  0.2537  0.1279
 7877SOL    HW135093   4.557   2.141   7.876  1.2494 -1.0745 -0.4161
 7877SOL    HW235094   4.497   2.251   7.805  1.5632  2.7550 -1.1338
 7878SOL     OW35095   1.689   2.425   7.847  0.3000 -0.5881  0.5350
 7878SOL    HW135096   1.771   2.425   7.897 -0.0034  1.1178  1.0167
 7878SOL    HW235097   1.705   2.345   7.796  2.3628  0.6762 -0.7784
 7879SOL     OW35098   1.782   2.183   4.535 -0.3394 -0.8282  0.1684
 7879SOL    HW135099   1.848   2.118   4.513  0.1130  0.5765 -2.6276
 7879SOL    HW235100   1.822   2.267   4.557 -1.9304  0.3013 -1.2092
 7880SOL     OW35101   1.496   0.248  15.505  0.1075  0.4944  0.3305
 7880SOL    HW135102   1.537   0.182  15.448  2.5527  2.6443 -0.4127
 7880SOL    HW235103   1.560   0.245  15.576 -0.3374  0.0764  0.7041
 7881SOL     OW35104   3.271   3.923  11.166 -0.2857  0.4848 -0.5581
 7881SOL    HW135105   3.214   3.949  11.094  0.1047 -0.2150 -1.1213
 7881SOL    HW235106   3.351   3.926  11.113 -0.3182 -1.2144 -0.7111
 7882SOL     OW35107   2.147   0.157   3.512 -1.1441 -0.0132 -0.1864
 7882SOL    HW135108   2.074   0.095   3.514 -0.6866 -0.4956  1.4703
 7882SOL    HW235109   2.215   0.105   3.468 -0.5318  0.3078  0.3902
 7883SOL     OW35110   0.347   0.641   0.772 -0.0599  0.9203 -0.5570
 7883SOL    HW135111   0.341   0.698   0.695  2.3882 -0.2968 -1.6026
 7883SOL    HW235112   0.332   0.559   0.726  0.9729  1.5581 -2.0184
 7884SOL     OW35113   3.568   2.301   6.992 -0.1755 -0.3330 -0.4151
 7884SOL    HW135114   3.581   2.394   6.974 -1.1638 -0.1345 -0.1073
 7884SOL    HW235115   3.487   2.303   7.043 -0.0167 -2.8964 -0.0525
 7885SOL     OW35116   1.792   4.373  13.674  0.4623  0.1410 -0.1535
 7885SOL    HW135117   1.705   4.385  13.710 -0.1424  0.1244 -1.5816
 7885SOL    HW235118   1.845   4.343  13.748  1.0600  1.6975  0.0391
 7886SOL     OW35119   3.079   3.629  16.366 -0.1313 -0.3205 -0.2586
 7886SOL    HW135120   3.144   3.695  16.342 -1.0765  1.2720  1.5469
 7886SOL    HW235121   3.090   3.549  16.314  3.3673  1.0871 -1.6934
 7887SOL     OW35122   1.151   4.698   9.952  0.0948 -0.3381  0.0667
 7887SOL    HW135123   1.133   0.026   9.871 -2.7368 -0.8841  0.3572
 7887SOL    HW235124   1.102   4.616   9.943 -1.1202  0.3165  0.7700
 7888SOL     OW35125   1.421   1.374   8.275 -0.3027  0.4552  0.6953
 7888SOL    HW135126   1.346   1.325   8.241  0.8333 -0.5580 -0.3571
 7888SOL    HW235127   1.460   1.304   8.327  1.1470 -0.2829 -1.3793
 7889SOL     OW35128   4.034   1.060   4.397 -0.8821  0.2754 -0.1883
 7889SOL    HW135129   4.119   1.045   4.355 -1.3212 -0.5209 -0.7892
 7889SOL    HW235130   4.060   1.051   4.489 -0.7721 -0.1178 -0.2579
 7890SOL     OW35131   1.170   1.184  17.181  0.2325  0.2866 -0.0799
 7890SOL    HW135132   1.181   1.242  17.105 -0.5876 -0.1494 -0.5267
 7890SOL    HW235133   1.139   1.106  17.135 -1.7473  1.4189 -0.6897
 7891SOL     OW35134   4.004   1.285   8.951 -0.1488  0.0825 -0.0037
 7891SOL    HW135135   4.009   1.295   9.046  4.0937  0.2442 -0.2676
 7891SOL    HW235136   3.973   1.194   8.947  1.5273 -0.4388 -1.0946
 7892SOL     OW35137   4.022   0.411   5.192 -0.3133  0.6732 -0.4350
 7892SOL    HW135138   4.002   0.327   5.235 -0.0092  0.4765 -0.6778
 7892SOL    HW235139   4.041   0.463   5.270 -0.9906  0.6405 -0.2488
 7893SOL     OW35140   0.584   2.975   7.494  0.3027 -0.4520  0.0405
 7893SOL    HW135141   0.536   2.896   7.519  1.9307 -1.2084  0.8170
 7893SOL    HW235142   0.637   2.938   7.423  3.2957 -0.3275  2.1657
 7894SOL     OW35143   4.534   3.237   1.229 -0.1481  0.0467 -0.0005
 7894SOL    HW135144   4.550   3.182   1.306  3.2231 -0.3573 -1.0194
 7894SOL    HW235145   4.539   3.324   1.269 -0.6627  0.9542 -1.9281
 7895SOL     OW35146   1.582   2.035   7.253  0.1670  0.1668  1.1350
 7895SOL    HW135147   1.491   2.062   7.239  0.0576 -0.7903  0.0489
 7895SOL    HW235148   1.622   2.110   7.210  1.6125 -0.9766  0.4964
 7896SOL     OW35149   3.265   3.210   5.936  0.6973 -0.5106 -0.2753
 7896SOL    HW135150   3.218   3.130   5.910  0.3830 -0.4289  0.0360
 7896SOL    HW235151   3.286   3.187   6.027 -1.8388  2.8734  1.1434
 7897SOL     OW35152   2.424   0.507   7.040 -0.2956  0.3228 -0.6709
 7897SOL    HW135153   2.468   0.575   7.090 -1.0390 -1.0134  1.8401
 7897SOL    HW235154   2.448   0.551   6.959 -2.1823  2.0537 -0.2984
 7898SOL     OW35155   2.688   1.793   5.451  0.4442 -1.0783 -0.1810
 7898SOL    HW135156   2.605   1.820   5.410 -0.2649 -3.2141 -0.1661
 7898SOL    HW235157   2.700   1.854   5.523 -0.6187 -0.7468 -0.2814
 7899SOL     OW35158   2.079   1.209  16.000 -0.4525  0.3673  0.2619
 7899SOL    HW135159   2.040   1.122  15.988 -0.7676  0.6064 -0.4469
 7899SOL    HW235160   2.084   1.238  15.909  0.4915  0.2858  0.2873
 7900SOL     OW35161   3.321   4.605   6.087  0.2376 -1.0803  0.1259
 7900SOL    HW135162   3.415   4.595   6.074  0.5179  0.3877  1.0040
 7900SOL    HW235163   3.314   4.625   6.180  0.3204  1.3868 -0.4099
 7901SOL     OW35164   1.758   3.005   3.228 -0.3776  0.4935  0.0711
 7901SOL    HW135165   1.689   2.957   3.182  0.6352  1.4550 -2.4661
 7901SOL    HW235166   1.823   2.935   3.229 -0.9593 -0.0299  1.0545
 7902SOL     OW35167   2.289   1.910   2.220  0.0086 -0.0355 -0.2876
 7902SOL    HW135168   2.292   1.980   2.156 -0.7605 -1.0139 -1.3870
 7902SOL    HW235169   2.205   1.931   2.261 -0.9672  1.4351 -3.0900
 7903SOL     OW35170   1.442   1.181  11.301  0.1018  0.1464  0.0635
 7903SOL    HW135171   1.503   1.231  11.356  0.2079  1.7143 -1.4654
 7903SOL    HW235172   1.373   1.152  11.361  0.5022  1.0867  0.9861
 7904SOL     OW35173   2.800   2.158   5.111  0.1381  0.5593 -0.5269
 7904SOL    HW135174   2.732   2.197   5.165  0.5731  1.8628 -0.9130
 7904SOL    HW235175   2.766   2.159   5.022  0.6798 -2.5809 -0.7526
 7905SOL     OW35176   0.146   0.270   7.744  0.4247  0.1413  0.4726
 7905SOL    HW135177   0.107   0.202   7.797  0.3919  1.0539  1.6273
 7905SOL    HW235178   0.238   0.273   7.772  0.3843 -1.4806  0.7512
 7906SOL     OW35179   2.993   0.913   1.490  0.0128  0.4418  0.4457
 7906SOL    HW135180   2.912   0.929   1.441 -0.0582  0.6274  0.6222
 7906SOL    HW235181   3.041   0.869   1.420 -1.1560 -1.5961  0.9286
 7907SOL     OW35182   3.829   3.391   6.595  0.4189  0.7306  0.3243
 7907SOL    HW135183   3.868   3.376   6.681 -0.8256  2.4220  1.1656
 7907SOL    HW235184   3.893   3.363   6.529 -0.7468 -0.4988 -0.3104
 7908SOL     OW35185   2.904   4.466   9.416 -0.0762  0.4093 -0.1064
 7908SOL    HW135186   2.900   4.511   9.332 -1.4920 -2.8849 -1.8145
 7908SOL    HW235187   2.813   4.438   9.405 -0.4189  1.2703  0.5662
 7909SOL     OW35188   2.127   3.168   4.988 -0.0677 -0.0212 -0.8757
 7909SOL    HW135189   2.100   3.257   4.969  0.3315  0.1670 -0.5560
 7909SOL    HW235190   2.074   3.147   5.065  1.5672 -1.4201 -0.1232
 7910SOL     OW35191   0.813   3.616   3.535 -0.3939 -0.1123  0.1626
 7910SOL    HW135192   0.870   3.689   3.511  0.9778 -1.3489 -0.3405
 7910SOL    HW235193   0.733   3.647   3.493  0.7810  0.7517 -1.4206
 7911SOL     OW35194   0.667   0.703  14.722 -0.5411  0.3093  0.0233
 7911SOL    HW135195   0.683   0.707  14.816  1.8742 -0.1486 -0.3670
 7911SOL    HW235196   0.668   0.794  14.691 -1.1471 -0.7252 -3.0131
 7912SOL     OW35197   4.567   1.476   6.851 -0.7123  0.4521 -0.1839
 7912SOL    HW135198   4.520   1.431   6.781 -1.3093 -0.2269  0.6483
 7912SOL    HW235199   4.643   1.419   6.866  0.5138  1.7158 -1.6453
 7913SOL     OW35200   0.480   0.615   3.772 -0.4539 -0.4133 -0.1377
 7913SOL    HW135201   0.481   0.581   3.862  0.2085 -1.8783 -0.7025
 7913SOL    HW235202   0.552   0.678   3.779 -0.9052  0.3122 -2.0062
 7914SOL     OW35203   1.488   0.372  13.326 -0.0624 -0.5172 -0.3489
 7914SOL    HW135204   1.531   0.457  13.332 -0.8197 -0.1262 -0.3633
 7914SOL    HW235205   1.456   0.357  13.415  2.2749 -2.5691  0.1377
 7915SOL     OW35206   3.102   2.541   1.448  0.2031 -0.1840  0.3259
 7915SOL    HW135207   3.179   2.501   1.488  2.3655  2.4911 -1.1591
 7915SOL    HW235208   3.031   2.492   1.488 -0.0967 -0.7328 -0.8665
 7916SOL     OW35209   0.925   2.067   7.195  0.2338 -0.0329 -0.3952
 7916SOL    HW135210   0.871   1.993   7.221  1.9283 -0.5814  1.5451
 7916SOL    HW235211   0.899   2.082   7.104 -0.2108 -0.7541 -0.3829
 7917SOL     OW35212   1.776   4.031   1.819 -0.1574 -0.3174 -0.2017
 7917SOL    HW135213   1.869   4.025   1.844 -0.3070  0.6133  0.6019
 7917SOL    HW235214   1.731   4.010   1.901  0.8959  0.5903  0.6129
 7918SOL     OW35215   3.694   3.947   5.582 -0.0729  0.4995  0.1084
 7918SOL    HW135216   3.681   3.853   5.587  0.9432  0.3287 -0.5313
 7918SOL    HW235217   3.605   3.971   5.553 -0.6420  0.7153  2.0309
 7919SOL     OW35218   1.096   2.471   6.059  0.7231 -0.1785  0.4769
 7919SOL    HW135219   1.003   2.454   6.073  0.7866  0.3269  1.4955
 7919SOL    HW235220   1.128   2.382   6.043 -0.5838 -0.3832 -0.9946
 7920SOL     OW35221   1.206   4.457  11.216  0.8721 -0.2098  0.2468
 7920SOL    HW135222   1.231   4.367  11.237 -0.9384 -0.8572 -0.3797
 7920SOL    HW235223   1.205   4.448  11.121 -1.1310  1.5706  0.0997
 7921SOL     OW35224   4.399   2.539   3.164 -0.1095  0.3915 -0.6660
 7921SOL    HW135225   4.383   2.523   3.071  0.4694 -0.7798 -0.5554
 7921SOL    HW235226   4.389   2.634   3.157  0.1209  0.5022  0.5397
 7922SOL     OW35227   4.538   0.603   0.748  0.2879  0.1817 -0.0768
 7922SOL    HW135228   4.585   0.554   0.681  0.6245 -1.6264  1.4609
 7922SOL    HW235229   4.494   0.534   0.797  1.1802 -0.3554 -0.0345
 7923SOL     OW35230   1.240   1.093  13.921 -0.0288 -0.7024 -0.8370
 7923SOL    HW135231   1.200   1.135  13.997  1.2291 -0.7944 -0.1321
 7923SOL    HW235232   1.231   1.170  13.864 -1.0052 -0.6077 -0.5586
 7924SOL     OW35233   3.827   2.216   5.398  0.9214  0.4266 -0.3492
 7924SOL    HW135234   3.752   2.274   5.414 -1.5900 -3.0565  0.5305
 7924SOL    HW235235   3.872   2.219   5.482 -0.4460  1.6795  0.3366
 7925SOL     OW35236   3.376   0.672   2.728  0.1310 -0.2626  0.1127
 7925SOL    HW135237   3.387   0.590   2.777  0.6831 -0.1178  0.2321
 7925SOL    HW235238   3.321   0.634   2.660  0.0711  0.3693 -0.1842
 7926SOL     OW35239   0.959   0.284  11.850  0.9241 -0.5526 -0.0436
 7926SOL    HW135240   0.989   0.215  11.908 -1.8371 -0.9920  0.8789
 7926SOL    HW235241   1.042   0.317  11.816  1.2217 -0.7891  0.4664
 7927SOL     OW35242   2.643   3.331   5.719  0.2011 -0.0045  0.0628
 7927SOL    HW135243   2.678   3.251   5.757  0.1786 -0.7434 -1.4391
 7927SOL    HW235244   2.563   3.345   5.770 -1.3385 -0.3467 -2.2198
 7928SOL     OW35245   0.237   4.161   7.710 -0.0951 -0.3640  0.3112
 7928SOL    HW135246   0.150   4.148   7.747 -0.4475  0.6478 -0.1591
 7928SOL    HW235247   0.253   4.250   7.741  1.0478 -0.8902  1.2083
 7929SOL     OW35248   3.918   2.958  15.746 -0.0558 -0.3780 -0.2084
 7929SOL    HW135249   3.944   3.030  15.688  0.1010  1.6006  2.3397
 7929SOL    HW235250   3.925   3.004  15.829 -0.9453 -0.2743 -0.1919
 7930SOL     OW35251   3.300   1.128   7.783 -0.4195  0.4025  0.0227
 7930SOL    HW135252   3.215   1.098   7.816  0.3978 -0.0905  1.7199
 7930SOL    HW235253   3.269   1.195   7.722 -1.8396  0.2321  0.5722
 7931SOL     OW35254   2.754   1.098   4.045 -0.1090  0.5432  0.0621
 7931SOL    HW135255   2.711   1.153   4.111  0.6585  1.0486  0.1414
 7931SOL    HW235256   2.681   1.063   3.993  0.0680 -0.0915  0.2461
 7932SOL     OW35257   2.616   1.398  13.626 -0.2413 -0.7234  0.5554
 7932SOL    HW135258   2.574   1.430  13.706 -2.4871 -1.3531 -0.3684
 7932SOL    HW235259   2.542   1.385  13.567 -0.2613 -0.4011  0.5085
 7933SOL     OW35260   2.346   0.659   2.916 -0.4080  0.5082 -0.2389
 7933SOL    HW135261   2.291   0.729   2.951 -0.3967 -0.1571  1.1136
 7933SOL    HW235262   2.318   0.578   2.958  2.4006 -0.4419 -0.2035
 7934SOL     OW35263   1.624   4.172  16.921  0.0460  0.5297  0.1405
 7934SOL    HW135264   1.638   4.258  16.883  1.3583  0.5301  0.6113
 7934SOL    HW235265   1.571   4.126  16.856 -0.2190 -0.3107  0.9400
 7935SOL     OW35266   4.501   0.319   2.116  0.4641  0.0121 -0.1526
 7935SOL    HW135267   4.487   0.226   2.131 -0.4282  0.6999  3.4331
 7935SOL    HW235268   4.520   0.326   2.023  0.6737  0.4214 -0.0802
 7936SOL     OW35269   4.192   3.293   7.873 -0.2696  0.2621 -0.4317
 7936SOL    HW135270   4.108   3.336   7.860  0.6757  2.3357  0.2138
 7936SOL    HW235271   4.205   3.251   7.788 -1.0314  0.0217 -0.4260
 7937SOL     OW35272   0.052   2.966   1.716  0.6083  0.6888 -0.5380
 7937SOL    HW135273   0.056   3.052   1.759  2.3153 -0.8625  2.3397
 7937SOL    HW235274   4.704   2.920   1.764 -0.1104  0.6367 -1.6188
 7938SOL     OW35275   0.613   1.829   4.288 -0.4161  0.4160  0.0368
 7938SOL    HW135276   0.589   1.916   4.257 -1.5486 -0.0311 -0.3140
 7938SOL    HW235277   0.661   1.793   4.214 -1.9576 -0.7258 -0.3998
 7939SOL     OW35278   2.427   4.485   0.652 -0.2099  0.5343 -0.9498
 7939SOL    HW135279   2.492   4.417   0.635 -0.9063 -0.9738  2.2782
 7939SOL    HW235280   2.477   4.558   0.690 -1.1449 -0.0246  1.3474
 7940SOL     OW35281   1.727   0.786   7.479 -0.8050  0.4174 -0.0877
 7940SOL    HW135282   1.770   0.848   7.538 -0.5708  0.1542  0.0185
 7940SOL    HW235283   1.634   0.800   7.499 -1.1523 -1.4044 -0.4762
 7941SOL     OW35284   2.276   3.339  11.530  0.1671 -0.1833 -0.1741
 7941SOL    HW135285   2.283   3.374  11.442 -1.9697 -0.6746 -0.5262
 7941SOL    HW235286   2.353   3.378  11.572 -0.5689 -0.3983  1.3731
 7942SOL     OW35287   3.308   0.079   4.410  0.2654 -0.7945  0.4050
 7942SOL    HW135288   3.270   0.103   4.494 -0.7456  0.4120 -0.3845
 7942SOL    HW235289   3.232   0.092   4.353 -0.2233  0.2589  1.3063
 7943SOL     OW35290   1.921   4.532   1.304  0.1561 -0.1211 -0.0678
 7943SOL    HW135291   1.852   4.586   1.340  1.1271  1.7339 -0.9788
 7943SOL    HW235292   1.981   4.534   1.378  1.6003  2.6571 -1.3088
 7944SOL     OW35293   3.954   3.919   2.872  0.4181 -0.3103  0.2497
 7944SOL    HW135294   3.925   3.871   2.950 -0.3994  0.8290  0.6527
 7944SOL    HW235295   3.870   3.952   2.842  0.8860  1.5034  0.9249
 7945SOL     OW35296   2.126   3.740   7.305  0.7658 -0.3524  0.1136
 7945SOL    HW135297   2.176   3.699   7.234 -0.4446  0.8918 -1.4594
 7945SOL    HW235298   2.069   3.791   7.248  0.3804 -1.3319 -0.3803
 7946SOL     OW35299   3.373   3.811   8.648 -0.2610 -0.4299 -0.2900
 7946SOL    HW135300   3.364   3.860   8.729  0.5434  0.2007 -0.5862
 7946SOL    HW235301   3.383   3.723   8.683 -1.7028 -0.6261 -0.3497
 7947SOL     OW35302   3.857   3.203   7.140 -0.6654 -0.2356  0.5164
 7947SOL    HW135303   3.864   3.113   7.171 -0.8949 -1.3078 -2.4630
 7947SOL    HW235304   3.776   3.206   7.089  1.0305  1.3026 -2.0790
 7948SOL     OW35305   0.874   1.478   1.608 -0.0827  0.5530  0.3569
 7948SOL    HW135306   0.880   1.573   1.616  5.0854  0.3694 -1.7951
 7948SOL    HW235307   0.948   1.442   1.657 -0.7549 -0.3378  0.7324
 7949SOL     OW35308   2.790   0.944   0.511 -0.3318  0.0165  0.0485
 7949SOL    HW135309   2.836   0.862   0.528  2.2382  1.3696 -0.2786
 7949SOL    HW235310   2.700   0.914   0.523 -1.0560  2.1190 -0.1611
 7950SOL     OW35311   3.763   3.711   1.659 -0.0015 -0.3426  0.3818
 7950SOL    HW135312   3.849   3.697   1.699 -0.3547 -1.1198  0.8753
 7950SOL    HW235313   3.790   3.762   1.583 -0.7734  1.3606  1.2539
 7951SOL     OW35314   1.185   1.381   5.693  0.0214 -0.8576 -0.1859
 7951SOL    HW135315   1.250   1.324   5.652  0.2508 -0.9005  0.2422
 7951SOL    HW235316   1.114   1.375   5.629  1.3560  0.5313 -1.7920
 7952SOL     OW35317   2.210   1.454   0.846  0.2825 -0.5988 -0.3429
 7952SOL    HW135318   2.139   1.506   0.884  0.7282 -0.1641 -0.0983
 7952SOL    HW235319   2.287   1.480   0.898 -0.1717 -0.7039  0.3882
 7953SOL     OW35320   1.096   0.863  12.893 -0.1213  0.4995  0.0718
 7953SOL    HW135321   1.053   0.908  12.965  0.1705  1.4131 -0.3137
 7953SOL    HW235322   1.022   0.830  12.842 -0.6384  0.8418  0.6127
 7954SOL     OW35323   4.012   0.175   6.309 -0.4655  0.3844  0.4716
 7954SOL    HW135324   4.044   0.232   6.379  1.1264 -0.4308  0.3991
 7954SOL    HW235325   4.094   0.159   6.261  0.1244 -0.7681  1.8936
 7955SOL     OW35326   3.326   0.883   5.790  0.2314  0.0293 -0.2910
 7955SOL    HW135327   3.407   0.848   5.828  0.0805 -0.5388 -0.4934
 7955SOL    HW235328   3.311   0.973   5.819  0.5741  0.4019 -1.2545
 7956SOL     OW35329   1.653   0.475   0.019 -0.4448 -0.1003 -0.5424
 7956SOL    HW135330   1.624   0.555   0.063  3.4758  0.0236  1.8328
 7956SOL    HW235331   1.729   0.505  17.655 -0.0306 -0.3102 -0.0179
 7957SOL     OW35332   4.463   1.403   9.299  0.0840  0.0925  0.0414
 7957SOL    HW135333   4.430   1.475   9.246  0.9759 -0.4504 -1.2591
 7957SOL    HW235334   4.481   1.444   9.383  1.6565  0.3405 -0.4168
 7958SOL     OW35335   1.941   0.933  15.969 -0.0028 -0.7162 -0.5204
 7958SOL    HW135336   1.866   0.976  16.010  1.4701  0.9152  0.4719
 7958SOL    HW235337   1.893   0.874  15.911  0.4741 -1.2197 -0.4075
 7959SOL     OW35338   0.188   3.455   1.284  0.0141  0.4341 -0.1435
 7959SOL    HW135339   0.197   3.543   1.321 -1.6418  1.2655 -1.7445
 7959SOL    HW235340   0.154   3.407   1.360  1.8056 -0.3370  0.1625
 7960SOL     OW35341   4.195   1.774   8.545 -0.3546  0.3499  0.4127
 7960SOL    HW135342   4.144   1.831   8.487  1.7732  0.9102 -0.9139
 7960SOL    HW235343   4.162   1.685   8.531 -0.0152  0.2995 -0.0676
 7961SOL     OW35344   1.009   0.780   2.837  0.1488 -0.0882 -0.0766
 7961SOL    HW135345   0.918   0.760   2.816  0.4394 -1.2784 -0.2357
 7961SOL    HW235346   1.045   0.694   2.816  0.0815 -0.6096  1.9200
 7962SOL     OW35347   1.927   2.845  14.056 -0.4069  0.1134  0.4140
 7962SOL    HW135348   1.928   2.830  14.150  2.8680  0.2204  0.4040
 7962SOL    HW235349   2.003   2.799  14.020 -1.8539 -2.1540  0.2808
 7963SOL     OW35350   3.199   2.442  12.884 -0.1020  0.6499  0.5662
 7963SOL    HW135351   3.279   2.430  12.936 -0.1333 -1.9598 -0.0027
 7963SOL    HW235352   3.131   2.434  12.950 -2.2867  0.9603 -1.6467
 7964SOL     OW35353   3.412   0.520  14.064 -0.1790 -0.2904  0.3225
 7964SOL    HW135354   3.480   0.506  13.998 -1.0986 -0.9925 -0.4752
 7964SOL    HW235355   3.411   0.616  14.060  1.9093 -0.2948 -0.1235
 7965SOL     OW35356   2.590   2.706  15.753  0.0927  0.0188  0.1007
 7965SOL    HW135357   2.664   2.744  15.801 -0.6316  0.1760  1.0914
 7965SOL    HW235358   2.597   2.756  15.672  0.5176 -1.4551 -0.7636
 7966SOL     OW35359   4.439   2.550   6.313  0.5961 -0.0602 -0.1402
 7966SOL    HW135360   4.472   2.486   6.376  1.5557 -0.9000 -1.4891
 7966SOL    HW235361   4.438   2.627   6.370 -1.1998 -1.2497  1.4213
 7967SOL     OW35362   0.879   2.940   9.354 -0.1916 -0.7661 -0.2854
 7967SOL    HW135363   0.813   3.000   9.388  1.3090  1.1396 -0.7290
 7967SOL    HW235364   0.935   2.989   9.294  0.3378  0.0910  0.9293
 7968SOL     OW35365   2.104   1.232   2.395 -0.3715 -0.2744 -0.1291
 7968SOL    HW135366   2.044   1.285   2.343 -1.2620  0.6021  1.7919
 7968SOL    HW235367   2.184   1.284   2.405  0.3628 -1.6255  1.2036
 7969SOL     OW35368   1.857   4.384  12.706 -0.0960 -0.2626 -0.3119
 7969SOL    HW135369   1.799   4.337  12.767  0.5399 -0.4292  0.1579
 7969SOL    HW235370   1.790   4.431  12.657 -0.1730  0.8982  0.9081
 7970SOL     OW35371   1.684   1.130   6.722  0.3758  0.2572  0.3912
 7970SOL    HW135372   1.665   1.184   6.645 -1.1481 -1.1151 -0.1975
 7970SOL    HW235373   1.774   1.154   6.742  0.9439 -0.8868 -0.7877
 7971SOL     OW35374   0.888   2.111  14.795 -0.3843  0.4332  0.3002
 7971SOL    HW135375   0.929   2.025  14.802  1.9906  1.6805  2.0711
 7971SOL    HW235376   0.901   2.120  14.701 -0.5246 -1.0239  0.1493
 7972SOL     OW35377   2.991   4.105   8.452  0.3661 -0.6032  0.1735
 7972SOL    HW135378   2.994   4.070   8.542  0.1146  0.3567  0.5498
 7972SOL    HW235379   2.976   4.195   8.479  0.3710 -0.2841 -0.8809
 7973SOL     OW35380   2.692   0.399   5.106 -0.0615  0.1710 -0.5643
 7973SOL    HW135381   2.755   0.471   5.109  1.2901 -1.0064 -1.2671
 7973SOL    HW235382   2.700   0.367   5.016 -1.6345 -1.1606 -0.2373
 7974SOL     OW35383   0.232   1.433  10.476 -0.0861 -0.5755 -0.2731
 7974SOL    HW135384   0.323   1.430  10.505 -0.0892  1.5235 -0.0743
 7974SOL    HW235385   0.170   1.422  10.549  0.4411 -0.1704  0.2309
 7975SOL     OW35386   4.403   0.153   3.270 -0.0628  0.6430 -0.0988
 7975SOL    HW135387   4.399   0.249   3.266  0.5406  0.6886  0.3702
 7975SOL    HW235388   4.312   0.137   3.296  0.1584 -0.8289 -0.2460
 7976SOL     OW35389   0.098   3.492   8.046  0.0555  0.3520 -0.1317
 7976SOL    HW135390   0.189   3.468   8.029  0.7120  1.1243  2.4294
 7976SOL    HW235391   0.075   3.423   8.108  1.7186 -0.6764 -0.6624
 7977SOL     OW35392   4.208   3.155   9.460 -0.3010 -0.1653 -0.4251
 7977SOL    HW135393   4.295   3.195   9.455 -0.1158 -0.2541  1.9031
 7977SOL    HW235394   4.241   3.065   9.458 -1.1548 -0.4788 -0.5281
 7978SOL     OW35395   0.072   3.479   7.404  0.4794 -1.0477  0.0445
 7978SOL    HW135396   0.005   3.411   7.404  0.3431 -0.9277 -2.9000
 7978SOL    HW235397   0.091   3.477   7.498  0.7316  0.6252  0.0191
 7979SOL     OW35398   3.077   1.048  11.656  0.6629  0.2805  0.4523
 7979SOL    HW135399   3.088   1.129  11.606 -0.9114  1.2129  1.6331
 7979SOL    HW235400   3.147   0.996  11.616 -0.3262  0.6422 -1.7221
 7980SOL     OW35401   1.338   2.969  14.873  0.4056  0.1653 -0.4852
 7980SOL    HW135402   1.304   3.051  14.908 -1.9887 -0.8337 -0.4594
 7980SOL    HW235403   1.260   2.914  14.859  0.6084 -0.1865 -0.2415
 7981SOL     OW35404   0.613   2.620  16.624  0.8000  0.1082 -0.0902
 7981SOL    HW135405   0.684   2.622  16.688 -0.8400 -1.8568  1.7831
 7981SOL    HW235406   0.562   2.694  16.656 -2.1821 -2.3311  0.8221
 7982SOL     OW35407   4.577   2.274   3.421 -0.4960  0.7485  0.8117
 7982SOL    HW135408   4.594   2.360   3.383  1.3205  0.4991  1.0944
 7982SOL    HW235409   4.482   2.263   3.409 -0.0450  0.0109 -2.1389
 7983SOL     OW35410   4.366   4.037  13.114  1.1591 -0.2813  0.5062
 7983SOL    HW135411   4.424   4.112  13.126 -0.9327  1.4167  0.1400
 7983SOL    HW235412   4.306   4.050  13.187 -0.1365  3.2064 -1.1283
 7984SOL     OW35413   1.619   3.000  14.870 -0.1444 -0.3520 -0.3524
 7984SOL    HW135414   1.524   3.006  14.882 -0.0076  0.8331  0.1647
 7984SOL    HW235415   1.633   3.003  14.776 -1.3380 -2.0651 -0.5827
 7985SOL     OW35416   4.040   2.282   8.454  0.1321 -0.8747  0.6245
 7985SOL    HW135417   3.991   2.243   8.526 -2.2143  0.0445 -0.4715
 7985SOL    HW235418   3.963   2.313   8.405  1.8297  0.0688 -1.4638
 7986SOL     OW35419   2.507   0.576   3.390  0.0982  0.4192 -0.0629
 7986SOL    HW135420   2.493   0.490   3.431  1.4895 -0.5516 -1.6290
 7986SOL    HW235421   2.421   0.577   3.347 -1.0825 -2.0185  2.2285
 7987SOL     OW35422   1.176   4.334  16.136 -0.2483  0.2620  0.3741
 7987SOL    HW135423   1.122   4.256  16.144  0.9885 -0.6371  0.0067
 7987SOL    HW235424   1.137   4.377  16.059 -1.4388  0.4181  1.0625
 7988SOL     OW35425   0.862   0.043  16.061  0.1049 -0.0832 -0.3953
 7988SOL    HW135426   0.822   4.689  16.107  0.9556 -0.9892 -1.1083
 7988SOL    HW235427   0.796   0.110  16.078 -1.4821 -1.8784  0.4776
 7989SOL     OW35428   4.630   1.923  13.530 -0.5215 -0.5054  0.3732
 7989SOL    HW135429   4.578   1.936  13.609  3.2528  0.4688  2.6509
 7989SOL    HW235430   4.713   1.947  13.571  0.8916 -2.6534 -1.2107
 7990SOL     OW35431   0.576   3.786   8.530  0.2005 -0.0327 -0.0876
 7990SOL    HW135432   0.569   3.860   8.590 -0.0855  0.8432 -1.2203
 7990SOL    HW235433   0.596   3.716   8.593 -0.7644  1.0034  1.3669
 7991SOL     OW35434   4.596   0.616  16.622  0.0606 -0.1146  0.8791
 7991SOL    HW135435   4.621   0.683  16.685  2.2147 -0.2167  0.1015
 7991SOL    HW235436   4.672   0.620  16.564 -2.9884  0.2402 -3.0896
 7992SOL     OW35437   1.124   3.100   1.922 -0.0543 -0.4549 -0.0862
 7992SOL    HW135438   1.069   3.036   1.876 -0.2566  0.6179 -1.3291
 7992SOL    HW235439   1.150   3.165   1.858 -0.9727 -0.8492 -0.8549
 7993SOL     OW35440   3.109   0.888   8.909  0.5950 -0.7659 -0.0634
 7993SOL    HW135441   3.137   0.980   8.912 -2.8176  0.2602  0.7153
 7993SOL    HW235442   3.048   0.894   8.982 -1.0831 -1.9153 -1.3595
 7994SOL     OW35443   1.009   4.090   8.960  0.1694 -0.7611  0.4240
 7994SOL    HW135444   0.971   4.166   9.003 -1.5379 -1.3372 -0.0911
 7994SOL    HW235445   1.087   4.079   9.015  0.8513 -2.7150 -0.9154
 7995SOL     OW35446   0.845   4.099  15.295 -0.5240 -0.3205  0.2511
 7995SOL    HW135447   0.899   4.164  15.251 -1.0225 -0.5598 -0.7078
 7995SOL    HW235448   0.800   4.063  15.218  1.6492  0.4762 -1.3782
 7996SOL     OW35449   2.970   4.400   6.827  0.1311 -0.1438  0.2793
 7996SOL    HW135450   3.056   4.361   6.840 -1.2251 -2.0581  3.6918
 7996SOL    HW235451   2.970   4.400   6.731  2.3534  0.3189  0.2831
 7997SOL     OW35452   4.030   3.117   0.814  0.0525  0.0792  0.0345
 7997SOL    HW135453   3.975   3.052   0.858  0.3722  0.6194  1.2092
 7997SOL    HW235454   4.057   3.068   0.736  0.7575  2.0786 -0.9603
 7998SOL     OW35455   1.044   0.428   1.943 -0.4483 -0.6546  0.3084
 7998SOL    HW135456   1.121   0.406   1.994  1.0434 -0.6882 -1.9593
 7998SOL    HW235457   1.082   0.416   1.856 -2.8557 -0.3274 -0.8156
 7999SOL     OW35458   4.222   1.918  15.762  0.0635 -0.2110 -0.1392
 7999SOL    HW135459   4.145   1.970  15.741  0.3496  0.9199  1.5391
 7999SOL    HW235460   4.233   1.936  15.856 -0.5303  1.5068 -0.3946
 8000SOL     OW35461   2.810   2.925   6.933  0.4462  0.3583  0.1292
 8000SOL    HW135462   2.844   2.876   6.858 -0.5203 -0.0952 -0.0160
 8000SOL    HW235463   2.845   2.880   7.010 -0.2923 -1.9240 -0.8780
 8001SOL     OW35464   3.976   3.226   5.441 -0.0448  0.2025 -0.1376
 8001SOL    HW135465   3.974   3.174   5.361 -0.6267 -0.1810  0.1226
 8001SOL    HW235466   3.896   3.278   5.428  0.0560  0.3179 -0.2932
 8002SOL     OW35467   2.804   1.218  13.523 -0.0486  0.2681 -0.0861
 8002SOL    HW135468   2.866   1.266  13.578  1.3094 -3.8307  1.9215
 8002SOL    HW235469   2.724   1.270  13.531 -0.0524  0.2357  0.0827
 8003SOL     OW35470   1.121   0.053   7.744  0.5355  0.0351 -0.5702
 8003SOL    HW135471   1.101   4.680   7.737 -0.4161  0.0477  2.1647
 8003SOL    HW235472   1.209   0.050   7.782  0.4700  0.4834 -0.3839
 8004SOL     OW35473   0.517   2.219  15.606 -0.0949  0.5613  0.2009
 8004SOL    HW135474   0.471   2.249  15.685  1.3523 -0.0125  1.2599
 8004SOL    HW235475   0.438   2.199  15.556  0.0996  2.9867 -1.0428
 8005SOL     OW35476   2.131   1.203   6.233  0.0281  0.3032 -0.1380
 8005SOL    HW135477   2.074   1.168   6.165  0.4023 -1.6383  0.5242
 8005SOL    HW235478   2.183   1.256   6.174  0.3404 -0.2268 -0.3402
 8006SOL     OW35479   4.019   3.595   3.040 -0.2971  0.3996 -0.2105
 8006SOL    HW135480   4.110   3.579   3.065 -0.1400  0.5820 -0.6534
 8006SOL    HW235481   3.986   3.655   3.106  1.0166  2.0301 -1.0346
 8007SOL     OW35482   3.499   1.374   7.063 -0.0366 -0.0834  0.2528
 8007SOL    HW135483   3.583   1.331   7.076  1.4484  2.4750 -0.8133
 8007SOL    HW235484   3.497   1.414   7.149  1.3883  2.0204 -0.6801
 8008SOL     OW35485   1.976   4.135   8.090 -0.1000 -0.5102 -0.1145
 8008SOL    HW135486   1.972   4.116   7.996  0.8039  0.7018 -0.4037
 8008SOL    HW235487   2.066   4.128   8.120  0.0513  0.8994 -0.2367
 8009SOL     OW35488   2.336   1.444  16.358 -0.6856 -0.2213  0.3431
 8009SOL    HW135489   2.262   1.450  16.297  0.7028 -0.3924 -1.3652
 8009SOL    HW235490   2.410   1.457  16.298  1.3101 -2.1841  2.4040
 8010SOL     OW35491   3.695   3.028  15.580 -0.2498  0.3464 -0.0888
 8010SOL    HW135492   3.772   3.082  15.564  0.2392 -0.0967  0.7550
 8010SOL    HW235493   3.722   2.996  15.666  0.9385 -1.3470 -1.1074
 8011SOL     OW35494   4.130   3.654   9.454  0.1985 -0.2036  0.0208
 8011SOL    HW135495   4.196   3.714   9.420 -1.6489  1.9961  0.3508
 8011SOL    HW235496   4.044   3.694   9.440  0.1542 -0.4409 -0.3884
 8012SOL     OW35497   1.009   2.346   4.562 -0.1513  0.0565  0.1290
 8012SOL    HW135498   1.014   2.311   4.651  0.5587  2.8521  1.1905
 8012SOL    HW235499   0.924   2.389   4.570  0.2856  1.0992 -0.8746
 8013SOL     OW35500   0.983   1.342   8.983  0.2540 -0.2065 -0.5739
 8013SOL    HW135501   1.059   1.297   8.945  0.2187 -0.5682 -0.2127
 8013SOL    HW235502   1.027   1.415   9.027 -0.4694  0.8439 -1.5933
 8014SOL     OW35503   3.061   3.070   2.872  0.7181  0.0438  0.1320
 8014SOL    HW135504   3.114   3.095   2.796  1.3888  0.1437  0.6318
 8014SOL    HW235505   3.117   3.099   2.944 -1.4047  0.8795  1.4416
 8015SOL     OW35506   2.461   1.138   6.089 -0.2392  0.1889 -0.3219
 8015SOL    HW135507   2.366   1.132   6.092 -0.0877 -1.8498  0.6516
 8015SOL    HW235508   2.481   1.127   6.183  1.3988 -0.8766 -0.7820
 8016SOL     OW35509   1.581   3.418   2.561 -0.2402  0.5078  0.3211
 8016SOL    HW135510   1.610   3.508   2.567 -1.3129  0.8428  0.4874
 8016SOL    HW235511   1.594   3.399   2.654  0.6514 -1.0277 -0.1210
 8017SOL     OW35512   0.165   2.097   6.544  0.2409  0.8734 -0.1706
 8017SOL    HW135513   0.194   2.009   6.568 -0.2225  0.3513 -1.5358
 8017SOL    HW235514   0.248   2.135   6.513  0.0204  0.7509 -0.8931
 8018SOL     OW35515   2.807   1.928   3.898  0.4915 -0.6947 -0.7011
 8018SOL    HW135516   2.733   1.916   3.956  1.8532  0.9479  1.3794
 8018SOL    HW235517   2.885   1.892   3.941  0.1847  0.6810  1.0079
 8019SOL     OW35518   1.072   3.301   6.067 -0.3645  0.2851  0.6796
 8019SOL    HW135519   1.105   3.388   6.091  1.3430  0.0679 -0.9417
 8019SOL    HW235520   0.977   3.315   6.071 -0.4009  0.4029 -0.6406
 8020SOL     OW35521   2.613   3.353   5.045  0.1550  0.2782 -0.3269
 8020SOL    HW135522   2.605   3.257   5.046  0.9303  0.2359  1.8851
 8020SOL    HW235523   2.525   3.365   5.081  0.2565  0.7733 -0.2424
 8021SOL     OW35524   2.435   1.698   6.399  0.1545 -0.0850 -0.0228
 8021SOL    HW135525   2.419   1.644   6.476  0.1080 -1.7270 -1.1764
 8021SOL    HW235526   2.371   1.768   6.402 -0.1011 -0.3411  0.3865
 8022SOL     OW35527   3.473   4.023   5.432  0.3658  0.0662 -0.3191
 8022SOL    HW135528   3.499   4.097   5.376  2.7570 -0.3074  0.2773
 8022SOL    HW235529   3.416   3.984   5.366  2.2267 -1.1568 -1.2384
 8023SOL     OW35530   2.691   2.928   6.525  0.2348  0.0325  0.7599
 8023SOL    HW135531   2.653   2.899   6.608  1.7397  0.9330  1.7586
 8023SOL    HW235532   2.748   2.996   6.560 -1.6341  0.3886  3.1058
 8024SOL     OW35533   3.459   2.878   4.643 -0.6235 -0.3836 -0.0718
 8024SOL    HW135534   3.456   2.942   4.572  1.5829 -0.5091 -0.2690
 8024SOL    HW235535   3.381   2.826   4.619 -0.5475 -1.1546  1.3475
 8025SOL     OW35536   2.181   1.724   7.073 -0.1336 -0.3836  0.9673
 8025SOL    HW135537   2.248   1.742   7.138  0.0144  0.2458  0.6295
 8025SOL    HW235538   2.123   1.664   7.122  0.4528 -1.3985  0.4049
 8026SOL     OW35539   0.691   4.351   3.782  0.2238  0.2274 -0.0867
 8026SOL    HW135540   0.612   4.337   3.730 -0.0139 -2.9247  1.1427
 8026SOL    HW235541   0.733   4.270   3.753  2.0383  1.6117 -1.3240
 8027SOL     OW35542   2.688   1.821   2.066 -0.1897  0.2633 -0.0258
 8027SOL    HW135543   2.766   1.843   2.117 -1.0592 -0.2920  1.5207
 8027SOL    HW235544   2.719   1.746   2.016 -0.5765 -0.4196  0.7644
 8028SOL     OW35545   1.498   2.111   4.553  0.4659 -0.3675  0.4097
 8028SOL    HW135546   1.592   2.122   4.543  0.4640  0.1955  1.0634
 8028SOL    HW235547   1.470   2.106   4.461 -1.4761  1.2977  0.9053
 8029SOL     OW35548   1.843   0.720   3.417 -0.3109 -0.0380 -0.2430
 8029SOL    HW135549   1.804   0.782   3.355 -0.8456  0.5397  0.6755
 8029SOL    HW235550   1.911   0.668   3.375  0.2509  2.1642 -2.0715
 8030SOL     OW35551   2.427   2.490   7.532  0.3596 -0.1963  0.4833
 8030SOL    HW135552   2.448   2.399   7.510  0.7412  0.0740 -0.2524
 8030SOL    HW235553   2.399   2.462   7.619 -1.8712  1.3995  0.2725
 8031SOL     OW35554   0.484   0.815   3.277 -0.0161 -0.4580  0.2308
 8031SOL    HW135555   0.394   0.832   3.249 -0.0871 -0.4813  0.4465
 8031SOL    HW235556   0.525   0.867   3.207 -3.2733  3.8898  1.5324
 8032SOL     OW35557   2.379   3.247   8.267  0.3853 -0.1884 -0.1434
 8032SOL    HW135558   2.426   3.166   8.288  1.0004 -0.7287 -3.5772
 8032SOL    HW235559   2.389   3.290   8.352  0.4906 -1.4605  0.4889
 8033SOL     OW35560   4.417   3.365   2.386  0.2304  0.4154  0.0764
 8033SOL    HW135561   4.497   3.366   2.439  0.5819 -0.9696 -0.4362
 8033SOL    HW235562   4.375   3.444   2.420 -1.7804 -1.0801  1.0546
 8034SOL     OW35563   3.513   1.952   2.076 -0.5460  0.3320 -0.6552
 8034SOL    HW135564   3.593   1.956   2.129 -0.6049  2.8434 -0.7767
 8034SOL    HW235565   3.552   1.929   1.992  1.7686  1.2203  0.1877
 8035SOL     OW35566   1.710   0.317   5.003 -0.1906  0.6309 -0.5695
 8035SOL    HW135567   1.747   0.261   5.071  0.6442  1.8887  0.0044
 8035SOL    HW235568   1.693   0.404   5.040  1.7444 -1.0967  4.3728
 8036SOL     OW35569   0.446   3.709   9.173 -0.4682 -0.0107 -0.5775
 8036SOL    HW135570   0.448   3.618   9.141  0.9806  0.0304 -0.6162
 8036SOL    HW235571   0.356   3.706   9.206  0.0770  0.6180  0.9233
 8037SOL     OW35572   0.642   2.070   2.251 -0.2930  0.4817 -0.0567
 8037SOL    HW135573   0.710   2.056   2.316 -0.8972  1.3734  0.7772
 8037SOL    HW235574   0.673   2.024   2.173 -1.8804  1.1351 -1.0870
 8038SOL     OW35575   0.073   4.261   7.934  0.1449 -0.6911 -0.0273
 8038SOL    HW135576   0.062   4.218   8.018 -1.6857  0.4388  0.3208
 8038SOL    HW235577   0.122   4.337   7.965 -0.1699 -0.2004 -0.7052
 8039SOL     OW35578   4.196   3.321   4.130  0.0332 -0.3644 -0.1225
 8039SOL    HW135579   4.173   3.409   4.101 -0.3629 -0.1773  0.7331
 8039SOL    HW235580   4.124   3.271   4.091 -0.6493 -0.4230  1.1985
 8040SOL     OW35581   3.339   3.573  12.208  0.3305  0.1052  0.1017
 8040SOL    HW135582   3.394   3.648  12.227  0.2669  0.3408 -0.6356
 8040SOL    HW235583   3.288   3.568  12.289 -0.6136 -1.3091 -0.5728
 8041SOL     OW35584   3.025   1.929   2.269 -0.8363  0.2780  0.5405
 8041SOL    HW135585   3.101   1.915   2.212 -0.9473  0.4461  0.3491
 8041SOL    HW235586   2.986   1.842   2.265 -1.5890  0.7206 -1.8658
 8042SOL     OW35587   0.735   4.092   9.831  0.2517 -0.0613  0.5269
 8042SOL    HW135588   0.801   4.128   9.891  0.3245  1.5052 -0.5176
 8042SOL    HW235589   0.662   4.119   9.887  2.4006  2.7830  1.9849
 8043SOL     OW35590   4.702   3.428   4.568 -0.1894 -0.4163  0.1383
 8043SOL    HW135591   4.634   3.404   4.631  1.0410  0.0130  1.6499
 8043SOL    HW235592   4.655   3.425   4.485  0.9100  2.3837 -0.5559
 8044SOL     OW35593   3.820   4.342   3.062 -0.1321  0.3619 -0.6022
 8044SOL    HW135594   3.757   4.349   3.134  0.8373  0.6797  0.2055
 8044SOL    HW235595   3.893   4.397   3.088  0.7665 -0.3337 -1.6419
 8045SOL     OW35596   3.413   0.111  15.981  0.4116  0.0486 -0.0494
 8045SOL    HW135597   3.509   0.109  15.987  0.5267  0.6360 -1.6464
 8045SOL    HW235598   3.381   0.130  16.070  1.9206  0.7039  0.3630
 8046SOL     OW35599   4.127   1.039   4.095 -0.1148 -0.2189 -0.3402
 8046SOL    HW135600   4.051   1.068   4.144 -0.5894  2.2878 -2.5382
 8046SOL    HW235601   4.119   1.093   4.016 -2.9413  0.0620  0.1412
 8047SOL     OW35602   4.541   1.568   3.032  0.3289  0.0094 -0.5544
 8047SOL    HW135603   4.519   1.584   3.124 -1.1764  0.3141 -0.9705
 8047SOL    HW235604   4.526   1.474   3.028  1.8060 -0.2007 -1.3406
 8048SOL     OW35605   3.281   0.328  14.971  0.2655  0.2488  0.5504
 8048SOL    HW135606   3.365   0.373  14.966  2.7798 -4.4145  0.2458
 8048SOL    HW235607   3.292   0.238  14.939 -1.8502  0.5048 -0.9233
 8049SOL     OW35608   0.293   0.539  17.661  0.1118  0.1168 -0.4239
 8049SOL    HW135609   0.219   0.486  17.630  0.5729 -0.4394 -0.5762
 8049SOL    HW235610   0.316   0.584  17.580  1.0782 -1.8727 -1.2457
 8050SOL     OW35611   1.730   4.356   2.770 -0.1374  0.2192  0.6953
 8050SOL    HW135612   1.824   4.340   2.763 -0.1643 -1.1013  3.2423
 8050SOL    HW235613   1.726   4.379   2.863 -0.5011 -2.7685  1.4283
 8051SOL     OW35614   1.854   2.294   3.092  0.4950 -0.2129 -1.4386
 8051SOL    HW135615   1.921   2.362   3.089 -0.7597  1.1612  1.1710
 8051SOL    HW235616   1.899   2.212   3.110  0.8002  0.2858  0.0676
 8052SOL     OW35617   2.953   3.508   4.239 -0.1909 -0.4754 -0.0321
 8052SOL    HW135618   2.898   3.450   4.292 -0.1022  1.4266  2.1734
 8052SOL    HW235619   2.877   3.546   4.195 -1.0061 -1.2196  0.7431
 8053SOL     OW35620   0.793   4.610   5.713 -0.4656 -0.0017  0.1276
 8053SOL    HW135621   0.826   4.664   5.785 -1.6480  1.6334 -0.5550
 8053SOL    HW235622   0.702   4.615   5.740 -0.5901  0.8702 -0.4433
 8054SOL     OW35623   1.040   4.695  15.829  0.0065  0.3381  0.3801
 8054SOL    HW135624   1.002   4.710  15.742 -0.4288 -1.4897  0.2687
 8054SOL    HW235625   0.971   4.711  15.893 -1.2993 -0.8037 -0.7292
 8055SOL     OW35626   3.306   2.904   7.120 -0.2790  0.2304 -0.4297
 8055SOL    HW135627   3.344   2.969   7.061  0.5071  0.0887 -0.0732
 8055SOL    HW235628   3.298   2.963   7.195 -1.8999 -0.7901  0.1957
 8056SOL     OW35629   2.456   1.985   9.872  0.1209  0.5008  0.3296
 8056SOL    HW135630   2.423   2.023   9.954 -1.8113 -2.3704  0.9110
 8056SOL    HW235631   2.487   2.061   9.824  0.1671  0.9237  1.0308
 8057SOL     OW35632   3.519   3.012  12.876  0.6037  0.3934  0.4935
 8057SOL    HW135633   3.463   2.994  12.801  1.5534  2.0433 -0.6153
 8057SOL    HW235634   3.464   3.074  12.923 -1.1429 -0.8138  0.0237
 8058SOL     OW35635   3.254   3.876   9.514 -0.4569  0.0525  0.3143
 8058SOL    HW135636   3.323   3.810   9.511  0.8068  1.3961 -0.1839
 8058SOL    HW235637   3.173   3.828   9.500 -1.1439  1.5348 -0.8082
 8059SOL     OW35638   2.503   4.537   7.839 -0.2183 -0.3737 -0.1658
 8059SOL    HW135639   2.524   4.448   7.867  0.6018 -1.3464 -3.7994
 8059SOL    HW235640   2.453   4.517   7.760  0.0722 -2.4528  0.1830
 8060SOL     OW35641   4.152   2.402   5.002  0.4768  0.2362  0.2708
 8060SOL    HW135642   4.146   2.373   5.093 -0.9147  1.5227  0.5879
 8060SOL    HW235643   4.124   2.321   4.960  0.1823 -0.5710  2.0411
 8061SOL     OW35644   1.941   3.668   9.089  0.1974  0.0360 -0.0822
 8061SOL    HW135645   1.972   3.703   9.006  0.3609  0.2312  0.0606
 8061SOL    HW235646   2.027   3.646   9.125  0.2049  0.1976 -0.0046
 8062SOL     OW35647   2.897   3.015   5.270 -0.7667 -0.1288  0.4950
 8062SOL    HW135648   2.952   3.008   5.348  1.5590  0.8787 -1.0529
 8062SOL    HW235649   2.832   2.945   5.276  0.8539 -1.7269 -0.4171
 8063SOL     OW35650   3.876   3.971   3.547  0.4762 -0.0733  0.2512
 8063SOL    HW135651   3.959   3.995   3.507 -0.0170  1.7176  0.3283
 8063SOL    HW235652   3.901   3.889   3.589  2.5398  0.2267 -0.4103
 8064SOL     OW35653   2.021   0.109   1.429  0.5628 -0.3692 -0.0753
 8064SOL    HW135654   2.026   0.159   1.348 -2.1095  0.2502  0.1413
 8064SOL    HW235655   1.947   0.053   1.405 -0.7357  1.3587 -0.0978
 8065SOL     OW35656   2.269   2.183   8.838  0.1360 -0.7787 -0.3414
 8065SOL    HW135657   2.194   2.179   8.898  0.6948  0.5614  0.4596
 8065SOL    HW235658   2.336   2.236   8.881 -1.2149  0.2918  0.4441
 8066SOL     OW35659   0.982   2.239   9.196  0.2518  0.1799 -0.7304
 8066SOL    HW135660   0.917   2.309   9.199 -0.9669 -0.8194 -3.0404
 8066SOL    HW235661   1.065   2.283   9.210 -0.5818  1.5403 -0.0725
 8067SOL     OW35662   3.465   4.127  12.121 -0.7636  0.2385  0.1038
 8067SOL    HW135663   3.406   4.201  12.108  0.8763  1.6990  0.8398
 8067SOL    HW235664   3.402   4.057  12.138  1.7043 -2.6807 -2.6472
 8068SOL     OW35665   3.598   4.144   2.608  0.5543 -0.1995  0.1213
 8068SOL    HW135666   3.652   4.212   2.649 -0.5604  1.3812 -1.0236
 8068SOL    HW235667   3.665   4.085   2.572  1.3059  1.8853 -1.9312
 8069SOL     OW35668   0.081   1.561   3.800 -0.0334 -0.4640 -0.3718
 8069SOL    HW135669   0.133   1.543   3.722  1.1324  0.0181  0.3006
 8069SOL    HW235670   0.047   1.475   3.825 -0.1212 -0.2939  0.1035
 8070SOL     OW35671   4.672   4.712   0.036 -0.8309 -0.2944  0.2690
 8070SOL    HW135672   4.598   0.038   0.075 -0.0281 -0.0880  1.5802
 8070SOL    HW235673   0.029   0.020   0.085  0.1610  0.0721 -1.5093
 8071SOL     OW35674   1.026   1.815   6.181 -0.2894 -0.6670  0.5220
 8071SOL    HW135675   0.938   1.784   6.202 -0.3132 -0.9530 -0.0141
 8071SOL    HW235676   1.071   1.742   6.224 -1.0142 -1.3920  0.0340
 8072SOL     OW35677   3.697   0.037   6.194  0.0276 -0.2421  0.1644
 8072SOL    HW135678   3.651   4.708   6.262 -1.1203 -0.0270 -0.4592
 8072SOL    HW235679   3.631   0.051   6.126  0.7244 -4.2111 -1.3286
 8073SOL     OW35680   0.696   2.713   2.823  0.3411  0.2684 -0.4803
 8073SOL    HW135681   0.713   2.781   2.758 -1.0981  2.4477  1.4083
 8073SOL    HW235682   0.779   2.665   2.829  0.0358 -0.1701  0.2055
 8074SOL     OW35683   3.224   4.390   8.741 -0.0838  0.3910 -0.3159
 8074SOL    HW135684   3.135   4.378   8.776  0.4928  1.2386  1.4001
 8074SOL    HW235685   3.232   4.304   8.699 -2.1157  0.3986 -0.7482
 8075SOL     OW35686   4.478   0.756   6.952  0.5930 -0.0080  0.4068
 8075SOL    HW135687   4.479   0.663   6.976  0.7787 -0.2349 -0.4672
 8075SOL    HW235688   4.564   0.759   6.909  0.0788  0.6333 -0.5603
 8076SOL     OW35689   1.736   3.673   9.481 -0.0379 -0.1810  0.3328
 8076SOL    HW135690   1.740   3.713   9.394 -0.3665  1.7681  1.2220
 8076SOL    HW235691   1.644   3.683   9.506 -0.0331  0.8735 -0.0605
 8077SOL     OW35692   1.758   4.348  13.974  0.1802 -0.2140  0.6239
 8077SOL    HW135693   1.791   4.296  14.048 -0.3612 -0.1921  0.8800
 8077SOL    HW235694   1.676   4.299  13.962 -0.4042  0.5694  1.4352
 8078SOL     OW35695   1.307   0.466   9.462 -0.0941 -0.4062 -0.3887
 8078SOL    HW135696   1.322   0.553   9.426 -2.4848  0.7728  1.5287
 8078SOL    HW235697   1.306   0.483   9.556  0.3280  1.2171 -0.6776
 8079SOL     OW35698   0.391   1.154   5.710 -0.3370  0.1043 -0.6267
 8079SOL    HW135699   0.407   1.181   5.800  0.4903  1.0573 -1.0607
 8079SOL    HW235700   0.441   1.208   5.649 -0.0353 -0.3739 -0.8082
 8080SOL     OW35701   2.623   2.473   4.273  0.1659  0.2514 -0.6568
 8080SOL    HW135702   2.645   2.565   4.258 -0.0745  0.1714 -1.4951
 8080SOL    HW235703   2.606   2.479   4.367  0.2028 -0.1374 -0.6284
 8081SOL     OW35704   4.645   1.993   6.457 -0.0640  1.1498  0.1202
 8081SOL    HW135705   4.610   1.980   6.545  1.3474  0.7431  0.6064
 8081SOL    HW235706   0.012   2.025   6.477  0.1961 -0.3065  1.2671
 8082SOL     OW35707   0.709   0.500  12.277  0.0240 -0.1834 -0.2182
 8082SOL    HW135708   0.630   0.464  12.317 -0.2012 -0.7778 -1.1993
 8082SOL    HW235709   0.684   0.497  12.185  0.1811  2.2827 -0.3422
 8083SOL     OW35710   2.719   2.637  12.850  0.2245  0.0137  0.2208
 8083SOL    HW135711   2.766   2.588  12.919  0.9523  0.1897 -0.1459
 8083SOL    HW235712   2.666   2.570  12.807 -0.2161  0.8694 -0.5543
 8084SOL     OW35713   4.465   0.012  17.482 -0.1262  0.0059  0.3633
 8084SOL    HW135714   4.539   0.003  17.421  0.9187 -3.2503  2.0950
 8084SOL    HW235715   4.507   0.042  17.563  0.8360 -0.2989 -0.0219
 8085SOL     OW35716   3.577   2.359   7.892  0.3303  0.3569 -0.2186
 8085SOL    HW135717   3.579   2.332   7.800 -0.1667 -2.3291  0.5766
 8085SOL    HW235718   3.581   2.271   7.928  2.8787  1.4476  2.1097
 8086SOL     OW35719   1.413   2.859  13.986 -0.8834 -0.5378 -0.0482
 8086SOL    HW135720   1.498   2.889  14.018  0.0733 -1.3083 -1.8252
 8086SOL    HW235721   1.375   2.841  14.071  0.0168  1.5839  0.8133
 8087SOL     OW35722   1.246   4.115   9.162 -0.2975 -0.5509 -1.1101
 8087SOL    HW135723   1.247   4.168   9.242 -2.4648 -2.0598 -0.0728
 8087SOL    HW235724   1.284   4.168   9.091  3.8125 -1.6979  0.2327
 8088SOL     OW35725   1.222   4.154   4.014 -0.6973  0.4940  0.0893
 8088SOL    HW135726   1.127   4.162   4.011 -0.9659 -2.5272  0.5407
 8088SOL    HW235727   1.227   4.199   4.099 -1.1032 -0.3191  0.5449
 8089SOL     OW35728   1.180   4.160  10.605  0.2999  0.0423  1.1474
 8089SOL    HW135729   1.185   4.064  10.607 -1.0210 -0.0077  1.9390
 8089SOL    HW235730   1.258   4.168  10.660  0.4217  1.2037  0.7878
 8090SOL     OW35731   3.643   2.958  11.917 -0.6096  0.1675  0.0280
 8090SOL    HW135732   3.631   2.867  11.943 -2.1360  0.8139  1.6766
 8090SOL    HW235733   3.707   2.991  11.981 -0.2045 -0.7723  0.1033
 8091SOL     OW35734   2.379   1.267  10.249 -0.1620 -0.2378  0.7797
 8091SOL    HW135735   2.331   1.184  10.257  0.2667 -0.5997 -0.3628
 8091SOL    HW235736   2.424   1.259  10.165 -0.2869  1.0628  0.5829
 8092SOL     OW35737   1.497   2.470   7.322  0.2546 -0.2213  0.2111
 8092SOL    HW135738   1.434   2.411   7.363  1.6546  0.6154  3.5692
 8092SOL    HW235739   1.549   2.492   7.400  0.5679 -1.1984  0.2780
 8093SOL     OW35740   4.380   0.365   3.568 -0.2219 -0.0769  0.2555
 8093SOL    HW135741   4.319   0.424   3.524 -0.2922  0.7027  1.4109
 8093SOL    HW235742   4.331   0.335   3.645 -0.2611  0.6008  0.4924
 8094SOL     OW35743   3.264   1.863   2.030 -0.2488  0.2136 -0.1243
 8094SOL    HW135744   3.232   1.916   1.958 -0.8403 -0.4128 -0.3147
 8094SOL    HW235745   3.345   1.907   2.058 -0.2003  0.5195 -0.7398
 8095SOL     OW35746   1.112   2.021  10.746  0.8321 -0.4550 -0.5549
 8095SOL    HW135747   1.031   1.973  10.761  1.2654 -0.8998  0.3709
 8095SOL    HW235748   1.109   2.075  10.825  1.0805  1.9463 -2.2001
 8096SOL     OW35749   2.453   3.824   8.876  0.1355  0.0169 -0.3656
 8096SOL    HW135750   2.451   3.734   8.909  2.3712  0.2199  0.3582
 8096SOL    HW235751   2.468   3.865   8.961 -3.0165  3.6508 -1.5676
 8097SOL     OW35752   3.068   0.361   6.212  0.1591 -0.1191  0.1507
 8097SOL    HW135753   3.077   0.271   6.244 -1.8538  0.0167  1.0951
 8097SOL    HW235754   2.973   0.371   6.221  0.0150  0.4585 -2.0327
 8098SOL     OW35755   1.692   0.309   8.683  0.5974 -0.4404 -0.3403
 8098SOL    HW135756   1.700   0.260   8.765  2.6945  1.7494  0.7468
 8098SOL    HW235757   1.598   0.328   8.687  0.6006 -0.0236 -2.2781
 8099SOL     OW35758   2.246   1.722   9.627  0.0214 -0.2594  0.0431
 8099SOL    HW135759   2.299   1.714   9.707 -2.1299 -0.2840  1.4465
 8099SOL    HW235760   2.300   1.674   9.564 -1.9103 -0.8340 -1.1472
 8100SOL     OW35761   2.014   1.214   7.549 -0.2719 -0.2375  0.0306
 8100SOL    HW135762   1.928   1.216   7.507 -1.5185  1.3843  2.6384
 8100SOL    HW235763   2.077   1.223   7.478  1.0832  1.7500  1.4931
 8101SOL     OW35764   0.808   3.407   2.943 -0.1411  0.0929  0.2608
 8101SOL    HW135765   0.840   3.317   2.952 -2.2327 -0.6140  0.5214
 8101SOL    HW235766   0.889   3.458   2.932  0.1789 -0.5720 -0.4477
 8102SOL     OW35767   1.024   2.724   9.413  0.1829 -0.5714  0.0190
 8102SOL    HW135768   0.964   2.795   9.389 -1.1747 -1.1203  1.8135
 8102SOL    HW235769   0.973   2.687   9.485  1.1546 -2.2702 -0.1634
 8103SOL     OW35770   2.559   1.738   1.160  0.3480 -0.0783 -0.0744
 8103SOL    HW135771   2.546   1.832   1.170 -0.2888 -0.0555 -1.1532
 8103SOL    HW235772   2.578   1.720   1.252  0.9138  0.8640 -0.0025
 8104SOL     OW35773   0.836   2.286   1.201 -0.1178 -0.1671  0.5406
 8104SOL    HW135774   0.762   2.306   1.145 -0.3107  1.0042  1.2187
 8104SOL    HW235775   0.864   2.207   1.155 -0.0617  0.9417 -1.3250
 8105SOL     OW35776   1.681   2.304   7.207  0.0585  0.0647  0.3224
 8105SOL    HW135777   1.697   2.303   7.112  0.5755  1.2684  0.3932
 8105SOL    HW235778   1.610   2.361   7.236  1.4536  0.2018  3.3989
 8106SOL     OW35779   1.937   2.185  14.958 -0.0557 -0.2549  0.3618
 8106SOL    HW135780   1.868   2.181  14.892  0.1620 -0.9284  0.1687
 8106SOL    HW235781   1.974   2.097  14.944  0.2139 -0.2537  1.0287
 8107SOL     OW35782   1.060   2.764   5.932  0.2265  0.0380  0.0063
 8107SOL    HW135783   1.026   2.678   5.909 -1.4727  0.8785 -0.5733
 8107SOL    HW235784   1.145   2.742   5.971 -1.4075 -0.1685  3.4876
 8108SOL     OW35785   1.068   3.598   3.189 -0.4583 -0.2513  0.1587
 8108SOL    HW135786   0.986   3.574   3.233 -0.1585  0.4763  1.1153
 8108SOL    HW235787   1.034   3.643   3.111 -1.8181 -0.3916  0.6643
 8109SOL     OW35788   1.248   0.455   2.299  0.4735  0.6305 -0.5961
 8109SOL    HW135789   1.216   0.376   2.256  0.3967 -0.9239  2.2846
 8109SOL    HW235790   1.237   0.531   2.242  0.8516  0.2820 -1.1242
 8110SOL     OW35791   1.779   3.360   0.310 -0.9362 -0.0192 -0.5469
 8110SOL    HW135792   1.775   3.298   0.383 -3.6887  0.6852 -0.1004
 8110SOL    HW235793   1.776   3.289   0.246  0.8010  0.5616 -1.2606
 8111SOL     OW35794   3.797   0.150   3.897 -0.0314  0.1644  0.4935
 8111SOL    HW135795   3.856   0.146   3.973  1.4273  2.9587 -0.4992
 8111SOL    HW235796   3.770   0.242   3.902 -0.5466 -0.0011  0.7259
 8112SOL     OW35797   2.405   4.132  11.128 -0.6847  0.1209  0.1982
 8112SOL    HW135798   2.369   4.177  11.052  1.8806  0.5274 -0.7764
 8112SOL    HW235799   2.435   4.047  11.096  0.5228  0.6777 -0.1553
 8113SOL     OW35800   1.568   4.452   2.528  0.1687  0.2758  1.0677
 8113SOL    HW135801   1.589   4.544   2.511 -1.4276  0.0304 -2.3009
 8113SOL    HW235802   1.603   4.432   2.615  1.7257  1.1691  0.6499
 8114SOL     OW35803   2.215   0.271   1.879  0.5273 -0.3717 -0.1150
 8114SOL    HW135804   2.253   0.276   1.967  0.0156  1.5016  0.0064
 8114SOL    HW235805   2.140   0.327   1.901  0.2317 -0.4061 -1.0350
 8115SOL     OW35806   4.366   0.936  15.682  0.1399 -0.8773 -0.0365
 8115SOL    HW135807   4.419   1.013  15.704  0.6836 -1.1771 -0.2762
 8115SOL    HW235808   4.362   0.891  15.767  2.5105  2.1274  1.6638
 8116SOL     OW35809   4.098   1.972   5.149 -0.0058  0.0843  0.3043
 8116SOL    HW135810   4.130   2.050   5.193  1.5070 -0.3453 -0.0342
 8116SOL    HW235811   4.003   1.986   5.151 -0.1294 -0.7368  0.1487
 8117SOL     OW35812   4.393   2.091   7.191  0.0252 -0.2992  0.2442
 8117SOL    HW135813   4.382   2.116   7.099  0.3947 -1.7278 -0.1886
 8117SOL    HW235814   4.299   2.079   7.208 -0.6465  1.8116 -2.0271
 8118SOL     OW35815   1.828   1.328  15.867  0.0158  0.3197  0.3468
 8118SOL    HW135816   1.903   1.336  15.809  0.5110  1.1534  1.1069
 8118SOL    HW235817   1.781   1.409  15.849 -3.0418 -1.5730 -0.1769
 8119SOL     OW35818   1.748   2.789   9.160  0.0973  0.3202  0.2995
 8119SOL    HW135819   1.737   2.847   9.084 -0.8244 -0.7485 -0.3849
 8119SOL    HW235820   1.820   2.841   9.197  2.2772 -2.0832 -0.6102
 8120SOL     OW35821   0.264   4.612   9.217  0.0033 -0.1355  0.5379
 8120SOL    HW135822   0.259   4.516   9.224 -1.2914  0.0307  1.6587
 8120SOL    HW235823   0.197   4.638   9.280 -0.4372  1.0993 -0.4428
 8121SOL     OW35824   1.441   4.501   5.773 -0.3984 -0.3139 -0.2713
 8121SOL    HW135825   1.347   4.487   5.759 -0.5341  0.5601 -0.2513
 8121SOL    HW235826   1.442   4.585   5.818  0.1136 -0.8468  0.6954
 8122SOL     OW35827   1.495   3.199   6.284 -0.1956  0.2683  0.2227
 8122SOL    HW135828   1.564   3.161   6.229  1.0878  2.9560 -0.0100
 8122SOL    HW235829   1.413   3.173   6.243  0.9605 -0.9075 -1.3225
 8123SOL     OW35830   1.573   1.505   8.077  0.3145  0.1635  0.7410
 8123SOL    HW135831   1.652   1.554   8.099 -0.0469  2.3691 -2.8573
 8123SOL    HW235832   1.535   1.477   8.160 -0.0421  0.4920  0.6875
 8124SOL     OW35833   0.305   2.128   4.111  0.7222 -0.1889  0.1101
 8124SOL    HW135834   0.217   2.155   4.137 -0.3194 -1.9894 -1.5381
 8124SOL    HW235835   0.319   2.050   4.165 -1.2921  0.2463  1.2811
 8125SOL     OW35836   3.300   3.460  14.784  0.9503 -0.0629  0.1640
 8125SOL    HW135837   3.232   3.453  14.852  1.2311 -1.4415  0.2965
 8125SOL    HW235838   3.248   3.449  14.704  1.5946  1.2100 -0.4343
 8126SOL     OW35839   3.215   3.259  13.570  0.6044 -0.1158 -0.3722
 8126SOL    HW135840   3.310   3.268  13.575  0.7757  0.1365 -4.2637
 8126SOL    HW235841   3.210   3.164  13.576  0.4672 -0.1751 -1.4683
 8127SOL     OW35842   2.877   3.186  16.261 -0.0750  0.4837  0.3957
 8127SOL    HW135843   2.902   3.173  16.353  1.5262 -1.7426 -0.3525
 8127SOL    HW235844   2.784   3.203  16.274  0.4255  2.3894  1.4316
 8128SOL     OW35845   2.935   1.030   3.491 -0.0793 -0.1325 -0.0591
 8128SOL    HW135846   2.933   1.125   3.505 -0.2340  0.2237 -2.5165
 8128SOL    HW235847   2.886   1.023   3.409 -0.5585  3.5310 -0.0974
 8129SOL     OW35848   2.333   4.252   9.051  0.2191 -0.2967 -0.4088
 8129SOL    HW135849   2.245   4.288   9.039 -0.1850 -0.4335  2.1864
 8129SOL    HW235850   2.377   4.318   9.105 -2.5001  0.1584  1.2638
 8130SOL     OW35851   3.083   3.458   2.758  0.3637  0.1412 -0.3980
 8130SOL    HW135852   3.137   3.488   2.684  1.2434  1.3299  0.7194
 8130SOL    HW235853   3.134   3.385   2.794 -0.6961 -0.0546  0.6899
 8131SOL     OW35854   0.157   0.743   0.324 -0.8450  0.1859  0.7251
 8131SOL    HW135855   0.095   0.670   0.320  1.0618 -1.3610 -0.8622
 8131SOL    HW235856   0.243   0.705   0.340  0.0540  1.4579 -1.0443
 8132SOL     OW35857   2.531   1.671   2.838 -0.5384 -0.1957 -0.3354
 8132SOL    HW135858   2.531   1.679   2.743  1.2918 -0.5425 -0.3636
 8132SOL    HW235859   2.503   1.760   2.860  0.7388 -0.2688  1.6244
 8133SOL     OW35860   3.708   2.580   7.182  0.4612  0.2645  0.1547
 8133SOL    HW135861   3.793   2.603   7.220  1.6340 -1.8603 -1.2137
 8133SOL    HW235862   3.681   2.666   7.149  0.9549  0.7076  0.8911
 8134SOL     OW35863   0.510   1.449  13.967 -0.0741 -0.3455 -0.0968
 8134SOL    HW135864   0.575   1.407  13.912  1.1993 -0.6213  1.6195
 8134SOL    HW235865   0.454   1.374  13.986  1.2479 -1.0803  0.8872
 8135SOL     OW35866   4.535   3.458  16.186 -0.0092 -0.8987 -0.3065
 8135SOL    HW135867   4.524   3.476  16.093  1.1417 -0.8672 -0.4313
 8135SOL    HW235868   4.555   3.544  16.223  2.9006 -1.6690 -0.0928
 8136SOL     OW35869   4.044   2.777   6.829  0.2550 -0.1525 -0.5521
 8136SOL    HW135870   4.054   2.695   6.878  0.1853 -0.7018 -1.4595
 8136SOL    HW235871   4.000   2.738   6.754  1.8516  0.4779 -1.8065
 8137SOL     OW35872   4.691   3.919  11.226  0.1070  0.0048 -0.1186
 8137SOL    HW135873   4.653   4.002  11.254 -0.1716 -0.0500 -0.3367
 8137SOL    HW235874   0.027   3.943  11.153  0.1152 -0.4841 -0.2773
 8138SOL     OW35875   2.981   2.343   7.080  0.8463 -0.0859 -0.3153
 8138SOL    HW135876   2.924   2.366   7.153  1.7402 -1.2296  0.7514
 8138SOL    HW235877   3.027   2.426   7.069  1.4637 -0.2681  0.8472
 8139SOL     OW35878   2.943   4.329   2.555  0.1392 -0.3471 -0.5408
 8139SOL    HW135879   2.934   4.373   2.640 -0.2579  1.4031 -1.5044
 8139SOL    HW235880   2.858   4.285   2.563  0.0936 -0.3788 -1.2152
 8140SOL     OW35881   3.891   4.147  16.996  0.0358  0.1239 -0.3900
 8140SOL    HW135882   3.883   4.232  17.039  0.4338  0.3770 -0.8114
 8140SOL    HW235883   3.942   4.181  16.922  1.9704  1.7302  1.7151
 8141SOL     OW35884   3.323   1.911   9.272  0.2175 -0.3061  0.1905
 8141SOL    HW135885   3.265   1.836   9.257 -1.0418 -0.1535  4.5129
 8141SOL    HW235886   3.326   1.961   9.190  0.7371 -0.8025 -0.0959
 8142SOL     OW35887   3.069   3.083   1.646  0.2193 -0.4799  0.2515
 8142SOL    HW135888   2.984   3.107   1.683 -0.9296 -3.3000 -0.5234
 8142SOL    HW235889   3.051   3.114   1.558  3.3218  1.6124  0.3746
 8143SOL     OW35890   3.779   0.859  10.049  0.5427  0.0536  0.6298
 8143SOL    HW135891   3.822   0.796  10.107 -0.0275 -0.7835  0.1472
 8143SOL    HW235892   3.786   0.799   9.975 -0.3154  1.4062 -0.5518
 8144SOL     OW35893   0.468   1.388   8.989 -0.3190 -0.1477  0.1460
 8144SOL    HW135894   0.396   1.426   8.938  0.6014  0.2766 -0.8223
 8144SOL    HW235895   0.433   1.406   9.076 -0.9769  0.1797 -0.1825
 8145SOL     OW35896   0.386   3.214  15.994  0.2135  0.2241  0.0308
 8145SOL    HW135897   0.313   3.159  15.965  0.3978  0.2518 -0.4871
 8145SOL    HW235898   0.451   3.178  15.935  0.6589  1.0582  0.0135
 8146SOL     OW35899   1.349   4.618  12.484  0.0006  0.4852 -0.1391
 8146SOL    HW135900   1.299   4.655  12.557  0.6425  0.2431  0.4142
 8146SOL    HW235901   1.423   4.679  12.480 -2.0522  2.9296 -1.8712
 8147SOL     OW35902   2.553   4.603  12.630  0.4669  0.1054 -0.6798
 8147SOL    HW135903   2.568   4.630  12.539 -1.6142 -0.2837 -1.1520
 8147SOL    HW235904   2.641   4.577  12.657  0.1016  0.5747  0.9553
 8148SOL     OW35905   0.422   3.246   8.797 -0.2955 -0.1895  0.1906
 8148SOL    HW135906   0.466   3.175   8.750  0.0417  0.8723 -1.0964
 8148SOL    HW235907   0.351   3.256   8.733 -0.6241  0.5030  0.6697
 8149SOL     OW35908   2.362   2.818   2.812  0.1233  0.1180 -0.1783
 8149SOL    HW135909   2.419   2.838   2.738  1.5200 -0.1501  0.8262
 8149SOL    HW235910   2.324   2.732   2.797  1.8550 -0.6175 -0.3182
 8150SOL     OW35911   2.764   2.482  11.391 -0.8165 -0.0192 -0.5045
 8150SOL    HW135912   2.769   2.389  11.373 -2.3696 -0.4398  1.2203
 8150SOL    HW235913   2.699   2.502  11.323  2.2728  0.9776 -3.1879
 8151SOL     OW35914   1.306   1.849   4.286 -0.0743 -0.1333  0.3294
 8151SOL    HW135915   1.370   1.812   4.225 -1.4903 -0.9924 -0.6252
 8151SOL    HW235916   1.275   1.764   4.315 -0.0943  0.3763  1.8236
 8152SOL     OW35917   0.790   4.497   3.453  0.5243  0.2570 -0.5946
 8152SOL    HW135918   0.733   4.562   3.495 -0.0986  0.8464 -2.3493
 8152SOL    HW235919   0.873   4.525   3.492  0.5528  0.4108 -0.7702
 8153SOL     OW35920   0.739   2.501   8.584  0.6881  0.2844  0.0802
 8153SOL    HW135921   0.748   2.410   8.556  0.4732 -0.3061  1.9457
 8153SOL    HW235922   0.697   2.537   8.506  0.7669  0.5118  0.1439
 8154SOL     OW35923   1.389   3.642   4.926  0.1064  0.0493  0.0793
 8154SOL    HW135924   1.330   3.688   4.985 -1.8571  0.5200 -2.2402
 8154SOL    HW235925   1.349   3.680   4.848 -2.2781  0.6743  1.6127
 8155SOL     OW35926   1.756   4.363  10.965  0.0804 -0.0926  0.1657
 8155SOL    HW135927   1.831   4.374  10.906 -1.0431 -0.7809 -1.3698
 8155SOL    HW235928   1.764   4.270  10.988 -1.0728  0.2491  1.9688
 8156SOL     OW35929   4.450   4.193   3.777 -0.3314  0.2221 -0.6033
 8156SOL    HW135930   4.367   4.178   3.822 -0.2203 -0.1153 -0.5119
 8156SOL    HW235931   4.446   4.285   3.753  3.9041  0.5628  0.0062
 8157SOL     OW35932   4.475   3.369   8.575  0.0206 -0.0705  0.3159
 8157SOL    HW135933   4.423   3.326   8.507 -1.6019 -0.2043  1.6245
 8157SOL    HW235934   4.464   3.327   8.661  0.6980  0.1747  0.5245
 8158SOL     OW35935   3.746   4.600  13.542  0.3800 -0.0165 -0.4813
 8158SOL    HW135936   3.727   4.595  13.448  1.4580 -0.2509 -0.6871
 8158SOL    HW235937   3.660   4.577  13.576  0.0817  0.2940 -1.0229
 8159SOL     OW35938   3.096   3.626   6.584  0.4459  0.4856 -0.6030
 8159SOL    HW135939   3.172   3.668   6.545  0.8637  0.9632  0.7355
 8159SOL    HW235940   3.064   3.567   6.515 -0.7550 -0.6722  0.9292
 8160SOL     OW35941   2.772   3.771   8.053  0.5183 -0.0356  0.0108
 8160SOL    HW135942   2.680   3.753   8.031  0.3204  0.4775  0.4210
 8160SOL    HW235943   2.773   3.853   8.101 -1.0360  0.7964 -1.3676
 8161SOL     OW35944   1.870   1.562   4.355  0.1128  0.0393  1.0943
 8161SOL    HW135945   1.947   1.530   4.402 -0.3574  1.1009  2.5740
 8161SOL    HW235946   1.905   1.578   4.267 -0.6843 -0.4831  0.6728
 8162SOL     OW35947   3.127   3.808   6.210 -0.2311 -0.1909  0.1522
 8162SOL    HW135948   3.044   3.856   6.203 -0.6771 -0.8805  0.7253
 8162SOL    HW235949   3.184   3.868   6.162 -0.6619 -0.5245 -0.7716
 8163SOL     OW35950   0.721   2.180  15.860 -0.0160  0.7078 -0.1834
 8163SOL    HW135951   0.677   2.239  15.921 -0.2030  0.0151  0.3500
 8163SOL    HW235952   0.810   2.185  15.894 -1.5572  0.3134  3.8899
 8164SOL     OW35953   4.258   0.440   6.856  0.6620 -0.0637  0.0477
 8164SOL    HW135954   4.352   0.447   6.874  0.5266 -1.0704  1.1439
 8164SOL    HW235955   4.224   0.522   6.890 -0.1886 -0.9656  1.3680
 8165SOL     OW35956   1.925   4.577  13.966 -0.1279 -0.1282 -0.0516
 8165SOL    HW135957   1.839   4.601  13.931  0.7644  1.5856 -1.0681
 8165SOL    HW235958   1.906   4.484  13.956 -0.2534 -0.2747  1.5805
 8166SOL     OW35959   0.044   1.662   8.815 -0.0728  1.1263 -0.2453
 8166SOL    HW135960   4.696   1.595   8.814 -0.2181  1.2601  0.5809
 8166SOL    HW235961   0.003   1.743   8.782  1.8135  2.7827  1.4902
 8167SOL     OW35962   2.365   3.842  10.600 -0.4438  0.2251 -1.0090
 8167SOL    HW135963   2.272   3.852  10.619 -0.2167 -2.2281  1.3459
 8167SOL    HW235964   2.397   3.909  10.661  0.2124 -0.6162 -0.4374
 8168SOL     OW35965   2.720   3.425   7.845  0.2950  0.3435  0.2097
 8168SOL    HW135966   2.668   3.498   7.880  1.0865  0.1559  1.7597
 8168SOL    HW235967   2.795   3.419   7.904 -0.0974  1.6218  0.8563
 8169SOL     OW35968   2.612   3.783   5.701 -0.3244 -0.2754 -0.0824
 8169SOL    HW135969   2.575   3.791   5.789 -0.4444 -0.2490 -0.1352
 8169SOL    HW235970   2.552   3.838   5.651  0.8486 -0.3545 -1.5850
 8170SOL     OW35971   3.460   3.004   2.497 -0.0465  0.0686  0.7357
 8170SOL    HW135972   3.377   3.041   2.525  0.5593  1.3593  0.7963
 8170SOL    HW235973   3.504   2.998   2.582  0.2731  1.3479  0.6585
 8171SOL     OW35974   3.124   3.044   1.192  0.0244  0.3182  0.0437
 8171SOL    HW135975   3.151   2.989   1.266  3.5633 -0.2308 -1.6586
 8171SOL    HW235976   3.153   3.125   1.234  0.2242  0.1781  0.1773
 8172SOL     OW35977   1.770   2.781  15.943 -0.2351 -0.2257 -0.0106
 8172SOL    HW135978   1.686   2.772  15.898 -1.6779  1.7046  2.3062
 8172SOL    HW235979   1.810   2.828  15.870 -0.7492  0.3480  0.0736
 8173SOL     OW35980   1.402   1.386   3.579  0.4079  0.0623 -0.3321
 8173SOL    HW135981   1.454   1.332   3.638 -0.4066 -0.2043  0.1461
 8173SOL    HW235982   1.347   1.311   3.554 -0.9576  0.5406  1.2657
 8174SOL     OW35983   0.463   0.405   9.101 -0.1061 -0.2102 -0.5028
 8174SOL    HW135984   0.554   0.401   9.130 -0.3734 -0.7587  0.2878
 8174SOL    HW235985   0.450   0.320   9.058 -0.5761  0.0557 -0.8821
 8175SOL     OW35986   2.394   4.139   2.882 -0.4069  0.0286  0.6514
 8175SOL    HW135987   2.337   4.109   2.952 -0.0546 -0.0383  0.9083
 8175SOL    HW235988   2.408   4.232   2.901 -1.5857  0.6309 -1.3990
 8176SOL     OW35989   4.518   3.614  10.823 -0.1117  0.0521  0.5909
 8176SOL    HW135990   4.558   3.560  10.755  0.0936 -0.2781  0.9750
 8176SOL    HW235991   4.467   3.677  10.771 -2.5722 -2.3803  0.0960
 8177SOL     OW35992   4.580   4.670   9.908 -0.1337  0.8794 -0.9808
 8177SOL    HW135993   4.675   4.664   9.899 -0.1183 -0.2083 -0.1024
 8177SOL    HW235994   4.571   0.040   9.879  1.3733  0.8737 -1.4821
 8178SOL     OW35995   3.808   1.372   3.744  0.4040  0.0859  0.2208
 8178SOL    HW135996   3.793   1.364   3.838  0.5442 -0.5631  0.1910
 8178SOL    HW235997   3.814   1.282   3.711 -1.8757  0.5427 -1.4489
 8179SOL     OW35998   1.763   3.757   7.435 -0.8747  0.6236 -0.1601
 8179SOL    HW135999   1.826   3.794   7.496  0.7323 -0.3668 -1.2002
 8179SOL    HW236000   1.682   3.772   7.484 -0.7647 -0.2945  0.3184
 8180SOL     OW36001   2.893   2.626   3.099  0.1905 -0.0948  0.4996
 8180SOL    HW136002   2.967   2.624   3.039  0.2762  1.4767  0.5531
 8180SOL    HW236003   2.893   2.721   3.108  2.4370  0.1289 -1.8962
 8181SOL     OW36004   3.161   3.399   7.527  0.1173  0.5103  0.2797
 8181SOL    HW136005   3.151   3.333   7.596 -1.7792 -0.3275 -0.8215
 8181SOL    HW236006   3.251   3.385   7.499 -0.9581  0.6876 -3.1822
 8182SOL     OW36007   2.717   2.654  16.511 -0.2537 -0.7789 -0.0808
 8182SOL    HW136008   2.791   2.596  16.529  1.2873  2.1219  2.8309
 8182SOL    HW236009   2.759   2.737  16.533  0.9953 -0.9486 -1.9051
 8183SOL     OW36010   2.586   1.979  11.586 -0.3706 -0.7574 -0.5848
 8183SOL    HW136011   2.516   2.034  11.550 -0.2741  0.5487  1.2131
 8183SOL    HW236012   2.616   1.934  11.507 -0.3185  0.4740 -1.2749
 8184SOL     OW36013   1.808   4.016   9.384  0.4976 -0.2030  0.2431
 8184SOL    HW136014   1.866   4.079   9.341 -1.8066  0.9522 -1.1608
 8184SOL    HW236015   1.868   3.943   9.369  2.4229  1.8517 -2.1565
 8185SOL     OW36016   3.241   2.133   9.462  0.5962  0.6894 -0.1774
 8185SOL    HW136017   3.269   2.067   9.398 -1.3254  0.9763 -1.3124
 8185SOL    HW236018   3.295   2.203   9.425  2.0759 -0.7136 -0.6697
 8186SOL     OW36019   1.914   3.615  11.521  0.3932  0.7956  0.3737
 8186SOL    HW136020   1.957   3.608  11.435 -2.1653 -0.8868 -0.7786
 8186SOL    HW236021   1.961   3.551  11.574 -2.7539 -1.6282  0.2099
 8187SOL     OW36022   0.778   1.472   1.953 -0.3179 -0.0062 -0.2339
 8187SOL    HW136023   0.850   1.410   1.966 -0.5906  0.0120  1.3482
 8187SOL    HW236024   0.831   1.552   1.949  2.2423 -1.6041  1.5294
 8188SOL     OW36025   1.467   1.250  16.453  0.1488 -0.4223  0.4629
 8188SOL    HW136026   1.439   1.179  16.394 -1.0171  0.9232 -0.6108
 8188SOL    HW236027   1.484   1.320  16.390 -0.7828 -0.9249 -0.3634
 8189SOL     OW36028   3.508   4.474   7.849 -0.4600 -0.5336  0.3850
 8189SOL    HW136029   3.494   4.527   7.771 -1.1918 -0.7895  0.3477
 8189SOL    HW236030   3.467   4.527   7.918 -1.1453 -2.1468  1.2169
 8190SOL     OW36031   2.721   0.224   7.928  0.5401  0.0370  0.3632
 8190SOL    HW136032   2.785   0.220   7.856  0.5016  0.1206  0.3241
 8190SOL    HW236033   2.704   0.131   7.939  1.5462 -0.3085 -1.0228
 8191SOL     OW36034   4.219   0.026  13.775 -0.2637  0.7328 -0.1647
 8191SOL    HW136035   4.227   4.664  13.821  0.6261  0.9713  0.0987
 8191SOL    HW236036   4.162   0.008  13.700  2.5513 -1.6137 -1.7383
 8192SOL     OW36037   2.176   2.557  12.048 -0.0216 -1.1050 -0.8941
 8192SOL    HW136038   2.135   2.515  12.124  0.8974 -0.8437 -0.2532
 8192SOL    HW236039   2.263   2.565  12.087 -1.1790  1.2806  1.1964
 8193SOL     OW36040   3.593   0.147  15.074 -0.1660  0.5511  0.7510
 8193SOL    HW136041   3.552   0.208  15.135  0.4092 -0.8535  2.5374
 8193SOL    HW236042   3.685   0.153  15.099  0.2964 -1.9663 -0.3269
 8194SOL     OW36043   0.581   3.270   2.550  0.0351  0.5911  0.1238
 8194SOL    HW136044   0.559   3.188   2.594 -0.4014  0.5334 -0.2059
 8194SOL    HW236045   0.668   3.246   2.517 -0.5377  0.7949 -1.5061
 8195SOL     OW36046   1.724   3.069   7.561 -0.4988 -0.1803  0.3251
 8195SOL    HW136047   1.790   3.116   7.511 -0.1617  0.4628  1.3709
 8195SOL    HW236048   1.652   3.132   7.572 -0.0392  0.4002 -0.0040
 8196SOL     OW36049   3.364   1.846   5.331  0.7095 -0.3743  0.6235
 8196SOL    HW136050   3.409   1.770   5.296 -1.1456 -2.5604  3.0095
 8196SOL    HW236051   3.287   1.840   5.274  0.2130 -0.6305  1.3138
 8197SOL     OW36052   0.227   4.003  10.652 -0.1889 -0.0670 -0.2157
 8197SOL    HW136053   0.267   4.051  10.724  0.1629 -0.1800 -0.3343
 8197SOL    HW236054   0.284   3.926  10.648 -1.2416 -1.0093  2.6095
 8198SOL     OW36055   1.554   3.435  13.963  0.1583  0.3138 -0.3320
 8198SOL    HW136056   1.518   3.360  14.009  2.2742  0.3666  1.4383
 8198SOL    HW236057   1.567   3.389  13.880 -0.4556  0.4817 -0.5204
 8199SOL     OW36058   1.217   3.874   5.667 -0.1279 -0.4805  0.1239
 8199SOL    HW136059   1.295   3.919   5.632 -0.8830 -0.5059 -1.5772
 8199SOL    HW236060   1.243   3.786   5.639 -0.0367 -0.2175 -0.6304
 8200SOL     OW36061   2.437   0.517   4.471  0.0566  0.4023 -0.8729
 8200SOL    HW136062   2.378   0.589   4.495  1.4605  1.5005 -0.7907
 8200SOL    HW236063   2.418   0.508   4.378  0.5695  0.4303 -0.9793
 8201SOL     OW36064   4.291   4.134   5.240  0.3979  0.1323 -0.0294
 8201SOL    HW136065   4.368   4.081   5.219 -0.1381 -0.6597  0.0022
 8201SOL    HW236066   4.324   4.195   5.306 -1.7522 -0.5510  1.6795
 8202SOL     OW36067   0.772   1.034   7.832  0.0678 -0.2441 -0.4889
 8202SOL    HW136068   0.846   1.077   7.876  0.9753 -2.4332  0.1369
 8202SOL    HW236069   0.748   0.985   7.911  0.7540  0.3616  0.1003
 8203SOL     OW36070   3.830   4.153   5.338 -0.0291  0.2980  0.1633
 8203SOL    HW136071   3.838   4.175   5.245 -0.6400  0.4712  0.1527
 8203SOL    HW236072   3.876   4.069   5.340 -0.2154  0.2276  1.2371
 8204SOL     OW36073   3.058   4.384  16.671  0.4528 -0.2623  0.3636
 8204SOL    HW136074   3.054   4.345  16.584 -1.1311  0.0397  0.3001
 8204SOL    HW236075   3.080   4.305  16.721  0.9291  0.0553  0.6502
 8205SOL     OW36076   2.129   2.076  17.535  0.1498 -0.3129  0.4832
 8205SOL    HW136077   2.110   2.047  17.446 -2.7837 -0.9606  1.3471
 8205SOL    HW236078   2.039   2.088  17.565  0.5179 -1.5092  2.0748
 8206SOL     OW36079   3.778   2.181   1.515 -0.0301  0.0675  0.1879
 8206SOL    HW136080   3.866   2.184   1.553 -0.4076  0.3320  1.0456
 8206SOL    HW236081   3.784   2.095   1.474  4.8915  0.2280  0.5112
 8207SOL     OW36082   2.126   2.345   5.477 -1.0205  0.0559 -0.7167
 8207SOL    HW136083   2.139   2.316   5.387 -1.2944 -0.2507 -0.6588
 8207SOL    HW236084   2.040   2.387   5.466 -1.0444  0.8808  2.4145
 8208SOL     OW36085   1.076   1.704   3.666 -0.2169  0.3970  0.3477
 8208SOL    HW136086   1.046   1.791   3.694  1.2197  0.6904  0.9394
 8208SOL    HW236087   1.165   1.694   3.698  0.4616 -0.0582 -1.6985
 8209SOL     OW36088   0.994   0.394   3.102  0.6584 -0.1406  0.5812
 8209SOL    HW136089   1.043   0.316   3.077  0.1452 -0.0370 -0.7770
 8209SOL    HW236090   0.974   0.382   3.195 -0.0255  0.9734  0.5734
 8210SOL     OW36091   3.950   1.301   5.725 -0.1384  0.5968  0.3882
 8210SOL    HW136092   4.041   1.327   5.718 -0.0239  0.1392  0.1574
 8210SOL    HW236093   3.912   1.341   5.647  2.0751  1.5870 -0.1553
 8211SOL     OW36094   3.620   2.981   4.869 -0.3760  0.5366  0.3908
 8211SOL    HW136095   3.626   2.892   4.832  0.8465  0.5027  0.6604
 8211SOL    HW236096   3.557   3.005   4.801 -1.0006 -1.9163  0.0794
 8212SOL     OW36097   4.062   0.357  12.689  0.2252  0.1094  0.4399
 8212SOL    HW136098   4.010   0.311  12.623  0.2126 -0.5863  0.9360
 8212SOL    HW236099   3.995   0.372  12.756 -0.5343 -0.2614 -0.2337
 8213SOL     OW36100   2.993   0.699   4.630 -0.0555  0.4317  0.2312
 8213SOL    HW136101   3.062   0.664   4.687  0.8843  0.6212 -0.8034
 8213SOL    HW236102   3.033   0.673   4.547 -1.3765 -0.1367 -0.2155
 8214SOL     OW36103   1.283   3.398  17.510  0.0745  0.7462  0.4594
 8214SOL    HW136104   1.253   3.471  17.455 -1.0988 -0.4159 -0.4652
 8214SOL    HW236105   1.232   3.418  17.588 -2.2672 -4.0889  0.2136
 8215SOL     OW36106   0.483   1.883   7.098  0.8727  0.3788  0.0785
 8215SOL    HW136107   0.525   1.965   7.123  1.9139 -0.1443  0.0427
 8215SOL    HW236108   0.439   1.863   7.181 -0.6050 -0.7340 -0.9792
 8216SOL     OW36109   1.357   2.676  13.317 -0.3284 -0.4654 -0.6321
 8216SOL    HW136110   1.371   2.751  13.260  0.8427 -0.6145 -0.5441
 8216SOL    HW236111   1.416   2.704  13.387 -0.5488  0.0257 -0.6476
 8217SOL     OW36112   4.148   2.906   8.839 -0.0647  0.6097 -0.2695
 8217SOL    HW136113   4.055   2.883   8.843 -0.0835  1.1625  2.4790
 8217SOL    HW236114   4.181   2.864   8.760  1.1594 -0.4351  0.7995
 8218SOL     OW36115   3.835   4.303   3.987  0.5695  0.0185 -0.1851
 8218SOL    HW136116   3.929   4.323   3.995  0.6236 -1.1412  2.0924
 8218SOL    HW236117   3.816   4.267   4.074 -1.1482  0.6423 -0.3013
 8219SOL     OW36118   0.099   0.375   2.083 -0.0147 -0.6724  0.4922
 8219SOL    HW136119   0.031   0.393   2.148 -0.7086 -3.6236  0.5727
 8219SOL    HW236120   0.089   0.446   2.019  2.9832  3.5923  4.7197
 8220SOL     OW36121   1.990   1.670  16.935  0.0561  0.5595 -0.2653
 8220SOL    HW136122   1.923   1.640  16.996 -0.9508  2.3768 -0.4882
 8220SOL    HW236123   1.994   1.600  16.869 -3.0876 -0.4829  0.6476
 8221SOL     OW36124   0.616   4.158   6.968  0.7749  0.2508 -0.3063
 8221SOL    HW136125   0.543   4.219   6.973  1.3581  0.7111  2.2882
 8221SOL    HW236126   0.676   4.186   6.898  1.0004  1.6316  0.4548
 8222SOL     OW36127   1.106   2.234   3.794  0.4622 -0.7623 -0.4044
 8222SOL    HW136128   1.070   2.248   3.882  0.4667 -1.7254 -0.2499
 8222SOL    HW236129   1.101   2.323   3.759 -0.2946  0.2568  2.2728
 8223SOL     OW36130   2.360   4.368  12.873  0.2473 -0.8204 -0.4539
 8223SOL    HW136131   2.359   4.440  12.810  1.4082  1.3507  2.0134
 8223SOL    HW236132   2.289   4.312  12.842 -0.8217 -0.1446  0.7788
 8224SOL     OW36133   0.771   0.664   7.340  0.5816 -0.3327 -0.4415
 8224SOL    HW136134   0.852   0.687   7.385  0.0878 -1.7006  1.1885
 8224SOL    HW236135   0.786   0.690   7.250 -2.2809  0.4822 -0.6906
 8225SOL     OW36136   2.189   1.885   1.024 -0.2743 -0.0539  0.3274
 8225SOL    HW136137   2.102   1.876   1.063  0.0474  1.4328  1.3705
 8225SOL    HW236138   2.230   1.802   1.048  0.1597  0.3565  1.0105
 8226SOL     OW36139   3.437   0.616   7.863 -0.4112 -0.0365  0.2916
 8226SOL    HW136140   3.513   0.572   7.826  0.3519  1.0391  0.5465
 8226SOL    HW236141   3.384   0.624   7.784 -0.7565  0.6529  0.5853
 8227SOL     OW36142   2.440   0.781  14.186  0.3884 -0.0084 -0.2930
 8227SOL    HW136143   2.358   0.806  14.144  0.7074  1.0169 -0.3086
 8227SOL    HW236144   2.478   0.864  14.216  0.9223 -0.7406  1.0754
 8228SOL     OW36145   2.030   1.911  13.716 -0.3036 -0.8626  0.1318
 8228SOL    HW136146   1.961   1.861  13.672 -2.5120 -0.8108  3.5198
 8228SOL    HW236147   2.022   1.999  13.679  0.0829 -1.6746 -1.8864
 8229SOL     OW36148   1.896   3.874   4.947  0.4633 -0.8651 -0.3619
 8229SOL    HW136149   1.809   3.842   4.922  0.7331 -1.4713 -0.5100
 8229SOL    HW236150   1.941   3.827   4.877  2.0862  2.1790 -1.3433
 8230SOL     OW36151   4.562   2.676   5.802 -0.0323  0.2420 -0.3606
 8230SOL    HW136152   4.573   2.706   5.892 -3.3020 -1.6186  0.6522
 8230SOL    HW236153   4.468   2.677   5.785 -0.1717  1.0747  0.4332
 8231SOL     OW36154   2.443   4.002   5.648  0.4369 -0.8201  0.3485
 8231SOL    HW136155   2.468   4.093   5.631  0.0257 -0.9529 -0.9809
 8231SOL    HW236156   2.388   4.021   5.724 -2.4718 -2.0706 -1.4431
 8232SOL     OW36157   0.075   0.960   4.078  0.4615  0.1355 -0.2926
 8232SOL    HW136158   0.096   0.935   4.167 -2.2863 -2.5840 -0.3883
 8232SOL    HW236159   0.071   1.055   4.085 -0.6777 -0.1257  2.4926
 8233SOL     OW36160   4.288   2.749   8.595 -0.1833  0.3293  0.4755
 8233SOL    HW136161   4.370   2.766   8.550 -0.5134  0.9472  0.1003
 8233SOL    HW236162   4.324   2.702   8.670  0.8192 -2.1436 -1.5543
 8234SOL     OW36163   3.516   1.792  13.924  0.4877 -0.2751 -0.3422
 8234SOL    HW136164   3.486   1.765  13.837  4.0690 -0.8367 -1.4294
 8234SOL    HW236165   3.440   1.839  13.957 -1.2406 -3.0358 -0.4031
 8235SOL     OW36166   1.158   2.477   4.096  0.3278 -0.4088 -0.3376
 8235SOL    HW136167   1.063   2.475   4.107  0.3469  0.3780  0.0007
 8235SOL    HW236168   1.176   2.425   4.175 -2.7325  0.2649  0.8150
 8236SOL     OW36169   1.066   3.932   9.804 -0.0571 -0.1043  0.0537
 8236SOL    HW136170   1.066   4.007   9.745 -1.4602 -0.5912 -0.5472
 8236SOL    HW236171   1.136   3.948   9.868 -2.4538  0.9372  2.4002
 8237SOL     OW36172   0.091   1.241   9.325 -0.4506  0.3717  0.3403
 8237SOL    HW136173   0.071   1.158   9.281 -1.0087  0.6224  0.1237
 8237SOL    HW236174   0.014   1.295   9.308  0.6218  1.5245 -0.8728
 8238SOL     OW36175   4.286   2.379  17.302  0.3728 -0.2000 -0.5939
 8238SOL    HW136176   4.264   2.470  17.320 -0.6778 -0.5068 -0.3743
 8238SOL    HW236177   4.334   2.372  17.385  0.0620 -3.6540 -0.7194
 8239SOL     OW36178   0.875   0.953  12.598  0.2902  0.3606 -0.1806
 8239SOL    HW136179   0.805   0.890  12.618  0.5256  0.1275 -0.0968
 8239SOL    HW236180   0.843   1.026  12.651  1.2377  1.2599 -0.8593
 8240SOL     OW36181   1.578   0.280   5.375  0.1223 -0.2928  0.0578
 8240SOL    HW136182   1.499   0.227   5.386 -0.0770 -0.0145 -0.0381
 8240SOL    HW236183   1.547   0.364   5.342  1.0257 -0.9050 -2.3424
 8241SOL     OW36184   0.579   1.599  12.518 -0.3244 -0.1669  0.2936
 8241SOL    HW136185   0.640   1.542  12.470  1.2020 -0.1687  2.2261
 8241SOL    HW236186   0.545   1.532  12.577 -1.8492  0.6571  0.3532
 8242SOL     OW36187   1.284   4.293   8.942 -0.9564  0.3527 -0.3480
 8242SOL    HW136188   1.269   4.308   8.849  3.8655  0.3489 -1.1149
 8242SOL    HW236189   1.230   4.367   8.969  1.6043  2.5456 -1.2055
 8243SOL     OW36190   1.456   1.792   2.672  0.0218  0.4625 -0.4712
 8243SOL    HW136191   1.540   1.760   2.703  0.3911  0.1145 -1.8200
 8243SOL    HW236192   1.478   1.830   2.587  0.2628  0.4775 -0.4013
 8244SOL     OW36193   0.040   4.568   9.541 -0.1985 -0.4831 -0.0698
 8244SOL    HW136194   0.094   4.625   9.596 -1.4322 -0.9823  1.6580
 8244SOL    HW236195   0.014   4.505   9.608  1.1583  0.2490  1.1408
 8245SOL     OW36196   4.362   3.020  14.200 -0.6279  0.3970 -0.0018
 8245SOL    HW136197   4.441   3.035  14.251 -2.2905 -1.8286  3.1642
 8245SOL    HW236198   4.353   2.927  14.216 -1.0924  0.3536 -0.5127
 8246SOL     OW36199   0.432   4.220   0.173  0.0840 -0.6032  0.3233
 8246SOL    HW136200   0.409   4.297   0.121 -1.0931 -2.1149 -1.4008
 8246SOL    HW236201   0.385   4.250   0.250  1.3390  2.4967 -0.1163
 8247SOL     OW36202   3.761   4.130  13.439  0.4263  0.7012 -0.3653
 8247SOL    HW136203   3.723   4.144  13.353 -1.8432  0.8640  0.6463
 8247SOL    HW236204   3.823   4.203  13.448 -1.1541  2.0068  0.0667
 8248SOL     OW36205   3.666   1.744  16.538  0.0225 -0.0239 -0.4755
 8248SOL    HW136206   3.739   1.685  16.523 -1.0760 -1.1654 -1.3639
 8248SOL    HW236207   3.716   1.821  16.566  2.3133 -1.5812 -0.3144
 8249SOL     OW36208   2.163   0.495   0.758  0.0096 -0.8500  0.2517
 8249SOL    HW136209   2.073   0.527   0.755  0.0048 -0.8430  0.4999
 8249SOL    HW236210   2.194   0.528   0.843 -0.1732 -0.7499  0.2803
 8250SOL     OW36211   4.264   0.351  10.915 -0.1108 -0.4889  0.2894
 8250SOL    HW136212   4.346   0.303  10.909 -0.2411 -0.6571 -0.1027
 8250SOL    HW236213   4.288   0.406  10.990  1.3506  0.6229 -0.9736
 8251SOL     OW36214   2.131   1.333   9.170  0.0066 -0.4422  0.2903
 8251SOL    HW136215   2.077   1.254   9.173  0.8202 -1.0150 -0.1986
 8251SOL    HW236216   2.061   1.396   9.155  0.3028  0.1726  1.5041
 8252SOL     OW36217   3.596   2.299  15.436  0.1289  0.2265 -0.2416
 8252SOL    HW136218   3.647   2.219  15.427  0.6941  0.8354 -2.4689
 8252SOL    HW236219   3.665   2.359  15.465  1.1724 -1.4190  0.6552
 8253SOL     OW36220   4.445   0.621   6.036  0.2083  0.5019 -0.2521
 8253SOL    HW136221   4.534   0.599   6.008  0.2171 -1.0581  0.9914
 8253SOL    HW236222   4.440   0.546   6.095 -0.5068  0.3068 -0.5573
 8254SOL     OW36223   1.349   3.130   6.863 -0.1943  0.0336 -0.1472
 8254SOL    HW136224   1.346   3.044   6.822  1.5420 -0.4723  0.7888
 8254SOL    HW236225   1.368   3.190   6.791  1.6105  0.6884  0.8641
 8255SOL     OW36226   1.667   0.947   7.249 -0.8541  0.1292  0.8523
 8255SOL    HW136227   1.750   0.949   7.202 -0.7243 -2.6280  0.9637
 8255SOL    HW236228   1.683   0.888   7.322  2.4707  0.0789  0.0985
 8256SOL     OW36229   1.294   1.237  10.097 -0.4812 -0.3161  0.8230
 8256SOL    HW136230   1.251   1.173  10.040 -2.0799  0.2167  1.4244
 8256SOL    HW236231   1.286   1.320  10.050 -1.4798 -0.9272 -0.0664
 8257SOL     OW36232   0.939   0.257   7.835  0.0381 -0.1487 -0.3705
 8257SOL    HW136233   1.009   0.210   7.790  0.3353  0.4695 -0.5641
 8257SOL    HW236234   0.874   0.190   7.854 -0.4674  0.3881 -0.2274
 8258SOL     OW36235   0.583   4.603   1.611  0.2131  0.0715 -0.0504
 8258SOL    HW136236   0.555   4.694   1.604  0.7357  0.2935  0.7117
 8258SOL    HW236237   0.554   4.585   1.700 -0.4463 -1.3602 -0.5592
 8259SOL     OW36238   0.815   2.430   5.981 -0.3234  0.2264 -0.1659
 8259SOL    HW136239   0.722   2.452   5.978 -0.5976 -0.7780  1.0278
 8259SOL    HW236240   0.821   2.345   5.937  1.6634 -1.4479  3.4044
 8260SOL     OW36241   0.928   1.142   8.060  0.7598  0.9503 -0.4944
 8260SOL    HW136242   1.003   1.082   8.056 -1.3369 -1.6166 -1.4979
 8260SOL    HW236243   0.963   1.230   8.076  2.3703  0.5632 -1.8879
 8261SOL     OW36244   3.313   1.852   0.602 -0.4730  0.0785 -0.5044
 8261SOL    HW136245   3.281   1.936   0.636  1.0215  0.3356  0.2885
 8261SOL    HW236246   3.229   1.810   0.584 -1.4863  1.3136  1.2642
 8262SOL     OW36247   2.822   3.813   4.458 -0.1367 -0.0133 -0.2839
 8262SOL    HW136248   2.865   3.812   4.373  0.3068 -0.8035 -0.0510
 8262SOL    HW236249   2.907   3.798   4.500 -0.9383 -3.0769  0.2090
 8263SOL     OW36250   1.461   0.968   9.153 -0.4026 -0.2726  0.1798
 8263SOL    HW136251   1.426   1.008   9.233 -2.1434  1.0845 -1.2444
 8263SOL    HW236252   1.386   0.972   9.093 -0.3378  1.1699  0.1780
 8264SOL     OW36253   0.213   0.522   5.178  0.1509 -0.0208  0.4988
 8264SOL    HW136254   0.160   0.573   5.239  0.8233  1.0522  0.1745
 8264SOL    HW236255   0.149   0.457   5.147  1.6728 -0.8496 -0.8616
 8265SOL     OW36256   4.586   2.249   9.097 -0.3344  0.2372  0.1114
 8265SOL    HW136257   4.588   2.155   9.114  0.8627 -0.1693 -2.2375
 8265SOL    HW236258   4.568   2.286   9.183 -2.1559 -1.8697  0.6142
 8266SOL     OW36259   4.707   4.643   5.173  0.0785 -0.1009  0.0382
 8266SOL    HW136260   0.053   4.574   5.169  1.0453  0.9302 -1.8974
 8266SOL    HW236261   4.703   4.682   5.086 -3.0252 -1.3056 -0.3447
 8267SOL     OW36262   3.061   2.994  13.766  0.2125  0.1131  0.2704
 8267SOL    HW136263   3.090   2.937  13.837  0.3758 -2.2894 -1.7089
 8267SOL    HW236264   3.011   2.932  13.713  1.9840 -1.0543 -0.0569
 8268SOL     OW36265   1.657   1.370   8.606 -0.2391 -0.5942  0.0123
 8268SOL    HW136266   1.723   1.387   8.672  0.9853  1.7190 -1.8036
 8268SOL    HW236267   1.706   1.404   8.531 -1.4045  0.2392 -0.3839
 8269SOL     OW36268   2.800   0.734  10.889 -0.6045  0.4680 -1.0966
 8269SOL    HW136269   2.857   0.771  10.821  0.6724  1.8400  0.7336
 8269SOL    HW236270   2.763   0.656  10.847  0.4192 -1.0193  0.7762
 8270SOL     OW36271   2.912   0.876   8.710 -0.3832 -0.2897 -0.6003
 8270SOL    HW136272   2.964   0.840   8.639 -0.1378 -0.8580 -0.1256
 8270SOL    HW236273   2.970   0.901   8.782  2.0075 -1.0904 -2.2826
 8271SOL     OW36274   0.807   4.608   9.164  0.8902 -0.2294 -0.6636
 8271SOL    HW136275   0.736   4.670   9.184 -1.3667 -2.8199 -0.5893
 8271SOL    HW236276   0.800   4.598   9.069  0.3934  3.2758 -1.0306
 8272SOL     OW36277   3.637   1.097   2.874 -0.1642 -0.2620 -0.0768
 8272SOL    HW136278   3.660   1.189   2.858  0.8228 -0.1207  2.1959
 8272SOL    HW236279   3.624   1.063   2.785  0.7091  1.3484 -0.8247
 8273SOL     OW36280   4.387   4.525   1.324  0.3342  0.5576 -0.4506
 8273SOL    HW136281   4.328   4.467   1.274  1.9413 -0.2960 -1.3647
 8273SOL    HW236282   4.392   4.494   1.414  1.0514 -1.4474 -1.1637
 8274SOL     OW36283   1.940   0.686   2.413  0.0239  0.2255 -0.1001
 8274SOL    HW136284   1.877   0.622   2.380  0.1689 -0.9821  1.9542
 8274SOL    HW236285   2.024   0.664   2.372  0.2532  1.4614 -0.3014
 8275SOL     OW36286   3.738   4.085   3.773  0.2790 -0.3847  0.3930
 8275SOL    HW136287   3.794   4.132   3.835  1.6304 -1.3167 -0.1167
 8275SOL    HW236288   3.804   4.061   3.708 -1.9175  1.3677 -2.4467
 8276SOL     OW36289   3.310   3.984   8.912  0.2211 -0.1954 -0.0783
 8276SOL    HW136290   3.296   3.931   8.992 -0.3891  1.5504  0.9669
 8276SOL    HW236291   3.385   4.033   8.946 -0.0615  0.4980 -0.4794
 8277SOL     OW36292   3.138   2.507  12.363 -0.0478  0.0320  0.1842
 8277SOL    HW136293   3.068   2.537  12.305 -0.8359  1.2727  1.7783
 8277SOL    HW236294   3.204   2.484  12.298 -0.1013  1.9034 -0.5446
 8278SOL     OW36295   0.169   2.268   7.234 -0.1165 -0.4461 -0.6917
 8278SOL    HW136296   0.143   2.198   7.294 -0.7985  0.0565 -0.4060
 8278SOL    HW236297   0.229   2.219   7.178  1.0691 -0.6949  0.8068
 8279SOL     OW36298   3.299   1.279  14.698  0.1094  0.0273  0.6220
 8279SOL    HW136299   3.277   1.318  14.782  0.5115 -0.1957  0.8326
 8279SOL    HW236300   3.235   1.208  14.695 -0.4613  0.5798 -0.3419
 8280SOL     OW36301   3.462   2.024   5.932  0.4474  0.2698  0.1302
 8280SOL    HW136302   3.461   2.048   6.025  3.9061 -0.8102  0.4551
 8280SOL    HW236303   3.538   2.075   5.903  0.7827 -0.4488 -0.2465
 8281SOL     OW36304   1.112   2.854  14.686  0.1530  0.1848  0.9801
 8281SOL    HW136305   1.096   2.837  14.779  0.5401 -0.1802  0.9801
 8281SOL    HW236306   1.040   2.812  14.638  0.9058  1.3359 -1.1419
 8282SOL     OW36307   3.135   3.106   9.816  0.0615  0.0678  0.3421
 8282SOL    HW136308   3.202   3.051   9.777  1.0077  0.2329  1.7476
 8282SOL    HW236309   3.187   3.174   9.858 -1.3969  0.5331  1.4301
 8283SOL     OW36310   1.263   3.916   3.330 -0.1266 -0.4223 -0.5361
 8283SOL    HW136311   1.228   3.845   3.383 -0.0047  1.0904  1.5738
 8283SOL    HW236312   1.338   3.868   3.295 -0.3157 -0.6288 -0.6561
 8284SOL     OW36313   2.029   3.428   5.923 -0.0554  0.3307 -0.3892
 8284SOL    HW136314   2.018   3.349   5.976  0.3691 -0.7853 -1.9543
 8284SOL    HW236315   2.040   3.497   5.988 -1.3323 -0.8665  1.1187
 8285SOL     OW36316   1.660   2.928   6.389  0.3327 -0.5223  0.4007
 8285SOL    HW136317   1.572   2.891   6.382  0.6104 -1.4922  2.0212
 8285SOL    HW236318   1.688   2.912   6.479  0.3233  1.6789  0.7925
 8286SOL     OW36319   1.137   3.614   6.509  0.4178  0.8020  0.1974
 8286SOL    HW136320   1.223   3.588   6.476  0.5776 -1.0132  2.0982
 8286SOL    HW236321   1.137   3.591   6.602 -1.4274  0.7789  0.1933
 8287SOL     OW36322   0.422   3.436   7.000  0.2957 -0.1363 -0.1032
 8287SOL    HW136323   0.437   3.530   7.002 -1.6925  0.2410 -2.1984
 8287SOL    HW236324   0.399   3.417   6.909  0.5397 -0.3241 -0.1265
 8288SOL     OW36325   1.817   3.826   8.430 -0.2731  0.0312  0.0943
 8288SOL    HW136326   1.775   3.885   8.368 -0.0641  0.1411  0.0577
 8288SOL    HW236327   1.741   3.775   8.457 -0.0342 -1.2102 -1.5404
 8289SOL     OW36328   4.213   2.778  16.321  0.3819  0.0201  0.2605
 8289SOL    HW136329   4.302   2.745  16.327 -0.0262 -1.1638 -0.2611
 8289SOL    HW236330   4.183   2.747  16.235 -0.1954 -3.2621  1.6787
 8290SOL     OW36331   0.030   0.099   7.923 -0.6045 -0.3659 -0.1240
 8290SOL    HW136332   4.688   0.118   7.993 -0.9152 -1.9511  0.0447
 8290SOL    HW236333   4.711   0.015   7.896 -1.0669  0.2866 -1.5022
 8291SOL     OW36334   0.994   1.242  17.400  0.0181  0.2184 -0.0094
 8291SOL    HW136335   1.058   1.229  17.330  0.5907 -0.1153  0.5699
 8291SOL    HW236336   0.974   1.149  17.410 -1.2668  0.3230 -1.7306
 8292SOL     OW36337   0.233   0.494   3.052 -0.5379 -0.3430 -0.2075
 8292SOL    HW136338   0.211   0.419   2.996  0.3172 -1.9394  1.5867
 8292SOL    HW236339   0.191   0.464   3.132  0.2910  0.6589  0.6051
 8293SOL     OW36340   4.218   3.876   0.442 -0.1415  0.0791  0.0085
 8293SOL    HW136341   4.265   3.885   0.359 -1.2196 -0.4864 -0.6616
 8293SOL    HW236342   4.253   3.795   0.479  3.0443  0.6959 -1.6304
 8294SOL     OW36343   3.628   0.011   1.365  0.1472  0.4795 -0.1185
 8294SOL    HW136344   3.651   4.712   1.456 -1.5077  0.9362  0.3865
 8294SOL    HW236345   3.700   4.692   1.315 -1.4357 -2.0090 -0.4714
 8295SOL     OW36346   2.778   1.453   6.214 -0.0935 -0.1020  0.1769
 8295SOL    HW136347   2.806   1.526   6.269  0.7954 -1.6545  1.7953
 8295SOL    HW236348   2.689   1.485   6.196 -0.5135 -1.6907 -0.5248
 8296SOL     OW36349   0.073   1.102   2.218 -0.6370 -0.1370  0.1182
 8296SOL    HW136350   0.036   1.075   2.302  0.7217 -1.0974  0.4084
 8296SOL    HW236351   0.029   1.187   2.211 -1.1664 -0.6600 -2.7094
 8297SOL     OW36352   0.841   1.325  14.859 -0.1786  0.5175 -0.0209
 8297SOL    HW136353   0.834   1.236  14.824 -1.6178  0.7049 -0.1863
 8297SOL    HW236354   0.887   1.377  14.792  1.8517  0.7242  1.5354
 8298SOL     OW36355   2.988   0.994   7.695 -0.6343 -0.2175  0.0448
 8298SOL    HW136356   2.974   0.908   7.656  0.9891 -0.7165  0.5441
 8298SOL    HW236357   2.932   1.044   7.636 -0.5895  0.3746  0.4990
 8299SOL     OW36358   3.293   3.117   7.296 -0.3995  0.1240  0.0719
 8299SOL    HW136359   3.212   3.127   7.245  0.5042 -0.1200 -1.4087
 8299SOL    HW236360   3.258   3.064   7.368 -1.7585 -0.2544 -0.8579
 8300SOL     OW36361   2.761   3.213  12.814  0.1251 -0.4534  0.1320
 8300SOL    HW136362   2.827   3.146  12.796  0.0318 -0.5738  0.2329
 8300SOL    HW236363   2.705   3.219  12.737  2.9564  2.0739 -1.7363
 8301SOL     OW36364   1.702   1.770   3.256  0.2475  0.2318 -0.2597
 8301SOL    HW136365   1.686   1.864   3.250 -1.7438 -0.2916 -3.0370
 8301SOL    HW236366   1.794   1.768   3.283 -0.6681 -0.1127  2.8495
 8302SOL     OW36367   2.019   0.374   2.832  0.5920 -0.2226  0.3450
 8302SOL    HW136368   1.987   0.462   2.852  2.1619  0.5865 -0.7407
 8302SOL    HW236369   2.112   0.386   2.811 -0.2497  3.1603 -1.3683
 8303SOL     OW36370   2.950   1.018   8.136 -0.5180 -0.5410 -0.2605
 8303SOL    HW136371   2.928   0.926   8.148  1.4934 -1.0953 -0.9392
 8303SOL    HW236372   2.912   1.061   8.213  0.7580 -2.8022  1.5899
 8304SOL     OW36373   2.043   1.867   5.956  0.6896  0.4379 -0.2623
 8304SOL    HW136374   2.106   1.907   6.017 -0.0565  3.3177 -1.3469
 8304SOL    HW236375   2.079   1.779   5.952 -0.9725 -0.2001 -0.8303
 8305SOL     OW36376   4.261   0.807   3.956  0.3639  0.4029  0.2892
 8305SOL    HW136377   4.278   0.885   4.008 -1.2144  0.2764  0.9908
 8305SOL    HW236378   4.279   0.831   3.865  2.6584 -0.1554  0.6137
 8306SOL     OW36379   2.055   0.277   5.204  0.1812 -0.0720 -0.7627
 8306SOL    HW136380   2.097   0.193   5.190 -0.8998 -0.8444  0.6977
 8306SOL    HW236381   2.011   0.289   5.120  0.4788  1.2522 -0.7346
 8307SOL     OW36382   0.874   2.912  15.860  0.4953 -0.3757  0.6102
 8307SOL    HW136383   0.848   2.956  15.779  0.8273 -0.9274  0.2070
 8307SOL    HW236384   0.931   2.841  15.832  0.9994  0.7099 -1.1574
 8308SOL     OW36385   1.123   1.430   6.981 -0.3530  0.4351 -0.5613
 8308SOL    HW136386   1.117   1.499   7.047  0.8595 -0.1927  0.2078
 8308SOL    HW236387   1.199   1.465   6.935  2.1861 -1.5421  2.0979
 8309SOL     OW36388   4.201   1.505   3.185 -0.4926 -0.1030  0.0246
 8309SOL    HW136389   4.274   1.461   3.141  0.3197  2.8668 -1.5866
 8309SOL    HW236390   4.209   1.589   3.140  0.2046 -0.5723 -0.7277
 8310SOL     OW36391   1.427   4.314   7.668  0.6365  0.7549 -0.4075
 8310SOL    HW136392   1.423   4.234   7.616 -2.1989  1.8002 -1.8174
 8310SOL    HW236393   1.434   4.276   7.755  0.2086 -0.3120 -0.8451
 8311SOL     OW36394   2.080   0.812   9.795  0.0798  0.3360 -0.0480
 8311SOL    HW136395   2.145   0.804   9.864 -0.7682  1.7130  0.9064
 8311SOL    HW236396   2.125   0.846   9.718  0.5959  0.5581  0.3549
 8312SOL     OW36397   0.169   3.271   3.875 -0.0398  0.2563 -0.5505
 8312SOL    HW136398   0.238   3.296   3.936 -0.9409  1.0969  0.1285
 8312SOL    HW236399   0.087   3.296   3.918  0.3878 -0.4887  0.6941
 8313SOL     OW36400   1.514   1.746   3.508 -0.0499 -0.1264  0.0936
 8313SOL    HW136401   1.563   1.737   3.426  1.0900 -1.4131  0.9330
 8313SOL    HW236402   1.545   1.832   3.536  0.4197 -0.1594 -0.3383
 8314SOL     OW36403   0.808   0.888  14.353  0.4972  0.1799  0.0088
 8314SOL    HW136404   0.884   0.896  14.412  1.0855  1.8861 -0.9850
 8314SOL    HW236405   0.847   0.930  14.276  0.4134  2.5607  1.2519
 8315SOL     OW36406   0.692   4.235   8.555  0.2010  0.2540  0.9364
 8315SOL    HW136407   0.702   4.244   8.460 -1.7454  0.8540  0.7937
 8315SOL    HW236408   0.775   4.262   8.594  1.8431 -1.1841 -1.5456
 8316SOL     OW36409   4.519   3.357   7.863 -0.0464  0.7460  0.0556
 8316SOL    HW136410   4.564   3.273   7.865 -1.3165  0.0674  0.0250
 8316SOL    HW236411   4.429   3.330   7.844  0.5937  0.0807 -2.0062
 8317SOL     OW36412   0.763   3.617   7.093 -0.7925 -0.3241 -0.1472
 8317SOL    HW136413   0.729   3.701   7.061  1.7803  1.5785  2.1295
 8317SOL    HW236414   0.843   3.639   7.140 -0.4786 -1.6089 -0.0941
 8318SOL     OW36415   4.689   2.136   2.495 -0.3282 -0.2218  0.0581
 8318SOL    HW136416   0.035   2.201   2.473 -0.9971  0.0366 -1.2034
 8318SOL    HW236417   4.680   2.101   2.407  0.3246  0.4160 -0.2601
 8319SOL     OW36418   2.511   4.394   4.469  0.4307  0.2049  0.0002
 8319SOL    HW136419   2.511   4.299   4.474  1.3666  0.1482 -0.9564
 8319SOL    HW236420   2.606   4.405   4.463  0.5461 -0.7090  0.1245
 8320SOL     OW36421   1.016   0.930   5.666  0.5039  0.1733  0.2971
 8320SOL    HW136422   1.058   0.908   5.749  0.6204 -0.3689  0.0940
 8320SOL    HW236423   0.957   1.002   5.689 -1.6732 -1.2227 -0.8441
 8321SOL     OW36424   0.098   2.301   7.874  0.1716  0.6774 -0.1450
 8321SOL    HW136425   0.153   2.224   7.889 -2.2505 -1.3075 -1.3617
 8321SOL    HW236426   0.019   2.264   7.834 -0.1430 -1.1492  2.1796
 8322SOL     OW36427   3.968   3.806   6.627  0.2111 -0.2881 -0.7473
 8322SOL    HW136428   3.880   3.773   6.607  0.2612 -0.4742 -0.6554
 8322SOL    HW236429   4.024   3.730   6.618  3.0716  1.8013 -0.6777
 8323SOL     OW36430   3.699   2.333   2.697 -0.6005  0.0565 -0.6416
 8323SOL    HW136431   3.792   2.330   2.718 -1.1796 -1.9449  1.5995
 8323SOL    HW236432   3.697   2.387   2.618  1.9898  2.9135  1.2685
 8324SOL     OW36433   2.120   1.049   3.323  0.4357 -0.1458  0.6803
 8324SOL    HW136434   2.151   0.970   3.368  1.2621  0.2197  0.7546
 8324SOL    HW236435   2.059   1.076   3.391 -0.8502 -2.4794  0.4477
 8325SOL     OW36436   0.942   4.370   1.406  0.6877  0.5600  0.2168
 8325SOL    HW136437   0.890   4.411   1.476 -1.7943 -0.5369 -0.9597
 8325SOL    HW236438   0.906   4.282   1.400  1.8218  0.2519 -1.6745
 8326SOL     OW36439   2.199   1.532   4.976  0.0085  0.2897  0.2249
 8326SOL    HW136440   2.237   1.487   5.052  1.2857 -0.3060 -0.7596
 8326SOL    HW236441   2.194   1.455   4.919 -1.8116  2.7237 -2.8794
 8327SOL     OW36442   3.905   3.616   3.431 -0.2247  0.3948  0.2479
 8327SOL    HW136443   3.928   3.676   3.360 -3.5557 -1.2434 -2.1688
 8327SOL    HW236444   3.816   3.641   3.456 -0.7243 -1.3583  0.2247
 8328SOL     OW36445   3.682   3.706   3.813 -0.3348 -0.3130  0.0066
 8328SOL    HW136446   3.660   3.683   3.723  0.1843  2.7582 -0.8924
 8328SOL    HW236447   3.627   3.783   3.830  1.3971  0.6726  1.1082
 8329SOL     OW36448   0.572   2.844  10.852  0.1059 -0.0917 -0.0108
 8329SOL    HW136449   0.497   2.901  10.866 -0.3953 -1.3004  2.2403
 8329SOL    HW236450   0.637   2.899  10.809  0.2991 -0.6361 -0.4195
 8330SOL     OW36451   0.503   4.647   9.531 -0.2817  0.0857 -0.3452
 8330SOL    HW136452   0.445   4.588   9.580  0.6157 -0.1719  0.4014
 8330SOL    HW236453   0.446   4.708   9.484 -0.6455  0.3137  0.3890
 8331SOL     OW36454   4.652   3.660   3.046 -0.2783 -0.5275 -0.2406
 8331SOL    HW136455   4.705   3.649   2.967 -1.7019 -2.9924 -0.8710
 8331SOL    HW236456   4.683   3.746   3.073 -1.0096  0.1584 -1.5553
 8332SOL     OW36457   0.449   2.670   3.660  0.2738 -0.7734  0.3457
 8332SOL    HW136458   0.470   2.763   3.673 -0.6511 -0.4870 -0.2419
 8332SOL    HW236459   0.536   2.630   3.670  0.6694  0.4590  1.9511
 8333SOL     OW36460   4.083   0.982   1.957 -0.0097  0.7116  0.1098
 8333SOL    HW136461   4.168   0.940   1.947 -0.1178  0.6591 -0.5878
 8333SOL    HW236462   4.035   0.952   1.880  2.5554  2.6953 -2.2744
 8334SOL     OW36463   2.598   1.941   5.937  0.1113 -0.1722  0.4924
 8334SOL    HW136464   2.692   1.920   5.940  0.6823  1.9384 -2.0403
 8334SOL    HW236465   2.562   1.891   6.009  0.5497 -1.4922 -0.2102
 8335SOL     OW36466   0.257   0.955   6.963 -0.1425  0.2625  0.5411
 8335SOL    HW136467   0.315   0.990   6.896  0.8455 -2.0311  0.1878
 8335SOL    HW236468   0.201   1.027   6.991  2.2722  2.6131 -0.7112
 8336SOL     OW36469   0.293   0.767   8.038  0.3951 -0.4357 -0.1798
 8336SOL    HW136470   0.322   0.773   7.947  1.5720 -0.9671  0.1557
 8336SOL    HW236471   0.381   0.777   8.076  0.4358  1.6425 -0.8276
 8337SOL     OW36472   3.673   0.756   2.761  0.3385 -0.2179 -0.0401
 8337SOL    HW136473   3.688   0.768   2.855  1.7894 -0.8167 -0.1946
 8337SOL    HW236474   3.611   0.685   2.771 -0.7892  0.9949  1.5692
 8338SOL     OW36475   0.946   2.179   5.311  0.4248 -0.1961  0.4966
 8338SOL    HW136476   0.912   2.146   5.228 -3.2589  0.9701  1.5523
 8338SOL    HW236477   1.036   2.202   5.289  0.7020 -0.0004  1.8325
 8339SOL     OW36478   4.390   1.017   3.419  0.5637  0.1472  0.2633
 8339SOL    HW136479   4.458   0.965   3.378  0.9334  1.5902 -0.9242
 8339SOL    HW236480   4.401   1.102   3.378  1.5375  0.0355  0.3058
 8340SOL     OW36481   4.469   4.095   9.095 -0.1374 -0.3315 -0.1666
 8340SOL    HW136482   4.547   4.139   9.061  0.3661  1.0386  2.7245
 8340SOL    HW236483   4.504   4.037   9.162 -1.3863  0.6140  1.3156
 8341SOL     OW36484   1.449   2.714  12.279  0.5651 -0.3109 -0.0092
 8341SOL    HW136485   1.456   2.657  12.356 -0.2547  0.9678  1.0273
 8341SOL    HW236486   1.460   2.793  12.333  0.4760  0.0727 -0.5493
 8342SOL     OW36487   0.309   0.244  12.154  0.0353 -0.0737 -0.0885
 8342SOL    HW136488   0.271   0.256  12.241  1.5999 -3.0608  1.0228
 8342SOL    HW236489   0.385   0.196  12.188  0.7691 -0.3106 -2.0792
 8343SOL     OW36490   1.012   3.990  15.809 -0.1431  0.4113  0.0495
 8343SOL    HW136491   0.957   3.983  15.731 -1.5205  0.3038  1.0261
 8343SOL    HW236492   0.971   3.935  15.876 -0.9656  0.4405 -0.4242
 8344SOL     OW36493   0.418   2.848  17.041  0.4973  0.0779  0.1738
 8344SOL    HW136494   0.388   2.891  17.122  1.9764  0.8849  0.2863
 8344SOL    HW236495   0.400   2.918  16.978  0.1821  0.9643  1.2508
 8345SOL     OW36496   0.808   2.943  10.757 -0.1285 -0.2944 -0.6799
 8345SOL    HW136497   0.860   2.908  10.685  1.0129 -2.3775  1.1540
 8345SOL    HW236498   0.787   3.032  10.729  1.3042  0.0542 -0.6247
 8346SOL     OW36499   2.128   1.866   2.730 -0.3364 -0.1877  0.2168
 8346SOL    HW136500   2.101   1.785   2.687 -1.5258  0.8201 -0.9472
 8346SOL    HW236501   2.074   1.937   2.695  0.9904  0.1465 -1.1354
 8347SOL     OW36502   0.661   3.984  14.602 -0.2572 -0.2219  0.0572
 8347SOL    HW136503   0.672   4.025  14.516  2.6570 -1.2265 -0.0714
 8347SOL    HW236504   0.709   3.902  14.586  0.9131  0.1779  1.5047
 8348SOL     OW36505   2.526   0.839   6.086 -0.0222 -0.0043  0.2001
 8348SOL    HW136506   2.570   0.758   6.058  0.5456  0.9607 -1.7066
 8348SOL    HW236507   2.508   0.873   5.999 -0.8782  0.9839  0.7654
 8349SOL     OW36508   2.338   0.782   5.280 -0.5113  0.2471 -0.5204
 8349SOL    HW136509   2.414   0.727   5.262 -0.2040  0.4485  0.1586
 8349SOL    HW236510   2.351   0.850   5.212  0.5637 -1.7853 -2.3433
 8350SOL     OW36511   0.279   1.018   8.479 -0.4670 -0.3490  0.3808
 8350SOL    HW136512   0.322   1.088   8.430  0.7654 -1.6123 -0.3402
 8350SOL    HW236513   0.354   0.991   8.531  0.2823  0.1933 -0.4146
 8351SOL     OW36514   0.757   2.105   7.570  0.5053 -0.0007  0.6518
 8351SOL    HW136515   0.700   2.049   7.518 -1.3612  2.4829  0.0088
 8351SOL    HW236516   0.717   2.110   7.657 -2.4162  1.6714 -0.7946
 8352SOL     OW36517   2.125   1.951   2.448  0.7601  0.1737 -0.1266
 8352SOL    HW136518   2.071   1.923   2.374  3.1545 -0.4064 -1.6607
 8352SOL    HW236519   2.065   1.991   2.511  1.9001  1.3897  0.1959
 8353SOL     OW36520   0.950   2.523   7.865 -0.2792 -0.1328  0.0952
 8353SOL    HW136521   0.910   2.592   7.919  0.2801  0.4079 -0.1844
 8353SOL    HW236522   1.038   2.520   7.904  0.2708  1.3495 -1.0149
 8354SOL     OW36523   0.974   3.589   9.673  1.0270 -0.2868  0.0880
 8354SOL    HW136524   0.921   3.665   9.694  1.2945 -0.2007  0.4572
 8354SOL    HW236525   0.956   3.580   9.579  1.3886  1.6276 -0.1591
 8355SOL     OW36526   0.781   2.836   2.597 -0.1021 -0.2231  0.2255
 8355SOL    HW136527   0.801   2.752   2.555  1.1844 -0.4188  1.2265
 8355SOL    HW236528   0.861   2.884   2.574  0.2782 -0.8912  0.1351
 8356SOL     OW36529   2.250   4.572   2.586  0.2988 -0.5434  0.1988
 8356SOL    HW136530   2.220   4.613   2.667 -0.3435 -0.4419 -0.0837
 8356SOL    HW236531   2.291   4.649   2.546  0.6322  0.2714  2.1449
 8357SOL     OW36532   2.527   0.726   7.172 -0.3599 -0.1459 -0.2061
 8357SOL    HW136533   2.601   0.675   7.204  0.8857  0.6994 -1.7472
 8357SOL    HW236534   2.529   0.803   7.229 -0.6097 -0.1186 -0.2341
 8358SOL     OW36535   0.296   1.779   5.506  0.3101 -0.3252  0.0629
 8358SOL    HW136536   0.291   1.684   5.494  0.6611 -0.1247 -1.7779
 8358SOL    HW236537   0.388   1.800   5.487  0.1769  1.4558  1.4623
 8359SOL     OW36538   1.017   2.718  15.730 -0.0998  0.2561 -0.6316
 8359SOL    HW136539   0.947   2.682  15.675  1.0621 -2.5828 -0.2455
 8359SOL    HW236540   1.091   2.658  15.734  1.5192  2.2243 -1.2615
 8360SOL     OW36541   1.256   1.705   8.687 -0.0705 -0.0563 -0.2946
 8360SOL    HW136542   1.330   1.668   8.639  1.2300 -0.1424  1.7311
 8360SOL    HW236543   1.199   1.629   8.696 -1.6493  1.0682 -0.9091
 8361SOL     OW36544   1.619   0.338   1.922  0.2847 -0.2823  0.8271
 8361SOL    HW136545   1.694   0.316   1.867 -1.1295 -0.2630 -1.1121
 8361SOL    HW236546   1.667   0.349   2.005  1.2122 -2.1329  0.5499
 8362SOL     OW36547   4.653   2.340   5.791  0.8687 -0.3918 -0.1548
 8362SOL    HW136548   4.612   2.380   5.868  1.2944 -0.0202 -0.1276
 8362SOL    HW236549   0.011   2.295   5.821  1.6721  0.0402 -1.5688
 8363SOL     OW36550   4.520   4.219  13.227  0.1152  0.3789 -0.5124
 8363SOL    HW136551   4.538   4.213  13.321  1.0158 -1.3921 -0.8043
 8363SOL    HW236552   4.611   4.215  13.199  0.0533 -3.1286 -0.2328
 8364SOL     OW36553   4.659   4.274   4.272  0.5925 -0.4273  0.0014
 8364SOL    HW136554   4.565   4.254   4.269  0.8046 -1.4824  0.4426
 8364SOL    HW236555   4.682   4.212   4.203 -0.2290 -1.2084  0.4237
 8365SOL     OW36556   4.596   2.982   5.859 -0.2069  0.1259  0.0071
 8365SOL    HW136557   4.636   3.002   5.774 -1.0394  0.2882 -0.3480
 8365SOL    HW236558   4.563   3.067   5.886  0.2977  0.2765  0.1455
 8366SOL     OW36559   3.842   2.279   3.612 -0.0482  0.5985  0.0211
 8366SOL    HW136560   3.928   2.296   3.648  0.6289 -0.4020 -1.1182
 8366SOL    HW236561   3.864   2.254   3.522 -2.6301 -0.2222 -0.4070
 8367SOL     OW36562   2.357   3.897  11.441  0.6258 -0.2203 -0.6898
 8367SOL    HW136563   2.286   3.891  11.505  1.3383  0.1885  0.1448
 8367SOL    HW236564   2.388   3.987  11.450  0.7641 -0.1798 -1.5710
 8368SOL     OW36565   3.512   2.351   8.289  1.1209 -0.3375  0.0609
 8368SOL    HW136566   3.471   2.265   8.296  2.2954 -0.8420  0.8177
 8368SOL    HW236567   3.449   2.393   8.348  0.7665  1.7893 -1.8439
 8369SOL     OW36568   2.363   3.363   1.497 -0.8300 -0.2741  0.0639
 8369SOL    HW136569   2.398   3.280   1.464  0.9527  0.6309 -0.3570
 8369SOL    HW236570   2.319   3.415   1.429  0.9963 -1.2559 -1.8563
 8370SOL     OW36571   0.161   2.585   5.988  0.3449  0.0210  0.3282
 8370SOL    HW136572   0.173   2.631   6.071  0.3651  0.3516  0.1403
 8370SOL    HW236573   0.100   2.521   6.024 -1.4782  1.3020 -0.5071
 8371SOL     OW36574   2.392   0.317   8.290 -0.3577 -0.2675  0.2361
 8371SOL    HW136575   2.333   0.248   8.261 -2.6403  0.9937  1.8418
 8371SOL    HW236576   2.339   0.394   8.274 -0.3638 -0.1543  0.7945
 8372SOL     OW36577   0.666   2.865  16.409  0.1158 -0.1098  0.3858
 8372SOL    HW136578   0.719   2.945  16.416  0.0383 -0.0639  0.4441
 8372SOL    HW236579   0.645   2.841  16.499 -0.4291 -1.2892 -0.0608
 8373SOL     OW36580   3.222   2.747  13.189  0.0746 -0.4696  0.6105
 8373SOL    HW136581   3.290   2.686  13.219  0.7185  0.3907  0.8912
 8373SOL    HW236582   3.149   2.685  13.190 -0.6401  0.3543 -0.9315
 8374SOL     OW36583   3.477   2.305  10.040  0.2047 -0.0506  0.6292
 8374SOL    HW136584   3.509   2.368   9.976  1.3761 -0.2412  1.0180
 8374SOL    HW236585   3.403   2.275   9.988 -1.9135 -0.6283  3.9526
 8375SOL     OW36586   0.032   3.594  14.159 -0.5517 -0.0098  0.8195
 8375SOL    HW136587   0.039   3.687  14.177 -0.9340 -0.1509  1.6797
 8375SOL    HW236588   0.109   3.578  14.104 -1.2892 -2.8492  0.5649
 8376SOL     OW36589   3.898   2.680  15.697  0.1836  0.0544 -0.0750
 8376SOL    HW136590   3.820   2.690  15.753  1.2601  0.8036  1.2923
 8376SOL    HW236591   3.925   2.772  15.698  1.7703 -0.4155 -0.1900
 8377SOL     OW36592   4.422   2.848   3.479 -0.5363  1.1527 -0.3445
 8377SOL    HW136593   4.461   2.848   3.567  0.5855 -2.5726 -0.8671
 8377SOL    HW236594   4.381   2.935   3.474 -1.1193  0.8713 -0.4794
 8378SOL     OW36595   0.978   0.120   9.372  0.6820  0.6960  0.4752
 8378SOL    HW136596   0.993   0.214   9.358 -2.4924  0.9286 -1.2788
 8378SOL    HW236597   0.964   0.115   9.467 -1.7123  0.8369  0.1289
 8379SOL     OW36598   1.218   3.407   2.120  0.0917  0.2809  0.4872
 8379SOL    HW136599   1.245   3.478   2.177  1.2104  1.2856 -1.2857
 8379SOL    HW236600   1.139   3.440   2.077 -0.5769 -0.9440  0.7692
 8380SOL     OW36601   4.388   3.132   8.020 -0.0793  0.3931  0.3397
 8380SOL    HW136602   4.315   3.187   7.993  0.5103  0.5110 -1.0465
 8380SOL    HW236603   4.418   3.094   7.937  0.6902  0.0247  0.7873
 8381SOL     OW36604   1.361   0.828   8.141  0.3651  0.7888  0.5703
 8381SOL    HW136605   1.420   0.892   8.102  1.7269 -0.5253  0.5013
 8381SOL    HW236606   1.404   0.807   8.223  0.9885 -0.1533 -0.0004
 8382SOL     OW36607   1.783   2.598   2.603  0.0705  0.1891  0.2567
 8382SOL    HW136608   1.719   2.649   2.553 -0.2367 -1.7671 -1.3725
 8382SOL    HW236609   1.735   2.577   2.683  0.0467  0.6782  0.3710
 8383SOL     OW36610   1.033   3.077   3.846  1.1702  0.8982 -0.2699
 8383SOL    HW136611   0.967   3.030   3.896 -0.2242  2.2823 -0.8044
 8383SOL    HW236612   0.998   3.166   3.854  0.5603  0.6313  0.0242
 8384SOL     OW36613   0.208   1.470   0.137  0.0082  0.4271 -0.0950
 8384SOL    HW136614   0.222   1.386   0.182 -0.9197 -1.2259 -2.9021
 8384SOL    HW236615   0.139   1.507   0.192  0.8019 -3.0520  3.2662
 8385SOL     OW36616   4.283   4.491   7.430 -0.8748 -0.4710  0.4361
 8385SOL    HW136617   4.298   4.545   7.353 -2.7797 -1.7488 -0.8518
 8385SOL    HW236618   4.354   4.511   7.491 -2.2525  1.0025  1.5390
 8386SOL     OW36619   0.677   0.250   6.886  0.2843 -0.3021 -0.0703
 8386SOL    HW136620   0.595   0.218   6.924  1.5298 -2.5343  0.7628
 8386SOL    HW236621   0.715   0.163   6.876  1.6015  0.0628  1.6478
 8387SOL     OW36622   4.595   3.573  12.189 -0.0844  0.3700  0.7013
 8387SOL    HW136623   4.590   3.666  12.169 -0.4487  0.0903 -0.4663
 8387SOL    HW236624   4.545   3.559  12.270 -0.2791  1.8975  0.8345
 8388SOL     OW36625   3.727   1.174   3.186 -0.5030  0.6596 -0.2602
 8388SOL    HW136626   3.734   1.265   3.157  0.0090  0.8576  0.4780
 8388SOL    HW236627   3.638   1.147   3.163 -1.2128  0.8968  2.1686
 8389SOL     OW36628   4.014   2.255   1.758 -0.5450 -0.4359  0.0056
 8389SOL    HW136629   4.101   2.280   1.728 -0.6562  0.7085  0.6239
 8389SOL    HW236630   3.970   2.339   1.768  0.2000 -0.0943  0.4554
 8390SOL     OW36631   3.486   1.708  16.322 -0.6189 -0.4193  0.2478
 8390SOL    HW136632   3.553   1.686  16.386 -2.1119  1.1400  2.3295
 8390SOL    HW236633   3.429   1.632  16.328  1.6562 -2.0779  0.9240
 8391SOL     OW36634   0.249   4.455   8.035 -0.2649  0.1134  0.6333
 8391SOL    HW136635   0.271   4.544   8.060  2.3848 -0.1949 -0.6222
 8391SOL    HW236636   0.318   4.404   8.078 -0.8669 -2.0925 -0.9635
 8392SOL     OW36637   1.966   0.623   2.918  0.0647 -0.1825  0.1071
 8392SOL    HW136638   1.931   0.642   2.832  3.4192  2.4692 -0.6790
 8392SOL    HW236639   2.000   0.710   2.938  0.9841  0.0525 -2.4988
 8393SOL     OW36640   3.448   2.466  13.068 -0.2509  0.3021  0.2232
 8393SOL    HW136641   3.465   2.547  13.019 -1.2817  0.3864 -0.0011
 8393SOL    HW236642   3.436   2.506  13.154  0.2758  2.9766 -0.9364
 8394SOL     OW36643   3.229   2.378  13.457 -0.0410 -0.2162  0.2739
 8394SOL    HW136644   3.244   2.433  13.534  1.9889 -1.2465  0.6115
 8394SOL    HW236645   3.204   2.295  13.498  0.5587 -0.5854 -0.1156
 8395SOL     OW36646   2.947   3.103   6.178 -0.3872  0.1259 -0.5069
 8395SOL    HW136647   2.952   3.010   6.201 -0.6122  0.5652  1.2969
 8395SOL    HW236648   2.856   3.125   6.198 -0.4118  0.8267 -1.3978
 8396SOL     OW36649   1.615   3.135   5.525 -0.3498 -0.3867 -0.1578
 8396SOL    HW136650   1.596   3.106   5.614  1.3355  1.4339  0.8067
 8396SOL    HW236651   1.676   3.207   5.542 -2.0565  1.0775 -0.2497
 8397SOL     OW36652   2.559   4.059  13.369  0.6115  0.4171  0.0797
 8397SOL    HW136653   2.655   4.057  13.370  0.6161 -0.0498 -0.8809
 8397SOL    HW236654   2.547   4.150  13.397 -0.1336  0.8715 -1.6885
 8398SOL     OW36655   4.031   1.737  16.359  0.2825  0.5781  0.1335
 8398SOL    HW136656   4.032   1.717  16.266  2.1676 -1.0288  0.4955
 8398SOL    HW236657   3.966   1.807  16.358 -1.0733 -0.6840  0.5802
 8399SOL     OW36658   0.390   0.020  15.664 -0.2501  0.3371 -0.1833
 8399SOL    HW136659   0.355   4.679  15.729  0.6316  2.7655  2.5726
 8399SOL    HW236660   0.313   0.077  15.665 -1.9287 -1.9085 -0.4482
 8400SOL     OW36661   1.787   3.968  14.203  0.1043 -0.2402 -0.0175
 8400SOL    HW136662   1.770   3.951  14.295  0.5431  0.5275  0.1993
 8400SOL    HW236663   1.834   4.051  14.205 -0.7374  0.2582 -0.8641
 8401SOL     OW36664   3.036   1.635   2.259  0.0360 -0.1295  0.4404
 8401SOL    HW136665   2.949   1.595   2.256  0.2940 -0.6506 -0.1342
 8401SOL    HW236666   3.100   1.575   2.220 -1.9001 -1.5546 -0.5609
 8402SOL     OW36667   1.996   3.648   6.112 -0.0059  0.0779 -0.0780
 8402SOL    HW136668   1.950   3.702   6.047 -0.4237 -1.8823 -1.4038
 8402SOL    HW236669   1.930   3.650   6.181  0.2698 -0.3295  0.1953
 8403SOL     OW36670   1.843   4.144   3.689  0.3124  0.2254 -0.1900
 8403SOL    HW136671   1.754   4.149   3.725  0.9361 -0.3206  1.4297
 8403SOL    HW236672   1.822   4.116   3.600  0.1101 -0.9115  0.2169
 8404SOL     OW36673   0.374   3.953   8.912  0.2786 -0.2610 -0.4164
 8404SOL    HW136674   0.458   3.908   8.904 -0.4800 -1.6675 -0.4430
 8404SOL    HW236675   0.375   3.961   9.007 -0.8494 -2.8764 -0.1995
 8405SOL     OW36676   3.110   0.254   4.069 -0.1578 -0.0864  0.1290
 8405SOL    HW136677   3.205   0.258   4.075 -0.1991 -0.6382  1.0779
 8405SOL    HW236678   3.090   0.228   4.159  1.9393  0.7316  0.8317
 8406SOL     OW36679   2.053   2.116  11.287  0.3742 -0.7564  0.0914
 8406SOL    HW136680   2.009   2.031  11.286  0.8108 -0.9730 -1.1344
 8406SOL    HW236681   2.142   2.084  11.304 -0.2032 -1.1246  2.3149
 8407SOL     OW36682   3.425   4.098   2.347 -0.3976 -0.6594 -0.5632
 8407SOL    HW136683   3.411   4.184   2.386  0.2475 -0.2847 -1.1708
 8407SOL    HW236684   3.366   4.038   2.393  0.8997 -0.3072  1.5370
 8408SOL     OW36685   3.006   1.708   8.946 -0.0846 -0.1189  0.2209
 8408SOL    HW136686   2.920   1.668   8.936 -0.0400 -0.5304  1.4498
 8408SOL    HW236687   2.989   1.802   8.947  2.2214  0.3103  0.6993
 8409SOL     OW36688   2.498   1.065  16.475 -0.0577 -0.1373 -0.2061
 8409SOL    HW136689   2.587   1.099  16.485 -0.6854  1.4958 -0.2354
 8409SOL    HW236690   2.517   0.971  16.466  4.9452  0.6945  1.6476
 8410SOL     OW36691   3.354   3.377   1.014  0.0073 -0.3623  0.3938
 8410SOL    HW136692   3.415   3.423   0.956  0.8380 -1.4111  0.4151
 8410SOL    HW236693   3.278   3.384   0.956  0.4070  0.4389 -0.0445
 8411SOL     OW36694   2.723   3.418   7.030 -0.2803  0.1403 -0.3604
 8411SOL    HW136695   2.712   3.336   6.982 -1.0668  0.7637 -1.2413
 8411SOL    HW236696   2.791   3.380   7.087 -0.2344  0.0744 -0.4580
 8412SOL     OW36697   3.388   4.379  14.852  0.3052  0.0708 -0.2074
 8412SOL    HW136698   3.411   4.472  14.840 -0.5286  0.2603 -0.3450
 8412SOL    HW236699   3.372   4.373  14.946  0.8731  0.7070 -0.0639
 8413SOL     OW36700   2.395   3.241   6.666 -0.2034  0.1559  0.3881
 8413SOL    HW136701   2.329   3.247   6.597 -1.1850  0.2387  1.3396
 8413SOL    HW236702   2.358   3.168   6.715 -0.3060  0.2759  0.4909
 8414SOL     OW36703   1.540   1.835   5.345 -0.3540  0.3162  0.4572
 8414SOL    HW136704   1.586   1.816   5.263 -0.3705 -0.8083  0.7145
 8414SOL    HW236705   1.616   1.829   5.404 -0.6051  3.4266  1.0629
 8415SOL     OW36706   4.609   4.076   9.438 -0.0463  0.1188 -0.3263
 8415SOL    HW136707   4.597   4.158   9.487 -0.8514  1.2900 -2.4857
 8415SOL    HW236708   4.530   4.072   9.383 -0.3061  2.4014 -0.1156
 8416SOL     OW36709   3.959   1.007   8.961  0.0473 -0.7242  0.0911
 8416SOL    HW136710   4.016   0.933   8.980  1.3227  0.5696  1.3263
 8416SOL    HW236711   3.870   0.971   8.963 -1.8392  3.7833 -0.6284
 8417SOL     OW36712   1.346   1.948   8.733 -0.0443  0.1724  0.3922
 8417SOL    HW136713   1.441   1.943   8.722 -0.1332  2.5093 -1.5000
 8417SOL    HW236714   1.308   1.867   8.700  0.4597 -0.6442  1.8233
 8418SOL     OW36715   3.630   3.477   8.746  1.0195  0.4694 -0.4994
 8418SOL    HW136716   3.707   3.425   8.722  1.3062 -0.1043  1.6813
 8418SOL    HW236717   3.649   3.506   8.835  0.3495  1.3302 -0.6381
 8419SOL     OW36718   2.404   3.245   3.828  0.4220  0.0990  0.5404
 8419SOL    HW136719   2.314   3.273   3.809  0.2564 -1.1337 -0.5044
 8419SOL    HW236720   2.453   3.319   3.795 -0.4644 -0.1339 -1.3037
 8420SOL     OW36721   0.209   0.006  13.816 -0.4942 -0.0463  0.1042
 8420SOL    HW136722   0.246   4.655  13.867  1.3895 -0.2637 -1.5674
 8420SOL    HW236723   0.119   0.011  13.850  0.0258 -1.1195  1.6410
 8421SOL     OW36724   4.543   1.189   6.976  0.5334  0.2969 -0.0509
 8421SOL    HW136725   4.537   1.118   7.039  1.1258  1.0873  0.8827
 8421SOL    HW236726   4.635   1.210   6.987  1.2659 -1.9503 -1.8310
 8422SOL     OW36727   1.389   1.471   5.858  0.0962  0.2185  0.2289
 8422SOL    HW136728   1.330   1.428   5.795  0.2958 -0.8552  0.7807
 8422SOL    HW236729   1.458   1.501   5.800  0.7839  2.5158  2.2247
 8423SOL     OW36730   3.368   3.645   1.545 -0.0145 -0.0321 -0.8064
 8423SOL    HW136731   3.459   3.622   1.524 -0.0251 -1.8094  1.1505
 8423SOL    HW236732   3.352   3.571   1.603 -0.9309  1.7604  1.2363
 8424SOL     OW36733   3.180   2.352   6.105 -0.2287  0.4739 -0.6258
 8424SOL    HW136734   3.146   2.441   6.107  0.8646  0.8688  0.8027
 8424SOL    HW236735   3.239   2.366   6.031  2.1595 -1.5854  0.8869
 8425SOL     OW36736   2.340   0.458   0.099  0.4949 -0.1532 -0.0718
 8425SOL    HW136737   2.328   0.545   0.138  4.9665  0.1423  0.6319
 8425SOL    HW236738   2.323   0.398   0.171 -3.3120  0.9546 -0.0383
 8426SOL     OW36739   3.026   0.843   5.168  0.3933  0.0474  0.2000
 8426SOL    HW136740   3.042   0.889   5.251  2.9092 -0.0160 -0.2710
 8426SOL    HW236741   3.062   0.906   5.106  0.6603  0.5803  0.8962
 8427SOL     OW36742   1.936   1.068   5.481 -0.5133 -0.3972  0.0211
 8427SOL    HW136743   1.927   1.031   5.569  0.3059 -0.4220  0.0894
 8427SOL    HW236744   1.934   1.164   5.490  0.0941 -0.3576 -0.3008
 8428SOL     OW36745   0.109   2.661   2.057 -0.6106  0.1787  0.1549
 8428SOL    HW136746   0.136   2.736   2.111  0.2857  0.2121 -0.3444
 8428SOL    HW236747   0.139   2.579   2.097  0.2857 -0.0784 -1.0493
 8429SOL     OW36748   0.855   2.584   6.889  0.0344  0.4581 -0.4276
 8429SOL    HW136749   0.805   2.504   6.903 -1.0396  1.3910  1.1098
 8429SOL    HW236750   0.915   2.547   6.824  1.7776  0.7861  1.0012
 8430SOL     OW36751   2.519   1.708   9.106  0.2596  0.5364 -0.0772
 8430SOL    HW136752   2.601   1.757   9.094  0.8961 -0.5630 -0.2382
 8430SOL    HW236753   2.490   1.740   9.191 -0.5972 -2.1020  0.6155
 8431SOL     OW36754   0.883   0.811  10.457 -0.2678 -0.3262  0.6194
 8431SOL    HW136755   0.806   0.765  10.423  0.7399 -0.5552 -1.3692
 8431SOL    HW236756   0.853   0.866  10.530 -3.1558  1.3014 -1.7645
 8432SOL     OW36757   1.207   2.289  16.297 -0.3316 -0.4320  0.6618
 8432SOL    HW136758   1.195   2.380  16.269  1.7820 -1.3095 -3.0386
 8432SOL    HW236759   1.142   2.281  16.367  0.4837 -0.7501  1.3840
 8433SOL     OW36760   3.792   0.981   6.561  0.2955 -0.2641  0.3714
 8433SOL    HW136761   3.761   0.903   6.607  0.5788 -0.6563 -0.1098
 8433SOL    HW236762   3.737   0.994   6.484 -1.1803 -1.0038  1.3004
 8434SOL     OW36763   2.284   3.541   8.537 -0.4091 -0.5882 -0.0126
 8434SOL    HW136764   2.275   3.446   8.531  0.3939 -0.6610 -0.1455
 8434SOL    HW236765   2.252   3.557   8.626 -0.6390  1.0507 -0.3959
 8435SOL     OW36766   0.027   1.800   1.102 -0.0522  0.4718 -0.3604
 8435SOL    HW136767   4.690   1.756   1.039  1.2402 -0.5707 -0.8319
 8435SOL    HW236768   0.067   1.723   1.143 -2.4759 -1.3727 -1.4825
 8436SOL     OW36769   3.473   3.957   6.788 -0.0783  0.0118  0.1745
 8436SOL    HW136770   3.385   3.971   6.823  0.4838 -0.4512  1.7730
 8436SOL    HW236771   3.527   3.931   6.863  1.1873  1.0995 -0.3686
 8437SOL     OW36772   0.826   1.620  14.990 -0.5150  0.2589 -0.1718
 8437SOL    HW136773   0.920   1.612  15.007 -0.1748  3.4455 -0.5522
 8437SOL    HW236774   0.822   1.708  14.952 -1.9672  0.6974  0.9906
 8438SOL     OW36775   1.406   2.648   4.779 -0.3907  0.4341  0.2233
 8438SOL    HW136776   1.360   2.615   4.856 -0.6148  0.5496  0.1412
 8438SOL    HW236777   1.425   2.567   4.732  0.8375  1.2839 -0.7515
 8439SOL     OW36778   0.233   2.783  14.500 -0.2407  0.1796 -0.0739
 8439SOL    HW136779   0.191   2.762  14.417  0.9053 -0.9336 -0.3800
 8439SOL    HW236780   0.300   2.836  14.457  1.1273  0.0129  1.8033
 8440SOL     OW36781   0.914   0.676   0.364  0.4735 -0.5166 -0.3865
 8440SOL    HW136782   0.852   0.742   0.334 -0.4120 -1.4369 -0.5610
 8440SOL    HW236783   0.924   0.702   0.456 -2.1296  1.1100 -0.5517
 8441SOL     OW36784   0.924   3.386   8.089  0.5198 -0.4216  0.1918
 8441SOL    HW136785   1.003   3.440   8.079 -0.0710  0.7236  1.7423
 8441SOL    HW236786   0.882   3.392   8.003 -0.6641 -0.9860  0.7273
 8442SOL     OW36787   2.034   2.909   8.836 -0.1228 -0.6555  0.1653
 8442SOL    HW136788   1.977   2.986   8.832  1.4783  0.5542  0.7610
 8442SOL    HW236789   2.117   2.956   8.825  0.2427 -1.7688 -1.9531
 8443SOL     OW36790   0.036   4.242   2.353 -0.0521 -0.6302 -0.1078
 8443SOL    HW136791   4.670   4.253   2.313  1.1100  1.5912 -1.9853
 8443SOL    HW236792   0.081   4.183   2.293  1.1254 -0.1400  0.2970
 8444SOL     OW36793   1.057   2.234   4.815  1.1957 -0.3870 -0.3480
 8444SOL    HW136794   1.050   2.157   4.872  1.1562  0.9978  1.5373
 8444SOL    HW236795   1.096   2.182   4.745  0.8613 -2.6507  1.1455
 8445SOL     OW36796   4.241   4.685   5.070  0.2941 -0.2820 -0.1168
 8445SOL    HW136797   4.204   4.599   5.089  0.5304 -0.2912  0.3118
 8445SOL    HW236798   4.161   0.017   5.061 -1.2531 -2.3842  1.4032
 8446SOL     OW36799   0.078   2.181   8.273 -0.2905  0.4905  0.1510
 8446SOL    HW136800   4.715   2.190   8.319 -0.7210  0.4240 -0.6227
 8446SOL    HW236801   0.085   2.265   8.227  0.3439  0.3730  0.0372
 8447SOL     OW36802   0.228   3.333   5.231 -0.2322  0.1814 -0.0328
 8447SOL    HW136803   0.322   3.317   5.233 -0.0948  0.7508 -1.8024
 8447SOL    HW236804   0.202   3.381   5.152 -1.0865  0.6153  0.5058
 8448SOL     OW36805   1.675   1.006   4.532 -0.9750 -0.0834  0.1619
 8448SOL    HW136806   1.626   0.980   4.454 -0.9584 -1.2525  0.5334
 8448SOL    HW236807   1.748   1.050   4.489 -1.9452  0.3626 -1.0290
 8449SOL     OW36808   4.352   1.034  16.058 -0.2717  0.4260 -0.1062
 8449SOL    HW136809   4.329   0.949  16.096 -0.5421 -0.9692 -3.3721
 8449SOL    HW236810   4.441   1.011  16.029 -0.7880 -1.4361 -0.2096
 8450SOL     OW36811   0.222   2.641  11.831 -0.2842 -0.0320  0.3724
 8450SOL    HW136812   0.254   2.583  11.900 -0.1302 -0.7154 -0.2750
 8450SOL    HW236813   0.185   2.578  11.769  1.2468  0.5527 -1.1286
 8451SOL     OW36814   3.091   2.729  11.384  0.8272  0.2509 -0.3004
 8451SOL    HW136815   3.153   2.766  11.321 -0.9646  2.0148 -1.0320
 8451SOL    HW236816   3.042   2.677  11.320  0.0913  1.5266 -0.7758
 8452SOL     OW36817   3.022   2.009  13.230  0.4903 -0.1745  0.3353
 8452SOL    HW136818   3.050   1.918  13.236 -2.8456 -1.0795  2.2130
 8452SOL    HW236819   2.931   1.991  13.207  0.0977 -0.9714  2.4978
 8453SOL     OW36820   3.489   3.615   6.770  0.0097  0.0074  0.3320
 8453SOL    HW136821   3.467   3.584   6.858 -0.4507 -1.5110 -0.3120
 8453SOL    HW236822   3.438   3.696   6.766  0.6366  0.3689 -0.3845
 8454SOL     OW36823   0.042   1.311   0.509  0.1163 -0.1921  0.5663
 8454SOL    HW136824   4.683   1.259   0.519  1.0869 -2.0913 -1.4785
 8454SOL    HW236825   0.111   1.244   0.512 -2.4631 -2.8597  0.1435
 8455SOL     OW36826   3.355   0.973   4.842 -0.6611 -0.1614 -0.0508
 8455SOL    HW136827   3.288   0.948   4.906 -0.4458  0.0774  0.2665
 8455SOL    HW236828   3.426   0.916   4.868 -0.8682 -0.4938 -0.2098
 8456SOL     OW36829   4.277   3.302   4.987  0.0615 -0.2734 -0.0357
 8456SOL    HW136830   4.371   3.319   4.976  0.1076 -0.2606  0.3890
 8456SOL    HW236831   4.265   3.343   5.072  1.7444 -1.8527  0.9793
 8457SOL     OW36832   1.897   1.662   6.767 -0.4038 -0.0142  0.2051
 8457SOL    HW136833   1.985   1.636   6.795 -1.4332 -1.9032  1.5892
 8457SOL    HW236834   1.901   1.729   6.699 -2.1371 -0.4926 -0.3580
 8458SOL     OW36835   4.267   3.481   9.285  0.3948  0.5588  1.0029
 8458SOL    HW136836   4.186   3.514   9.324  0.0285 -0.4960  1.1364
 8458SOL    HW236837   4.315   3.451   9.363 -1.1400 -1.2166  1.2684
 8459SOL     OW36838   2.775   4.668   0.219  0.1170 -0.4924  0.2404
 8459SOL    HW136839   2.860   4.645   0.182 -1.3952 -3.1528 -1.5164
 8459SOL    HW236840   2.744   0.009   0.153 -1.4365 -0.1708  1.2618
 8460SOL     OW36841   0.664   1.592   4.062  0.1692 -0.4253 -1.0413
 8460SOL    HW136842   0.571   1.567   4.066  0.0193  0.4041  0.3968
 8460SOL    HW236843   0.662   1.649   3.985 -0.2055 -0.4016 -1.0169
 8461SOL     OW36844   1.680   0.008   5.989  0.6611 -0.1904 -0.0808
 8461SOL    HW136845   1.684   0.067   6.065  1.6194 -0.4878  0.0914
 8461SOL    HW236846   1.731   4.660   6.033 -0.2962  0.0164  1.3841
 8462SOL     OW36847   0.773   4.436   9.678 -0.1636 -0.1339  0.1427
 8462SOL    HW136848   0.768   4.444   9.583 -0.3620 -1.8941 -0.0032
 8462SOL    HW236849   0.866   4.421   9.698  0.2852  1.0400 -1.1439
 8463SOL     OW36850   0.308   1.181   4.933  0.3619 -0.4499  0.1787
 8463SOL    HW136851   0.396   1.178   4.968 -0.2888 -0.0043  1.8542
 8463SOL    HW236852   0.315   1.265   4.888 -1.9555  0.1803  0.9790
 8464SOL     OW36853   0.567   1.108   6.306 -0.4669  0.3564  0.2187
 8464SOL    HW136854   0.632   1.043   6.333  2.5148  2.4130 -2.0217
 8464SOL    HW236855   0.616   1.189   6.320 -0.9441  0.6556  0.1609
 8465SOL     OW36856   1.270   3.056   4.001  0.2489 -0.3740  0.2567
 8465SOL    HW136857   1.210   3.025   3.933  0.1231  0.6058 -0.0756
 8465SOL    HW236858   1.286   2.970   4.040 -2.1074 -0.9843 -0.1208
 8466SOL     OW36859   2.549   1.823   4.307 -0.3991 -0.4446 -0.4685
 8466SOL    HW136860   2.522   1.856   4.221 -0.9655  3.2629  1.1431
 8466SOL    HW236861   2.638   1.856   4.301 -1.2478  1.6685 -1.6486
 8467SOL     OW36862   1.666   4.486   3.606 -0.9717 -0.3959 -0.1598
 8467SOL    HW136863   1.724   4.431   3.553  0.2298  1.3810 -0.6987
 8467SOL    HW236864   1.728   4.548   3.645 -0.3496  0.0166 -1.7654
 8468SOL     OW36865   1.435   2.693   1.060 -0.2258 -0.2533 -0.3283
 8468SOL    HW136866   1.504   2.643   1.016  1.5008 -0.3785  2.5027
 8468SOL    HW236867   1.412   2.750   0.987 -0.2900 -0.7850 -0.7314
 8469SOL     OW36868   3.219   2.787   6.737  0.3469 -0.1740 -0.2747
 8469SOL    HW136869   3.299   2.779   6.791  1.0563 -0.6089 -1.3984
 8469SOL    HW236870   3.249   2.764   6.649 -0.6593 -2.4198 -0.0243
 8470SOL     OW36871   3.023   1.673   0.321 -0.2432  0.7698  0.0740
 8470SOL    HW136872   2.949   1.621   0.352  0.8020 -1.2819 -0.8668
 8470SOL    HW236873   2.979   1.746   0.277 -0.7258  0.1450 -0.4718
 8471SOL     OW36874   2.401   3.076   3.598 -0.0095  0.5094 -0.1934
 8471SOL    HW136875   2.305   3.083   3.594 -0.0527 -0.3909 -0.7127
 8471SOL    HW236876   2.419   3.124   3.679  1.1059  1.8226 -1.2352
 8472SOL     OW36877   4.534   2.210   1.296 -0.4486  0.2744 -0.4032
 8472SOL    HW136878   4.451   2.223   1.250 -0.5203  1.6734  0.1196
 8472SOL    HW236879   4.547   2.281   1.360  0.3508 -0.9531  0.8048
 8473SOL     OW36880   2.825   1.360   3.822 -0.8679 -0.2864 -0.1359
 8473SOL    HW136881   2.735   1.341   3.795 -0.7384  0.3007 -0.9885
 8473SOL    HW236882   2.850   1.417   3.749  1.9150  1.7227  2.3994
 8474SOL     OW36883   3.863   4.280  14.489 -0.1295 -0.7061  0.5733
 8474SOL    HW136884   3.870   4.362  14.441  1.8834 -0.4124  1.3704
 8474SOL    HW236885   3.777   4.253  14.457  1.2016  0.6315 -4.0200
 8475SOL     OW36886   3.937   1.255   1.607 -0.9241  0.1631  0.0046
 8475SOL    HW136887   4.026   1.244   1.641 -0.1902  0.8023 -1.6669
 8475SOL    HW236888   3.878   1.241   1.680 -1.3962  1.1885 -0.1873
 8476SOL     OW36889   1.408   1.996   5.842  0.3088 -0.1369 -0.0966
 8476SOL    HW136890   1.496   1.971   5.817  1.7775  1.5447  3.4641
 8476SOL    HW236891   1.350   2.001   5.765  0.0134 -0.0243  0.1309
 8477SOL     OW36892   1.024   1.239   9.403  0.1646  0.2015 -0.1844
 8477SOL    HW136893   1.011   1.332   9.422 -1.2598 -0.4704  2.0913
 8477SOL    HW236894   0.961   1.215   9.334 -1.4470 -0.5523  1.5577
 8478SOL     OW36895   2.556   1.846   6.193 -0.2741 -0.1441  0.1325
 8478SOL    HW136896   2.521   1.799   6.269 -1.1653  0.4185  0.0782
 8478SOL    HW236897   2.643   1.871   6.224 -0.5626  2.0986 -0.8230
 8479SOL     OW36898   1.660   1.159   9.428 -0.0246 -0.0703  0.2959
 8479SOL    HW136899   1.599   1.184   9.498  2.1136  1.8161  1.4782
 8479SOL    HW236900   1.733   1.137   9.487  0.6854  2.4367  0.3646
 8480SOL     OW36901   1.236   1.520   3.342 -0.4445 -0.2706  0.6589
 8480SOL    HW136902   1.244   1.615   3.340  0.7557 -0.4773 -3.9680
 8480SOL    HW236903   1.328   1.495   3.349 -0.5020 -0.2424  1.5662
 8481SOL     OW36904   4.628   0.717   8.325  0.1063 -0.9190 -0.1878
 8481SOL    HW136905   4.710   0.761   8.303 -1.2279  1.6258  0.0092
 8481SOL    HW236906   4.562   0.773   8.286  1.2604  2.8798  3.3366
 8482SOL     OW36907   0.215   0.922   3.218 -0.2266 -0.3011  0.2488
 8482SOL    HW136908   0.193   0.967   3.136 -0.3649 -2.9943 -1.1932
 8482SOL    HW236909   0.204   0.996   3.277  1.8754  2.4137 -2.7536
 8483SOL     OW36910   3.696   1.483   9.479 -0.2922  0.9398  0.6450
 8483SOL    HW136911   3.697   1.512   9.388 -0.3892 -1.7818 -0.2177
 8483SOL    HW236912   3.607   1.457   9.501 -1.2730  2.8312 -1.1762
 8484SOL     OW36913   3.081   2.700   8.984 -0.1115 -0.5097 -0.4225
 8484SOL    HW136914   3.058   2.786   9.019  0.7541 -0.5294  0.1845
 8484SOL    HW236915   3.064   2.712   8.891  0.0963 -0.0945 -0.4087
 8485SOL     OW36916   3.223   4.308  15.616  0.0741 -0.3240  0.1514
 8485SOL    HW136917   3.178   4.366  15.677  1.9885 -1.6118  2.7910
 8485SOL    HW236918   3.241   4.356  15.535 -0.2088 -0.4214  0.0318
 8486SOL     OW36919   4.419   3.565   9.823  0.1961  0.3813  0.6694
 8486SOL    HW136920   4.332   3.549   9.787  0.0348  0.3736  1.0615
 8486SOL    HW236921   4.443   3.473   9.835 -0.1163  0.2937  0.6133
 8487SOL     OW36922   4.474   2.205  15.203  0.2099  0.5204  0.2458
 8487SOL    HW136923   4.526   2.149  15.260  0.9046 -0.0913 -0.9904
 8487SOL    HW236924   4.552   2.228  15.152 -2.1053  2.1574 -2.6067
 8488SOL     OW36925   3.314   3.818  11.463  0.1708  0.1233 -0.3075
 8488SOL    HW136926   3.360   3.751  11.512 -1.8218 -1.9519 -1.2828
 8488SOL    HW236927   3.283   3.771  11.386  2.2479 -2.6863  0.5850
 8489SOL     OW36928   3.838   0.308   4.238  0.0332  0.0060  0.1050
 8489SOL    HW136929   3.922   0.267   4.259 -0.5957 -0.3865  1.8426
 8489SOL    HW236930   3.870   0.397   4.226 -1.6631  0.9232  2.3999
 8490SOL     OW36931   2.829   3.610   7.643 -0.0926  0.0485  0.5955
 8490SOL    HW136932   2.923   3.600   7.656  0.2662  1.7495 -0.5530
 8490SOL    HW236933   2.797   3.540   7.700  0.6517 -0.8562 -0.1002
 8491SOL     OW36934   4.706   1.750   7.310  0.2103 -0.6694  0.4281
 8491SOL    HW136935   0.067   1.780   7.268 -0.1217  1.4561  1.3451
 8491SOL    HW236936   0.030   1.730   7.393  1.8679  1.5117  0.0723
 8492SOL     OW36937   3.865   2.382   6.834  0.2140  0.4086 -0.3237
 8492SOL    HW136938   3.816   2.418   6.759 -0.4325  1.1372  0.4528
 8492SOL    HW236939   3.792   2.331   6.867 -1.0648  0.2244 -3.4129
 8493SOL     OW36940   3.031   1.244   1.400 -0.4125  0.0365  0.0225
 8493SOL    HW136941   3.100   1.238   1.334  1.2891 -1.4086  1.9345
 8493SOL    HW236942   2.950   1.251   1.351  1.3176  2.0051 -2.5883
 8494SOL     OW36943   2.016   0.317   6.035  0.2057 -0.1900  0.1877
 8494SOL    HW136944   2.060   0.242   5.996  1.3213  0.6275 -0.1288
 8494SOL    HW236945   2.078   0.345   6.102 -2.1672  0.5924  2.0655
 8495SOL     OW36946   3.220   1.581   8.713 -0.3735  0.3135 -0.2423
 8495SOL    HW136947   3.165   1.512   8.750 -2.1098  1.7546 -0.1481
 8495SOL    HW236948   3.227   1.649   8.780 -1.7268  0.2830 -0.0763
 8496SOL     OW36949   4.187   3.339  12.305 -0.6498 -0.2287  0.2553
 8496SOL    HW136950   4.110   3.302  12.262  0.6298 -0.3911 -1.9534
 8496SOL    HW236951   4.161   3.371  12.391 -0.8048 -2.1049  0.9143
 8497SOL     OW36952   1.829   4.512   0.688  0.0267  0.9050  0.4442
 8497SOL    HW136953   1.803   4.444   0.751 -0.3169  0.9744  0.3805
 8497SOL    HW236954   1.849   4.459   0.611 -1.3370  0.1766  0.5867
 8498SOL     OW36955   2.975   0.192   1.986  0.2511  0.3362  0.2589
 8498SOL    HW136956   3.015   0.260   1.932  0.2541 -0.5345 -0.8243
 8498SOL    HW236957   3.018   0.115   1.949  0.3009 -0.1527  1.3465
 8499SOL     OW36958   3.246   1.838   6.189  0.4791 -0.5184  0.0125
 8499SOL    HW136959   3.151   1.842   6.192  0.4358 -0.5735 -1.0714
 8499SOL    HW236960   3.262   1.775   6.259  1.1250  1.4546  1.6344
 8500SOL     OW36961   0.120   3.696   8.901 -0.2561  0.2806  0.2660
 8500SOL    HW136962   0.213   3.676   8.908 -0.2458  0.9171  2.0098
 8500SOL    HW236963   0.102   3.696   8.807  1.1786 -0.8510  0.0018
 8501SOL     OW36964   1.070   0.137   5.386  0.1725  0.4066  0.1593
 8501SOL    HW136965   1.029   0.224   5.390  0.4714  0.4749  1.8857
 8501SOL    HW236966   1.048   0.092   5.467 -0.1590 -2.9012 -1.7712
 8502SOL     OW36967   1.527   2.931   4.137 -0.5575 -0.5613  0.7195
 8502SOL    HW136968   1.563   2.898   4.219 -0.8706  0.8691  1.4362
 8502SOL    HW236969   1.433   2.913   4.140 -1.0011  1.4504 -1.3669
 8503SOL     OW36970   4.230   0.036   0.564 -1.2532  0.5178 -0.0254
 8503SOL    HW136971   4.272   0.122   0.557  1.3973 -0.8199 -0.5640
 8503SOL    HW236972   4.197   0.035   0.654  0.3387  0.2366  0.5528
 8504SOL     OW36973   1.968   4.427   0.027 -0.1514 -0.0729  0.2469
 8504SOL    HW136974   1.880   4.440   0.063  0.8118  0.4939  2.4353
 8504SOL    HW236975   1.995   4.345   0.070 -0.0379 -0.0395  0.2405
 8505SOL     OW36976   2.628   4.608   1.378 -1.7492  0.2837 -0.0100
 8505SOL    HW136977   2.606   4.536   1.319 -1.6305 -0.1402  0.4634
 8505SOL    HW236978   2.536   4.627   1.397 -2.6432 -2.0916 -2.0130
 8506SOL     OW36979   0.625   4.252   1.748 -0.5199  0.0019 -0.0498
 8506SOL    HW136980   0.554   4.293   1.699  0.7573  1.2019 -0.8612
 8506SOL    HW236981   0.687   4.243   1.676 -1.4158 -1.4875 -0.6310
 8507SOL     OW36982   0.445   2.904  14.212 -0.3400 -0.1579 -0.3124
 8507SOL    HW136983   0.443   2.814  14.180  0.4190 -0.6151  0.9125
 8507SOL    HW236984   0.384   2.943  14.150 -0.8450 -0.0015  0.2787
 8508SOL     OW36985   4.338   2.837   5.190 -0.2194  0.4701  0.1076
 8508SOL    HW136986   4.273   2.884   5.241  0.7278 -0.9342  2.5984
 8508SOL    HW236987   4.299   2.834   5.103  1.2534 -0.5723 -0.5150
 8509SOL     OW36988   2.408   0.201   6.946  0.1882 -0.3599  0.3146
 8509SOL    HW136989   2.501   0.192   6.927  0.2889  0.1801  0.5368
 8509SOL    HW236990   2.383   0.223   6.857  1.1243  2.2498  0.6820
 8510SOL     OW36991   1.631   0.107   8.062 -0.2139 -0.0854 -0.5443
 8510SOL    HW136992   1.630   0.186   8.009 -1.8310 -0.7720 -1.5245
 8510SOL    HW236993   1.707   0.055   8.035  0.7782  0.1235  1.7876
 8511SOL     OW36994   0.722   3.191   9.414  0.1087  0.1635  0.5731
 8511SOL    HW136995   0.756   3.269   9.372  0.3575  0.3410  1.1089
 8511SOL    HW236996   0.657   3.229   9.473  0.1827 -0.8887  1.3328
 8512SOL     OW36997   0.841   3.464   4.236 -0.6951  0.4528  0.7543
 8512SOL    HW136998   0.775   3.432   4.173 -0.3206  1.6268 -0.2277
 8512SOL    HW236999   0.864   3.540   4.183  0.8163 -1.5369 -1.4693
 8513SOL     OW37000   2.515   1.375   3.745 -0.2687 -0.0049 -0.5179
 8513SOL    HW137001   2.520   1.413   3.657 -0.0850 -1.2055 -1.0354
 8513SOL    HW237002   2.439   1.317   3.740  1.8163 -2.6824 -1.6119
 8514SOL     OW37003   0.217   4.668   4.783 -0.2734 -0.0769  0.0275
 8514SOL    HW137004   0.222   4.574   4.799  3.2920 -0.0026 -0.6361
 8514SOL    HW237005   0.276   4.693   4.855  1.6016  1.9139 -2.1868
 8515SOL     OW37006   2.465   2.839   7.263  0.7736 -0.6261 -0.2168
 8515SOL    HW137007   2.410   2.794   7.328 -0.1133 -2.1247 -1.9947
 8515SOL    HW237008   2.464   2.930   7.293 -0.2278  0.3369 -3.2071
 8516SOL     OW37009   2.961   4.248   8.801 -0.4483 -0.0345  0.0986
 8516SOL    HW137010   2.945   4.244   8.896 -0.7560 -0.1330  0.0412
 8516SOL    HW237011   2.995   4.159   8.795 -1.2059 -0.1403 -2.6268
 8517SOL     OW37012   3.886   2.570   3.113 -0.3028  0.1867  0.7460
 8517SOL    HW137013   3.960   2.570   3.174  0.2230 -1.3052  0.1113
 8517SOL    HW237014   3.818   2.524   3.162 -1.8096  0.5852 -1.0052
 8518SOL     OW37015   3.771   0.751   7.569 -0.7590  0.2736 -0.0860
 8518SOL    HW137016   3.804   0.783   7.654  1.7082 -3.3419  0.3125
 8518SOL    HW237017   3.706   0.819   7.551 -0.4276  0.3254 -1.0973
 8519SOL     OW37018   0.046   4.195   8.199  0.0965 -0.1612  0.0760
 8519SOL    HW137019   4.716   4.225   8.275  0.0472  2.0100 -0.8145
 8519SOL    HW237020   0.133   4.226   8.227  0.6738  0.6177 -2.5815
 8520SOL     OW37021   4.445   3.163  16.135 -0.0394 -0.1408 -0.4007
 8520SOL    HW137022   4.530   3.119  16.137 -0.7826 -1.5448  0.4073
 8520SOL    HW237023   4.475   3.251  16.155  1.4391 -0.6957 -0.1111
 8521SOL     OW37024   3.416   4.332  16.817  0.6621 -0.1733 -0.1246
 8521SOL    HW137025   3.326   4.301  16.808  0.5471 -0.1907  1.2122
 8521SOL    HW237026   3.392   4.424  16.814  3.2462  0.5439  1.6205
 8522SOL     OW37027   1.943   0.658   0.833  0.4864 -0.4167  0.4063
 8522SOL    HW137028   1.904   0.722   0.775  0.5414 -0.1490  0.6651
 8522SOL    HW237029   1.884   0.666   0.908 -0.0350  1.6579 -0.2351
 8523SOL     OW37030   1.353   0.725   9.336 -0.3860  0.2640  0.2238
 8523SOL    HW137031   1.277   0.741   9.280  1.1466  1.0518 -1.6343
 8523SOL    HW237032   1.408   0.674   9.275 -0.6361 -0.1764  0.3697
 8524SOL     OW37033   0.085   0.414   2.673  0.1106 -0.3831  0.0198
 8524SOL    HW137034   0.072   0.342   2.612 -2.8752 -0.2451  0.4909
 8524SOL    HW237035   0.104   0.487   2.613 -2.2405  1.3707  1.4087
 8525SOL     OW37036   2.209   4.122   6.285  0.4361 -0.2722  0.0179
 8525SOL    HW137037   2.199   4.049   6.346 -1.9757 -0.5757 -0.7321
 8525SOL    HW237038   2.146   4.175   6.333 -0.7379 -2.2041  0.6066
 8526SOL     OW37039   2.509   0.007  17.370 -0.1200 -0.0619  0.1480
 8526SOL    HW137040   2.509   0.100  17.391 -1.2324  0.4007 -1.9858
 8526SOL    HW237041   2.497   0.013  17.275 -2.0123  2.3073  0.5520
 8527SOL     OW37042   3.368   2.713   6.961 -0.4505  0.5030  0.2029
 8527SOL    HW137043   3.318   2.775   7.013 -1.3916  1.4425 -1.8300
 8527SOL    HW237044   3.450   2.760   6.975 -0.4407  0.3962  0.4997
 8528SOL     OW37045   4.005   0.060  17.089 -0.0091  0.1033 -0.4914
 8528SOL    HW137046   4.068   0.032  17.023  1.7282  1.3671  0.6118
 8528SOL    HW237047   4.037   0.148  17.108 -2.0717  1.1372 -1.7663
 8529SOL     OW37048   4.332   2.465  13.786  0.1453 -0.0736 -0.0848
 8529SOL    HW137049   4.427   2.459  13.775  0.4004  0.5286  1.6737
 8529SOL    HW237050   4.306   2.375  13.769  1.0417 -0.6051  1.3311
 8530SOL     OW37051   0.796   3.256   5.906 -0.2881 -0.2814  0.4969
 8530SOL    HW137052   0.723   3.198   5.884 -1.8134  1.9010 -0.2197
 8530SOL    HW237053   0.866   3.201   5.870  0.6021  0.0874  1.6844
 8531SOL     OW37054   4.375   1.628   9.549  0.3097  0.2945 -0.2774
 8531SOL    HW137055   4.389   1.554   9.608 -0.2627  1.5095  1.3759
 8531SOL    HW237056   4.333   1.690   9.609 -0.9650  0.6410 -1.5150
 8532SOL     OW37057   0.073   2.221   6.897  0.9118  0.2805  0.2865
 8532SOL    HW137058   0.107   2.294   6.949  2.3697  0.3210 -0.7331
 8532SOL    HW237059   0.126   2.245   6.821  1.0163 -2.2723 -0.4163
 8533SOL     OW37060   2.516   0.165  13.158 -0.4308  0.0203  0.5871
 8533SOL    HW137061   2.423   0.181  13.173 -0.5094  0.6149 -0.5372
 8533SOL    HW237062   2.519   0.072  13.135 -3.4751  0.1042 -0.1464
 8534SOL     OW37063   1.632   1.958   2.919 -0.3613 -0.1517  0.1965
 8534SOL    HW137064   1.671   1.909   2.846 -2.8634  1.1263 -2.0051
 8534SOL    HW237065   1.612   1.895   2.988 -0.0746 -1.5439 -0.9806
 8535SOL     OW37066   3.477   1.939   7.597  0.1460 -0.5700 -0.2615
 8535SOL    HW137067   3.460   1.978   7.682 -0.4843 -0.5992 -0.3730
 8535SOL    HW237068   3.536   1.866   7.614 -1.5161 -2.1891 -1.4573
 8536SOL     OW37069   4.047   4.351  11.743 -0.1523 -0.2483 -0.5213
 8536SOL    HW137070   4.021   4.262  11.767  0.8481 -0.7656 -1.3271
 8536SOL    HW237071   4.070   4.327  11.653 -1.3862  1.8048 -1.3678
 8537SOL     OW37072   0.048   3.380   6.065  0.8970 -0.2696 -0.1714
 8537SOL    HW137073   0.089   3.454   6.021 -1.2366 -0.6488 -2.8058
 8537SOL    HW237074   0.109   3.310   6.041  2.7658  0.7571  1.6106
 8538SOL     OW37075   0.596   2.744   7.823  0.4906 -0.6279 -0.1521
 8538SOL    HW137076   0.554   2.668   7.782 -0.3773  0.0581 -0.5316
 8538SOL    HW237077   0.530   2.809   7.848 -0.9176 -2.5019  0.9345
 8539SOL     OW37078   2.547   0.943   7.346  0.4035 -0.6673  0.3998
 8539SOL    HW137079   2.494   1.019   7.369 -0.4533 -0.9246 -0.7476
 8539SOL    HW237080   2.565   0.899   7.428  1.9464  0.0515  0.4577
 8540SOL     OW37081   2.394   0.935   5.072 -0.3331 -0.1808 -0.1771
 8540SOL    HW137082   2.441   1.018   5.076 -0.0047 -0.3479 -0.5832
 8540SOL    HW237083   2.457   0.892   5.014 -0.2513 -1.9952  1.2645
 8541SOL     OW37084   2.253   3.068   4.753 -0.0559  0.4668  0.2142
 8541SOL    HW137085   2.343   3.059   4.784 -0.0122 -0.7810 -0.2564
 8541SOL    HW237086   2.212   3.092   4.836  0.1721  0.1488  0.4191
 8542SOL     OW37087   4.110   2.060   7.417 -0.0801  0.4746  0.5217
 8542SOL    HW137088   4.153   1.976   7.433 -0.6889  0.7144  3.5532
 8542SOL    HW237089   4.101   2.065   7.322 -2.1976 -0.3275  0.6932
 8543SOL     OW37090   2.673   1.362   2.066 -0.0417  0.0931  0.7455
 8543SOL    HW137091   2.693   1.316   1.984 -3.2195 -0.3542  0.2466
 8543SOL    HW237092   2.629   1.294   2.116  0.2791  0.0676  0.9947
 8544SOL     OW37093   3.909   1.030  14.701  0.2055  1.0671 -0.1814
 8544SOL    HW137094   3.843   1.076  14.649 -0.3775  0.3865 -0.0555
 8544SOL    HW237095   3.860   1.025  14.783 -0.7079  3.3204 -0.5857
 8545SOL     OW37096   2.093   1.261  15.738 -0.4782  0.1271 -0.1242
 8545SOL    HW137097   2.093   1.181  15.685 -1.9311  0.0855 -0.0707
 8545SOL    HW237098   2.118   1.313  15.662  0.0977  0.4222  0.2691
 8546SOL     OW37099   0.620   3.624  11.409 -0.3470 -0.3294 -0.7694
 8546SOL    HW137100   0.700   3.659  11.449  0.2642  1.8612 -3.8759
 8546SOL    HW237101   0.664   3.594  11.329  1.6226  1.4621 -0.3699
 8547SOL     OW37102   2.562   2.012  13.184  0.2443  0.1322  0.4297
 8547SOL    HW137103   2.632   1.946  13.179  1.2963  1.1975  0.9438
 8547SOL    HW237104   2.599   2.062  13.256 -0.5714  0.1996  0.7942
 8548SOL     OW37105   0.447   1.832   8.828  0.1741 -0.3498 -0.2159
 8548SOL    HW137106   0.469   1.769   8.759  0.9876  0.6544 -0.8681
 8548SOL    HW237107   0.494   1.902   8.783  1.0010 -0.6280  0.2186
 8549SOL     OW37108   4.242   3.849  14.885  0.6232  0.1364  0.4472
 8549SOL    HW137109   4.175   3.781  14.881 -0.2498  1.0227 -0.1238
 8549SOL    HW237110   4.213   3.918  14.825 -0.5112 -0.2284  0.5796
 8550SOL     OW37111   2.142   1.929   3.631 -0.2020 -0.3295  0.3641
 8550SOL    HW137112   2.199   1.860   3.663  1.9459  0.2815 -2.1662
 8550SOL    HW237113   2.162   1.921   3.538 -0.1820 -0.1706  0.3551
 8551SOL     OW37114   4.434   2.986   0.813 -0.1710 -0.0557  0.1687
 8551SOL    HW137115   4.412   3.055   0.876 -1.0559  0.1294 -0.3452
 8551SOL    HW237116   4.521   3.015   0.787  0.0832 -2.2967 -1.4600
 8552SOL     OW37117   2.371   4.444   7.624  0.0092  0.2009 -0.3893
 8552SOL    HW137118   2.340   4.419   7.537 -3.0821 -2.2852  1.4272
 8552SOL    HW237119   2.344   4.361   7.663  0.4186  0.0136 -0.5043
 8553SOL     OW37120   0.575   0.863  11.795 -0.3113 -0.1570 -0.1838
 8553SOL    HW137121   0.585   0.811  11.875 -1.5339  2.0943  1.4588
 8553SOL    HW237122   0.633   0.807  11.744  0.9919 -0.0187  1.1443
 8554SOL     OW37123   4.276   2.495   0.635 -0.5868 -0.4191 -0.0954
 8554SOL    HW137124   4.309   2.465   0.720 -0.5260  1.0352  0.3997
 8554SOL    HW237125   4.326   2.576   0.621 -1.0936 -0.1855 -0.5226
 8555SOL     OW37126   4.524   2.201  13.750 -0.2121  0.4431  0.1408
 8555SOL    HW137127   4.554   2.273  13.695  0.6137  0.1572  0.2083
 8555SOL    HW237128   4.454   2.171  13.693 -0.6368  0.3436  0.7183
 8556SOL     OW37129   3.131   1.353   5.995 -0.2084  0.5604 -0.0439
 8556SOL    HW137130   3.187   1.401   6.055  0.4739  0.1592 -0.3552
 8556SOL    HW237131   3.055   1.410   5.982  0.0416  0.7603 -0.6486
 8557SOL     OW37132   1.238   3.595  10.596 -0.4577  0.4651 -0.2069
 8557SOL    HW137133   1.310   3.558  10.648 -0.9515  1.2051  0.9957
 8557SOL    HW237134   1.244   3.532  10.523 -1.9184 -2.4892  2.2232
 8558SOL     OW37135   3.765   3.557   7.878  0.5241 -0.3512  0.5870
 8558SOL    HW137136   3.671   3.550   7.892 -0.1302 -1.9595 -4.6869
 8558SOL    HW237137   3.783   3.641   7.921 -0.0693 -0.3705  0.8779
 8559SOL     OW37138   0.262   1.486   7.954 -0.2998  0.1691  0.1391
 8559SOL    HW137139   0.230   1.576   7.968  1.2758  0.5827  1.0826
 8559SOL    HW237140   0.288   1.461   8.042 -0.2672 -1.0982 -0.2319
 8560SOL     OW37141   4.653   1.388   7.740 -0.0585 -0.0867  0.0502
 8560SOL    HW137142   4.622   1.458   7.798 -1.4225 -1.4793  1.0138
 8560SOL    HW237143   0.027   1.386   7.751 -0.2828 -1.9565  1.5387
 8561SOL     OW37144   3.274   2.467   6.652  0.0628 -0.2759 -0.2006
 8561SOL    HW137145   3.287   2.509   6.567  0.0582  0.7579  0.3219
 8561SOL    HW237146   3.364   2.439   6.672  0.3846  1.5365  0.8424
 8562SOL     OW37147   3.829   4.443  13.770 -0.1951 -0.4825  0.4401
 8562SOL    HW137148   3.759   4.439  13.834  0.3716  0.5914  1.1250
 8562SOL    HW237149   3.782   4.481  13.696  1.4435  2.0063  0.6584
 8563SOL     OW37150   1.386   0.999  10.729  0.5781 -0.2404  0.4477
 8563SOL    HW137151   1.352   1.084  10.754  0.4498 -0.4699  1.0733
 8563SOL    HW237152   1.467   1.001  10.781  1.8611 -1.1965 -1.4971
 8564SOL     OW37153   4.423   4.674  15.025 -0.1732  0.5080  0.0334
 8564SOL    HW137154   4.334   4.699  15.051 -0.1069  1.0910 -0.2965
 8564SOL    HW237155   4.475   0.032  15.008 -0.5305  0.4096 -1.5012
 8565SOL     OW37156   0.816   2.036   5.511 -0.1221  0.0090  0.2814
 8565SOL    HW137157   0.861   2.092   5.448  1.9021 -1.4568  0.4450
 8565SOL    HW237158   0.812   1.952   5.465  1.4258  0.0653  0.0578
 8566SOL     OW37159   3.926   2.295   4.480 -0.5681 -0.2093 -0.2591
 8566SOL    HW137160   3.865   2.293   4.554 -0.8312  0.0464 -0.4714
 8566SOL    HW237161   4.001   2.349   4.505 -1.2402  0.9433 -0.7017
 8567SOL     OW37162   2.343   3.509   4.155 -0.6094  0.2230 -0.2168
 8567SOL    HW137163   2.369   3.601   4.147  0.6246  0.1821  3.3986
 8567SOL    HW237164   2.333   3.497   4.060  0.5554  2.3075 -0.5952
 8568SOL     OW37165   2.250   1.394   9.428  0.2126  0.1665 -0.0710
 8568SOL    HW137166   2.167   1.442   9.433 -0.4193 -1.1012  1.7528
 8568SOL    HW237167   2.244   1.391   9.333  0.9108  0.1175 -0.1103
 8569SOL     OW37168   0.971   2.605  12.085 -0.4624  0.1958  0.0799
 8569SOL    HW137169   1.023   2.685  12.082  1.5080 -1.0241  1.6175
 8569SOL    HW237170   1.035   2.536  12.104  0.7476  1.1057 -0.7508
 8570SOL     OW37171   4.482   1.998   2.891 -0.0001  0.0898  0.1326
 8570SOL    HW137172   4.441   1.968   2.972  1.0233 -0.6774  0.3794
 8570SOL    HW237173   4.460   2.091   2.889 -1.5372 -0.2337  2.2933
 8571SOL     OW37174   1.846   2.310   1.742  0.2824  0.2027 -0.3105
 8571SOL    HW137175   1.837   2.252   1.667 -1.0649 -0.0421  0.0418
 8571SOL    HW237176   1.940   2.327   1.745  0.4856 -0.8555 -0.8145
 8572SOL     OW37177   1.109   2.721   1.482  0.1300  0.4692  0.0491
 8572SOL    HW137178   1.167   2.673   1.422  1.9283 -1.0343  2.9656
 8572SOL    HW237179   1.034   2.662   1.484  0.6670 -0.2206 -0.1469
 8573SOL     OW37180   2.731   2.664   4.464  0.4582  0.1766 -0.0580
 8573SOL    HW137181   2.651   2.704   4.430  2.7439  2.3697 -2.8105
 8573SOL    HW237182   2.695   2.651   4.552  1.8024 -0.9263  0.3251
 8574SOL     OW37183   1.128   0.954   8.116 -0.2596 -0.4994  0.4537
 8574SOL    HW137184   1.208   0.902   8.129 -0.8052 -2.0304 -2.2729
 8574SOL    HW237185   1.057   0.893   8.132 -2.7693  1.9261 -1.4254
 8575SOL     OW37186   2.615   2.300  17.152 -0.1610 -0.0518 -0.1081
 8575SOL    HW137187   2.523   2.311  17.128 -0.2867 -1.2842 -0.1590
 8575SOL    HW237188   2.610   2.232  17.219 -0.4304 -0.2518 -0.3299
 8576SOL     OW37189   1.180   4.036   7.615  0.2649  0.4991  0.7704
 8576SOL    HW137190   1.097   3.991   7.625  1.2717 -1.3262  0.8635
 8576SOL    HW237191   1.240   3.965   7.591  0.4789  0.5907  1.0365
 8577SOL     OW37192   1.296   3.799   7.586  0.2492 -0.4523  0.7227
 8577SOL    HW137193   1.350   3.725   7.613  1.7083  1.0667  2.0061
 8577SOL    HW237194   1.224   3.754   7.541 -1.2938  0.8090  1.9101
 8578SOL     OW37195   2.206   3.650   6.261 -0.5439  0.1660  0.4179
 8578SOL    HW137196   2.238   3.625   6.175  0.3888 -4.2956  2.0589
 8578SOL    HW237197   2.119   3.658   6.222 -0.9569 -0.7478  1.1586
 8579SOL     OW37198   0.930   0.395   6.508  0.2984  0.4432 -0.4022
 8579SOL    HW137199   0.875   0.436   6.575 -0.2851 -1.3494  0.2212
 8579SOL    HW237200   0.952   0.318   6.560  1.0767  0.6803 -0.3729
 8580SOL     OW37201   4.206   3.844   5.251 -0.1596 -0.6835  0.3816
 8580SOL    HW137202   4.210   3.835   5.156  0.4135 -0.7140  0.4089
 8580SOL    HW237203   4.250   3.928   5.268 -1.4932  0.1950 -0.4677
 8581SOL     OW37204   4.329   0.367   3.918  0.3964 -1.1209 -0.2336
 8581SOL    HW137205   4.324   0.280   3.958 -0.8862 -0.9587 -0.0359
 8581SOL    HW237206   4.367   0.419   3.989  1.3034 -1.4751 -0.4602
 8582SOL     OW37207   0.145   2.743  12.503 -0.2100  1.0259  0.4917
 8582SOL    HW137208   0.112   2.752  12.592 -0.2326 -1.6607  0.7495
 8582SOL    HW237209   0.233   2.780  12.508  0.1557  0.2094  0.1618
 8583SOL     OW37210   1.805   0.178  10.893 -0.0112  0.0987 -0.6832
 8583SOL    HW137211   1.898   0.196  10.897 -0.1042 -0.1025  2.4046
 8583SOL    HW237212   1.792   0.221  10.977  0.7990 -1.7771  0.4142
 8584SOL     OW37213   0.014   4.105   5.819 -0.3940  0.2684  0.0491
 8584SOL    HW137214   4.708   4.195   5.800 -1.3616 -0.3864 -1.6836
 8584SOL    HW237215   0.035   4.112   5.912 -1.4623 -0.0722  0.3203
 8585SOL     OW37216   1.216   4.712   3.718  0.1017 -0.1952 -0.8085
 8585SOL    HW137217   1.303   4.691   3.684 -0.6704 -1.8803 -1.7549
 8585SOL    HW237218   1.220   0.087   3.724 -1.9383 -0.1955  0.3976
 8586SOL     OW37219   2.403   4.422   7.339  0.7275  0.2599 -0.1337
 8586SOL    HW137220   2.443   4.444   7.254 -0.1744 -2.1764 -1.1777
 8586SOL    HW237221   2.474   4.365   7.370 -0.1314 -1.2377 -0.9388
 8587SOL     OW37222   0.903   4.205   4.850  0.1170  0.1463  0.7306
 8587SOL    HW137223   0.944   4.289   4.828  0.1302  0.5717  2.4268
 8587SOL    HW237224   0.879   4.219   4.941  1.1695  1.4860  0.7954
 8588SOL     OW37225   2.732   0.054   9.042 -0.6741 -0.1431  0.0882
 8588SOL    HW137226   2.762   0.075   8.954  0.3041 -2.2874 -0.0889
 8588SOL    HW237227   2.637   0.063   9.041 -0.7873 -1.2170  0.9581
 8589SOL     OW37228   1.856   1.210   7.131  0.0604  0.3945 -0.5654
 8589SOL    HW137229   1.905   1.128   7.145  0.0146  0.2418 -1.2840
 8589SOL    HW237230   1.919   1.269   7.089  1.3780  0.2000  1.1431
 8590SOL     OW37231   2.846   3.464  11.059 -0.7169 -0.1011 -0.3643
 8590SOL    HW137232   2.924   3.506  11.023 -1.3173  2.4533  1.2978
 8590SOL    HW237233   2.879   3.375  11.074 -0.3431  0.3385  1.3886
 8591SOL     OW37234   1.363   1.152   7.801 -0.1181  0.3921 -0.4434
 8591SOL    HW137235   1.301   1.080   7.815  0.4248 -0.5144 -2.8182
 8591SOL    HW237236   1.307   1.223   7.832 -1.3273 -0.1303 -1.4533
 8592SOL     OW37237   4.095   2.911   8.489 -0.0992 -0.2891  0.2065
 8592SOL    HW137238   4.018   2.862   8.517 -0.7042 -0.7252 -2.2389
 8592SOL    HW237239   4.161   2.852   8.527  0.5065 -0.0221 -0.4200
 8593SOL     OW37240   1.781   2.053   4.823 -0.1097  0.3598 -0.3215
 8593SOL    HW137241   1.865   2.008   4.835 -0.5265 -0.8449 -1.9557
 8593SOL    HW237242   1.720   1.981   4.810  0.7833 -0.1367 -1.7164
 8594SOL     OW37243   1.756   2.200   5.338  0.5611 -0.4402 -0.1107
 8594SOL    HW137244   1.744   2.228   5.247  1.5244 -0.9587 -0.3948
 8594SOL    HW237245   1.678   2.226   5.388  1.0018 -0.3079  0.5073
 8595SOL     OW37246   2.265   3.470   7.998 -0.2327 -0.0825  0.2522
 8595SOL    HW137247   2.315   3.395   7.968 -2.0957 -0.9387 -0.6929
 8595SOL    HW237248   2.317   3.493   8.076  0.1447  2.0303 -0.6217
 8596SOL     OW37249   2.803   3.131  15.406  0.1670 -0.9247  0.1330
 8596SOL    HW137250   2.842   3.178  15.333 -1.6881  0.0221 -0.2428
 8596SOL    HW237251   2.749   3.064  15.365  0.0585  0.8729 -2.6528
 8597SOL     OW37252   3.702   0.404   3.901  0.1899  0.2730 -0.3660
 8597SOL    HW137253   3.735   0.474   3.958  0.6530  0.0044 -0.3037
 8597SOL    HW237254   3.623   0.394   3.954  0.1028  2.9141  0.0072
 8598SOL     OW37255   2.787   2.027   2.945 -0.1792 -0.6232 -0.4580
 8598SOL    HW137256   2.757   2.039   2.855  1.2946 -0.9119 -0.9737
 8598SOL    HW237257   2.739   2.087   3.003  1.4137  0.3826 -0.1736
 8599SOL     OW37258   2.730   3.129   9.510  0.0408  0.8473  0.1411
 8599SOL    HW137259   2.707   3.201   9.569 -0.3901  1.2334 -0.4971
 8599SOL    HW237260   2.781   3.071   9.566 -3.3479 -0.6136  1.7139
 8600SOL     OW37261   0.044   3.780   2.766 -0.0185  0.6890 -0.3126
 8600SOL    HW137262   0.126   3.824   2.746  1.1731 -1.5319 -0.3988
 8600SOL    HW237263   4.710   3.856   2.788 -0.4911  0.5162 -0.8796
 8601SOL     OW37264   3.580   3.782  15.102 -0.3875  0.5691 -0.2217
 8601SOL    HW137265   3.591   3.693  15.135 -3.0276  0.4876  0.4644
 8601SOL    HW237266   3.551   3.767  15.012  0.8770 -0.0567 -0.5297
 8602SOL     OW37267   1.287   3.920   6.722 -0.2187  0.0779  0.0834
 8602SOL    HW137268   1.237   3.925   6.803 -0.0781  2.7140 -0.0076
 8602SOL    HW237269   1.288   4.013   6.701 -1.0738  0.5927  2.3187
 8603SOL     OW37270   0.636   1.631  13.605 -0.5876 -0.2755  0.1977
 8603SOL    HW137271   0.552   1.589  13.586  0.6332 -2.7138  0.2018
 8603SOL    HW237272   0.612   1.720  13.579 -4.2531 -1.4036 -0.2319
 8604SOL     OW37273   0.008   1.394  15.703 -0.2331 -0.5645  0.0861
 8604SOL    HW137274   0.049   1.479  15.684 -5.0406  1.6744 -0.2092
 8604SOL    HW237275   4.655   1.396  15.642  1.0276  1.7817 -1.3588
 8605SOL     OW37276   0.798   2.778   3.827 -0.0194 -0.6128  0.8219
 8605SOL    HW137277   0.764   2.769   3.916 -0.6266 -0.7100  0.5801
 8605SOL    HW237278   0.740   2.846   3.792 -0.2646 -2.0953 -1.6771
 8606SOL     OW37279   2.059   2.403  14.481  0.2528  0.0971 -0.1221
 8606SOL    HW137280   1.979   2.370  14.523 -1.1759  0.8474 -2.2419
 8606SOL    HW237281   2.109   2.412  14.563  0.3441  3.8414 -0.5785
 8607SOL     OW37282   0.751   4.490  12.818  0.6754 -0.0462  0.6596
 8607SOL    HW137283   0.746   4.395  12.815 -0.4590  0.0396 -0.1119
 8607SOL    HW237284   0.661   4.522  12.814  0.0534 -1.8808  0.4547
 8608SOL     OW37285   4.545   0.898   0.518  0.2476 -0.0762 -0.7993
 8608SOL    HW137286   4.546   0.991   0.542  0.5926  0.2840 -2.2089
 8608SOL    HW237287   4.636   0.888   0.490  0.6741 -0.8172  0.8654
 8609SOL     OW37288   1.122   0.023   9.167  0.3246  0.0338  0.1892
 8609SOL    HW137289   1.064   0.039   9.241  0.6779  0.1802  0.4349
 8609SOL    HW237290   1.121   0.106   9.118 -0.8105  1.0491  1.9461
 8610SOL     OW37291   1.507   1.381  16.191  0.4618 -0.1754  0.3572
 8610SOL    HW137292   1.453   1.336  16.126  0.4712  1.6356 -0.9078
 8610SOL    HW237293   1.594   1.347  16.170  0.2148  0.1411 -1.1481
 8611SOL     OW37294   2.889   2.744  12.673  0.3977 -0.9931  0.4489
 8611SOL    HW137295   2.840   2.721  12.752 -1.4179  0.0660 -0.3399
 8611SOL    HW237296   2.930   2.659  12.659 -1.6409 -1.6250 -1.6235
 8612SOL     OW37297   2.285   3.690   0.687 -0.8954 -0.8913 -0.0047
 8612SOL    HW137298   2.282   3.756   0.617 -0.3894 -1.4044 -0.5198
 8612SOL    HW237299   2.290   3.744   0.765  0.9761  1.7395 -1.9297
 8613SOL     OW37300   0.790   0.317   2.903  0.2348 -0.1666  0.2172
 8613SOL    HW137301   0.779   0.226   2.927 -0.0674  0.3206  1.9050
 8613SOL    HW237302   0.830   0.363   2.977  0.4244  0.6532 -0.3796
 8614SOL     OW37303   3.920   3.024   2.568 -0.3578  0.2418 -0.1777
 8614SOL    HW137304   3.944   2.942   2.525  0.7885  0.9289 -0.8421
 8614SOL    HW237305   3.849   3.048   2.508 -2.1068  0.1496  1.8658
 8615SOL     OW37306   2.877   2.863   7.762 -0.1138  0.1725 -0.9288
 8615SOL    HW137307   2.810   2.795   7.763  1.8496 -1.7776 -0.3563
 8615SOL    HW237308   2.956   2.811   7.774 -1.6145 -2.1286 -1.0295
 8616SOL     OW37309   2.694   0.970   6.744 -0.3753  0.6050  0.0759
 8616SOL    HW137310   2.606   0.933   6.733  0.5661 -1.5060 -0.3950
 8616SOL    HW237311   2.711   1.030   6.672  2.2586 -1.1513 -0.7418
 8617SOL     OW37312   3.584   3.328   3.020  0.5845  0.1457 -0.2679
 8617SOL    HW137313   3.568   3.317   3.113 -0.4253 -0.0745 -0.4701
 8617SOL    HW237314   3.624   3.414   3.020 -1.5214  1.1152  1.4624
 8618SOL     OW37315   4.148   0.263   6.642 -0.0895 -0.4433  0.6013
 8618SOL    HW137316   4.200   0.277   6.721 -0.5135  2.4834  0.3773
 8618SOL    HW237317   4.119   0.349   6.611 -0.2550  0.2105  2.5821
 8619SOL     OW37318   1.651   4.041   0.419  0.0573 -0.0473 -0.0381
 8619SOL    HW137319   1.721   4.088   0.463 -1.4233 -0.1350  2.4166
 8619SOL    HW237320   1.658   4.073   0.329  1.9872  0.9207  0.4670
 8620SOL     OW37321   3.326   3.783   7.377  0.7653 -0.4895  0.0245
 8620SOL    HW137322   3.271   3.827   7.312  1.4701 -2.1959 -1.7150
 8620SOL    HW237323   3.339   3.848   7.446  1.1384  1.2086 -1.6507
 8621SOL     OW37324   2.553   3.594   8.497  0.3798 -0.4947 -0.3225
 8621SOL    HW137325   2.460   3.590   8.520  0.0834  0.3564 -1.3639
 8621SOL    HW237326   2.551   3.683   8.462 -0.7347 -1.1197 -1.8703
 8622SOL     OW37327   0.965   0.022   9.626  0.3209 -0.8247 -0.1129
 8622SOL    HW137328   0.897   0.010   9.692  0.1779  1.7253  0.1960
 8622SOL    HW237329   1.017   0.079   9.684 -0.0609 -1.3196  0.7136
 8623SOL     OW37330   4.398   1.712   8.307 -0.5843 -0.1768  0.3700
 8623SOL    HW137331   4.319   1.762   8.327 -1.9550 -2.1807 -0.0549
 8623SOL    HW237332   4.367   1.628   8.272  2.8863 -1.3193  0.0581
 8624SOL     OW37333   1.819   2.639   6.415  0.1314 -0.9081 -0.3161
 8624SOL    HW137334   1.842   2.574   6.348  3.1997 -2.0885  1.8490
 8624SOL    HW237335   1.765   2.703   6.369 -0.2980 -1.8604 -1.1461
 8625SOL     OW37336   3.191   4.507   7.136 -0.4692  0.1603  0.2827
 8625SOL    HW137337   3.156   4.470   7.056  0.1964  2.7677 -1.2127
 8625SOL    HW237338   3.286   4.493   7.128 -0.1271  0.8315  2.8567
 8626SOL     OW37339   2.391   4.084   8.391 -0.3493 -0.6704  0.1548
 8626SOL    HW137340   2.378   4.146   8.463 -2.3946 -3.0319  1.8218
 8626SOL    HW237341   2.347   4.008   8.429  0.3803 -0.9143  0.5179
 8627SOL     OW37342   2.026   1.058   9.134 -0.0052 -0.3923 -0.4468
 8627SOL    HW137343   2.117   1.029   9.120  1.3690  2.6265  2.1789
 8627SOL    HW237344   2.013   0.985   9.195  2.1462 -0.8108 -0.4901
 8628SOL     OW37345   2.487   3.248   3.393  0.0256  0.4541 -0.0337
 8628SOL    HW137346   2.461   3.173   3.447  2.1827  1.0859  1.9016
 8628SOL    HW237347   2.571   3.218   3.359  0.1855 -1.6917  2.2451
 8629SOL     OW37348   4.572   2.285  10.965 -0.0179 -0.5394  0.3296
 8629SOL    HW137349   4.572   2.299  10.870 -0.3655  0.6888  0.5130
 8629SOL    HW237350   4.496   2.228  10.964  1.1492 -2.0891 -0.4291
 8630SOL     OW37351   0.542   0.459   8.120 -0.5636  0.1537  0.1015
 8630SOL    HW137352   0.492   0.426   8.045 -2.0583  0.8684  0.7872
 8630SOL    HW237353   0.531   0.391   8.186  2.4934  0.0810  0.5482
 8631SOL     OW37354   4.394   0.739  10.878 -0.2002 -0.2108 -0.2746
 8631SOL    HW137355   4.376   0.674  10.811  2.5940 -1.3339  0.0737
 8631SOL    HW237356   4.334   0.713  10.948 -0.2105  0.9538  0.1621
 8632SOL     OW37357   0.099   3.852  12.460  0.0740  0.0299  0.2770
 8632SOL    HW137358   0.028   3.855  12.525  1.6593 -1.4671  2.0740
 8632SOL    HW237359   0.067   3.788  12.397 -0.2755 -0.0074  0.4938
 8633SOL     OW37360   1.560   1.739   6.879 -0.1647  0.6225  0.1957
 8633SOL    HW137361   1.582   1.770   6.967 -0.2375 -0.6946  0.6823
 8633SOL    HW237362   1.557   1.827   6.842 -0.8387  1.7336  2.8909
 8634SOL     OW37363   0.533   0.728   8.175 -0.1566  0.1841  0.3326
 8634SOL    HW137364   0.536   0.717   8.270 -1.5177  1.9158  0.5612
 8634SOL    HW237365   0.501   0.641   8.152 -2.2092  0.2471  3.0111
 8635SOL     OW37366   0.792   3.073  16.552 -0.1416  0.0306 -0.3337
 8635SOL    HW137367   0.712   3.058  16.604 -0.7167  2.2864 -0.5547
 8635SOL    HW237368   0.839   3.121  16.619  1.0859 -0.3590 -0.9266
 8636SOL     OW37369   2.966   4.130   7.489 -0.3021  0.1130 -0.8055
 8636SOL    HW137370   2.927   4.173   7.413  0.3426  1.7557 -0.2255
 8636SOL    HW237371   2.964   4.036   7.469  1.5454  0.3668 -2.2584
 8637SOL     OW37372   4.700   3.484   8.402 -0.2692  0.3103  0.4847
 8637SOL    HW137373   4.705   3.558   8.342  0.6318 -0.3968 -0.3144
 8637SOL    HW237374   4.620   3.496   8.453 -1.2043 -0.5107 -0.8067
 8638SOL     OW37375   3.918   2.169   8.172 -0.4896 -0.9060 -0.0282
 8638SOL    HW137376   3.889   2.259   8.189 -1.2200 -0.7307 -2.1424
 8638SOL    HW237377   4.010   2.179   8.149 -0.3034 -2.1768  0.1764
 8639SOL     OW37378   4.293   3.110   2.280 -0.1317 -0.4522  0.0490
 8639SOL    HW137379   4.266   3.045   2.346  2.6995 -3.5116 -1.8499
 8639SOL    HW237380   4.292   3.183   2.343 -2.1535 -0.4549  0.0477
 8640SOL     OW37381   0.469   3.770   7.018  0.0407 -0.4708 -0.1034
 8640SOL    HW137382   0.436   3.768   6.929  0.4703  0.4630 -0.2920
 8640SOL    HW237383   0.401   3.827   7.054  1.6603  1.4180  0.0133
 8641SOL     OW37384   3.395   1.946   1.616  0.0456 -0.1457  0.1291
 8641SOL    HW137385   3.380   2.020   1.556  3.5344  1.1405  0.8587
 8641SOL    HW237386   3.368   1.998   1.692 -0.7587  2.2449 -1.7989
 8642SOL     OW37387   0.115   3.053   3.638  0.4785  0.1857  0.1249
 8642SOL    HW137388   0.139   3.111   3.710 -1.8426  2.7967 -1.1831
 8642SOL    HW237389   0.077   2.984   3.691 -0.0189  2.5526  2.8581
 8643SOL     OW37390   2.084   0.081  14.031 -0.5120 -0.1963  0.3349
 8643SOL    HW137391   2.170   0.051  14.002 -1.0302 -0.5893 -0.7717
 8643SOL    HW237392   2.035   0.000  14.015  0.1216 -0.7651  1.2792
 8644SOL     OW37393   3.098   1.737  13.366  0.6253 -0.4169 -0.9474
 8644SOL    HW137394   3.022   1.680  13.374 -0.1814  0.5827 -1.4967
 8644SOL    HW237395   3.083   1.783  13.448  0.4133 -1.6610 -0.2941
 8645SOL     OW37396   2.960   2.594  11.185  0.1133 -0.2422 -0.1861
 8645SOL    HW137397   2.996   2.515  11.146 -1.4088 -2.1058  2.1642
 8645SOL    HW237398   2.869   2.570  11.199  0.4091 -1.9096 -1.0692
 8646SOL     OW37399   3.208   3.126   4.515  0.0398  0.6121 -0.0580
 8646SOL    HW137400   3.294   3.101   4.482 -0.3473 -0.3749 -0.3261
 8646SOL    HW237401   3.206   3.221   4.507  1.9530  0.6703  0.1748
 8647SOL     OW37402   3.196   2.071   8.124 -0.5004 -0.0862  0.3473
 8647SOL    HW137403   3.125   2.112   8.174 -0.0579  0.4547  0.5240
 8647SOL    HW237404   3.276   2.076   8.176  1.2679  0.2218 -2.3744
 8648SOL     OW37405   3.795   4.086   7.088 -0.5034  0.0964  0.6883
 8648SOL    HW137406   3.745   4.042   7.157 -3.2733 -1.5675 -2.4107
 8648SOL    HW237407   3.822   4.008   7.040  1.2877 -0.3739  2.4491
 8649SOL     OW37408   4.390   2.989   0.326 -0.5422 -0.7104 -0.2633
 8649SOL    HW137409   4.445   3.010   0.401  1.3406 -1.1773 -1.5170
 8649SOL    HW237410   4.360   3.078   0.305 -1.3506 -0.8158  0.4333
 8650SOL     OW37411   1.651   1.391   9.199 -0.1321 -0.1902 -0.5354
 8650SOL    HW137412   1.689   1.348   9.276  2.6097  2.8531 -0.2272
 8650SOL    HW237413   1.695   1.342   9.130 -0.9053  0.8192 -1.7271
 8651SOL     OW37414   0.617   3.688   2.222 -0.3221 -0.1064 -0.1741
 8651SOL    HW137415   0.663   3.772   2.217 -0.6790  0.2406  2.0127
 8651SOL    HW237416   0.631   3.656   2.311  2.2516 -0.1814 -0.6324
 8652SOL     OW37417   0.593   1.450   3.690 -0.0031 -0.0331  0.7772
 8652SOL    HW137418   0.572   1.537   3.723 -1.8040  0.3842 -1.4526
 8652SOL    HW237419   0.572   1.472   3.599  0.4881  0.2219  0.7263
 8653SOL     OW37420   4.390   0.376  15.240 -0.0914  0.1740 -0.0957
 8653SOL    HW137421   4.457   0.406  15.179 -0.9382  1.6080 -0.3200
 8653SOL    HW237422   4.435   0.301  15.278  0.5564  0.7460  0.2772
 8654SOL     OW37423   3.254   2.794  11.176  0.8211 -0.2655  0.2415
 8654SOL    HW137424   3.335   2.802  11.126  1.4662 -1.6311  1.0561
 8654SOL    HW237425   3.274   2.714  11.224  2.1630 -0.4479 -0.6059
 8655SOL     OW37426   1.141   0.722   7.023  0.8464 -0.3881 -0.2465
 8655SOL    HW137427   1.227   0.738   7.062 -0.8674  0.1250  3.2802
 8655SOL    HW237428   1.100   0.666   7.089  2.2364  1.3319  2.0810
 8656SOL     OW37429   2.060   1.303   5.768 -0.3553  0.1913  0.1967
 8656SOL    HW137430   1.976   1.326   5.728  0.4531  1.7245 -0.6202
 8656SOL    HW237431   2.128   1.334   5.709 -1.3962  0.8602 -0.6395
 8657SOL     OW37432   3.772   0.657   9.595  0.2830  0.5582 -0.5301
 8657SOL    HW137433   3.792   0.656   9.688  2.0335  0.8935 -0.9133
 8657SOL    HW237434   3.853   0.624   9.557  0.1447 -1.4351  0.9399
 8658SOL     OW37435   0.414   1.368   6.935 -0.2124  0.2105 -0.0705
 8658SOL    HW137436   0.442   1.437   6.875 -0.5618  0.6886  0.3174
 8658SOL    HW237437   0.411   1.299   6.869  0.6705  1.0222 -0.9590
 8659SOL     OW37438   2.638   3.184  15.118 -0.0116  0.4206 -0.6382
 8659SOL    HW137439   2.733   3.194  15.118  0.0645 -0.2911 -2.0164
 8659SOL    HW237440   2.635   3.101  15.166  1.8717  0.8678  0.2480
 8660SOL     OW37441   0.660   4.065  15.079  0.9147  0.2371 -0.5784
 8660SOL    HW137442   0.604   4.007  15.131 -0.1365  1.1446 -0.7158
 8660SOL    HW237443   0.613   4.143  15.108  1.9288 -0.5160  3.1196
 8661SOL     OW37444   1.590   1.164   8.962  0.3759  0.2446 -0.1011
 8661SOL    HW137445   1.680   1.196   8.972  0.7567 -1.5829  2.1625
 8661SOL    HW237446   1.582   1.098   9.030  1.3331 -0.4141 -0.6224
 8662SOL     OW37447   3.667   1.190   3.971 -0.3654  0.7630 -0.2103
 8662SOL    HW137448   3.711   1.149   3.897  0.8833 -1.1026  1.5887
 8662SOL    HW237449   3.711   1.151   4.046 -0.7997 -0.0966 -0.4047
 8663SOL     OW37450   0.692   4.688   9.721  0.3227  0.4102  0.3479
 8663SOL    HW137451   0.728   4.599   9.724  0.3252  0.3218 -2.0809
 8663SOL    HW237452   0.633   4.687   9.646  1.3194 -1.6266 -0.4055
 8664SOL     OW37453   3.686   1.489   9.215 -0.3443 -0.1946 -0.0709
 8664SOL    HW137454   3.609   1.433   9.201 -0.9006  1.1747 -2.5398
 8664SOL    HW237455   3.701   1.512   9.123 -0.0867 -1.4147 -0.3444
 8665SOL     OW37456   1.691   0.422   5.823 -0.1460 -0.4678 -0.3267
 8665SOL    HW137457   1.779   0.404   5.791  0.1758  1.3727 -0.5005
 8665SOL    HW237458   1.667   0.496   5.767  2.6071 -0.5024 -1.5655
 8666SOL     OW37459   1.713   3.948   4.116  0.2757 -0.1910  0.5603
 8666SOL    HW137460   1.775   3.974   4.183  1.1644 -0.9458  0.0336
 8666SOL    HW237461   1.713   4.011   4.043  1.3869 -0.6430  0.1679
 8667SOL     OW37462   4.545   2.799   8.517 -0.1316  0.0964  0.5865
 8667SOL    HW137463   4.587   2.846   8.446 -0.1400  1.1599  1.2948
 8667SOL    HW237464   4.614   2.817   8.581 -0.1797 -1.2636  1.0354
 8668SOL     OW37465   1.899   1.139  15.087 -0.5130  0.2927 -0.4682
 8668SOL    HW137466   1.932   1.070  15.030 -0.1817  0.4152 -0.4210
 8668SOL    HW237467   1.910   1.206  15.020  1.3979  0.6149  0.1692
 8669SOL     OW37468   2.232   1.049  10.287 -0.2807 -0.6438 -0.1155
 8669SOL    HW137469   2.164   0.982  10.287  0.6457 -1.5948 -1.9000
 8669SOL    HW237470   2.308   0.994  10.307 -1.1282 -0.9878  2.1133
 8670SOL     OW37471   4.200   4.136   9.078  0.1491  0.4919  0.1674
 8670SOL    HW137472   4.294   4.117   9.083  0.0019 -0.0903  0.7438
 8670SOL    HW237473   4.163   4.050   9.058  1.2732 -0.3230  1.6662
 8671SOL     OW37474   3.359   2.633   8.939  0.1885  0.1945 -0.1141
 8671SOL    HW137475   3.339   2.581   8.862  4.5098 -0.2332 -0.9709
 8671SOL    HW237476   3.269   2.663   8.953 -0.3482 -1.1995 -0.5760
 8672SOL     OW37477   3.766   2.807   3.004  0.3914  0.1631  0.3130
 8672SOL    HW137478   3.783   2.737   3.067 -0.5756 -0.1981  0.1724
 8672SOL    HW237479   3.747   2.756   2.926  0.2235  0.9880 -0.1847
 8673SOL     OW37480   0.274   1.027  10.379  0.2711 -0.2272  0.2783
 8673SOL    HW137481   0.208   1.036  10.448  0.0463  1.8635 -0.1927
 8673SOL    HW237482   0.342   0.967  10.408  1.0860  1.0218  1.0043
 8674SOL     OW37483   1.081   0.676  11.513  0.2448 -0.4514  0.4034
 8674SOL    HW137484   1.017   0.661  11.443  0.8629 -0.9330 -0.0618
 8674SOL    HW237485   1.045   0.754  11.554 -2.6935 -1.2277 -0.6822
 8675SOL     OW37486   0.946   0.681   9.064  0.1809  0.0624 -0.3513
 8675SOL    HW137487   0.898   0.599   9.054 -2.7991  1.9208 -1.1279
 8675SOL    HW237488   0.886   0.745   9.026 -1.1994 -0.6447  0.6547
 8676SOL     OW37489   4.489   0.545   9.255  0.1947  0.0719  0.0813
 8676SOL    HW137490   4.579   0.514   9.251  1.0339  2.2101  2.7750
 8676SOL    HW237491   4.468   0.560   9.162  0.5740  0.3359  0.0394
 8677SOL     OW37492   2.983   3.721  12.330 -0.1422  0.1554  0.2726
 8677SOL    HW137493   2.906   3.722  12.387 -0.1451  0.6830  0.2675
 8677SOL    HW237494   2.970   3.790  12.265  1.7002  2.2294  2.1012
 8678SOL     OW37495   3.845   2.047   5.166 -0.1432  0.4580 -0.4017
 8678SOL    HW137496   3.850   2.102   5.244  1.4442 -2.5796  1.5970
 8678SOL    HW237497   3.755   2.016   5.165 -0.3831  1.1651 -1.1285
 8679SOL     OW37498   2.130   3.573   1.543 -0.7193  0.3902 -0.0412
 8679SOL    HW137499   2.191   3.593   1.614 -2.1020 -2.2521  1.8694
 8679SOL    HW237500   2.063   3.640   1.555  0.3808  1.4135  0.4965
 8680SOL     OW37501   1.621   4.704  12.812 -0.3617 -0.2998 -0.0115
 8680SOL    HW137502   1.529   4.701  12.839 -0.6071  2.7872 -0.4951
 8680SOL    HW237503   1.648   0.063  12.859 -1.9456  0.0791  0.2453
 8681SOL     OW37504   1.511   1.140   9.668  0.1110 -0.1605 -0.1602
 8681SOL    HW137505   1.474   1.073   9.612 -0.8462  0.1151  0.1439
 8681SOL    HW237506   1.425   1.172   9.697 -0.1115 -0.6479 -0.2901
 8682SOL     OW37507   2.835   3.010   8.492 -0.3820 -0.5418 -0.0928
 8682SOL    HW137508   2.896   3.079   8.464 -1.6480 -0.1094 -1.7157
 8682SOL    HW237509   2.830   3.018   8.588  1.0174 -1.3499  0.0557
 8683SOL     OW37510   2.916   2.918   3.139 -0.3282 -0.2220  0.3369
 8683SOL    HW137511   2.998   2.963   3.120 -0.3147  0.3491  1.7007
 8683SOL    HW237512   2.863   2.947   3.065 -0.5694  2.9389  1.7452
 8684SOL     OW37513   0.999   2.583   8.987  0.4597 -0.2633 -0.7371
 8684SOL    HW137514   1.033   2.563   9.075  0.1719  1.2269 -0.2825
 8684SOL    HW237515   1.009   2.678   8.985  2.0974 -0.3961  0.9676
 8685SOL     OW37516   1.662   2.316  17.278  0.7599 -0.5162 -0.1225
 8685SOL    HW137517   1.653   2.362  17.195 -0.0193  2.0262  1.3910
 8685SOL    HW237518   1.616   2.235  17.254  1.1741 -0.8660  0.2514
 8686SOL     OW37519   1.336   0.218  13.145  0.4794 -0.2342 -0.6149
 8686SOL    HW137520   1.277   0.169  13.203 -1.6360  1.4676 -1.3110
 8686SOL    HW237521   1.400   0.261  13.201  0.6713  1.0571 -1.8312
 8687SOL     OW37522   3.439   3.337   7.724 -0.0893  0.5614  0.7895
 8687SOL    HW137523   3.364   3.288   7.758  0.6331 -1.0167  0.0690
 8687SOL    HW237524   3.484   3.354   7.807  0.6094 -0.0247  0.5225
 8688SOL     OW37525   2.694   2.031   2.548 -0.2310  0.2316 -0.4323
 8688SOL    HW137526   2.718   1.943   2.578 -0.9327  1.4752  3.7600
 8688SOL    HW237527   2.605   2.013   2.516 -1.7302  1.7358  2.8855
 8689SOL     OW37528   0.147   1.178   1.836  0.7520  0.3827  0.1983
 8689SOL    HW137529   0.157   1.093   1.793  1.6964  0.6257 -0.0630
 8689SOL    HW237530   0.080   1.155   1.900 -0.3102 -1.8672 -1.7514
 8690SOL     OW37531   1.552   1.999   7.539  0.1443 -0.2135 -0.3898
 8690SOL    HW137532   1.612   2.024   7.469  2.0714 -1.5491  0.7747
 8690SOL    HW237533   1.477   1.974   7.485  1.6786 -2.1560 -1.6361
 8691SOL     OW37534   3.364   4.654   5.579 -1.0462  0.1377 -0.4289
 8691SOL    HW137535   3.301   4.673   5.510 -2.4315  1.0146  1.0666
 8691SOL    HW237536   3.356   4.560   5.593  0.5692  0.2058  0.9732
 8692SOL     OW37537   1.443   0.279   9.670  0.5586 -0.0673  0.4311
 8692SOL    HW137538   1.482   0.192   9.674 -1.6443 -1.1377 -1.5553
 8692SOL    HW237539   1.485   0.322   9.595 -1.3539  0.4008 -0.3776
 8693SOL     OW37540   0.494   0.056   4.550 -0.5819  0.1788  0.0145
 8693SOL    HW137541   0.503   4.682   4.543  1.9745  0.3402  1.2279
 8693SOL    HW237542   0.556   0.092   4.487 -1.6119  1.2001 -0.4241
 8694SOL     OW37543   1.784   3.948   1.288 -0.0613 -0.5381  0.4576
 8694SOL    HW137544   1.717   3.949   1.219  0.9673  0.1645 -0.5203
 8694SOL    HW237545   1.787   4.042   1.307  0.4442 -0.3130 -0.7363
 8695SOL     OW37546   4.184   1.527  12.478  0.1949 -0.7635 -0.1345
 8695SOL    HW137547   4.101   1.571  12.458  0.1536 -0.6727  0.2395
 8695SOL    HW237548   4.239   1.535  12.400 -1.5551  2.4640 -1.0317
 8696SOL     OW37549   3.963   3.386   8.959  0.0545 -0.1069  0.1069
 8696SOL    HW137550   4.027   3.318   8.936  1.4280  1.5251 -0.9526
 8696SOL    HW237551   3.920   3.385   8.873  1.5562 -0.6968 -0.6292
 8697SOL     OW37552   0.881   3.194   9.782  0.0229 -0.2878  0.3027
 8697SOL    HW137553   0.799   3.185   9.830 -0.6436  0.2972 -0.7070
 8697SOL    HW237554   0.873   3.117   9.726 -1.6340  1.0810 -1.3716
 8698SOL     OW37555   1.589   0.024  13.549 -0.2208  0.3823  0.6223
 8698SOL    HW137556   1.553   0.055  13.632  0.9605 -0.2391  1.3728
 8698SOL    HW237557   1.654   0.093  13.536  0.3302 -0.1805  0.3376
 8699SOL     OW37558   3.062   2.566   2.899 -0.3712 -0.5861  0.0126
 8699SOL    HW137559   3.027   2.488   2.856  0.5774 -0.7824 -0.3963
 8699SOL    HW237560   3.147   2.532   2.927 -0.0841 -0.1081 -0.2795
 8700SOL     OW37561   1.301   1.374   4.774  0.8327  0.2889 -0.5840
 8700SOL    HW137562   1.256   1.419   4.703 -2.8462 -1.9258  0.3882
 8700SOL    HW237563   1.393   1.366   4.748  1.1099 -0.7522  0.7246
 8701SOL     OW37564   1.082   2.964   7.830 -0.5201 -0.4501 -0.1928
 8701SOL    HW137565   0.998   2.918   7.829 -0.9798  0.4011 -1.0094
 8701SOL    HW237566   1.050   3.015   7.904  0.0420 -0.0484 -0.2325
 8702SOL     OW37567   2.184   4.277  11.888  0.5002  0.1032  0.3426
 8702SOL    HW137568   2.262   4.294  11.836  1.2161 -1.2893  0.9768
 8702SOL    HW237569   2.129   4.353  11.867 -0.7522 -0.3196  2.0856
 8703SOL     OW37570   2.925   3.367   3.038 -0.2444  0.0891 -0.4930
 8703SOL    HW137571   2.846   3.394   3.086  1.9490  2.1777  1.9335
 8703SOL    HW237572   2.976   3.448   3.043  0.4637 -0.4177  0.3101
 8704SOL     OW37573   1.834   4.295   1.102  0.3801  0.0294  0.0714
 8704SOL    HW137574   1.764   4.291   1.168 -0.6142  0.2084 -0.9712
 8704SOL    HW237575   1.900   4.345   1.150 -0.1152 -0.4836  1.2996
 8705SOL     OW37576   0.813   1.934   4.857  0.9427  0.3027 -0.1017
 8705SOL    HW137577   0.813   1.840   4.838 -0.1692  0.1892  0.4513
 8705SOL    HW237578   0.723   1.940   4.888  0.8465  0.7367 -0.4590
 8706SOL     OW37579   2.410   0.217   2.948 -0.4051 -0.2322 -0.0156
 8706SOL    HW137580   2.364   0.297   2.973 -0.8874 -1.0915  1.7953
 8706SOL    HW237581   2.476   0.222   3.017  0.8652  2.1681 -1.4041
 8707SOL     OW37582   1.787   0.329   2.696  0.0412 -0.3908 -0.1056
 8707SOL    HW137583   1.810   0.260   2.633  1.9952 -0.1909  0.3682
 8707SOL    HW237584   1.865   0.337   2.751  0.8930  0.4754 -1.4350
 8708SOL     OW37585   2.286   1.681   3.633  0.4786  0.0214 -0.5463
 8708SOL    HW137586   2.317   1.640   3.552 -0.2468 -0.6465 -0.4735
 8708SOL    HW237587   2.368   1.717   3.669 -0.9491  4.5815 -1.8416
 8709SOL     OW37588   2.759   1.019   9.109  0.3349  0.0161 -0.7518
 8709SOL    HW137589   2.690   0.958   9.131  1.7177 -1.3458 -0.1991
 8709SOL    HW237590   2.831   0.956   9.104 -0.5799 -1.0165 -0.8430
 8710SOL     OW37591   2.683   2.248   5.807 -0.0663  0.0018 -0.0241
 8710SOL    HW137592   2.754   2.311   5.817  0.5794 -0.9895  1.5723
 8710SOL    HW237593   2.726   2.169   5.839 -0.1388  0.0807  0.2731
 8711SOL     OW37594   2.246   2.636  16.654  0.5524 -0.5193 -0.0952
 8711SOL    HW137595   2.212   2.694  16.722  0.7598 -3.1333  2.2479
 8711SOL    HW237596   2.336   2.669  16.660  0.6244 -0.3854 -1.9985
 8712SOL     OW37597   2.249   0.836   6.486  1.0038  0.2459  0.1224
 8712SOL    HW137598   2.213   0.923   6.473 -1.1028 -0.6580 -0.1030
 8712SOL    HW237599   2.188   0.808   6.553 -0.4451  3.3158  0.0936
 8713SOL     OW37600   3.143   4.417   1.534  0.3641 -0.7403  0.6766
 8713SOL    HW137601   3.233   4.445   1.551  0.8056 -1.2399 -0.8274
 8713SOL    HW237602   3.118   4.465   1.455 -2.5970 -0.2690  1.8813
 8714SOL     OW37603   4.314   2.754   1.906  0.2971  0.4474 -0.3089
 8714SOL    HW137604   4.394   2.704   1.890  0.0844  0.7419 -2.4150
 8714SOL    HW237605   4.333   2.834   1.857 -2.6277  1.3105 -0.0274
 8715SOL     OW37606   4.401   4.333  15.137 -0.1066 -0.6717  0.5381
 8715SOL    HW137607   4.358   4.255  15.104  1.9012 -0.6045 -2.2271
 8715SOL    HW237608   4.346   4.349  15.213 -0.1083 -0.6776  0.5380
 8716SOL     OW37609   1.837   4.197   6.228 -0.4453  0.2523 -0.2400
 8716SOL    HW137610   1.767   4.242   6.275 -1.6164 -0.0855 -1.6677
 8716SOL    HW237611   1.852   4.118   6.280  0.6709 -1.0798 -2.5944
 8717SOL     OW37612   1.568   0.989   3.098 -0.1382  0.1329 -0.3243
 8717SOL    HW137613   1.496   0.975   3.037  0.8635  1.9232 -1.9054
 8717SOL    HW237614   1.530   1.045   3.166  2.0612 -0.1805  1.1686
 8718SOL     OW37615   4.011   1.333   9.218  0.2239 -0.8115 -0.1739
 8718SOL    HW137616   3.928   1.316   9.262  0.4693 -1.4179  0.0573
 8718SOL    HW237617   4.069   1.309   9.290 -1.3615 -2.4449  0.5728
 8719SOL     OW37618   0.018   2.179   7.566  0.7437  0.0029  0.0818
 8719SOL    HW137619   4.671   2.209   7.627  1.7927  2.4845 -0.0056
 8719SOL    HW237620   4.690   2.124   7.505 -1.2380  0.2881  1.3907
 8720SOL     OW37621   3.652   1.568   2.000 -0.4834  0.3228  0.2428
 8720SOL    HW137622   3.562   1.599   1.993 -0.9807 -1.3629 -0.8452
 8720SOL    HW237623   3.642   1.473   1.996 -1.0359  0.2308  3.6805
 8721SOL     OW37624   1.633   4.475   7.384 -0.2104  0.3549 -0.0792
 8721SOL    HW137625   1.701   4.468   7.317  0.6414  2.1548  0.5999
 8721SOL    HW237626   1.577   4.546   7.353 -0.5788 -0.2159 -0.7190
 8722SOL     OW37627   2.722   0.094   3.437  0.4109 -0.5325 -0.1229
 8722SOL    HW137628   2.693   0.003   3.429 -0.2862 -0.2216 -1.0097
 8722SOL    HW237629   2.812   0.081   3.406 -0.0113  0.5769 -1.7967
 8723SOL     OW37630   0.379   2.715  14.025  0.4674  0.1004  0.3358
 8723SOL    HW137631   0.428   2.648  13.978  0.5067 -0.1443  0.7294
 8723SOL    HW237632   0.362   2.785  13.961 -0.9806 -0.7812 -0.2572
 8724SOL     OW37633   2.931   3.169   9.266  1.3355  0.2702 -0.5672
 8724SOL    HW137634   2.998   3.194   9.329  2.2265 -0.4179 -1.2296
 8724SOL    HW237635   2.887   3.094   9.304  0.7162  0.1145 -1.5920
 8725SOL     OW37636   2.799   0.361  13.673  0.2264  0.4243  0.1252
 8725SOL    HW137637   2.761   0.278  13.642 -1.5983  1.7956 -1.2667
 8725SOL    HW237638   2.718   0.411  13.663 -0.0118 -0.0357 -0.2615
 8726SOL     OW37639   3.628   3.959   7.306 -0.2973  0.0529 -0.2657
 8726SOL    HW137640   3.646   3.913   7.388  0.4190  2.0301  0.6827
 8726SOL    HW237641   3.633   4.050   7.334  0.4683  0.4374 -1.6433
 8727SOL     OW37642   2.626   0.447   9.296  0.3937 -0.1442  0.4719
 8727SOL    HW137643   2.568   0.405   9.233  1.0946 -0.7386  0.2303
 8727SOL    HW237644   2.708   0.402   9.277 -0.4185 -0.8816 -1.2843
 8728SOL     OW37645   1.481   4.423   6.734 -0.1731  0.1486 -0.0649
 8728SOL    HW137646   1.473   4.505   6.781  2.5291 -0.2324  1.0768
 8728SOL    HW237647   1.576   4.426   6.717 -0.2696 -0.7206 -0.7932
 8729SOL     OW37648   3.780   0.812   2.537 -0.7865 -0.1847 -0.5463
 8729SOL    HW137649   3.789   0.724   2.501  1.2785 -0.0080 -0.4985
 8729SOL    HW237650   3.731   0.788   2.615  0.3108  0.2171  0.2711
 8730SOL     OW37651   2.643   3.837   0.948  0.2553 -0.4790 -0.0708
 8730SOL    HW137652   2.690   3.919   0.932  0.1031 -0.1104  1.3493
 8730SOL    HW237653   2.671   3.787   0.871  0.0177 -0.3547 -0.2364
 8731SOL     OW37654   4.496   0.093   6.683  0.5283  0.0220  0.0175
 8731SOL    HW137655   4.435   0.054   6.746 -1.0834  4.0495  0.9612
 8731SOL    HW237656   4.456   0.076   6.597  0.8100  0.4426 -0.1919
 8732SOL     OW37657   3.569   1.246   1.231 -0.0239  0.6898 -0.1171
 8732SOL    HW137658   3.484   1.231   1.272 -1.3100 -1.2162 -3.5374
 8732SOL    HW237659   3.607   1.291   1.307  0.2338  1.3019 -0.6120
 8733SOL     OW37660   4.049   2.910   1.908  0.6128 -0.0794 -0.1897
 8733SOL    HW137661   4.102   2.980   1.947 -0.5936  1.2116 -0.8568
 8733SOL    HW237662   4.114   2.840   1.906  0.2770 -0.3840 -0.3503
 8734SOL     OW37663   0.950   1.771   1.578  0.5043 -0.0048 -0.3305
 8734SOL    HW137664   0.878   1.829   1.553  0.9779  1.6007  2.0323
 8734SOL    HW237665   1.014   1.790   1.509  0.4054  0.8336 -0.1960
 8735SOL     OW37666   1.475   2.905   7.183  0.2577 -0.5960  0.3673
 8735SOL    HW137667   1.505   2.902   7.274  0.0903  0.7952  0.4682
 8735SOL    HW237668   1.478   2.810   7.170  1.7683 -0.2251 -1.9566
 8736SOL     OW37669   3.392   2.048   9.920 -0.1192 -0.7703  0.3246
 8736SOL    HW137670   3.426   2.032  10.008 -0.8991 -1.6924  0.4624
 8736SOL    HW237671   3.309   2.000   9.916  1.7352 -3.9053 -0.4448
 8737SOL     OW37672   3.047   1.074   0.970 -0.4319  0.3061 -0.4139
 8737SOL    HW137673   3.082   1.162   0.986  0.2170  0.0332 -0.3377
 8737SOL    HW237674   2.990   1.073   1.047  1.9327 -1.4255  1.3237
 8738SOL     OW37675   2.657   1.552  13.881  0.2554  0.2986  0.1073
 8738SOL    HW137676   2.583   1.605  13.910  1.2417  2.6317 -1.6816
 8738SOL    HW237677   2.715   1.622  13.852 -0.2760  1.7427  2.5162
 8739SOL     OW37678   4.356   4.496  13.887  0.3134  0.1333  0.2539
 8739SOL    HW137679   4.373   4.447  13.968  1.5906 -0.3682 -0.3235
 8739SOL    HW237680   4.260   4.494  13.878  0.2856 -0.5841  0.6613
 8740SOL     OW37681   2.559   0.083  16.942  0.4105  0.2195 -0.4114
 8740SOL    HW137682   2.476   0.104  16.900 -0.0321 -1.6705 -0.4930
 8740SOL    HW237683   2.602   0.049  16.864  0.1045 -1.9732  0.3636
 8741SOL     OW37684   0.485   1.946  14.743  0.2599 -0.3626 -0.2577
 8741SOL    HW137685   0.530   2.029  14.729 -2.3309  0.7496 -2.1398
 8741SOL    HW237686   0.401   1.958  14.699 -0.4581 -0.4551  1.0792
 8742SOL     OW37687   3.710   4.184   8.811 -0.2334  0.2328  0.1290
 8742SOL    HW137688   3.798   4.149   8.798  0.3452  1.3069  1.2293
 8742SOL    HW237689   3.737   4.275   8.804 -0.3002  0.3370  1.1493
 8743SOL     OW37690   0.414   4.041   5.431 -0.0402 -0.0985 -0.6268
 8743SOL    HW137691   0.414   4.135   5.448 -1.6186 -0.3827  0.9666
 8743SOL    HW237692   0.342   4.036   5.368 -2.4078  0.4398  2.0427
 8744SOL     OW37693   4.393   1.842   0.647 -0.3698  0.3420 -0.3612
 8744SOL    HW137694   4.343   1.880   0.575  2.2410  1.2637 -1.6865
 8744SOL    HW237695   4.427   1.916   0.697 -0.5887  1.2020 -1.4901
 8745SOL     OW37696   4.184   3.521   9.731  0.0259 -0.4408 -0.0695
 8745SOL    HW137697   4.141   3.437   9.716  1.5923 -1.4905  1.3792
 8745SOL    HW237698   4.145   3.571   9.659 -1.9719  1.0637  2.0379
 8746SOL     OW37699   3.029   3.624   8.216 -0.0096 -0.4584  0.3314
 8746SOL    HW137700   3.031   3.660   8.127  1.2914 -0.2054  0.4592
 8746SOL    HW237701   2.957   3.564   8.199  0.3694 -1.2125  1.3668
 8747SOL     OW37702   0.283   2.582   4.491  0.2509 -0.1244 -0.3583
 8747SOL    HW137703   0.227   2.635   4.434  1.0815 -0.0374 -1.0827
 8747SOL    HW237704   0.214   2.554   4.551  0.2281  0.0184 -0.3199
 8748SOL     OW37705   1.766   0.178  12.966  0.0359  0.3933 -0.4965
 8748SOL    HW137706   1.828   0.106  12.956 -0.6181 -0.1014 -1.0178
 8748SOL    HW237707   1.752   0.182  13.061  3.3971 -2.0780  0.1161
 8749SOL     OW37708   2.035   0.869   3.009 -0.3827  0.3012  0.3350
 8749SOL    HW137709   2.000   0.937   2.952  0.7637 -1.9478 -3.0332
 8749SOL    HW237710   1.995   0.884   3.095 -2.3210 -0.1078 -0.4959
 8750SOL     OW37711   0.411   1.173   3.383  0.0297  0.2163  0.5042
 8750SOL    HW137712   0.442   1.250   3.335  1.5984 -0.6077  0.1900
 8750SOL    HW237713   0.323   1.168   3.347  0.0623  1.3962  0.2609
 8751SOL     OW37714   1.818   1.475   8.813 -0.7884 -0.0441  0.2160
 8751SOL    HW137715   1.754   1.542   8.835 -0.1533  1.6628 -3.0728
 8751SOL    HW237716   1.881   1.535   8.773 -0.4874 -0.4019  0.1581
 8752SOL     OW37717   3.961   3.541  17.667  0.4516 -0.2434 -0.0758
 8752SOL    HW137718   3.984   3.450  17.647  1.1684 -0.4575  1.7055
 8752SOL    HW237719   3.878   3.552  17.620  1.8539  2.1518 -1.9864
 8753SOL     OW37720   1.610   3.299   2.831  0.2368 -0.8637  0.0723
 8753SOL    HW137721   1.553   3.286   2.906  1.4420  1.3197  1.3753
 8753SOL    HW237722   1.680   3.343   2.878  0.0748  0.0564 -0.5404
 8754SOL     OW37723   1.101   2.399   3.307 -0.5280 -0.5549 -0.1262
 8754SOL    HW137724   1.075   2.490   3.298  1.4050  0.0586  0.5657
 8754SOL    HW237725   1.122   2.367   3.219  0.9352  1.0131 -0.3343
 8755SOL     OW37726   1.871   2.366   6.980  0.1820 -0.1348  0.4909
 8755SOL    HW137727   1.861   2.271   6.968  1.9600  0.0614 -2.7969
 8755SOL    HW237728   1.963   2.377   6.954 -0.7862  0.5334 -2.6694
 8756SOL     OW37729   4.194   0.940   2.903 -0.1322 -0.2711 -0.3238
 8756SOL    HW137730   4.104   0.946   2.936  0.8412 -0.7362  2.4194
 8756SOL    HW237731   4.178   0.926   2.810  0.7648 -1.7185 -0.2598
 8757SOL     OW37732   0.806   2.240   5.701  0.2547 -0.6266  0.0264
 8757SOL    HW137733   0.786   2.164   5.646  0.7165  1.0010 -2.4198
 8757SOL    HW237734   0.888   2.263   5.657  1.7728  1.5170  4.0115
 8758SOL     OW37735   2.276   3.597  16.895  0.7381 -0.4736  0.1070
 8758SOL    HW137736   2.277   3.523  16.956 -2.2768 -0.5376  0.0903
 8758SOL    HW237737   2.299   3.565  16.807 -3.3287  3.6298 -2.4988
 8759SOL     OW37738   3.764   0.538   3.677 -0.5865  0.7616 -0.1412
 8759SOL    HW137739   3.735   0.492   3.755  0.8957  0.7349  0.3876
 8759SOL    HW237740   3.785   0.628   3.702 -1.0103  0.5006  1.1319
 8760SOL     OW37741   1.389   1.142  13.434 -0.3749  0.0336  0.3466
 8760SOL    HW137742   1.330   1.164  13.506  1.0856  0.8664  1.2890
 8760SOL    HW237743   1.427   1.057  13.458 -1.8107 -0.0095  2.4143
 8761SOL     OW37744   1.716   3.008   5.287  0.3210 -0.4328  0.5721
 8761SOL    HW137745   1.771   2.937   5.320 -1.0211 -1.4838  0.5109
 8761SOL    HW237746   1.679   3.045   5.367 -1.7946 -0.1851 -0.5099
 8762SOL     OW37747   3.623   1.534   4.060  0.1163  0.7933 -0.2014
 8762SOL    HW137748   3.612   1.629   4.056  1.5177  0.9075 -1.2967
 8762SOL    HW237749   3.535   1.521   4.025 -0.4510 -1.4788  2.0580
 8763SOL     OW37750   2.221   1.609   5.915  0.1524  0.1138  0.2779
 8763SOL    HW137751   2.242   1.538   5.854  1.5228  0.2771  0.5569
 8763SOL    HW237752   2.164   1.568   5.980  1.5548  1.1124  2.1655
 8764SOL     OW37753   0.741   1.172  11.203 -0.5131 -0.2407 -0.4239
 8764SOL    HW137754   0.681   1.242  11.231  1.7087  1.2843  0.4675
 8764SOL    HW237755   0.681   1.105  11.169 -0.5361  0.1907 -1.2211
 8765SOL     OW37756   0.039   2.344   6.500  0.6148  0.1872  0.5723
 8765SOL    HW137757   0.097   2.396   6.445  0.7173 -0.2744  0.2450
 8765SOL    HW237758   0.097   2.272   6.525 -1.6954 -1.4956  1.0794
 8766SOL     OW37759   3.127   1.342   4.178 -0.4777 -0.1589  0.0918
 8766SOL    HW137760   3.055   1.321   4.118  0.3201  0.5915 -1.1086
 8766SOL    HW237761   3.143   1.257   4.218 -0.7904  0.9783  2.6039
 8767SOL     OW37762   0.874   0.646   6.732  0.1557  0.0227 -0.3373
 8767SOL    HW137763   0.952   0.591   6.734 -0.7454 -1.2788 -1.6807
 8767SOL    HW237764   0.911   0.723   6.689  0.1904 -0.3778 -1.0133
 8768SOL     OW37765   1.578   3.434   3.321  0.1710 -0.3390 -0.1955
 8768SOL    HW137766   1.632   3.367   3.278  0.4351 -0.7601  0.7930
 8768SOL    HW237767   1.499   3.386   3.345 -0.2417  0.1672 -0.5575
 8769SOL     OW37768   1.389   4.603   6.454  0.2187  0.1234  0.8875
 8769SOL    HW137769   1.300   4.568   6.449  0.3911 -0.4529  1.8442
 8769SOL    HW237770   1.397   4.639   6.543  1.1503 -1.5457  1.4763
 8770SOL     OW37771   2.699   0.308   7.400  0.4410 -0.0088  0.0428
 8770SOL    HW137772   2.686   0.395   7.361 -1.2172 -1.2717 -2.1977
 8770SOL    HW237773   2.755   0.263   7.337  1.4063  0.1066  0.8282
 8771SOL     OW37774   2.755   1.445   9.119  0.3009 -0.6489  0.1051
 8771SOL    HW137775   2.839   1.405   9.095 -0.2836 -1.7326 -0.1205
 8771SOL    HW237776   2.785   1.534   9.140 -1.5102  0.1855 -0.8359
 8772SOL     OW37777   4.361   3.308   3.791  0.2883 -0.3426 -0.1763
 8772SOL    HW137778   4.275   3.345   3.774 -0.1779 -1.5870 -0.5698
 8772SOL    HW237779   4.349   3.217   3.819 -1.1415  0.3300  1.3989
 8773SOL     OW37780   4.043   2.005   1.853 -0.2933  0.4324  0.4454
 8773SOL    HW137781   4.053   1.940   1.783  1.4050 -2.7311  3.6623
 8773SOL    HW237782   4.017   2.087   1.811  1.3761  0.8409  0.1876
 8774SOL     OW37783   0.887   2.274   2.685 -0.4289  0.3968  0.3733
 8774SOL    HW137784   0.820   2.207   2.695  0.4931 -0.5010  0.5131
 8774SOL    HW237785   0.937   2.248   2.762 -1.4699  2.8271  1.8853
 8775SOL     OW37786   2.520   4.665   4.826 -0.1928 -0.6994 -0.0476
 8775SOL    HW137787   2.613   4.665   4.806  0.2029 -2.5567  1.7118
 8775SOL    HW237788   2.484   4.682   4.739 -0.8604  1.0237  0.5633
 8776SOL     OW37789   0.010   3.043   5.210 -0.3734  0.1216 -0.3531
 8776SOL    HW137790   0.078   3.091   5.258  0.1142 -1.8138  0.8733
 8776SOL    HW237791   0.016   2.958   5.252 -2.5879 -0.4310 -1.1388
 8777SOL     OW37792   0.390   0.194   2.593  0.1228  0.1228 -0.6019
 8777SOL    HW137793   0.421   0.281   2.571 -0.4222  0.5424  0.3040
 8777SOL    HW237794   0.474   0.158   2.623 -1.1175 -0.3595  2.2948
 8778SOL     OW37795   4.674   1.277   3.538 -0.5341  0.1738 -0.4594
 8778SOL    HW137796   4.648   1.262   3.628  3.5350 -1.9878  0.3563
 8778SOL    HW237797   4.592   1.298   3.493  0.4087  0.0546 -2.2522
 8779SOL     OW37798   1.907   0.389   6.905 -0.6380  0.1663 -0.2543
 8779SOL    HW137799   1.887   0.471   6.949 -1.3269 -1.2749  2.1374
 8779SOL    HW237800   1.993   0.368   6.941  0.3158  0.6759 -2.2285
 8780SOL     OW37801   2.442   2.180   4.405  0.7253 -0.2037  0.1643
 8780SOL    HW137802   2.522   2.212   4.364  0.8888 -2.3893 -1.2108
 8780SOL    HW237803   2.390   2.156   4.328  1.2697  1.5152 -0.7379
 8781SOL     OW37804   2.754   3.163   1.584  0.1392 -0.2852  0.3422
 8781SOL    HW137805   2.702   3.243   1.579 -0.1671 -0.4231  1.3533
 8781SOL    HW237806   2.822   3.176   1.518 -1.6116  0.8014 -1.2694
 8782SOL     OW37807   0.572   1.128  13.592  0.1483  0.0344 -0.4084
 8782SOL    HW137808   0.521   1.077  13.655 -0.1331  2.1247  1.0500
 8782SOL    HW237809   0.500   1.192  13.587  0.9787  1.1221  1.6090
 8783SOL     OW37810   2.389   4.498   6.358 -0.6299 -0.4843  0.0539
 8783SOL    HW137811   2.303   4.523   6.323  0.1285 -2.1477 -3.0549
 8783SOL    HW237812   2.421   4.579   6.396 -0.4944 -0.2757 -0.5058
 8784SOL     OW37813   3.183   1.050   3.363  0.0848 -0.0365 -0.4368
 8784SOL    HW137814   3.107   1.004   3.400  0.2022 -0.3748 -0.6163
 8784SOL    HW237815   3.134   1.073   3.284  0.8129  2.3501 -0.1591
 8785SOL     OW37816   4.207   0.572  15.013  0.6612  0.0983 -0.6595
 8785SOL    HW137817   4.198   0.478  15.026  2.3449  0.1624  0.8684
 8785SOL    HW237818   4.249   0.598  15.095 -1.0348 -0.4235  0.3767
 8786SOL     OW37819   2.834   2.490  13.076 -0.0021 -0.3899 -0.6443
 8786SOL    HW137820   2.847   2.403  13.115 -0.9176 -0.6062 -0.8332
 8786SOL    HW237821   2.744   2.515  13.095  0.1997  0.2620 -0.5481
 8787SOL     OW37822   3.503   1.605   8.181  0.1893  0.0750 -0.3083
 8787SOL    HW137823   3.437   1.658   8.225  1.2186  1.2084 -0.1338
 8787SOL    HW237824   3.509   1.535   8.246 -0.1373  2.7642  2.6474
 8788SOL     OW37825   3.405   3.159   2.110  0.1213  0.0580 -0.3789
 8788SOL    HW137826   3.422   3.241   2.157 -1.0740 -0.3227  0.7183
 8788SOL    HW237827   3.476   3.102   2.137  0.0366 -0.7277 -1.8654
 8789SOL     OW37828   4.427   3.758   6.064  0.5267  0.4928 -0.0141
 8789SOL    HW137829   4.379   3.780   6.144  1.3421  0.5907  0.4501
 8789SOL    HW237830   4.434   3.846   6.027 -0.4060 -0.0403 -1.4319
 8790SOL     OW37831   3.442   2.690   3.808 -0.0795 -0.4428  0.8096
 8790SOL    HW137832   3.410   2.699   3.898  0.4019 -1.2379  1.0612
 8790SOL    HW237833   3.500   2.616   3.828  2.5045  0.7665 -2.2254
 8791SOL     OW37834   0.542   2.296   2.968  0.4764  0.3405  0.1133
 8791SOL    HW137835   0.591   2.227   2.924  1.6529  1.3005 -0.0948
 8791SOL    HW237836   0.546   2.375   2.914  0.0934 -0.0440 -0.4788
 8792SOL     OW37837   1.711   2.059   6.142  0.4590 -0.6080 -0.0459
 8792SOL    HW137838   1.636   2.118   6.145 -0.6408 -2.0620  0.6612
 8792SOL    HW237839   1.680   1.976   6.178  0.9936 -0.2460  1.2318
 8793SOL     OW37840   2.803   1.130   1.085 -0.0245  0.5087 -0.6103
 8793SOL    HW137841   2.840   1.208   1.044  0.7315  0.5494  0.1458
 8793SOL    HW237842   2.756   1.089   1.013  0.6249 -1.2242 -0.0400
 8794SOL     OW37843   0.119   0.031   8.443 -0.1638  0.5217 -0.1297
 8794SOL    HW137844   0.061   0.107   8.445 -1.3413 -0.3835  0.0512
 8794SOL    HW237845   0.167   0.037   8.525 -1.8655 -2.4313  1.0988
 8795SOL     OW37846   0.827   3.222   3.236 -0.1089  0.3950  0.6760
 8795SOL    HW137847   0.900   3.205   3.176 -1.8644  1.6593 -1.8376
 8795SOL    HW237848   0.866   3.290   3.290  0.2055  0.6296  0.1529
 8796SOL     OW37849   0.765   1.727   6.241  0.1180  0.1538 -0.3973
 8796SOL    HW137850   0.737   1.694   6.327 -0.0025 -1.7691 -1.1929
 8796SOL    HW237851   0.750   1.652   6.184  1.8493 -2.0203  1.9933
 8797SOL     OW37852   0.980   3.136  14.826 -0.2443 -0.4855  0.6933
 8797SOL    HW137853   0.898   3.136  14.876 -0.2908 -0.0016  0.6113
 8797SOL    HW237854   0.949   3.121  14.737  0.8820 -2.3410  0.6145
 8798SOL     OW37855   4.583   2.340  17.249 -0.3671 -0.0740  0.0651
 8798SOL    HW137856   4.667   2.306  17.217  0.6979  1.7716  0.9226
 8798SOL    HW237857   4.526   2.267  17.226 -0.9361  1.6033 -3.7139
 8799SOL     OW37858   1.686   3.755  11.560 -0.4140  0.1620 -1.2927
 8799SOL    HW137859   1.759   3.700  11.536  0.4882  0.4718  0.7043
 8799SOL    HW237860   1.656   3.768  11.470  0.1319  1.9840 -1.2202
 8800SOL     OW37861   3.600   3.997   1.576 -0.4021 -0.5772  0.0029
 8800SOL    HW137862   3.650   3.989   1.495  0.8603  0.4589  0.6731
 8800SOL    HW237863   3.513   3.969   1.549 -0.7982  0.5874  0.0972
 8801SOL     OW37864   1.007   2.327   7.542  0.2574  0.1564  0.7741
 8801SOL    HW137865   1.054   2.380   7.477 -1.4837 -1.5030 -1.8483
 8801SOL    HW237866   0.917   2.349   7.522  0.1861 -1.1162 -0.2956
 8802SOL     OW37867   2.547   0.284  11.679 -0.4916 -0.2522  0.0795
 8802SOL    HW137868   2.497   0.364  11.695  0.0439 -0.2015  1.5121
 8802SOL    HW237869   2.588   0.308  11.595 -1.1146 -0.2967 -0.2417
 8803SOL     OW37870   0.358   0.163   1.782 -0.4679 -0.1415  0.0610
 8803SOL    HW137871   0.425   0.148   1.714 -0.8991  2.1099 -0.8550
 8803SOL    HW237872   0.412   0.166   1.861 -1.1159 -0.9686  0.5373
 8804SOL     OW37873   0.053   0.109  11.893  0.1201 -0.2088 -0.0459
 8804SOL    HW137874   0.138   0.153  11.888 -0.2301  0.1913 -2.6441
 8804SOL    HW237875   0.066   0.037  11.830  0.0058 -0.9198  0.7438
 8805SOL     OW37876   1.873   0.345   0.874 -0.0115 -0.4532  0.1010
 8805SOL    HW137877   1.887   0.404   0.948 -2.4587  0.4703 -0.1795
 8805SOL    HW237878   1.845   0.404   0.805  1.0271  1.1759  1.0597
 8806SOL     OW37879   1.719   2.370   0.786 -0.4844 -0.1494  0.1802
 8806SOL    HW137880   1.648   2.434   0.780  1.6102  1.9807 -2.0079
 8806SOL    HW237881   1.785   2.398   0.722 -0.6565 -0.2052 -0.0198
 8807SOL     OW37882   0.881   4.525   7.098  0.1516 -0.2902  0.4037
 8807SOL    HW137883   0.940   4.463   7.055  0.5767  1.3330 -1.3327
 8807SOL    HW237884   0.824   4.468   7.151 -1.1868 -0.5743 -1.3241
 8808SOL     OW37885   0.445   4.487   2.643  0.3907  0.0787 -0.0518
 8808SOL    HW137886   0.484   4.565   2.604  3.4260 -0.4021  1.9952
 8808SOL    HW237887   0.351   4.507   2.638  0.2819 -0.3704  0.1870
 8809SOL     OW37888   3.286   3.460   3.128 -0.4669 -1.1118  0.0340
 8809SOL    HW137889   3.306   3.496   3.215  0.6341  1.4039 -1.2617
 8809SOL    HW237890   3.257   3.535   3.076  1.9846  0.2955  0.6886
 8810SOL     OW37891   2.563   1.015  14.219 -0.9129  0.2783  0.3283
 8810SOL    HW137892   2.657   0.998  14.215 -1.0307 -0.6568  1.6336
 8810SOL    HW237893   2.564   1.102  14.259 -1.5495  1.1479 -1.5385
 8811SOL     OW37894   1.871   2.767   8.013 -0.1131 -0.6204 -0.2867
 8811SOL    HW137895   1.885   2.673   8.025 -0.8298 -0.6930 -0.0221
 8811SOL    HW237896   1.776   2.771   8.027 -0.2329  1.8053 -1.8574
 8812SOL     OW37897   0.816   4.081   7.961  0.3744 -0.0696 -0.0944
 8812SOL    HW137898   0.772   4.026   7.897 -1.0225  0.9422  0.0216
 8812SOL    HW237899   0.865   4.141   7.905 -0.1193  0.4895  0.0883
 8813SOL     OW37900   2.566   2.316   8.398 -0.1705 -0.0839 -0.0639
 8813SOL    HW137901   2.516   2.247   8.440  1.9374 -0.2813  2.1285
 8813SOL    HW237902   2.554   2.391   8.457  3.1380 -0.6841  1.3965
 8814SOL     OW37903   3.595   4.518  14.634  0.0720 -0.4029 -0.4308
 8814SOL    HW137904   3.631   4.468  14.708  1.1895 -0.8186 -1.2412
 8814SOL    HW237905   3.531   4.571  14.681  2.0989  0.1496  1.6805
 8815SOL     OW37906   3.393   1.000   8.671  0.2420  0.2989  0.0633
 8815SOL    HW137907   3.424   0.934   8.733 -1.1261 -0.4606 -0.0562
 8815SOL    HW237908   3.428   1.080   8.711 -1.2986  0.5944  0.8359
 8816SOL     OW37909   0.305   3.936   4.899  0.0263 -0.4743 -0.5672
 8816SOL    HW137910   0.241   3.988   4.850  1.7449 -1.0802 -3.4013
 8816SOL    HW237911   0.282   3.850   4.864 -1.3323  0.3389 -1.6938
 8817SOL     OW37912   3.865   4.314  10.156  0.0610 -0.7011 -0.0943
 8817SOL    HW137913   3.923   4.382  10.123 -0.1692  0.1139  1.1607
 8817SOL    HW237914   3.847   4.247  10.090 -0.6636  1.5324 -2.1519
 8818SOL     OW37915   3.305   0.009  11.527  0.0485 -0.3796 -0.0162
 8818SOL    HW137916   3.332   4.647  11.485 -0.2555  0.3663 -1.6638
 8818SOL    HW237917   3.384   0.062  11.515 -0.9930  0.8975 -1.2630
 8819SOL     OW37918   1.739   2.596   1.229  0.3698 -0.1953 -0.1448
 8819SOL    HW137919   1.802   2.577   1.159  1.7126  0.5947  0.8443
 8819SOL    HW237920   1.787   2.660   1.281  0.2770 -0.3053  0.0751
 8820SOL     OW37921   2.255   1.622  16.645 -0.1125 -0.1062 -0.5460
 8820SOL    HW137922   2.253   1.563  16.570 -3.5585  0.4320 -0.8802
 8820SOL    HW237923   2.340   1.611  16.688 -1.2273 -0.6021  1.5708
 8821SOL     OW37924   3.238   3.225  16.040  0.3888 -0.2406  0.1222
 8821SOL    HW137925   3.275   3.137  16.034  1.9442  0.2914  2.0426
 8821SOL    HW237926   3.182   3.245  15.965 -1.1738  0.1652  1.3917
 8822SOL     OW37927   0.128   2.833   9.101  0.2966 -0.0962  0.6322
 8822SOL    HW137928   0.158   2.774   9.170  3.1612 -0.4661 -0.9152
 8822SOL    HW237929   0.087   2.768   9.044 -1.0303  0.9567  0.3882
 8823SOL     OW37930   0.821   3.715   4.695 -0.8024 -0.4797  0.1090
 8823SOL    HW137931   0.731   3.742   4.679 -0.5826  0.2628  0.1527
 8823SOL    HW237932   0.865   3.769   4.630 -1.5697  1.1706  0.9768
 8824SOL     OW37933   0.636   4.139  13.846  0.0079 -0.1912 -0.5693
 8824SOL    HW137934   0.584   4.178  13.775  0.5541  0.1817 -0.7683
 8824SOL    HW237935   0.600   4.158  13.932 -0.2802  2.2997 -1.2471
 8825SOL     OW37936   4.298   2.716   8.304 -0.3429  0.2266  0.1551
 8825SOL    HW137937   4.233   2.694   8.237  1.2064 -1.4125 -0.8337
 8825SOL    HW237938   4.247   2.749   8.378  0.4621 -0.6838  1.1196
 8826SOL     OW37939   1.946   2.144   7.889  0.3546  0.2695  0.7213
 8826SOL    HW137940   2.037   2.140   7.863 -0.0480 -0.7445 -0.5277
 8826SOL    HW237941   1.916   2.204   7.820  2.3077 -0.1780 -0.4906
 8827SOL     OW37942   1.571   4.304  17.287  0.4957  0.3965 -0.3380
 8827SOL    HW137943   1.572   4.326  17.380  1.4410 -1.6548  0.1376
 8827SOL    HW237944   1.479   4.276  17.280  0.4581  0.4643 -0.1274
 8828SOL     OW37945   1.163   1.327   7.439 -0.0845 -0.5060 -0.3840
 8828SOL    HW137946   1.119   1.389   7.381 -1.4524  1.1929  2.4432
 8828SOL    HW237947   1.251   1.366   7.446 -0.1371 -0.5392  0.4572
 8829SOL     OW37948   4.505   2.334   6.539  0.1615 -0.0155 -0.0362
 8829SOL    HW137949   4.599   2.325   6.525 -0.1545 -0.9339 -1.5121
 8829SOL    HW237950   4.500   2.295   6.626  0.7659 -2.4991 -1.1110
 8830SOL     OW37951   1.605   3.212  10.989  0.3163  0.0383 -0.1097
 8830SOL    HW137952   1.596   3.199  10.895  1.2402 -1.9959  0.0747
 8830SOL    HW237953   1.548   3.285  11.014  0.5653  0.9543 -2.2518
 8831SOL     OW37954   2.578   1.297   6.962 -0.2428 -0.8904  0.5650
 8831SOL    HW137955   2.577   1.333   6.873  3.3776 -1.1726  0.3813
 8831SOL    HW237956   2.644   1.357   6.997  1.3396 -1.6894 -1.0309
 8832SOL     OW37957   4.140   1.245   2.534  0.3402  0.4376 -0.1673
 8832SOL    HW137958   4.101   1.286   2.612 -0.1685  0.0576 -0.2269
 8832SOL    HW237959   4.109   1.311   2.472 -0.5851 -1.6365 -1.8791
 8833SOL     OW37960   3.399   2.760  17.394 -0.2189 -0.3096 -0.2708
 8833SOL    HW137961   3.475   2.737  17.448 -0.5907  1.1943  0.8884
 8833SOL    HW237962   3.356   2.817  17.457  2.9786  2.7661 -0.8596
 8834SOL     OW37963   2.213   0.443   2.451  0.6735 -0.4857  0.2109
 8834SOL    HW137964   2.207   0.357   2.410  3.3338 -0.9362  0.7363
 8834SOL    HW237965   2.251   0.489   2.376 -2.4355  0.0902 -1.0213
 8835SOL     OW37966   4.023   2.414   1.211 -0.0207 -0.9059 -0.1823
 8835SOL    HW137967   3.982   2.499   1.228  2.5266  0.0601  1.1641
 8835SOL    HW237968   4.111   2.435   1.243 -0.9820  3.3531 -0.3156
 8836SOL     OW37969   1.646   4.583   1.641 -0.5031  0.3608 -0.0923
 8836SOL    HW137970   1.553   4.580   1.622 -0.4148 -2.0800 -0.1671
 8836SOL    HW237971   1.678   4.654   1.585 -0.1176  0.7151  0.5715
 8837SOL     OW37972   4.539   0.956   5.251  0.0345 -0.2434 -0.0171
 8837SOL    HW137973   4.550   1.000   5.335 -2.4063  1.8343 -0.8052
 8837SOL    HW237974   4.448   0.926   5.258  0.1707 -1.0002 -1.4606
 8838SOL     OW37975   1.668   2.782  12.535  1.0645  0.6909 -0.5364
 8838SOL    HW137976   1.583   2.737  12.535  0.5277  1.7255 -0.2307
 8838SOL    HW237977   1.705   2.769  12.622  0.3958  2.5559  0.0112
 8839SOL     OW37978   1.172   0.221  15.276 -0.1240 -0.0722  0.1234
 8839SOL    HW137979   1.258   0.263  15.274 -1.6761  3.0297 -0.3532
 8839SOL    HW237980   1.174   0.179  15.362 -3.2350  0.4581  0.4599
 8840SOL     OW37981   1.515   0.938  13.532  0.3230  0.0651 -0.1152
 8840SOL    HW137982   1.544   0.858  13.577 -0.7923 -2.0710 -3.1312
 8840SOL    HW237983   1.597   0.960  13.489 -0.6670  0.7345 -1.6488
 8841SOL     OW37984   0.543   3.263  11.292  0.0944 -0.2823 -0.2778
 8841SOL    HW137985   0.610   3.316  11.250 -0.3192 -1.8073 -2.8477
 8841SOL    HW237986   0.468   3.310  11.255 -0.2221 -0.7682 -0.2607
 8842SOL     OW37987   0.108   0.123   9.627 -0.7088  0.2273 -0.2017
 8842SOL    HW137988   0.115   0.218   9.625 -0.1685  0.1664 -1.5160
 8842SOL    HW237989   0.115   0.098   9.719  1.0868 -2.5210 -1.0930
 8843SOL     OW37990   4.196   0.199   5.895  0.1049  0.4363 -0.0229
 8843SOL    HW137991   4.111   0.195   5.850  0.5246 -0.9343 -0.6962
 8843SOL    HW237992   4.254   0.198   5.819 -0.7390 -0.8119 -0.6577
 8844SOL     OW37993   2.002   2.879   9.161 -0.6836  0.1026  0.5558
 8844SOL    HW137994   2.054   2.958   9.152 -0.8862  0.1151 -0.4696
 8844SOL    HW237995   2.067   2.813   9.137  1.6447  1.9397  1.7815
 8845SOL     OW37996   1.672   1.255   2.678  0.3024 -0.8846  0.1608
 8845SOL    HW137997   1.659   1.194   2.750  1.3362 -2.9155 -1.3568
 8845SOL    HW237998   1.582   1.264   2.647  0.2511 -2.4822 -0.1650
 8846SOL     OW37999   1.062   2.484   8.757  0.0457  0.0903  0.0878
 8846SOL    HW138000   1.059   2.391   8.780  0.9627 -0.2228 -1.0468
 8846SOL    HW238001   1.058   2.521   8.846 -1.2751 -0.4279  0.2390
 8847SOL     OW38002   4.556   2.279   6.239  0.6986 -0.0452  0.2151
 8847SOL    HW138003   4.509   2.276   6.322 -0.9836 -0.3666 -0.7564
 8847SOL    HW238004   4.500   2.326   6.177  2.0785 -2.5126 -2.9543
 8848SOL     OW38005   2.380   1.027   5.393  0.4455  0.3744  0.1020
 8848SOL    HW138006   2.466   1.054   5.358  1.1290 -3.5408 -1.2166
 8848SOL    HW238007   2.381   0.932   5.382 -2.0618  0.3783 -0.0708
 8849SOL     OW38008   3.414   3.746   4.678  0.0875  0.0434 -0.2269
 8849SOL    HW138009   3.499   3.754   4.721 -0.1660  2.9484 -0.2680
 8849SOL    HW238010   3.393   3.660   4.714  2.0494  0.1758  1.2468
 8850SOL     OW38011   1.773   4.288   0.807 -0.0430 -0.3674 -0.0640
 8850SOL    HW138012   1.687   4.247   0.800  0.0435 -0.9052  1.9234
 8850SOL    HW238013   1.773   4.288   0.903  1.7652 -2.3415 -0.0541
 8851SOL     OW38014   3.320   0.512   9.017  0.3937  0.5297 -0.4485
 8851SOL    HW138015   3.387   0.538   9.081 -0.6743 -0.1783  0.9498
 8851SOL    HW238016   3.244   0.535   9.071 -2.0858 -0.5871 -3.5308
 8852SOL     OW38017   2.460   4.720   1.933 -0.6040 -0.5821 -0.2002
 8852SOL    HW138018   2.542   4.672   1.925 -0.5861 -0.6269  0.2314
 8852SOL    HW238019   2.420   4.695   2.017  1.9985  0.5459  1.3596
 8853SOL     OW38020   3.026   4.394  17.549  0.4026  0.0227 -0.2036
 8853SOL    HW138021   3.029   4.462  17.616  0.7561  2.1081 -2.2852
 8853SOL    HW238022   2.990   4.445  17.476  0.3234 -0.1295 -0.2716
 8854SOL     OW38023   2.819   3.166   1.874  0.0927  0.1134 -0.1541
 8854SOL    HW138024   2.786   3.147   1.786 -1.2923  1.1756  0.1516
 8854SOL    HW238025   2.740   3.167   1.928  0.4894 -0.8870  0.4497
 8855SOL     OW38026   0.351   0.289   6.610  0.3940  0.4156 -0.2701
 8855SOL    HW138027   0.411   0.339   6.555  3.1171 -0.6573  1.7507
 8855SOL    HW238028   0.269   0.296   6.560 -0.9349 -0.7925  1.7311
 8856SOL     OW38029   1.193   0.488   8.196  0.1086  0.5524 -0.1222
 8856SOL    HW138030   1.127   0.421   8.210 -0.6916  1.0379 -1.6222
 8856SOL    HW238031   1.142   0.563   8.227 -1.3572  0.1997 -1.7046
 8857SOL     OW38032   1.275   1.953  14.778  0.5610  0.7554  0.3980
 8857SOL    HW138033   1.352   1.998  14.811  1.0095 -1.2401  2.0405
 8857SOL    HW238034   1.237   2.034  14.744  1.3917  0.0528 -2.2467
 8858SOL     OW38035   3.025   0.172   5.921  0.2539 -0.1872 -0.0356
 8858SOL    HW138036   2.943   0.148   5.965 -0.8510  0.5580 -1.6512
 8858SOL    HW238037   2.999   0.247   5.868  0.3215 -0.0995  0.0576
 8859SOL     OW38038   0.402   1.824   4.713  0.0534 -0.7778  0.6664
 8859SOL    HW138039   0.487   1.812   4.672 -0.8023 -0.7839 -1.0843
 8859SOL    HW238040   0.369   1.734   4.711 -3.3824  0.4524  0.9329
 8860SOL     OW38041   0.905   1.381  17.197 -0.5868 -0.4650  0.1509
 8860SOL    HW138042   0.860   1.301  17.170 -0.7635 -0.2948 -0.0516
 8860SOL    HW238043   0.953   1.347  17.273 -0.7127  0.0738  0.4702
 8861SOL     OW38044   2.253   0.179  13.212 -0.1072 -0.2364 -0.0888
 8861SOL    HW138045   2.210   0.110  13.160 -0.2119  0.9762 -1.6080
 8861SOL    HW238046   2.238   0.140  13.298  0.4999 -1.3138 -0.4678
 8862SOL     OW38047   3.050   0.509   6.692  0.4933  0.0221 -0.1647
 8862SOL    HW138048   3.113   0.577   6.717  1.5511 -2.0896  2.9275
 8862SOL    HW238049   3.018   0.479   6.777  0.1971 -1.9860 -0.9760
 8863SOL     OW38050   1.954   4.507   2.510  0.5778  0.5840 -0.1565
 8863SOL    HW138051   1.948   4.572   2.581 -0.9863 -1.6570  1.7434
 8863SOL    HW238052   1.916   4.563   2.442  2.4677 -0.4943 -2.0896
 8864SOL     OW38053   3.981   0.913   3.691 -0.2731 -0.2746  0.2135
 8864SOL    HW138054   4.019   0.862   3.619 -1.7922 -0.6527 -0.3200
 8864SOL    HW238055   3.899   0.868   3.712  0.8480 -2.4677 -0.1380
 8865SOL     OW38056   2.339   3.566  16.358  0.0388 -0.2024  0.1076
 8865SOL    HW138057   2.412   3.554  16.298  0.2140  0.3145  0.2164
 8865SOL    HW238058   2.273   3.598  16.297  0.1879 -0.3743 -0.1434
 8866SOL     OW38059   1.311   0.381   9.879 -0.4228 -0.2779 -0.1940
 8866SOL    HW138060   1.290   0.460   9.830 -0.1978  0.5197  1.0161
 8866SOL    HW238061   1.364   0.337   9.812 -0.2342  0.4714 -0.5307
 8867SOL     OW38062   3.603   2.305   9.587  0.5650  0.0303 -0.1005
 8867SOL    HW138063   3.521   2.302   9.636  1.6893  0.5143  1.8495
 8867SOL    HW238064   3.615   2.211   9.581 -0.2103  0.0403 -1.6836
 8868SOL     OW38065   3.982   2.174   9.257 -1.1873  0.0118  0.0082
 8868SOL    HW138066   4.028   2.232   9.197 -0.2732  0.3358  1.0235
 8868SOL    HW238067   4.021   2.087   9.244 -1.8615 -0.0804 -1.3484
 8869SOL     OW38068   4.480   2.457   0.828 -0.6774 -0.0692 -0.1340
 8869SOL    HW138069   4.495   2.404   0.749 -2.1438  0.3583 -0.7075
 8869SOL    HW238070   4.480   2.546   0.792  0.5641 -0.2363 -0.5315
 8870SOL     OW38071   0.035   2.554   2.888  0.0015 -0.3796  0.1939
 8870SOL    HW138072   4.667   2.581   2.863 -0.5596  0.2787  2.8803
 8870SOL    HW238073   0.075   2.641   2.888 -1.4232  0.2800 -1.5402
 8871SOL     OW38074   3.763   3.325  10.451  0.4081  0.8258 -0.0500
 8871SOL    HW138075   3.687   3.362  10.406 -0.9319 -0.8020  0.8737
 8871SOL    HW238076   3.821   3.401  10.452 -0.9646  1.8833  1.5558
 8872SOL     OW38077   0.481   2.089   5.405 -0.1387 -0.5056  0.0912
 8872SOL    HW138078   0.491   1.994   5.414 -0.4987 -0.8394 -3.1331
 8872SOL    HW238079   0.564   2.121   5.441 -0.9993 -1.3888  2.8561
 8873SOL     OW38080   4.092   2.388   3.689 -0.3836 -0.2544 -0.0646
 8873SOL    HW138081   4.135   2.380   3.604 -1.7581 -0.0588 -0.7840
 8873SOL    HW238082   4.076   2.483   3.694 -1.9051 -0.5413  0.3372
 8874SOL     OW38083   2.959   1.772   6.961  0.1225 -0.6385  0.2666
 8874SOL    HW138084   2.955   1.791   6.867 -1.1791  0.0838  0.4697
 8874SOL    HW238085   2.947   1.677   6.955  3.1076 -1.0516  0.7024
 8875SOL     OW38086   4.341   2.132   8.955 -0.1041 -0.5673  0.0646
 8875SOL    HW138087   4.328   2.055   8.900  1.8533 -0.8366 -0.0254
 8875SOL    HW238088   4.435   2.117   8.956 -0.4134 -2.4328  0.7921
 8876SOL     OW38089   2.714   4.035   6.634 -0.1348  0.0985  0.3327
 8876SOL    HW138090   2.709   4.130   6.649  0.1777 -0.0286  1.2694
 8876SOL    HW238091   2.798   4.023   6.592  0.6542  1.0535  1.6331
 8877SOL     OW38092   3.309   2.438   5.441  0.2836 -0.3774 -0.3372
 8877SOL    HW138093   3.258   2.485   5.507 -0.0611 -0.8226 -0.2848
 8877SOL    HW238094   3.379   2.502   5.428  0.8354 -0.6524  1.2753
 8878SOL     OW38095   4.652   4.454   4.012  0.6250 -0.2340  0.6113
 8878SOL    HW138096   4.643   4.485   4.102  0.9332  0.1326  0.5178
 8878SOL    HW238097   4.575   4.489   3.967 -0.9182 -3.2771  0.8833
 8879SOL     OW38098   2.794   1.030  11.584  0.3779  0.0566 -0.2761
 8879SOL    HW138099   2.884   1.022  11.554  0.0708 -1.4180 -0.7970
 8879SOL    HW238100   2.755   0.981  11.511 -0.0372 -0.7283  0.4692
 8880SOL     OW38101   4.348   4.245   4.769 -0.3334 -0.3036  0.0212
 8880SOL    HW138102   4.356   4.201   4.684 -3.2685 -0.6024 -0.1294
 8880SOL    HW238103   4.343   4.335   4.735  1.6147  0.5920  2.1866
 8881SOL     OW38104   4.639   3.086   8.714 -0.7265  0.0789  0.1348
 8881SOL    HW138105   4.664   2.997   8.739 -2.6952 -0.1529  1.2514
 8881SOL    HW238106   4.545   3.081   8.729 -0.9505 -1.1503 -1.7873
 8882SOL     OW38107   2.928   0.807   9.098  0.2245 -0.4492 -0.3117
 8882SOL    HW138108   2.884   0.724   9.079 -0.3291 -0.0382 -0.8519
 8882SOL    HW238109   2.955   0.795   9.189 -2.1893  1.7858  0.6943
 8883SOL     OW38110   1.081   0.509   8.542 -0.0859 -0.4011 -0.1300
 8883SOL    HW138111   1.160   0.466   8.508 -0.4498 -1.0770 -0.1063
 8883SOL    HW238112   1.073   0.463   8.625 -1.2679  0.2508  0.1241
 8884SOL     OW38113   4.451   0.967   6.330 -0.5154  0.3229  0.0948
 8884SOL    HW138114   4.431   0.964   6.423 -0.9665 -3.7555 -0.1212
 8884SOL    HW238115   4.362   0.952   6.297 -1.2537  1.5535  1.5427
 8885SOL     OW38116   3.645   3.211   7.625  0.1743 -0.3136  0.1425
 8885SOL    HW138117   3.636   3.123   7.589  0.5879 -0.5314  0.5608
 8885SOL    HW238118   3.556   3.244   7.636 -0.5274 -2.5372  1.2261
 8886SOL     OW38119   1.091   3.765   7.918  0.6059 -0.3410 -0.3860
 8886SOL    HW138120   1.058   3.790   7.831  3.4674  1.2252 -1.0407
 8886SOL    HW238121   1.013   3.777   7.972  1.5431 -1.0789  1.1323
 8887SOL     OW38122   2.513   1.524   3.211  0.1554 -0.1077  0.2090
 8887SOL    HW138123   2.521   1.617   3.233 -0.5002 -0.2879  1.2250
 8887SOL    HW238124   2.469   1.536   3.127  0.8360  0.2989 -0.0842
 8888SOL     OW38125   4.430   0.168   5.109 -0.3296 -0.1158 -0.4110
 8888SOL    HW138126   4.479   0.167   5.027 -0.6874 -2.8315 -0.5859
 8888SOL    HW238127   4.354   0.113   5.089  0.7109 -2.1794  1.3551
 8889SOL     OW38128   3.747   3.445  14.814 -0.6235 -0.6748 -0.1633
 8889SOL    HW138129   3.842   3.453  14.812 -0.8490  1.1507 -3.9096
 8889SOL    HW238130   3.733   3.452  14.720  0.8370  2.1007 -0.1936
 8890SOL     OW38131   2.041   2.611  15.303  0.0151 -0.3676  0.7203
 8890SOL    HW138132   2.081   2.695  15.278 -3.1691  0.4141 -1.8726
 8890SOL    HW238133   2.096   2.572  15.371  1.7686 -0.9586 -1.0408
 8891SOL     OW38134   2.272   4.349  15.061 -0.3775  0.3265  0.4225
 8891SOL    HW138135   2.229   4.264  15.050  0.2727 -0.0727  0.9356
 8891SOL    HW238136   2.211   4.400  15.113  0.5169  1.3518  0.4766
 8892SOL     OW38137   4.094   4.470   8.795 -0.5987 -0.1155 -0.3995
 8892SOL    HW138138   4.041   4.548   8.807  0.2327  0.0746  1.9878
 8892SOL    HW238139   4.083   4.439   8.885 -1.4492 -0.8012 -0.7329
 8893SOL     OW38140   3.579   3.264   4.603  0.8113 -0.3668  0.0696
 8893SOL    HW138141   3.529   3.192   4.563  0.0808  0.5544 -0.6945
 8893SOL    HW238142   3.608   3.289   4.515  0.9831 -0.2997  0.1464
 8894SOL     OW38143   1.811   0.607   8.665 -0.1794 -0.5937 -0.1598
 8894SOL    HW138144   1.732   0.656   8.645  0.1911  0.3193  0.6319
 8894SOL    HW238145   1.774   0.528   8.706 -0.6482  0.8832  2.2300
 8895SOL     OW38146   4.376   3.218  17.371 -0.2073 -0.3318 -0.3130
 8895SOL    HW138147   4.338   3.306  17.382 -2.7084 -1.5968  1.0381
 8895SOL    HW238148   4.406   3.232  17.281 -2.7938 -2.0886 -1.4214
 8896SOL     OW38149   0.429   0.833   7.828 -0.3659  0.2198  0.1496
 8896SOL    HW138150   0.523   0.847   7.838 -0.2432 -0.3969 -0.2059
 8896SOL    HW238151   0.409   0.868   7.741  0.4375  0.9523  0.2629
 8897SOL     OW38152   1.118   2.860  11.966 -0.5280  0.0294  0.6929
 8897SOL    HW138153   1.108   2.954  11.981 -0.4511 -0.2779  2.6560
 8897SOL    HW238154   1.116   2.858  11.870  1.1839 -1.0081  0.6665
 8898SOL     OW38155   1.737   2.311   3.881  0.1318  0.5785 -0.5112
 8898SOL    HW138156   1.823   2.350   3.896  0.5418 -0.9934  1.2051
 8898SOL    HW238157   1.671   2.375   3.909 -0.1729  0.5875 -1.2465
 8899SOL     OW38158   2.667   1.266   6.005 -0.3597 -0.3673 -0.2980
 8899SOL    HW138159   2.600   1.214   6.049  0.4836 -0.8931  0.3521
 8899SOL    HW238160   2.726   1.289   6.077 -1.0255 -0.7402  0.3728
 8900SOL     OW38161   2.790   4.142   5.913 -0.4415 -0.2227  0.1650
 8900SOL    HW138162   2.716   4.134   5.973  0.2534  3.3451  1.5292
 8900SOL    HW238163   2.868   4.120   5.965 -1.2003 -0.8325  1.0352
 8901SOL     OW38164   1.194   2.043   6.204  0.7747 -0.1510  0.7425
 8901SOL    HW138165   1.147   1.960   6.201  2.4947 -1.1156  0.0037
 8901SOL    HW238166   1.279   2.006   6.181  1.2696 -0.2042  2.6814
 8902SOL     OW38167   2.386   2.994  16.637  0.2073  0.0681  0.1542
 8902SOL    HW138168   2.391   2.956  16.549  0.0397  1.4271 -0.4347
 8902SOL    HW238169   2.452   3.061  16.623  0.8524 -0.6643 -0.3126
 8903SOL     OW38170   1.986   2.539   0.098  0.0745  0.2062 -0.5066
 8903SOL    HW138171   1.941   2.606   0.046  1.6136  2.9000  1.5989
 8903SOL    HW238172   2.077   2.556   0.074 -0.3657  1.7816 -1.0921
 8904SOL     OW38173   3.459   1.654   9.142 -0.5122 -0.5730 -0.0365
 8904SOL    HW138174   3.452   1.609   9.226 -1.9888  1.3228  0.8330
 8904SOL    HW238175   3.521   1.723   9.167 -0.9669 -0.6668  1.3146
 8905SOL     OW38176   1.496   3.506   7.950 -0.4856 -0.3280 -0.4320
 8905SOL    HW138177   1.500   3.532   8.042  0.7350  0.8894 -0.8426
 8905SOL    HW238178   1.556   3.432   7.950  0.8482  0.7518  0.3533
 8906SOL     OW38179   1.571   3.353   6.496 -0.1354  0.0769  0.3453
 8906SOL    HW138180   1.559   3.297   6.420  0.0529 -0.9203  1.0426
 8906SOL    HW238181   1.581   3.436   6.450  4.5680 -0.2589  0.6919
 8907SOL     OW38182   0.869   4.688   7.951  0.5354 -0.3233 -0.0192
 8907SOL    HW138183   0.824   4.706   7.869  0.6023 -0.3811 -0.0690
 8907SOL    HW238184   0.895   4.598   7.933 -0.2557 -0.1647 -2.0103
 8908SOL     OW38185   1.752   0.541   7.603 -0.3097 -0.5365  0.4298
 8908SOL    HW138186   1.682   0.552   7.667 -0.4644 -0.6899  0.2865
 8908SOL    HW238187   1.744   0.618   7.546  1.7841  0.9817  2.1910
 8909SOL     OW38188   2.783   3.962   6.922 -0.2117  0.4928 -0.4574
 8909SOL    HW138189   2.743   3.885   6.882 -0.3553  1.9318 -3.1250
 8909SOL    HW238190   2.747   4.025   6.859 -1.5035 -0.4935 -0.7064
 8910SOL     OW38191   1.211   1.391   3.082  0.2587  0.7659 -0.0175
 8910SOL    HW138192   1.222   1.433   3.167  1.8577 -1.9042  1.0913
 8910SOL    HW238193   1.172   1.307   3.108  0.3466  0.6635 -0.2150
 8911SOL     OW38194   0.181   3.906  16.558  0.7670  0.0616 -0.7067
 8911SOL    HW138195   0.235   3.858  16.495  2.1343 -0.3142  0.7433
 8911SOL    HW238196   0.100   3.858  16.546  1.0592 -1.2762  2.5983
 8912SOL     OW38197   0.962   1.043  13.076 -0.4460  0.1059  0.2582
 8912SOL    HW138198   0.872   1.077  13.069  0.0122  0.9417 -1.5582
 8912SOL    HW238199   0.977   1.038  13.170  0.2044 -1.1879  0.0714
 8913SOL     OW38200   3.477   4.308   6.230 -0.1192  0.2926 -0.0795
 8913SOL    HW138201   3.428   4.286   6.150 -1.4760  1.0515  0.5506
 8913SOL    HW238202   3.473   4.233   6.289 -1.5049  1.4814  1.3452
 8914SOL     OW38203   3.789   3.555  11.492  0.5364  0.0949 -0.0258
 8914SOL    HW138204   3.772   3.463  11.476 -2.5197  0.4457  1.2938
 8914SOL    HW238205   3.782   3.563  11.588  1.5366  2.8212 -0.1740
 8915SOL     OW38206   0.834   4.583   3.850  0.3550 -0.0265 -0.2948
 8915SOL    HW138207   0.801   4.632   3.775 -3.6825  0.9251  2.0961
 8915SOL    HW238208   0.792   4.498   3.837 -1.2576  0.5236  1.3545
 8916SOL     OW38209   0.976   2.849  16.920  0.0081  0.0177  0.6044
 8916SOL    HW138210   1.032   2.917  16.958 -0.2827 -0.0058  1.0754
 8916SOL    HW238211   0.944   2.885  16.837 -1.0289  0.9600  1.4138
 8917SOL     OW38212   1.847   3.096   2.665  0.3382  0.9416 -0.4509
 8917SOL    HW138213   1.759   3.077   2.633  0.2370 -1.3231  1.1838
 8917SOL    HW238214   1.897   3.096   2.583  1.9482 -0.5754  0.5154
 8918SOL     OW38215   0.039   4.406   2.949 -0.4379  0.1059 -0.3017
 8918SOL    HW138216   4.675   4.445   2.927 -0.9729 -0.8531  0.0494
 8918SOL    HW238217   0.051   4.430   3.041 -0.3471  0.0592 -0.3011
 8919SOL     OW38218   2.720   3.786  15.207  0.6741  0.0462  0.3126
 8919SOL    HW138219   2.746   3.705  15.163 -0.4207  0.3820 -0.9478
 8919SOL    HW238220   2.733   3.852  15.138  1.2562  1.0626  1.3903
 8920SOL     OW38221   1.541   1.446   9.832 -0.2025  0.7072  0.0124
 8920SOL    HW138222   1.471   1.386   9.805 -0.0272 -0.3034  1.8292
 8920SOL    HW238223   1.501   1.533   9.838 -2.4957 -0.3761  0.3370
 8921SOL     OW38224   3.699   3.086   2.390 -0.0990 -0.1901 -0.2649
 8921SOL    HW138225   3.685   3.052   2.302 -0.0021 -0.7442 -0.0668
 8921SOL    HW238226   3.617   3.055   2.429 -0.2260  0.4549 -0.0295
 8922SOL     OW38227   0.699   3.300  14.149 -0.5820 -0.6840 -0.3592
 8922SOL    HW138228   0.760   3.313  14.077  1.3103 -0.0705  1.3535
 8922SOL    HW238229   0.610   3.317  14.117 -0.0544  1.0173 -0.9100
 8923SOL     OW38230   3.385   1.765   7.096  0.7212 -0.3312 -0.4140
 8923SOL    HW138231   3.391   1.822   7.173 -3.2786 -0.4761  0.0302
 8923SOL    HW238232   3.473   1.729   7.097  0.4672 -0.9996 -1.6075
 8924SOL     OW38233   4.343   4.421   2.505 -0.4766  0.2305 -0.5351
 8924SOL    HW138234   4.433   4.412   2.534  0.4108 -0.1468 -3.3929
 8924SOL    HW238235   4.296   4.401   2.586 -1.7471  0.5642 -1.1841
 8925SOL     OW38236   1.869   4.703   6.669  0.4558 -0.4597 -0.2760
 8925SOL    HW138237   1.836   0.010   6.584 -0.0670  0.2167  0.1505
 8925SOL    HW238238   1.854   0.061   6.722 -0.1693 -0.5196 -0.3679
 8926SOL     OW38239   1.265   3.256  11.757  0.2306  0.7700 -0.0270
 8926SOL    HW138240   1.322   3.330  11.777  2.0053 -1.4772  3.1217
 8926SOL    HW238241   1.309   3.183  11.800  1.3948  0.5078 -1.6712
 8927SOL     OW38242   4.030   4.558   7.487  0.3067  0.1057 -0.0820
 8927SOL    HW138243   4.121   4.537   7.468  0.5550  1.4951 -0.4471
 8927SOL    HW238244   4.014   4.621   7.416 -1.8304 -0.5232 -0.1563
 8928SOL     OW38245   4.332   1.416  16.772  0.0119  0.7066 -0.3332
 8928SOL    HW138246   4.367   1.502  16.748  1.9797  0.3955  1.3895
 8928SOL    HW238247   4.306   1.442  16.861 -1.0235  0.1588 -0.4803
 8929SOL     OW38248   0.703   0.171   9.058 -0.2679 -0.3557  0.6555
 8929SOL    HW138249   0.627   0.153   9.003  0.0380  0.4247 -0.0215
 8929SOL    HW238250   0.696   0.111   9.133  0.7646  1.0459  1.8787
 8930SOL     OW38251   3.462   1.432   5.517  0.8166 -0.3503  0.6770
 8930SOL    HW138252   3.483   1.456   5.607 -0.4660 -0.1719  0.9418
 8930SOL    HW238253   3.367   1.447   5.511  1.0730  1.0885  0.2934
 8931SOL     OW38254   3.759   4.484   2.649  0.5172 -0.0205  0.6664
 8931SOL    HW138255   3.744   4.422   2.720  0.7347 -0.4067  0.3761
 8931SOL    HW238256   3.736   4.434   2.570 -2.1685  1.1221  0.7237
 8932SOL     OW38257   0.426   3.482   6.169 -0.2079 -0.8073 -0.3955
 8932SOL    HW138258   0.418   3.397   6.212  1.5639 -1.0622 -0.5876
 8932SOL    HW238259   0.344   3.487   6.120 -0.1310 -0.6506 -0.5065
 8933SOL     OW38260   4.219   1.694   4.468 -0.0074  0.2926 -0.6101
 8933SOL    HW138261   4.313   1.677   4.463  0.2276  1.6574 -0.8045
 8933SOL    HW238262   4.211   1.783   4.434  0.3359 -0.2321 -2.0774
 8934SOL     OW38263   0.167   1.485  13.996  0.0235 -0.5843 -0.6954
 8934SOL    HW138264   0.120   1.566  14.016 -0.3517 -1.5217  2.2285
 8934SOL    HW238265   0.231   1.468  14.066 -0.7354  0.0498  0.1494
 8935SOL     OW38266   1.909   4.192  17.476 -0.4218 -0.5203  0.2956
 8935SOL    HW138267   1.904   4.239  17.393  0.3678 -1.0244 -0.0334
 8935SOL    HW238268   1.996   4.227  17.498 -1.3457  3.1038 -1.7842
 8936SOL     OW38269   0.392   2.063   9.398  0.3382 -0.0857 -0.3497
 8936SOL    HW138270   0.442   2.048   9.318 -1.2058 -4.0950 -0.5746
 8936SOL    HW238271   0.308   2.094   9.365 -0.0124 -0.1470  0.4946
 8937SOL     OW38272   1.221   0.358  12.747 -0.2061  0.1628 -0.1384
 8937SOL    HW138273   1.246   0.450  12.760  1.2472 -0.2141 -0.1802
 8937SOL    HW238274   1.187   0.337  12.834 -0.4749  2.8705  0.4344
 8938SOL     OW38275   4.692   4.194   8.993 -0.1342 -0.0266 -0.1693
 8938SOL    HW138276   0.003   4.103   8.990  0.7400  0.2250  1.2524
 8938SOL    HW238277   4.713   4.230   8.907 -0.7319  0.3713 -0.1447
 8939SOL     OW38278   3.501   3.753  17.648  0.5430 -0.0288  0.4535
 8939SOL    HW138279   3.560   3.731  17.576  1.6416 -0.1272  1.3932
 8939SOL    HW238280   3.484   3.668   0.006 -0.6519 -1.0900 -2.1671
 8940SOL     OW38281   0.338   2.888   6.929 -0.2279 -0.0660  0.0209
 8940SOL    HW138282   0.425   2.916   6.958 -0.0387  0.2921 -0.9127
 8940SOL    HW238283   0.326   2.815   6.990 -0.0811  0.9387  1.2754
 8941SOL     OW38284   2.536   0.126   9.991 -0.4361 -0.3658 -0.2562
 8941SOL    HW138285   2.465   0.109  10.053  1.0901 -0.2297  1.5241
 8941SOL    HW238286   2.565   0.036   9.978 -1.0936 -0.6122 -0.0195
 8942SOL     OW38287   0.132   0.167   3.142  0.3816  0.3605 -0.3983
 8942SOL    HW138288   0.055   0.218   3.119  0.8280  0.6151 -1.3312
 8942SOL    HW238289   0.145   0.112   3.065  1.0818 -1.0727  0.7566
 8943SOL     OW38290   3.840   4.691   7.659 -0.2237  0.0414 -0.4091
 8943SOL    HW138291   3.894   0.039   7.699 -1.9366  1.1505 -0.0110
 8943SOL    HW238292   3.909   4.649   7.607  0.2128 -1.1991  1.1363
 8944SOL     OW38293   2.736   4.479   7.375 -0.0576  1.0038  0.5133
 8944SOL    HW138294   2.767   4.548   7.433  1.3063 -0.4400  1.5153
 8944SOL    HW238295   2.667   4.444   7.433  0.1818 -0.5105 -0.1106
 8945SOL     OW38296   2.774   3.850   5.079 -0.0599  1.0527 -0.2834
 8945SOL    HW138297   2.795   3.781   5.016 -0.3780 -2.0521  2.9398
 8945SOL    HW238298   2.863   3.877   5.104  0.7239 -0.6333 -1.2352
 8946SOL     OW38299   2.576   3.121  10.443 -0.4987  0.1026  0.5545
 8946SOL    HW138300   2.568   3.136  10.538 -2.6790 -0.2804  0.4330
 8946SOL    HW238301   2.529   3.197  10.411  0.4748 -0.5426 -2.3664
 8947SOL     OW38302   3.858   0.219   5.811  0.1679 -0.4032  0.2395
 8947SOL    HW138303   3.840   0.133   5.849  0.2796  0.3661  2.0476
 8947SOL    HW238304   3.918   0.202   5.738  2.3370 -0.9856  2.1432
 8948SOL     OW38305   4.079   1.027  16.664  0.1673 -0.4623  0.8677
 8948SOL    HW138306   4.113   0.942  16.635  0.8885  0.1529 -0.1034
 8948SOL    HW238307   4.099   1.017  16.757  2.3281 -0.4101  0.4064
 8949SOL     OW38308   2.509   0.696   8.912 -0.1929 -0.3565 -0.4679
 8949SOL    HW138309   2.517   0.618   8.858  0.5775 -0.4617 -0.2135
 8949SOL    HW238310   2.424   0.734   8.890  0.6605  0.5955 -2.1418
 8950SOL     OW38311   3.603   1.643   7.645  0.0906 -0.3492 -0.5268
 8950SOL    HW138312   3.618   1.548   7.651 -0.3360 -0.2637  1.9614
 8950SOL    HW238313   3.530   1.653   7.707  1.8003  0.4106  1.3772
 8951SOL     OW38314   3.636   0.254   1.596 -0.8386  0.6760 -0.1195
 8951SOL    HW138315   3.624   0.164   1.566  0.6812  0.5224 -0.2543
 8951SOL    HW238316   3.665   0.305   1.521  1.6029 -0.2205  0.2332
 8952SOL     OW38317   0.582   0.663   3.471 -0.4237 -0.4322  0.3121
 8952SOL    HW138318   0.513   0.703   3.418 -0.7475 -0.0812  0.9972
 8952SOL    HW238319   0.541   0.676   3.557 -0.5477  1.8183 -0.1022
 8953SOL     OW38320   2.333   1.466   7.964 -0.6513  0.5029 -0.5184
 8953SOL    HW138321   2.392   1.469   7.888  0.3797 -2.2772  0.1776
 8953SOL    HW238322   2.314   1.374   7.982 -0.2963  0.4729 -0.2987
 8954SOL     OW38323   0.400   3.033  14.478 -0.5027  0.7095  0.0163
 8954SOL    HW138324   0.331   3.069  14.422 -0.5798  0.4699 -0.0402
 8954SOL    HW238325   0.449   3.113  14.497 -2.7750  1.7906  1.3370
 8955SOL     OW38326   2.930   0.578  11.193  0.0572  0.1136  0.1761
 8955SOL    HW138327   2.904   0.639  11.261  1.7364 -0.1869  1.0716
 8955SOL    HW238328   2.846   0.547  11.157 -0.7676  0.1039  2.1340
 8956SOL     OW38329   3.849   3.917   6.882 -0.0584 -0.6315 -0.0427
 8956SOL    HW138330   3.898   3.849   6.836  0.7414  1.1558 -1.8333
 8956SOL    HW238331   3.837   3.989   6.819 -0.8965 -0.0373  0.7829
 8957SOL     OW38332   0.380   3.917   7.822 -0.3217 -0.8506 -0.1637
 8957SOL    HW138333   0.287   3.922   7.844 -0.0516  0.0495  0.7594
 8957SOL    HW238334   0.402   3.853   7.890 -0.4665 -0.4351  0.2711
 8958SOL     OW38335   1.845   2.793   5.402  0.0693  0.0131 -0.7306
 8958SOL    HW138336   1.860   2.705   5.368 -1.6007 -0.5408 -0.0219
 8958SOL    HW238337   1.879   2.777   5.490 -0.6325 -3.7809 -1.1450
 8959SOL     OW38338   3.885   1.702  10.533 -0.3758 -0.0049  0.3407
 8959SOL    HW138339   3.881   1.692  10.438 -1.3285  1.2619  0.2468
 8959SOL    HW238340   3.815   1.767  10.542 -0.0822  0.1694  1.3915
 8960SOL     OW38341   4.225   0.442  12.981  0.1994  0.0277  0.2095
 8960SOL    HW138342   4.315   0.424  13.009 -0.0749 -2.1186 -0.2722
 8960SOL    HW238343   4.233   0.439  12.886  2.3492 -2.0398  0.4563
 8961SOL     OW38344   2.905   2.101  10.966  0.1129  0.4215  0.4576
 8961SOL    HW138345   2.835   2.047  10.930  0.5264 -0.8720  1.5739
 8961SOL    HW238346   2.970   2.030  10.971 -0.4650 -0.1575 -0.1737
 8962SOL     OW38347   4.089   3.553   6.652  0.6224  0.1387  0.2734
 8962SOL    HW138348   4.060   3.467   6.623  0.1726 -0.0691  1.3334
 8962SOL    HW238349   4.051   3.557   6.740 -0.5743  2.7412 -0.3619
 8963SOL     OW38350   0.366   1.204   2.336  0.0932  0.0669 -0.3906
 8963SOL    HW138351   0.282   1.190   2.379 -0.5659  0.6548 -1.4965
 8963SOL    HW238352   0.340   1.278   2.281  1.0746  1.3810  0.9059
 8964SOL     OW38353   0.450   2.467   6.302  0.5623  0.2376 -0.2869
 8964SOL    HW138354   0.448   2.561   6.319 -1.0033  0.1966 -0.1728
 8964SOL    HW238355   0.541   2.454   6.276  1.1067  0.1480  1.6396
 8965SOL     OW38356   0.247   0.830   5.950  0.2489 -0.1963 -0.0002
 8965SOL    HW138357   0.274   0.827   5.858 -0.5886 -2.3390 -0.1849
 8965SOL    HW238358   0.319   0.878   5.990  1.7526 -1.2965 -1.4103
 8966SOL     OW38359   3.035   3.294  15.849 -0.3257 -0.1218  0.7954
 8966SOL    HW138360   3.057   3.377  15.889 -0.4959 -0.2846  1.2198
 8966SOL    HW238361   2.983   3.323  15.774 -0.5352  1.7985  1.6867
 8967SOL     OW38362   2.215   3.537   8.785 -0.1032 -0.2830 -0.4826
 8967SOL    HW138363   2.191   3.599   8.855 -1.9608  2.6209 -3.6485
 8967SOL    HW238364   2.237   3.460   8.837  0.9908  0.9172  0.8239
 8968SOL     OW38365   4.070   0.589   5.403  0.1766 -0.2721  0.0332
 8968SOL    HW138366   4.066   0.593   5.499 -1.9200 -1.1962 -0.0185
 8968SOL    HW238367   4.164   0.601   5.388  0.3152 -0.1408  0.9973
 8969SOL     OW38368   0.652   2.113   2.662 -0.1571  0.6732  0.2083
 8969SOL    HW138369   0.588   2.113   2.733 -0.1527  0.0088  0.2068
 8969SOL    HW238370   0.623   2.031   2.623 -2.4015  1.0217  1.1229
 8970SOL     OW38371   1.451   2.869   0.876  0.1823  0.2542  0.1280
 8970SOL    HW138372   1.370   2.915   0.851 -0.3675 -0.3395  0.8136
 8970SOL    HW238373   1.513   2.937   0.901 -0.2897  1.3164 -1.5704
 8971SOL     OW38374   1.308   1.779   3.331  0.2013  0.3023  0.5182
 8971SOL    HW138375   1.253   1.850   3.366  0.4388 -0.3899  2.3314
 8971SOL    HW238376   1.393   1.810   3.360  0.6480  0.0656 -0.5489
 8972SOL     OW38377   2.315   2.082   0.875  0.5568  0.2665  1.3646
 8972SOL    HW138378   2.284   2.011   0.931  0.3818 -0.7946 -0.1062
 8972SOL    HW238379   2.241   2.143   0.886  0.5184  0.6683 -1.0784
 8973SOL     OW38380   3.433   0.784   3.482  0.8316 -0.2040  0.4579
 8973SOL    HW138381   3.341   0.757   3.480  0.8035 -0.1471  0.9056
 8973SOL    HW238382   3.474   0.698   3.473  1.9445  0.2459  1.2742
 8974SOL     OW38383   3.793   4.640   5.818 -0.0701 -0.3426  0.0907
 8974SOL    HW138384   3.714   4.660   5.868 -0.0853  1.8755 -0.8098
 8974SOL    HW238385   3.851   4.653   5.893  0.1776 -1.6706  0.1271
 8975SOL     OW38386   3.539   0.724   2.250 -0.3497  0.1698  0.6727
 8975SOL    HW138387   3.524   0.651   2.310 -1.1292 -1.1421 -1.1277
 8975SOL    HW238388   3.610   0.696   2.192 -0.6537 -0.1744  0.4649
 8976SOL     OW38389   3.009   3.381   1.675  0.0234  0.2725 -0.1904
 8976SOL    HW138390   3.104   3.373   1.684  0.0122 -0.0886 -0.3926
 8976SOL    HW238391   3.015   3.420   1.587  0.5745  2.3887  0.7916
 8977SOL     OW38392   4.222   0.485   5.666 -0.1073 -0.0984 -0.2419
 8977SOL    HW138393   4.293   0.547   5.684 -2.0654  1.9476  0.5345
 8977SOL    HW238394   4.153   0.501   5.731 -2.7872  1.0706 -3.3158
 8978SOL     OW38395   2.660   1.572   7.176  0.2939  0.1448  0.0628
 8978SOL    HW138396   2.576   1.582   7.130  0.2716 -1.8988 -0.3421
 8978SOL    HW238397   2.715   1.536   7.106 -0.2105 -2.5876  1.0780
 8979SOL     OW38398   3.073   3.028   5.905 -0.0890 -0.2489 -0.2002
 8979SOL    HW138399   2.988   3.023   5.860 -0.6064 -0.0873  0.7568
 8979SOL    HW238400   3.053   3.011   5.997  1.6390  1.2215  0.4333
 8980SOL     OW38401   3.953   2.438   5.562  0.0168  0.4130  0.2025
 8980SOL    HW138402   4.044   2.422   5.587 -1.0218 -0.3410  3.4681
 8980SOL    HW238403   3.906   2.459   5.643  0.0080  1.2364 -0.0194
 8981SOL     OW38404   2.296   2.385   5.676 -0.5896 -0.5846 -0.0428
 8981SOL    HW138405   2.268   2.472   5.703  1.1841  0.4161 -1.3928
 8981SOL    HW238406   2.238   2.370   5.601 -2.7761  0.4305  1.4388
 8982SOL     OW38407   3.241   2.550   5.161 -0.0827 -0.4509  0.3895
 8982SOL    HW138408   3.211   2.593   5.081 -0.1814  1.1202  1.2878
 8982SOL    HW238409   3.199   2.465   5.145 -0.2339 -0.0210 -1.5169
 8983SOL     OW38410   0.800   0.844   9.938  0.3267  0.4739 -0.0507
 8983SOL    HW138411   0.861   0.903   9.892  1.1597  1.6146  2.5164
 8983SOL    HW238412   0.781   0.900  10.014  1.6928  0.5278  0.2482
 8984SOL     OW38413   3.639   1.175   9.095 -0.1307 -0.4685  0.3802
 8984SOL    HW138414   3.638   1.079   9.098  0.8766 -0.5050 -0.5293
 8984SOL    HW238415   3.685   1.191   9.177 -2.0737  1.2932  1.1375
 8985SOL     OW38416   1.512   4.092   8.410 -0.3003 -0.5343 -0.8286
 8985SOL    HW138417   1.566   4.148   8.355 -0.2932  1.0929  0.8104
 8985SOL    HW238418   1.574   4.028   8.445  1.5848  0.6990 -1.9123
 8986SOL     OW38419   2.372   1.895   1.796 -0.1555  0.6284 -0.1875
 8986SOL    HW138420   2.309   1.905   1.868  0.9075  2.4744  0.5002
 8986SOL    HW238421   2.406   1.813   1.833  1.1648  0.8541 -0.9128
 8987SOL     OW38422   0.263   1.910   1.236 -0.5275  0.2377  0.2676
 8987SOL    HW138423   0.214   1.853   1.176 -1.1215 -0.4606  1.4148
 8987SOL    HW238424   0.201   1.937   1.304 -0.7806 -1.4776  0.7102
 8988SOL     OW38425   1.399   4.222   6.458  0.5340 -0.0072  0.1897
 8988SOL    HW138426   1.382   4.181   6.374 -0.7496 -0.7769  0.8347
 8988SOL    HW238427   1.475   4.275   6.432  2.7243 -2.1338  2.1741
 8989SOL     OW38428   2.693   2.614   6.381  0.0037 -0.6244  0.3445
 8989SOL    HW138429   2.720   2.705   6.370 -0.6208 -0.4122  0.5445
 8989SOL    HW238430   2.671   2.616   6.474 -1.2486  2.1354 -0.0145
 8990SOL     OW38431   2.789   1.040   7.521 -0.3331 -0.0972 -0.2528
 8990SOL    HW138432   2.745   1.100   7.461  1.0080  0.8630 -0.2625
 8990SOL    HW238433   2.718   0.988   7.559 -0.1395 -0.6830 -0.6809
 8991SOL     OW38434   0.152   3.074   8.302  0.6320 -0.2645 -0.0809
 8991SOL    HW138435   0.084   3.109   8.360  0.0101  1.5211 -1.8926
 8991SOL    HW238436   0.167   3.159   8.260 -2.1338  0.1433 -0.2306
 8992SOL     OW38437   1.351   4.417   8.135  1.0126  0.3994 -0.9739
 8992SOL    HW138438   1.364   4.508   8.161  1.0114  0.3750 -0.8885
 8992SOL    HW238439   1.293   4.428   8.060  2.6596  1.9686 -1.9962
 8993SOL     OW38440   0.160   4.023   4.333 -0.2358  0.3488  0.0237
 8993SOL    HW138441   0.135   3.935   4.303  0.9142  0.1157 -0.2443
 8993SOL    HW238442   0.096   4.030   4.403  2.0618  0.9209  2.0631
 8994SOL     OW38443   1.764   3.541   6.995  0.3413  0.0396 -0.4524
 8994SOL    HW138444   1.675   3.571   7.012  1.1628  1.0647  1.9405
 8994SOL    HW238445   1.754   3.446   7.000  1.9334 -0.0865  0.2152
 8995SOL     OW38446   2.948   3.880   4.231 -0.2538  0.4754  0.4368
 8995SOL    HW138447   3.037   3.907   4.209 -0.3355  2.3096  2.4139
 8995SOL    HW238448   2.937   3.810   4.167  0.6865  0.2549  0.5121
 8996SOL     OW38449   4.010   1.973   4.546  0.1258 -0.7623  0.1589
 8996SOL    HW138450   4.015   1.996   4.639 -1.6581  0.1108  0.0333
 8996SOL    HW238451   4.103   1.974   4.525  0.4660 -0.8079  1.6965
 8997SOL     OW38452   0.989   0.987   4.368 -0.2061  0.2177 -0.1105
 8997SOL    HW138453   1.077   1.023   4.380  0.5503 -1.7919  0.2861
 8997SOL    HW238454   0.963   1.048   4.299 -0.6679 -0.3414 -0.4274
 8998SOL     OW38455   3.334   0.079   8.965  0.2591  0.3805 -0.3947
 8998SOL    HW138456   3.350   4.708   8.942  0.5346  0.3626 -0.1376
 8998SOL    HW238457   3.240   0.074   8.979  0.2471 -1.1937 -1.0203
 8999SOL     OW38458   2.032   3.572   7.586 -0.3764 -0.2200 -0.5226
 8999SOL    HW138459   2.022   3.661   7.550  4.0308  0.1434 -0.9012
 8999SOL    HW238460   1.956   3.580   7.643 -0.6041  1.2252 -1.0272
 9000SOL     OW38461   3.110   3.320   6.596 -0.2084  0.3524 -0.5898
 9000SOL    HW138462   3.113   3.246   6.536  0.7613  1.5294 -2.0013
 9000SOL    HW238463   3.021   3.352   6.580 -0.6543 -0.8444 -0.4983
 9001SOL     OW38464   0.630   0.315   7.669 -0.1697  0.7135  0.0917
 9001SOL    HW138465   0.684   0.241   7.697 -0.5244  0.6585  0.6176
 9001SOL    HW238466   0.706   0.358   7.629  0.3753 -0.2833  0.0491
 9002SOL     OW38467   0.481   3.395  16.176 -0.2938  0.1288 -0.4958
 9002SOL    HW138468   0.458   3.336  16.104 -1.5184  1.2773 -1.0305
 9002SOL    HW238469   0.425   3.366  16.248  0.3309  0.7309  0.2218
 9003SOL     OW38470   3.047   3.552   8.807  0.2230  0.5176 -0.2095
 9003SOL    HW138471   2.957   3.584   8.796  0.3643  1.0011  0.0641
 9003SOL    HW238472   3.045   3.562   8.902  1.6889  1.0272 -0.2366
 9004SOL     OW38473   3.697   2.399   5.115  0.1694 -0.4764 -0.1226
 9004SOL    HW138474   3.748   2.449   5.179 -1.0328 -0.6377  0.9841
 9004SOL    HW238475   3.630   2.366   5.176  0.2014 -0.3102  0.0040
 9005SOL     OW38476   3.238   3.749   6.874  0.1370  0.2595  0.3369
 9005SOL    HW138477   3.174   3.759   6.804 -1.6213  0.5301  1.9884
 9005SOL    HW238478   3.191   3.714   6.950 -1.5014  2.2611  0.2187
 9006SOL     OW38479   2.583   1.997  13.972  0.0737  0.0123 -0.3306
 9006SOL    HW138480   2.624   1.923  13.927 -0.3919 -0.1773 -0.4400
 9006SOL    HW238481   2.552   1.956  14.052  0.5138  0.3499  0.0185
 9007SOL     OW38482   2.579   3.034   7.636  0.1950 -0.5703  0.0784
 9007SOL    HW138483   2.526   3.101   7.679  0.8170  0.6086 -0.9668
 9007SOL    HW238484   2.667   3.058   7.664  0.4001 -0.9822 -0.2218
 9008SOL     OW38485   2.257   0.439   5.620  0.1242 -0.3319  0.1374
 9008SOL    HW138486   2.196   0.366   5.614  0.6753 -0.6050 -2.3847
 9008SOL    HW238487   2.340   0.393   5.633  1.1611  0.7623 -2.4348
 9009SOL     OW38488   0.791   3.834   9.420  0.3855  0.5888  0.7901
 9009SOL    HW138489   0.798   3.901   9.488 -0.1817 -0.4255  1.8429
 9009SOL    HW238490   0.730   3.869   9.356  0.6776  1.5998  1.0690
 9010SOL     OW38491   0.130   3.677   4.493  0.3213 -0.1229  0.0704
 9010SOL    HW138492   0.207   3.637   4.453  0.8990  0.5595  0.5033
 9010SOL    HW238493   0.073   3.604   4.470  0.4155 -0.7374  1.7740
 9011SOL     OW38494   0.727   4.152   2.946  0.1953  0.4323 -0.5154
 9011SOL    HW138495   0.641   4.184   2.920 -1.5524 -3.3674  0.5707
 9011SOL    HW238496   0.779   4.156   2.866  1.9536  1.5207  0.6797
 9012SOL     OW38497   0.629   3.593   8.349  0.0303  0.1498 -0.0408
 9012SOL    HW138498   0.719   3.565   8.367 -0.3252 -0.6866  0.4136
 9012SOL    HW238499   0.623   3.656   8.421  1.5607 -0.4916  0.6435
 9013SOL     OW38500   1.991   4.546  14.248  0.2236 -0.3892  0.3444
 9013SOL    HW138501   1.955   4.576  14.164 -1.5990  3.2682  2.4337
 9013SOL    HW238502   2.050   4.482  14.208  0.5690  1.2771 -1.8614
 9014SOL     OW38503   1.874   0.363   5.399 -0.1967  0.7137 -0.3828
 9014SOL    HW138504   1.924   0.316   5.333 -0.8335 -0.3426 -0.1042
 9014SOL    HW238505   1.784   0.335   5.386 -0.9788  3.7391 -1.5523
 9015SOL     OW38506   3.930   0.891   8.690 -0.0717  0.5152 -0.2824
 9015SOL    HW138507   3.937   0.947   8.613  0.5695  1.3037  0.3523
 9015SOL    HW238508   3.988   0.818   8.668 -0.1386 -1.0769  4.7543
 9016SOL     OW38509   4.627   1.986  10.478  1.1451 -0.4489 -0.5612
 9016SOL    HW138510   4.558   1.942  10.428  2.4037 -2.1473 -0.8008
 9016SOL    HW238511   4.694   1.991  10.410 -0.1766  1.4907 -1.7442
 9017SOL     OW38512   0.292   0.414   6.880  0.4362 -0.4750 -0.0752
 9017SOL    HW138513   0.373   0.445   6.921  0.7018  0.6418 -1.4228
 9017SOL    HW238514   0.339   0.397   6.799  1.4283 -1.0698  0.6315
 9018SOL     OW38515   0.379   1.752   7.454 -0.4253  0.5733  0.2305
 9018SOL    HW138516   0.427   1.676   7.486  0.3059  1.2059  0.6304
 9018SOL    HW238517   0.291   1.727   7.483 -0.4159 -1.6813 -1.7156
 9019SOL     OW38518   1.462   3.009   3.584 -0.4293  0.5448  0.3337
 9019SOL    HW138519   1.539   2.967   3.625 -0.1742 -1.0626 -1.8118
 9019SOL    HW238520   1.384   2.957   3.604  0.7573 -0.8886  1.2571
 9020SOL     OW38521   2.514   2.991   4.898 -0.0528 -0.0909  0.3178
 9020SOL    HW138522   2.562   3.028   4.972  0.6368  0.6113 -0.4852
 9020SOL    HW238523   2.469   2.921   4.946 -2.1363  0.6491 -0.5272
 9021SOL     OW38524   0.418   0.027   7.723 -0.0376 -0.2456  0.1252
 9021SOL    HW138525   0.403   0.102   7.666  1.8085 -0.9428 -1.2613
 9021SOL    HW238526   0.473   4.690   7.669 -2.2057 -1.0905 -1.1881
 9022SOL     OW38527   3.326   2.223   3.102  0.0134  0.0855  0.3437
 9022SOL    HW138528   3.346   2.290   3.037  0.4018 -0.5353 -0.1719
 9022SOL    HW238529   3.244   2.194   3.061 -0.9450  3.5033 -0.1026
 9023SOL     OW38530   3.262   0.313   3.432  0.0342 -0.1553 -0.0130
 9023SOL    HW138531   3.335   0.321   3.493  0.9898  1.4667 -1.3890
 9023SOL    HW238532   3.299   0.373   3.367 -1.1447 -0.5552 -1.0687
 9024SOL     OW38533   2.489   0.871   5.775 -0.8693 -0.0832 -0.6565
 9024SOL    HW138534   2.456   0.815   5.704  0.5205 -2.0924  0.2916
 9024SOL    HW238535   2.498   0.954   5.728  0.4188 -0.1140 -0.4574
 9025SOL     OW38536   1.029   4.593  12.850 -0.1411  0.4823 -0.6125
 9025SOL    HW138537   1.011   4.668  12.907  0.3640 -1.4106  2.0375
 9025SOL    HW238538   0.943   4.553  12.840 -0.3098  0.1861  1.9013
 9026SOL     OW38539   3.599   0.725   6.381 -0.5008 -0.3710 -0.2436
 9026SOL    HW138540   3.667   0.660   6.401 -0.6241 -0.0890  1.0606
 9026SOL    HW238541   3.643   0.766   6.306 -0.3777 -1.8722 -1.0045
 9027SOL     OW38542   2.196   2.557  14.074 -0.3120 -0.2432 -0.1380
 9027SOL    HW138543   2.265   2.509  14.028 -0.8268 -1.2780  0.1690
 9027SOL    HW238544   2.201   2.648  14.043  0.7342 -0.2475  0.0151
 9028SOL     OW38545   3.669   3.564   3.034  0.6841  0.1233 -0.3664
 9028SOL    HW138546   3.716   3.620   2.972  1.9848 -0.2187  0.3394
 9028SOL    HW238547   3.642   3.621   3.106 -0.2770  0.7344 -1.1979
 9029SOL     OW38548   0.721   1.513   5.384 -0.4710 -0.7187  0.4689
 9029SOL    HW138549   0.665   1.581   5.345 -0.7850  0.1420  2.4231
 9029SOL    HW238550   0.711   1.451   5.312 -0.2878  0.9628 -1.0107
 9030SOL     OW38551   2.103   4.344   1.846 -0.2960  0.3524 -0.5226
 9030SOL    HW138552   2.084   4.417   1.906  0.4967  0.8366 -0.8622
 9030SOL    HW238553   2.036   4.354   1.778 -0.6691 -1.6856 -0.4478
 9031SOL     OW38554   3.020   4.694   7.095 -0.2514  0.4603 -0.1410
 9031SOL    HW138555   2.952   4.646   7.048 -0.2868 -1.1568  1.5607
 9031SOL    HW238556   3.067   4.628   7.146 -2.8103  0.6284  2.3901
 9032SOL     OW38557   3.304   2.173   5.744  0.3591  0.1072 -0.4926
 9032SOL    HW138558   3.356   2.166   5.664  0.7106 -1.4606 -0.1266
 9032SOL    HW238559   3.361   2.123   5.803  0.8554  1.9909  0.6443
 9033SOL     OW38560   1.045   4.531   7.586 -0.3584  0.2235 -0.4821
 9033SOL    HW138561   1.028   4.444   7.549  1.1079 -0.8792  1.4254
 9033SOL    HW238562   1.116   4.544   7.523 -0.7604  1.4701 -0.6799
 9034SOL     OW38563   4.177   4.564   8.535 -0.5126  0.4166  0.3666
 9034SOL    HW138564   4.131   4.590   8.454  0.0365  2.4264  0.6942
 9034SOL    HW238565   4.110   4.549   8.601 -0.1682 -0.6174  0.4750
 9035SOL     OW38566   3.326   0.235   7.852  0.3068  0.4700 -0.2335
 9035SOL    HW138567   3.245   0.234   7.903  0.5779 -2.7055  0.1609
 9035SOL    HW238568   3.399   0.237   7.914  0.7998  0.1765 -0.8080
 9036SOL     OW38569   3.812   2.613   4.924  0.2139  0.2132 -0.0275
 9036SOL    HW138570   3.760   2.539   4.958  1.4420 -0.9330 -0.6564
 9036SOL    HW238571   3.745   2.661   4.876 -0.9142 -1.1700  0.1355
 9037SOL     OW38572   4.530   2.549   3.611  0.9670 -0.2348 -0.1746
 9037SOL    HW138573   4.444   2.575   3.579  1.0441  0.5740  0.2568
 9037SOL    HW238574   4.506   2.460   3.635 -1.7181  0.4100 -0.4781
 9038SOL     OW38575   0.935   1.876   4.033  0.1798 -0.6997 -0.0930
 9038SOL    HW138576   0.964   1.915   4.115  3.5643 -0.1389 -1.5670
 9038SOL    HW238577   1.021   1.836   4.017  0.5407 -0.2861  0.8442
 9039SOL     OW38578   3.661   0.253   8.972 -0.4271  0.1139 -0.3776
 9039SOL    HW138579   3.623   0.319   8.914 -0.9598  1.3578  1.3814
 9039SOL    HW238580   3.661   0.304   9.053  2.3716  2.0236 -1.5773
 9040SOL     OW38581   0.672   2.320   8.363  0.4373 -0.8068 -0.3081
 9040SOL    HW138582   0.759   2.353   8.342  0.9294 -1.9470 -0.0622
 9040SOL    HW238583   0.613   2.377   8.313 -0.5621 -1.6493 -0.0984
 9041SOL     OW38584   4.480   2.438  14.243 -0.2327  0.3848  0.5448
 9041SOL    HW138585   4.503   2.412  14.153 -1.9073 -0.9778  0.5207
 9041SOL    HW238586   4.432   2.519  14.230 -0.6252  0.0890  0.1403
 9042SOL     OW38587   1.350   2.501   7.689 -0.2238  0.0003  0.2191
 9042SOL    HW138588   1.277   2.561   7.699  0.4012  0.2732  3.0407
 9042SOL    HW238589   1.312   2.432   7.635  0.1616  0.4469 -0.6230
 9043SOL     OW38590   0.500   0.325  12.353 -0.1443  0.5906  0.2588
 9043SOL    HW138591   0.474   0.243  12.396 -0.2847 -0.1387 -1.2048
 9043SOL    HW238592   0.450   0.394  12.397  0.6460  1.3555 -0.0450
 9044SOL     OW38593   2.391   0.996   8.351  0.0151 -0.1696  0.1855
 9044SOL    HW138594   2.481   1.015   8.380 -0.1351 -0.2763  0.7306
 9044SOL    HW238595   2.342   1.053   8.410  2.5632 -0.2954  2.4602
 9045SOL     OW38596   2.746   1.817   7.372 -0.8152  0.1407 -0.0221
 9045SOL    HW138597   2.835   1.852   7.365 -0.4518 -0.7141  0.2563
 9045SOL    HW238598   2.750   1.756   7.299  0.0943 -1.8607  1.6805
 9046SOL     OW38599   0.695   3.820   3.765  0.2918 -0.5448  0.1606
 9046SOL    HW138600   0.605   3.790   3.752  0.4849 -0.2151 -1.9924
 9046SOL    HW238601   0.737   3.786   3.686 -0.2703  0.4974 -0.5901
 9047SOL     OW38602   1.211   1.829   4.017  0.4229  0.5265  0.2219
 9047SOL    HW138603   1.270   1.755   4.037  0.5512  0.6256  0.2074
 9047SOL    HW238604   1.251   1.904   4.061 -2.1315  1.8517  0.2529
 9048SOL     OW38605   2.787   0.662   6.888  0.0819  0.4228  0.2468
 9048SOL    HW138606   2.817   0.572   6.905  0.5543  0.9824  2.3104
 9048SOL    HW238607   2.794   0.703   6.974  0.1732  0.4462  0.2287
 9049SOL     OW38608   1.655   2.005   9.614  0.4200  0.1466  0.0607
 9049SOL    HW138609   1.606   2.022   9.534  3.5320  1.9745 -1.4536
 9049SOL    HW238610   1.685   2.092   9.641 -1.4767  0.6531  0.5249
 9050SOL     OW38611   1.927   2.125  13.617 -0.0289  0.4115 -0.0619
 9050SOL    HW138612   1.840   2.093  13.593 -0.5056  1.1887  0.6205
 9050SOL    HW238613   1.950   2.186  13.547 -0.9992 -1.1268 -1.7090
 9051SOL     OW38614   4.583   1.351  12.888  0.3192 -0.2450  0.4613
 9051SOL    HW138615   4.591   1.346  12.983  2.3271  0.0508  0.3027
 9051SOL    HW238616   4.643   1.281  12.862  0.5986 -0.3753  1.4678
 9052SOL     OW38617   4.395   4.534   2.268  0.0004  0.0042 -0.2099
 9052SOL    HW138618   4.357   4.508   2.352  0.3098  0.9991  0.2423
 9052SOL    HW238619   4.324   4.513   2.208  1.7803 -0.5838 -2.1041
 9053SOL     OW38620   1.660   1.604   4.048  0.3541  0.4492 -0.2760
 9053SOL    HW138621   1.607   1.525   4.049 -1.1224  1.4525  0.3758
 9053SOL    HW238622   1.745   1.566   4.071  0.1386  0.3860  0.3977
 9054SOL     OW38623   0.352   0.121   5.608 -0.1056  0.2380  0.2305
 9054SOL    HW138624   0.431   0.144   5.657  0.1764 -0.9536  0.3226
 9054SOL    HW238625   0.374   0.041   5.561  3.3301  1.4730 -0.2191
 9055SOL     OW38626   0.193   4.427   3.571 -0.0045  0.5939  0.4523
 9055SOL    HW138627   0.175   4.486   3.645  0.7913  2.1347 -0.5945
 9055SOL    HW238628   0.288   4.426   3.565  0.0064  1.7836  0.5492
 9056SOL     OW38629   2.091   2.753   4.778  0.6574 -0.1966 -0.3694
 9056SOL    HW138630   2.115   2.788   4.692  0.8998  1.0263  0.2079
 9056SOL    HW238631   2.054   2.828   4.823 -0.9879 -0.9253 -0.5006
 9057SOL     OW38632   3.808   1.159   5.982  0.0245  0.5169  0.2998
 9057SOL    HW138633   3.715   1.151   5.965  0.3728 -3.8799  0.6530
 9057SOL    HW238634   3.838   1.126   5.897 -0.0878 -0.9668  0.8549
 9058SOL     OW38635   4.297   2.595   6.099 -0.0518 -0.1396  0.1147
 9058SOL    HW138636   4.212   2.578   6.140  0.7516 -1.7955  1.0923
 9058SOL    HW238637   4.360   2.571   6.167 -1.7005  0.2316  1.8004
 9059SOL     OW38638   3.875   1.353   2.132 -0.3961  0.0435 -0.5909
 9059SOL    HW138639   3.931   1.310   2.197 -3.3429  2.2793  3.4761
 9059SOL    HW238640   3.902   1.312   2.051  1.8652  2.5425 -1.0976
 9060SOL     OW38641   2.442   3.035  10.114  0.3926 -0.8474 -0.9535
 9060SOL    HW138642   2.499   3.111  10.125  0.7589 -1.2333 -0.2177
 9060SOL    HW238643   2.480   2.980  10.182 -2.6091  0.4576  1.8111
 9061SOL     OW38644   4.684   0.819   0.099  0.1193  0.3337  0.0821
 9061SOL    HW138645   0.056   0.841   0.111  0.1587  0.1534  0.1102
 9061SOL    HW238646   4.677   0.748   0.163  0.4555  1.3056  1.2152
 9062SOL     OW38647   1.680   2.438  17.027 -0.0495  0.3311  0.0471
 9062SOL    HW138648   1.707   2.430  16.935  0.2241 -2.5475  0.3864
 9062SOL    HW238649   1.646   2.526  17.042 -0.6599  0.5068 -2.2993
 9063SOL     OW38650   2.225   3.679   1.824 -0.3319  0.5015 -0.0360
 9063SOL    HW138651   2.136   3.666   1.858  0.3848 -3.3030  0.4420
 9063SOL    HW238652   2.251   3.768   1.847 -0.4619  0.6396 -0.4304
 9064SOL     OW38653   4.157   2.551   2.558  0.0510  0.2383  0.7781
 9064SOL    HW138654   4.212   2.497   2.615  1.2795 -0.9974 -1.5262
 9064SOL    HW238655   4.108   2.614   2.610 -2.2349  0.7826 -1.9903
 9065SOL     OW38656   0.963   2.091   8.873  0.9026  0.1009  0.9218
 9065SOL    HW138657   1.049   2.128   8.891  0.0659  1.5014  1.9673
 9065SOL    HW238658   0.986   2.030   8.802 -0.4462  0.7467 -0.0618
 9066SOL     OW38659   1.131   1.892   7.172 -0.5432 -0.0339 -0.3371
 9066SOL    HW138660   1.197   1.943   7.125 -0.9464 -1.2063 -2.1729
 9066SOL    HW238661   1.066   1.962   7.174 -0.2634  0.2060  0.3331
 9067SOL     OW38662   1.645   3.345   8.489  0.2093 -0.0286  0.1398
 9067SOL    HW138663   1.650   3.262   8.537  1.4133 -1.2815 -2.1643
 9067SOL    HW238664   1.649   3.408   8.561  2.1806  0.1178 -0.0975
 9068SOL     OW38665   2.106   0.251  14.601 -0.1453 -0.6061  0.6845
 9068SOL    HW138666   2.067   0.188  14.539  0.3428  2.3078 -2.5732
 9068SOL    HW238667   2.162   0.306  14.546 -1.8782  2.1539  1.6895
 9069SOL     OW38668   1.216   2.856  15.948  0.1565  0.1090 -0.2689
 9069SOL    HW138669   1.195   2.945  15.923  2.3636  0.9974  1.0012
 9069SOL    HW238670   1.131   2.817  15.927 -0.0783  0.4903 -0.0135
 9070SOL     OW38671   4.368   0.710   3.262  0.2022  0.1325  0.1588
 9070SOL    HW138672   4.449   0.735   3.306 -2.0088  1.3344  3.6031
 9070SOL    HW238673   4.357   0.785   3.204  0.4698  0.3049  0.3343
 9071SOL     OW38674   2.318   0.913   4.294  0.1592 -0.1899  0.2780
 9071SOL    HW138675   2.293   0.988   4.240 -1.5595  1.0354  2.7717
 9071SOL    HW238676   2.354   0.851   4.231 -0.6513  0.3675 -0.7397
 9072SOL     OW38677   4.157   1.620   1.854  0.3686  0.1737 -0.3885
 9072SOL    HW138678   4.073   1.647   1.890  0.3498  1.4302 -1.3462
 9072SOL    HW238679   4.204   1.700   1.829 -1.0925  1.2333  0.2632
 9073SOL     OW38680   0.196   0.534   8.825 -0.1643 -0.1706  0.2013
 9073SOL    HW138681   0.101   0.524   8.837 -0.6002  0.4329 -2.7509
 9073SOL    HW238682   0.228   0.453   8.864  1.3919  0.3315 -0.0403
 9074SOL     OW38683   2.901   2.631   1.284  0.4076 -0.1690 -0.9833
 9074SOL    HW138684   2.906   2.726   1.280 -1.8074 -0.1829 -3.8960
 9074SOL    HW238685   2.984   2.611   1.327 -0.2103  1.7124  1.0417
 9075SOL     OW38686   4.453   1.763   6.995 -1.1559 -0.0486  0.0694
 9075SOL    HW138687   4.386   1.700   6.967 -0.7943 -1.2907  2.0062
 9075SOL    HW238688   4.452   1.818   6.917  1.8541  1.5265  1.1764
 9076SOL     OW38689   1.837   0.956   8.740 -0.5292  0.0153 -0.1410
 9076SOL    HW138690   1.844   1.048   8.716 -0.9868 -0.1046 -0.7290
 9076SOL    HW238691   1.904   0.915   8.685  0.1590 -0.3061  0.9227
 9077SOL     OW38692   1.375   3.044  14.325 -0.3030  0.4203 -0.1746
 9077SOL    HW138693   1.321   2.972  14.292  0.5524  0.4570 -1.6823
 9077SOL    HW238694   1.337   3.061  14.411  0.9505  0.6506  0.3386
 9078SOL     OW38695   0.738   3.799   0.730  0.1258  0.2396 -0.0239
 9078SOL    HW138696   0.776   3.751   0.804 -0.6934  0.2998  0.4385
 9078SOL    HW238697   0.806   3.865   0.718 -2.2488  2.7212  0.3484
 9079SOL     OW38698   0.660   4.310   8.984  0.4192  0.1873 -0.1486
 9079SOL    HW138699   0.739   4.265   9.013  0.3142  0.9113  1.2648
 9079SOL    HW238700   0.617   4.311   9.069  0.1713 -1.9073 -0.2596
 9080SOL     OW38701   3.505   1.668  12.974 -0.0619 -0.1234 -0.3768
 9080SOL    HW138702   3.428   1.616  12.997 -0.8239  1.4547  0.5966
 9080SOL    HW238703   3.536   1.628  12.892 -0.1582  0.9026 -0.9036
 9081SOL     OW38704   3.138   0.785   8.113  0.1635  0.3195 -0.2452
 9081SOL    HW138705   3.158   0.820   8.026 -0.5853  0.9912 -0.1441
 9081SOL    HW238706   3.070   0.722   8.089  2.2491 -1.5613 -1.1607
 9082SOL     OW38707   3.320   1.533   4.100 -0.1505  0.3762 -0.0894
 9082SOL    HW138708   3.340   1.537   4.193  0.3662  0.0191 -0.1838
 9082SOL    HW238709   3.257   1.461   4.099 -0.5493  0.7054  1.5978
 9083SOL     OW38710   2.352   2.100   5.596  0.7640 -0.2932  0.2869
 9083SOL    HW138711   2.379   2.192   5.596 -0.6606  0.1146 -1.1474
 9083SOL    HW238712   2.286   2.109   5.664 -0.0451 -1.9548 -0.2690
 9084SOL     OW38713   3.821   4.533  13.261  0.1537  0.2621  0.5518
 9084SOL    HW138714   3.734   4.573  13.259  0.3268  0.7813  3.3164
 9084SOL    HW238715   3.832   4.507  13.170  0.5701  1.5214  0.2355
 9085SOL     OW38716   0.746   1.890   5.265 -0.2179 -0.0527  0.2059
 9085SOL    HW138717   0.771   1.973   5.224 -1.5346  2.0082  3.6334
 9085SOL    HW238718   0.739   1.834   5.187 -1.4388 -1.3025  1.2125
 9086SOL     OW38719   4.693   2.612   4.115 -0.6296  0.3162 -0.0728
 9086SOL    HW138720   0.019   2.544   4.066  0.0394 -0.3432  1.4650
 9086SOL    HW238721   4.608   2.612   4.071 -0.6721 -2.8778 -0.0282
 9087SOL     OW38722   4.532   4.360   1.698 -0.4930 -0.3497  0.2690
 9087SOL    HW138723   4.496   4.381   1.784 -1.1032  0.7660 -0.2613
 9087SOL    HW238724   4.451   4.340   1.651 -0.6650  0.4637  0.2171
 9088SOL     OW38725   4.508   3.322   6.124 -0.2970  0.5477 -0.2944
 9088SOL    HW138726   4.441   3.390   6.123 -1.3203 -0.4540 -0.2600
 9088SOL    HW238727   4.589   3.363   6.094  0.6184 -0.2190  1.1432
 9089SOL     OW38728   2.299   4.611  15.450 -0.1268  0.3700  0.8701
 9089SOL    HW138729   2.353   4.553  15.397 -0.1297  1.3888 -0.2517
 9089SOL    HW238730   2.292   4.687  15.391 -0.5100 -1.9398 -2.0506
 9090SOL     OW38731   4.234   3.707   8.449 -0.4395 -0.5363  0.6754
 9090SOL    HW138732   4.280   3.663   8.520  1.8457  1.3292  0.3893
 9090SOL    HW238733   4.250   3.801   8.460  1.1522 -0.6068 -0.9728
 9091SOL     OW38734   0.827   2.090  13.734 -0.1747  0.4236 -0.1873
 9091SOL    HW138735   0.882   2.046  13.799  0.7447  1.6211 -0.1494
 9091SOL    HW238736   0.803   2.009  13.689  1.8501 -0.4672  0.3596
 9092SOL     OW38737   0.890   0.043   1.488  0.1675  0.4379 -0.5463
 9092SOL    HW138738   0.827   0.048   1.560  0.3394 -2.5984 -0.1648
 9092SOL    HW238739   0.900   4.669   1.476  2.2490  0.7979 -1.7821
 9093SOL     OW38740   1.682   0.817   6.317  0.2515  0.0978 -0.2244
 9093SOL    HW138741   1.665   0.769   6.236  0.5603  1.0660 -0.8733
 9093SOL    HW238742   1.759   0.775   6.354 -0.1972  0.1989  0.8469
 9094SOL     OW38743   1.348   2.177   7.719 -0.7026 -0.0033  0.9769
 9094SOL    HW138744   1.276   2.200   7.779  0.0280  2.4589  0.8902
 9094SOL    HW238745   1.423   2.156   7.774  0.0297 -0.0891 -0.0739
 9095SOL     OW38746   3.599   0.701  10.207  0.4997  0.0259 -0.2668
 9095SOL    HW138747   3.604   0.726  10.299  2.3989  0.0496 -0.3727
 9095SOL    HW238748   3.649   0.619  10.209  0.9264  0.2955 -0.0047
 9096SOL     OW38749   0.878   1.631  12.672  0.1231 -0.6661  0.4557
 9096SOL    HW138750   0.837   1.650  12.756  1.1394 -0.3441  0.8832
 9096SOL    HW238751   0.940   1.561  12.694  1.6897  0.1551 -1.2711
 9097SOL     OW38752   0.452   3.104   4.596  0.0598  0.0549  0.0343
 9097SOL    HW138753   0.484   3.113   4.686 -1.6988  1.6623  0.4946
 9097SOL    HW238754   0.379   3.166   4.596 -0.6054 -0.7150  1.2481
 9098SOL     OW38755   2.051   4.301   6.403 -0.1395 -0.1055 -0.2431
 9098SOL    HW138756   1.957   4.286   6.418 -0.1336 -1.7094 -1.8086
 9098SOL    HW238757   2.039   4.390   6.371 -0.6170 -0.4488 -1.0359
 9099SOL     OW38758   3.339   3.580   5.329  0.3572  0.1073 -0.4155
 9099SOL    HW138759   3.282   3.626   5.267 -0.0995 -2.1803 -1.6672
 9099SOL    HW238760   3.314   3.629   5.408 -0.2384  0.0440 -0.5701
 9100SOL     OW38761   3.410   2.147   5.079 -0.6465  1.0562  0.4345
 9100SOL    HW138762   3.480   2.082   5.083 -1.5850  0.0237  0.0587
 9100SOL    HW238763   3.357   2.092   5.021 -1.9519  1.2972  1.4028
 9101SOL     OW38764   1.279   1.616   8.278 -0.0106  0.2993  0.1536
 9101SOL    HW138765   1.187   1.598   8.293  0.5371 -1.3065  1.5066
 9101SOL    HW238766   1.309   1.526   8.270  0.1951  0.3518  0.3331
 9102SOL     OW38767   2.268   2.997   9.678 -0.2636  0.2660 -0.0345
 9102SOL    HW138768   2.262   3.061   9.608  0.8263 -1.9803 -2.1760
 9102SOL    HW238769   2.247   2.919   9.627 -1.7838  0.5299  0.2100
 9103SOL     OW38770   1.210   2.599   8.244  0.8676  0.1708  0.3808
 9103SOL    HW138771   1.193   2.532   8.311 -0.9620  0.0076 -0.2376
 9103SOL    HW238772   1.228   2.674   8.301  1.2891  0.5431 -0.2458
 9104SOL     OW38773   1.573   2.259  13.527  0.2656  0.0674  0.0361
 9104SOL    HW138774   1.629   2.324  13.484 -0.9761  0.2955 -1.2372
 9104SOL    HW238775   1.557   2.186  13.467  1.0076 -2.9806  3.5258
 9105SOL     OW38776   3.968   2.211  12.302  0.2794 -0.1905 -0.4987
 9105SOL    HW138777   4.013   2.133  12.333  2.5100  1.5017  0.5424
 9105SOL    HW238778   3.947   2.181  12.214 -1.9466  0.6723 -0.2688
 9106SOL     OW38779   0.988   1.545   5.131  0.6316  0.1916  0.0729
 9106SOL    HW138780   1.053   1.529   5.201 -0.5686  2.2757  1.6724
 9106SOL    HW238781   1.026   1.482   5.070  1.1557  0.2494  0.3317
 9107SOL     OW38782   0.020   4.606   5.733 -0.6286 -0.5598  0.1985
 9107SOL    HW138783   4.716   4.514   5.739 -0.7690 -0.5173  0.2855
 9107SOL    HW238784   4.677   4.637   5.668 -0.8113  3.8391  2.4570
 9108SOL     OW38785   1.018   0.508   3.527  0.0003 -0.1935  0.2588
 9108SOL    HW138786   0.978   0.434   3.481  0.9823 -0.4227 -0.2281
 9108SOL    HW238787   1.108   0.503   3.496  0.1213  0.1622  0.5616
 9109SOL     OW38788   3.725   2.648   6.338 -0.5285  0.0830 -0.5957
 9109SOL    HW138789   3.806   2.653   6.287 -0.4848  0.3752 -0.5008
 9109SOL    HW238790   3.685   2.730   6.308 -3.0054 -0.8308  0.1657
 9110SOL     OW38791   1.819   1.219   9.039  0.0016 -0.4136 -0.1144
 9110SOL    HW138792   1.835   1.214   8.945  0.6771 -2.4693  0.1276
 9110SOL    HW238793   1.890   1.161   9.063 -0.2702 -1.0677 -0.9027
 9111SOL     OW38794   2.136   4.108   1.100  0.6786 -0.0393 -0.2453
 9111SOL    HW138795   2.111   4.173   1.165 -0.6085  0.6047 -1.3975
 9111SOL    HW238796   2.100   4.140   1.018  0.0378 -0.0640  0.0257
 9112SOL     OW38797   1.962   0.007   2.712 -0.0405 -0.3379  0.1068
 9112SOL    HW138798   1.908   0.031   2.788 -3.0584  1.2498 -2.5641
 9112SOL    HW238799   2.050   0.014   2.749 -0.2545  1.6860  0.2397
 9113SOL     OW38800   1.378   3.366   9.651 -0.2833 -0.3843  0.0561
 9113SOL    HW138801   1.304   3.357   9.711  0.6915  0.3754  1.3596
 9113SOL    HW238802   1.434   3.401   9.720  0.5552 -2.6812  0.5476
 9114SOL     OW38803   3.219   2.825  16.453 -0.5603  0.4312 -0.0238
 9114SOL    HW138804   3.155   2.878  16.406  0.2547  1.7337  0.3149
 9114SOL    HW238805   3.258   2.783  16.376  0.6068  0.6820  0.4309
 9115SOL     OW38806   3.635   0.675   5.291 -0.2821 -0.0178 -0.1493
 9115SOL    HW138807   3.689   0.598   5.307 -2.1427 -1.7036 -2.0373
 9115SOL    HW238808   3.651   0.725   5.371  3.6778 -1.4893 -0.0681
 9116SOL     OW38809   2.129   4.141  15.086 -0.1097 -0.1214 -0.1637
 9116SOL    HW138810   2.080   4.129  15.168  0.4158 -0.7618  0.0608
 9116SOL    HW238811   2.091   4.069  15.035  1.3225 -0.2587 -1.0215
 9117SOL     OW38812   2.033   1.970  10.730  1.0891 -0.1987 -0.5546
 9117SOL    HW138813   1.985   1.894  10.697  0.0079  0.1404  0.2507
 9117SOL    HW238814   2.101   1.936  10.787 -0.3652  0.5452  1.6237
 9118SOL     OW38815   0.778   1.612  16.848  0.3822  0.1614 -0.4200
 9118SOL    HW138816   0.820   1.565  16.775 -1.0060  0.6471 -1.5368
 9118SOL    HW238817   0.691   1.622  16.810  0.3078  1.4158  0.1073
 9119SOL     OW38818   0.657   2.850  10.415  0.0291 -0.2671  0.5881
 9119SOL    HW138819   0.577   2.848  10.362  0.1607  1.1116  0.3184
 9119SOL    HW238820   0.632   2.863  10.506  0.6391 -1.0743  0.8713
 9120SOL     OW38821   4.542   0.505  15.507 -0.2921  0.2942 -0.4989
 9120SOL    HW138822   4.581   0.568  15.447 -1.2363  1.0895 -0.2790
 9120SOL    HW238823   4.469   0.468  15.457 -0.6726  0.7768 -0.2900
 9121SOL     OW38824   1.239   4.283  15.736 -0.1760 -0.3529  0.4149
 9121SOL    HW138825   1.296   4.309  15.664 -2.1784 -0.4478 -1.1930
 9121SOL    HW238826   1.300   4.245  15.799  1.7328  0.4250 -0.9441
 9122SOL     OW38827   3.678   1.810   3.368 -0.6252  0.1594  0.2750
 9122SOL    HW138828   3.643   1.871   3.432 -0.8257  0.2282  0.1002
 9122SOL    HW238829   3.599   1.776   3.327  0.8394 -1.4327 -1.2475
 9123SOL     OW38830   3.403   3.231   3.478 -0.2840  0.2441  0.4122
 9123SOL    HW138831   3.420   3.217   3.385 -0.5532  3.0071 -0.0597
 9123SOL    HW238832   3.488   3.263   3.509  0.8760 -2.3071 -0.2145
 9124SOL     OW38833   3.690   1.955  13.666 -0.5912  0.4836  0.1812
 9124SOL    HW138834   3.599   1.928  13.683 -0.9235 -1.6213 -4.9451
 9124SOL    HW238835   3.692   2.031  13.724  0.6571 -0.6191  1.5842
 9125SOL     OW38836   0.570   2.966   6.119 -1.1933  0.1252 -0.5498
 9125SOL    HW138837   0.551   3.022   6.044 -2.1533 -1.0039 -1.1576
 9125SOL    HW238838   0.655   2.927   6.100 -1.5342 -1.4688  1.2086
 9126SOL     OW38839   1.826   1.915   3.700 -0.4021 -0.1364 -0.3379
 9126SOL    HW138840   1.758   1.945   3.640 -2.3706  2.0638  2.9791
 9126SOL    HW238841   1.891   1.902   3.631  0.8579 -1.8092  1.1374
 9127SOL     OW38842   1.164   3.549   6.767  0.0196  0.3777  0.0512
 9127SOL    HW138843   1.257   3.561   6.748 -0.4081  0.2991 -2.0652
 9127SOL    HW238844   1.159   3.464   6.810 -0.9730  0.4366  0.0549
 9128SOL     OW38845   3.203   1.975   2.579  0.4736  0.1251  0.3567
 9128SOL    HW138846   3.134   2.033   2.546  0.5694  0.2788  0.4288
 9128SOL    HW238847   3.232   1.916   2.509  0.4973  0.0474  0.4307
 9129SOL     OW38848   0.726   3.383   6.935 -0.0130  0.2432  0.0299
 9129SOL    HW138849   0.732   3.449   7.004 -0.6847 -0.2708  0.5749
 9129SOL    HW238850   0.646   3.335   6.956  0.3861 -1.0894 -1.5561
 9130SOL     OW38851   3.999   2.353  11.897 -0.4346 -0.0401  0.5721
 9130SOL    HW138852   4.004   2.448  11.887  0.5768 -0.1973 -0.3640
 9130SOL    HW238853   4.072   2.320  11.845  0.0097  0.6144  0.7742
 9131SOL     OW38854   2.157   0.602   9.640  0.3112  0.8093  0.0574
 9131SOL    HW138855   2.130   0.514   9.666 -0.8667  0.6949 -1.5360
 9131SOL    HW238856   2.102   0.651   9.702 -1.1349 -0.2561 -0.3971
 9132SOL     OW38857   2.711   2.199   3.855 -1.1879  0.3858  0.2526
 9132SOL    HW138858   2.646   2.260   3.890 -0.0112  2.3148 -0.8522
 9132SOL    HW238859   2.713   2.122   3.912  0.0895  1.1170  1.2014
 9133SOL     OW38860   3.623   2.221   3.780 -0.0572  0.2441 -0.1182
 9133SOL    HW138861   3.579   2.136   3.776 -0.3728  0.2964  2.2267
 9133SOL    HW238862   3.710   2.202   3.743 -1.2258 -0.2533 -2.6127
 9134SOL     OW38863   4.692   4.274   8.448 -0.2253  0.1411  0.3422
 9134SOL    HW138864   0.014   4.326   8.516 -1.5163  0.8741  0.5802
 9134SOL    HW238865   4.651   4.345   8.399  2.9045  2.2545  0.7813
 9135SOL     OW38866   0.056   0.253   9.179 -0.2258 -0.3756 -0.1834
 9135SOL    HW138867   0.067   0.339   9.221 -2.7175 -0.1460 -0.0315
 9135SOL    HW238868   4.686   0.253   9.150  0.2775  3.1717 -1.7887
 9136SOL     OW38869   3.895   2.491   7.538  0.2550 -0.2723 -0.0682
 9136SOL    HW138870   3.831   2.498   7.609  1.8061  2.9979  0.9917
 9136SOL    HW238871   3.876   2.402   7.505  0.0904  0.4138 -1.8543
 9137SOL     OW38872   1.004   0.876  14.545  0.0136 -1.0468  0.2491
 9137SOL    HW138873   1.030   0.968  14.546  2.7426 -1.8091 -0.0898
 9137SOL    HW238874   1.009   0.867  14.640 -0.2717  1.2887  0.4944
 9138SOL     OW38875   3.516   3.924  10.734 -0.0973 -0.1092  0.3756
 9138SOL    HW138876   3.557   3.868  10.669 -0.7866 -0.1241 -0.0420
 9138SOL    HW238877   3.427   3.937  10.700 -0.2026 -2.7485 -0.3384
 9139SOL     OW38878   0.341   2.339   6.011  0.1226 -0.1094  0.4803
 9139SOL    HW138879   0.252   2.329   6.045 -0.2590  0.0726 -0.4823
 9139SOL    HW238880   0.378   2.257   6.043  0.8956 -0.2968 -0.9282
 9140SOL     OW38881   3.396   1.487   4.374 -0.0384  0.3050  0.3931
 9140SOL    HW138882   3.482   1.472   4.415 -0.4053 -1.3349  0.5624
 9140SOL    HW238883   3.348   1.412   4.409  1.2057  0.0256  1.4995
 9141SOL     OW38884   4.215   0.060   6.140 -0.6007  0.4744  0.3479
 9141SOL    HW138885   4.211   0.108   6.058 -0.5989 -0.9437 -0.4697
 9141SOL    HW238886   4.309   0.040   6.142 -0.7464 -0.2105  0.4689
 9142SOL     OW38887   1.344   0.883   3.282  0.0185  0.0077  0.1204
 9142SOL    HW138888   1.402   0.820   3.238 -0.1979 -0.6154  0.7172
 9142SOL    HW238889   1.266   0.866   3.230  0.2166 -0.7032  0.0501
 9143SOL     OW38890   0.054   2.072  13.879  0.3786 -0.8594 -0.3097
 9143SOL    HW138891   4.688   2.094  13.844  0.8793  0.1912 -0.8781
 9143SOL    HW238892   0.052   1.977  13.888 -0.0287 -0.8486 -0.2851
 9144SOL     OW38893   0.820   3.160  13.218 -0.2662  0.1827  0.3756
 9144SOL    HW138894   0.784   3.249  13.213 -0.8837 -0.1573 -1.2080
 9144SOL    HW238895   0.825   3.163  13.313 -0.4630 -0.0681  0.3937
 9145SOL     OW38896   2.949   1.808   3.013  0.0761  0.6131 -0.1879
 9145SOL    HW138897   2.886   1.877   2.995 -0.3808  0.3809  0.5150
 9145SOL    HW238898   3.014   1.838   2.950  0.1391  0.1881 -0.3249
 9146SOL     OW38899   3.435   1.999   6.933 -0.0033 -0.4252  0.3351
 9146SOL    HW138900   3.405   1.933   6.996 -0.0301  0.1671  0.9471
 9146SOL    HW238901   3.395   2.077   6.973 -1.9343 -2.0896  1.6447
 9147SOL     OW38902   2.582   0.878   4.872  0.0786 -0.5060  0.2420
 9147SOL    HW138903   2.559   0.930   4.795  0.5549  0.0021  0.4413
 9147SOL    HW238904   2.636   0.825   4.814  0.5113  0.6783 -0.4408
 9148SOL     OW38905   4.068   2.158   1.323 -0.1110  0.4589 -0.1506
 9148SOL    HW138906   4.152   2.170   1.279  1.0876 -2.7926  1.2705
 9148SOL    HW238907   4.029   2.234   1.281 -1.9669  0.3599  1.4203
 9149SOL     OW38908   3.811   4.517   8.524  0.6073  0.1483 -0.2320
 9149SOL    HW138909   3.811   4.427   8.492  0.6642 -1.1744  3.5173
 9149SOL    HW238910   3.799   4.505   8.618 -0.1541 -1.3574 -0.5276
 9150SOL     OW38911   3.066   3.761  12.012 -0.5873 -0.0126 -0.4241
 9150SOL    HW138912   3.004   3.817  12.059  1.9712  2.4448  0.0007
 9150SOL    HW238913   3.030   3.673  12.028 -2.4262  0.9534  0.6771
 9151SOL     OW38914   4.438   0.222  14.937 -0.1211 -0.4398 -0.3324
 9151SOL    HW138915   4.491   0.284  14.987 -0.4616  0.0284 -0.5495
 9151SOL    HW238916   4.435   0.256  14.848 -1.7026 -0.4896 -0.3105
 9152SOL     OW38917   2.611   1.199   2.256 -0.2805 -0.0811 -0.3240
 9152SOL    HW138918   2.643   1.218   2.344  0.4868 -3.0251  0.0232
 9152SOL    HW238919   2.532   1.149   2.278 -0.3915 -0.7821 -2.2963
 9153SOL     OW38920   3.012   3.944  11.332  0.2487 -0.5397  0.4097
 9153SOL    HW138921   3.054   3.977  11.252  0.7319 -1.5831  0.2299
 9153SOL    HW238922   2.964   3.866  11.306  2.0942 -1.2931 -0.7134
 9154SOL     OW38923   2.244   2.299  17.653 -0.0102  0.0683 -0.2130
 9154SOL    HW138924   2.207   2.213  17.630 -2.0789  0.8543  0.1691
 9154SOL    HW238925   2.218   2.361  17.586 -2.1465  0.1080  0.6538
 9155SOL     OW38926   3.659   0.399   5.391 -0.1019 -0.7559  0.6512
 9155SOL    HW138927   3.718   0.345   5.339  0.8175  1.5693 -0.7501
 9155SOL    HW238928   3.709   0.400   5.473  1.5333 -3.0104 -0.3264
 9156SOL     OW38929   0.746   2.369   5.420  0.1894 -0.2639 -0.2312
 9156SOL    HW138930   0.800   2.446   5.437 -1.4611  0.4537  1.8559
 9156SOL    HW238931   0.812   2.309   5.386  0.1733 -0.0638 -0.6097
 9157SOL     OW38932   0.907   3.281  13.715 -0.2001 -0.2090 -0.7558
 9157SOL    HW138933   0.928   3.189  13.727  0.7359  0.3226  1.6252
 9157SOL    HW238934   0.896   3.290  13.809  0.1999  3.6524 -1.0711
 9158SOL     OW38935   0.967   3.684   2.376  0.0522  0.2321  0.7059
 9158SOL    HW138936   1.042   3.658   2.427  0.5542 -1.1958 -0.7619
 9158SOL    HW238937   0.933   3.603   2.337 -0.1000  0.7606 -0.2744
 9159SOL     OW38938   3.537   0.839  10.529  0.3236 -0.0201 -0.1508
 9159SOL    HW138939   3.517   0.927  10.562  1.5617 -0.5944  2.0633
 9159SOL    HW238940   3.633   0.843  10.524  0.3697 -0.3269  0.5680
 9160SOL     OW38941   0.110   4.578   3.800  0.4712 -0.6484  0.1481
 9160SOL    HW138942   0.105   4.517   3.875 -1.6187  0.0442  0.5821
 9160SOL    HW238943   0.027   4.626   3.796 -0.4462 -2.5813 -4.0163
 9161SOL     OW38944   2.921   3.951   6.501  0.6025 -0.2475  0.0098
 9161SOL    HW138945   2.986   4.018   6.481  0.5634 -0.9686 -2.5638
 9161SOL    HW238946   2.871   3.935   6.421  2.4148 -0.1583 -1.1162
 9162SOL     OW38947   3.906   0.393  10.388  0.1204  0.2583  0.2799
 9162SOL    HW138948   3.989   0.439  10.399  0.2087 -0.7583  3.9159
 9162SOL    HW238949   3.849   0.469  10.378  0.4214  0.3394 -0.8047
 9163SOL     OW38950   2.735   0.562   3.011 -0.4042  0.0916  0.0770
 9163SOL    HW138951   2.808   0.504   3.032  0.9257  1.3007 -1.2010
 9163SOL    HW238952   2.728   0.591   3.102  0.8426 -0.5384  0.3835
 9164SOL     OW38953   2.178   1.731   6.815  0.5839  0.0088 -0.8260
 9164SOL    HW138954   2.165   1.730   6.910 -1.0867 -0.7807 -1.0661
 9164SOL    HW238955   2.235   1.808   6.808  1.4143 -0.6529 -1.4454
 9165SOL     OW38956   0.661   4.414   7.916 -0.2563 -0.7798  0.1081
 9165SOL    HW138957   0.625   4.402   7.827 -0.4807  0.7844 -0.0057
 9165SOL    HW238958   0.754   4.400   7.902 -0.8461 -0.9669 -3.8431
 9166SOL     OW38959   0.716   4.003   3.207 -0.0276  0.0443  0.2808
 9166SOL    HW138960   0.745   4.052   3.285  0.2859  0.9402 -0.4008
 9166SOL    HW238961   0.720   4.071   3.140 -1.3172  0.0523  0.2045
 9167SOL     OW38962   0.409   3.132   6.624 -0.0862 -0.0746 -0.4064
 9167SOL    HW138963   0.424   3.126   6.530  0.1494  0.8866 -0.4301
 9167SOL    HW238964   0.345   3.062   6.633  0.1539 -0.3215 -0.6443
 9168SOL     OW38965   4.056   3.002  16.362 -0.1103 -0.0913 -0.3980
 9168SOL    HW138966   3.976   2.953  16.383 -0.1691 -0.4690 -1.5081
 9168SOL    HW238967   4.122   2.935  16.380 -1.5865 -1.8698 -1.5487
 9169SOL     OW38968   0.846   3.615  14.737  0.2360  0.3225 -0.5037
 9169SOL    HW138969   0.935   3.607  14.770  0.0898  0.9604  0.0643
 9169SOL    HW238970   0.812   3.694  14.781  0.7868 -0.5818  1.5345
 9170SOL     OW38971   1.950   3.156   7.807 -0.1990  0.1655 -0.1346
 9170SOL    HW138972   1.897   3.094   7.756  0.0810 -0.0213 -0.2013
 9170SOL    HW238973   1.880   3.204   7.851 -1.0120 -2.1301  1.0557
 9171SOL     OW38974   3.703   4.355   9.611 -0.0680 -0.4583 -0.5605
 9171SOL    HW138975   3.797   4.363   9.623 -0.1327  0.8584 -0.9993
 9171SOL    HW238976   3.686   4.432   9.558 -0.6675  1.3964  2.3164
 9172SOL     OW38977   2.084   1.647   8.868 -0.2710 -0.4172 -0.5393
 9172SOL    HW138978   2.079   1.625   8.961 -2.3526  0.2509 -0.5099
 9172SOL    HW238979   2.163   1.602   8.838  0.6923  0.6108  0.4110
 9173SOL     OW38980   2.176   1.080   6.721  0.0574 -0.8772 -0.0222
 9173SOL    HW138981   2.132   1.102   6.639  0.7331 -1.0391 -0.4324
 9173SOL    HW238982   2.265   1.110   6.698 -0.0605 -2.0184 -1.9483
 9174SOL     OW38983   2.295   1.197   8.035 -0.2845  0.3355  0.0685
 9174SOL    HW138984   2.323   1.106   8.034  0.2310  0.4685  2.2058
 9174SOL    HW238985   2.308   1.225   8.126 -0.3746 -0.8973  0.4601
 9175SOL     OW38986   1.802   0.365  12.760  0.2305  0.6942 -0.0047
 9175SOL    HW138987   1.833   0.314  12.834  0.3634  0.6749 -0.0745
 9175SOL    HW238988   1.718   0.321  12.745  0.9832 -0.8372  0.3279
 9176SOL     OW38989   1.035   3.629  14.398  0.4757  0.2415 -0.2365
 9176SOL    HW138990   1.068   3.680  14.472  4.7089 -1.7171 -0.8003
 9176SOL    HW238991   0.955   3.675  14.373  0.0310  1.1508  2.9186
 9177SOL     OW38992   2.622   0.068   2.258 -0.3009 -0.4265  0.2926
 9177SOL    HW138993   2.664   0.154   2.257  0.1229 -0.6372  0.0891
 9177SOL    HW238994   2.670   0.021   2.190  3.1863 -3.0266  4.5189
 9178SOL     OW38995   2.196   4.676   5.485 -0.0408 -0.3538  0.3468
 9178SOL    HW138996   2.199   4.625   5.566 -0.0931 -0.3336  0.3611
 9178SOL    HW238997   2.289   4.691   5.465  0.2836  0.3499  2.3768
 9179SOL     OW38998   3.650   2.211   6.495 -0.2772  0.0735  0.6116
 9179SOL    HW138999   3.724   2.193   6.554  0.5746 -0.7580 -0.6947
 9179SOL    HW239000   3.630   2.121   6.469  1.3968  0.2886 -1.4447
 9180SOL     OW39001   1.286   3.596  15.960  0.0559 -0.4556  0.1693
 9180SOL    HW139002   1.276   3.657  16.033 -1.7861  2.0052 -2.1120
 9180SOL    HW239003   1.372   3.557  15.974  0.8644  0.7290 -1.5446
 9181SOL     OW39004   2.800   3.445   1.950  0.4757  0.2375 -0.8209
 9181SOL    HW139005   2.856   3.379   1.910 -0.3933 -1.1264  0.2009
 9181SOL    HW239006   2.862   3.516   1.968  3.5551 -3.4085  2.8490
 9182SOL     OW39007   1.238   2.804  10.448  0.8924  0.4251 -0.4623
 9182SOL    HW139008   1.261   2.868  10.381  1.8248  0.3561 -0.2021
 9182SOL    HW239009   1.190   2.738  10.398 -1.1840  2.0284 -0.6024
 9183SOL     OW39010   2.777   0.815   8.336  0.4896  0.6385  0.5095
 9183SOL    HW139011   2.738   0.727   8.338  0.6700  0.5759  1.2142
 9183SOL    HW239012   2.850   0.803   8.397  1.7664  0.0148 -1.1101
 9184SOL     OW39013   3.796   1.990   1.121  0.1853  0.0536 -0.1680
 9184SOL    HW139014   3.797   1.992   1.216  0.7347 -1.1149 -0.1396
 9184SOL    HW239015   3.707   2.017   1.100  0.2805  1.3956  1.1755
 9185SOL     OW39016   3.947   1.586   9.479 -0.2011  0.3710  0.2707
 9185SOL    HW139017   3.866   1.535   9.481  1.0514 -1.4224  4.2897
 9185SOL    HW239018   3.929   1.642   9.403 -0.2062 -0.4689 -0.3448
 9186SOL     OW39019   4.131   2.865   7.129 -0.2339 -0.0511  0.1813
 9186SOL    HW139020   4.164   2.954   7.123 -1.4840  0.5284  1.9160
 9186SOL    HW239021   4.037   2.882   7.140 -0.2608  1.8994 -3.1865
 9187SOL     OW39022   3.992   2.910   5.796  0.0138 -0.4085 -0.5063
 9187SOL    HW139023   4.066   2.851   5.810  1.8948  1.7595 -1.3667
 9187SOL    HW239024   4.022   2.983   5.741  1.4680 -0.8127 -0.2378
 9188SOL     OW39025   1.095   3.152   8.799  0.6142  0.4843 -0.6241
 9188SOL    HW139026   1.093   3.171   8.892  1.4204 -1.7031 -0.1537
 9188SOL    HW239027   1.175   3.203   8.788  1.5746 -0.4921  1.7665
 9189SOL     OW39028   3.814   4.670   9.164  0.6581 -0.2254  0.5446
 9189SOL    HW139029   3.726   4.634   9.149  0.4225  0.1690  0.9998
 9189SOL    HW239030   3.858   4.598   9.209  1.1499 -0.2031  0.1077
 9190SOL     OW39031   2.643   1.515  17.021 -0.2201 -1.0498  0.3905
 9190SOL    HW139032   2.712   1.499  16.956  2.0258  1.7642  2.1130
 9190SOL    HW239033   2.672   1.472  17.101 -1.0196  0.3907  1.4366
 9191SOL     OW39034   1.979   3.656   8.623  0.1536  0.5334  0.0982
 9191SOL    HW139035   2.067   3.687   8.646 -0.5244  1.9997  0.7196
 9191SOL    HW239036   1.931   3.734   8.593  1.2772  0.6231 -1.4750
 9192SOL     OW39037   2.558   2.852   9.667 -0.1936 -0.1969 -0.5437
 9192SOL    HW139038   2.532   2.814   9.751  0.0901  0.4077 -0.1776
 9192SOL    HW239039   2.524   2.941   9.681  0.5544 -0.4525  2.9136
 9193SOL     OW39040   3.236   0.817   7.876 -0.3976  0.0853  0.0955
 9193SOL    HW139041   3.251   0.862   7.793  0.0868 -0.6381 -0.2063
 9193SOL    HW239042   3.323   0.777   7.885  0.5465  2.3415  0.9617
 9194SOL     OW39043   1.813   1.385   5.663  0.2798  0.2091 -0.0944
 9194SOL    HW139044   1.832   1.479   5.656  0.0166  0.1312 -1.7811
 9194SOL    HW239045   1.761   1.367   5.585  0.3934 -0.4956 -0.0071
 9195SOL     OW39046   2.077   2.181   9.022 -0.1238 -0.6360  0.2973
 9195SOL    HW139047   2.112   2.182   9.111  2.3147  3.7941 -0.6754
 9195SOL    HW239048   2.047   2.272   9.014 -1.6856 -1.1154  0.7810
 9196SOL     OW39049   2.512   1.393  16.127 -0.5407  0.2328 -0.3564
 9196SOL    HW139050   2.432   1.404  16.076 -1.5920  1.7049  1.6248
 9196SOL    HW239051   2.573   1.371  16.057 -0.0386 -0.8057  0.4120
 9197SOL     OW39052   3.536   1.443   8.377  0.1136 -0.5509 -0.5769
 9197SOL    HW139053   3.590   1.421   8.453  0.2828  1.6823 -0.0687
 9197SOL    HW239054   3.448   1.442   8.414 -0.0429  1.4294 -0.9057
 9198SOL     OW39055   1.916   0.163   9.100 -0.3305  0.3019  0.3950
 9198SOL    HW139056   1.929   0.111   9.021 -0.2963  1.3653 -0.3031
 9198SOL    HW239057   1.951   0.100   9.163 -0.5824 -0.1532  0.0869
 9199SOL     OW39058   0.947   2.475  15.158 -0.0360 -0.0535 -0.0777
 9199SOL    HW139059   0.865   2.522  15.146  1.6974  2.4864 -1.8920
 9199SOL    HW239060   0.924   2.398  15.106 -0.1058  0.1546 -0.3542
 9200SOL     OW39061   2.202   2.581   4.945  0.4510  0.6056  0.1492
 9200SOL    HW139062   2.214   2.510   4.882  0.2807  0.9624 -0.2829
 9200SOL    HW239063   2.150   2.636   4.886 -1.3513  1.3801  2.4785
 9201SOL     OW39064   2.616   0.303   4.827  0.1475  0.8322  0.0311
 9201SOL    HW139065   2.601   0.263   4.742 -0.3795 -0.2105  0.6205
 9201SOL    HW239066   2.549   0.370   4.839 -2.4229 -1.5740 -1.0947
 9202SOL     OW39067   3.198   4.505   6.509 -0.3469 -0.1800 -0.2474
 9202SOL    HW139068   3.237   4.555   6.580 -0.9619 -2.5337  1.7235
 9202SOL    HW239069   3.279   4.462   6.479 -1.0843 -0.2697 -2.1511
 9203SOL     OW39070   4.392   1.386   2.636 -0.5435 -0.0091 -0.4664
 9203SOL    HW139071   4.314   1.393   2.580 -1.0757 -2.1813 -0.0153
 9203SOL    HW239072   4.370   1.316   2.698  1.4965 -0.0692  0.1863
 9204SOL     OW39073   1.949   3.241   2.878 -0.1072  0.4813  0.5175
 9204SOL    HW139074   2.043   3.251   2.861 -0.2515 -1.9549 -1.7142
 9204SOL    HW239075   1.920   3.179   2.811 -1.7176  0.1663  1.4977
 9205SOL     OW39076   0.152   4.384   2.697  0.2505 -0.3159 -0.2625
 9205SOL    HW139077   0.153   4.470   2.655  1.8377 -1.0105 -1.6332
 9205SOL    HW239078   0.148   4.404   2.791 -0.1564  0.0524 -0.3559
 9206SOL     OW39079   1.557   2.295   9.027 -0.5326 -0.0020  0.0102
 9206SOL    HW139080   1.590   2.223   8.974 -0.8675  0.3540 -0.6816
 9206SOL    HW239081   1.576   2.367   8.967 -0.0470  0.7660  1.0759
 9207SOL     OW39082   0.140   2.012   7.327  0.1194  0.2216 -0.1881
 9207SOL    HW139083   0.175   2.017   7.416  1.3027  0.4251 -0.6555
 9207SOL    HW239084   0.193   1.950   7.277 -2.2230 -1.6962 -0.2646
 9208SOL     OW39085   1.841   1.467  11.357 -0.4493  0.1440  0.4189
 9208SOL    HW139086   1.800   1.552  11.376  0.4434  0.3489  1.3786
 9208SOL    HW239087   1.929   1.471  11.394 -0.2457 -1.8863  0.1501
 9209SOL     OW39088   0.551   1.138   1.485  0.5948  0.3139 -0.2378
 9209SOL    HW139089   0.492   1.212   1.503 -0.1876 -0.9108  2.1350
 9209SOL    HW239090   0.636   1.179   1.470  0.8335 -0.4813 -1.0683
 9210SOL     OW39091   1.056   1.970  10.472 -0.0401  0.3431 -0.2121
 9210SOL    HW139092   1.132   2.007  10.427  0.6496  1.2338  1.6505
 9210SOL    HW239093   1.098   1.972  10.558  0.7702  1.8426 -0.6415
 9211SOL     OW39094   1.530   1.928   4.759  0.2037 -0.2333 -0.4138
 9211SOL    HW139095   1.475   1.865   4.713 -2.6067  2.7430 -1.1214
 9211SOL    HW239096   1.526   1.996   4.692 -0.4461 -0.5828 -0.7286
 9212SOL     OW39097   1.764   4.098  15.842  0.2575 -0.1383  0.4385
 9212SOL    HW139098   1.770   4.037  15.916  1.0713 -0.5660  0.0087
 9212SOL    HW239099   1.802   4.181  15.871 -0.0100 -0.0295  0.4819
 9213SOL     OW39100   1.454   2.287   2.725 -0.2184  0.2359 -0.0795
 9213SOL    HW139101   1.419   2.374   2.742 -0.6439 -0.0316  0.4196
 9213SOL    HW239102   1.525   2.282   2.789 -1.6674 -0.8054  1.4422
 9214SOL     OW39103   4.591   1.322   5.169 -0.2639 -0.5795  0.4639
 9214SOL    HW139104   4.686   1.320   5.167 -0.3152 -0.7610 -1.6048
 9214SOL    HW239105   4.578   1.414   5.192  3.0917  0.3115 -1.2296
 9215SOL     OW39106   1.069   4.203   2.319 -0.0374 -0.0425  0.7071
 9215SOL    HW139107   1.053   4.219   2.412 -0.9215 -1.4106  0.7937
 9215SOL    HW239108   1.050   4.110   2.308 -0.5444  0.0395  0.9140
 9216SOL     OW39109   4.512   3.752   2.347 -0.1935  0.0181  0.6619
 9216SOL    HW139110   4.531   3.832   2.395 -1.3414  0.8071 -0.1902
 9216SOL    HW239111   4.424   3.776   2.320 -0.1263 -0.6822 -0.2013
 9217SOL     OW39112   2.539   4.245   0.974 -0.3887  0.2873  0.0435
 9217SOL    HW139113   2.450   4.246   0.940  0.0753 -1.1904 -1.2107
 9217SOL    HW239114   2.577   4.172   0.924  0.5761  0.8482 -0.0312
 9218SOL     OW39115   2.130   4.561   4.353  0.6743  0.4362  0.5395
 9218SOL    HW139116   2.086   4.619   4.415 -1.8350 -1.9559  1.0105
 9218SOL    HW239117   2.148   4.482   4.403  2.3421 -0.9317 -2.2107
 9219SOL     OW39118   1.638   2.544  11.353  0.9194 -0.2487  0.1340
 9219SOL    HW139119   1.640   2.613  11.420  0.4665 -1.6297  1.5767
 9219SOL    HW239120   1.679   2.587  11.278 -2.2634  2.3427 -0.1065
 9220SOL     OW39121   3.320   2.681   7.640 -0.1476  0.1065 -0.6141
 9220SOL    HW139122   3.308   2.592   7.673  0.8161  0.3418  0.3778
 9220SOL    HW239123   3.274   2.676   7.556  1.7309  2.8886 -1.8160
 9221SOL     OW39124   2.161   4.677   7.598 -0.1654 -0.2433  0.0463
 9221SOL    HW139125   2.102   4.631   7.539  0.9149 -1.8272  0.1605
 9221SOL    HW239126   2.234   4.615   7.603  0.3150  0.4715  1.9413
 9222SOL     OW39127   3.203   1.183   1.620  0.3557  0.2723 -0.2543
 9222SOL    HW139128   3.214   1.276   1.640 -2.3807  0.7917 -1.2592
 9222SOL    HW239129   3.166   1.182   1.532 -1.2252  0.2738  0.4176
 9223SOL     OW39130   2.677   3.508   3.070 -0.2892  0.2316  0.0493
 9223SOL    HW139131   2.684   3.544   2.982 -0.3967  0.3772  0.0995
 9223SOL    HW239132   2.586   3.526   3.094  0.2083  2.6813  0.1625
 9224SOL     OW39133   3.030   1.541   6.736  0.7223 -0.1066  0.8506
 9224SOL    HW139134   3.120   1.560   6.762  0.5879 -0.1735  1.3621
 9224SOL    HW239135   3.041   1.463   6.682 -1.1735  0.0046  0.3027
 9225SOL     OW39136   0.218   1.060   7.415 -0.0134 -0.1095 -0.5883
 9225SOL    HW139137   0.280   1.106   7.360  0.9070 -1.6063 -0.7986
 9225SOL    HW239138   0.130   1.073   7.378 -0.4191 -1.3408 -0.0738
 9226SOL     OW39139   0.853   1.465   0.590 -0.1243 -1.0936 -0.1077
 9226SOL    HW139140   0.855   1.525   0.517 -3.4853 -1.2685 -0.3673
 9226SOL    HW239141   0.818   1.512   0.665 -3.1982  1.1828 -3.0010
 9227SOL     OW39142   1.632   3.055   6.748 -0.0971 -0.0242 -0.0321
 9227SOL    HW139143   1.712   3.003   6.733  0.6817  0.7077  1.5529
 9227SOL    HW239144   1.588   3.003   6.815  0.0279 -1.0941 -0.7736
 9228SOL     OW39145   2.934   0.474   7.682 -0.1054  0.2530 -0.2622
 9228SOL    HW139146   2.932   0.398   7.741  0.7653  0.1911 -0.3097
 9228SOL    HW239147   3.020   0.457   7.644  1.5152 -0.3233  3.6165
 9229SOL     OW39148   4.041   0.680   3.876 -0.0638 -0.0254  0.4433
 9229SOL    HW139149   4.113   0.713   3.930  0.6293 -0.7826 -0.0097
 9229SOL    HW239150   3.981   0.751   3.899 -0.9045 -1.2144  1.8999
 9230SOL     OW39151   0.366   4.655   3.922 -0.5519  0.2728 -0.7089
 9230SOL    HW139152   0.338   4.597   3.993  1.0886  0.8082  0.3718
 9230SOL    HW239153   0.292   4.633   3.865  0.3765  2.0445 -2.6112
 9231SOL     OW39154   2.267   4.433   8.463  0.2820  0.1711 -0.5102
 9231SOL    HW139155   2.340   4.388   8.505 -1.5015 -2.8399 -0.6702
 9231SOL    HW239156   2.268   4.525   8.491  0.0657  0.1042 -0.2854
 9232SOL     OW39157   4.060   4.290  16.222  0.4746  0.4213 -0.6999
 9232SOL    HW139158   4.067   4.285  16.317  0.0794 -2.4201 -0.8170
 9232SOL    HW239159   4.019   4.376  16.222 -1.8753 -0.7000  4.6973
 9233SOL     OW39160   1.781   1.661   4.865  0.2289  0.1058  0.1101
 9233SOL    HW139161   1.709   1.661   4.801 -0.4730 -0.2311  0.8920
 9233SOL    HW239162   1.755   1.580   4.908 -1.4144  0.9698  0.7389
 9234SOL     OW39163   2.929   4.370   8.562 -0.0500  0.2670  0.6749
 9234SOL    HW139164   2.833   4.369   8.559  0.0385 -1.2829 -2.2973
 9234SOL    HW239165   2.937   4.325   8.646 -2.5232 -0.3914  0.5747
 9235SOL     OW39166   1.622   2.266   2.926  0.3085  0.3145  0.0583
 9235SOL    HW139167   1.711   2.262   2.962  0.2115  1.6079  0.4469
 9235SOL    HW239168   1.611   2.171   2.921 -0.8404  0.4650 -0.1218
 9236SOL     OW39169   3.991   1.419  12.241 -0.6021 -0.3673 -0.2099
 9236SOL    HW139170   4.012   1.424  12.147  0.4512 -0.6089  0.0130
 9236SOL    HW239171   3.928   1.491  12.248  0.3670  0.5079 -0.4910
 9237SOL     OW39172   0.648   0.060   9.290  0.1516 -0.3242  0.7106
 9237SOL    HW139173   0.708   0.090   9.358 -1.2150  0.4550  1.5835
 9237SOL    HW239174   0.584   0.018   9.347 -0.8716  2.5063  1.6719
 9238SOL     OW39175   1.659   1.672   8.801  0.2435 -0.1155 -0.4775
 9238SOL    HW139176   1.629   1.718   8.722 -2.9843 -1.2112  0.0987
 9238SOL    HW239177   1.694   1.745   8.852  0.2521  0.8402 -1.8174
 9239SOL     OW39178   1.776   0.923   4.782  0.2309  0.3130 -0.4137
 9239SOL    HW139179   1.770   0.911   4.687 -0.3083 -0.8726 -0.2400
 9239SOL    HW239180   1.807   0.835   4.803  2.5646  1.4976  1.0609
 9240SOL     OW39181   2.266   0.434   2.726  0.1929  0.3146  0.0719
 9240SOL    HW139182   2.356   0.402   2.727 -0.0980 -0.4869  0.4213
 9240SOL    HW239183   2.241   0.452   2.635 -0.3476  0.0697  0.1752
 9241SOL     OW39184   2.800   0.127   6.097 -0.0834 -0.2803 -0.4568
 9241SOL    HW139185   2.808   0.087   6.183  1.1822 -1.5366 -1.1574
 9241SOL    HW239186   2.768   0.212   6.129 -0.4732 -1.0142  1.0628
 9242SOL     OW39187   0.160   1.181   2.506 -0.1643 -0.0984 -0.1274
 9242SOL    HW139188   0.067   1.201   2.500 -0.8413 -3.3229 -0.2772
 9242SOL    HW239189   0.185   1.174   2.599  1.6826 -0.5981 -0.6437
 9243SOL     OW39190   3.443   3.241   9.062 -0.4195 -0.5127  0.5565
 9243SOL    HW139191   3.518   3.195   9.023  1.3372  1.4604  1.5686
 9243SOL    HW239192   3.368   3.183   9.049 -0.1664 -0.7551  0.1890
 9244SOL     OW39193   0.762   2.162   3.914  0.4007  0.0791 -0.2913
 9244SOL    HW139194   0.851   2.132   3.929  0.4536  0.6792  0.6228
 9244SOL    HW239195   0.731   2.166   4.005  0.8856  0.5031 -0.1448
 9245SOL     OW39196   2.227   2.810  13.091 -0.1495  0.0735 -0.5519
 9245SOL    HW139197   2.165   2.738  13.090 -1.5810  1.3141 -1.1726
 9245SOL    HW239198   2.281   2.775  13.021 -0.6793  0.8118 -1.3335
 9246SOL     OW39199   2.607   4.547   6.773  0.3452 -0.4211  0.0497
 9246SOL    HW139200   2.605   4.639   6.750  0.1440 -0.1403  1.1797
 9246SOL    HW239201   2.514   4.524   6.773  0.5189 -1.1170 -0.8347
 9247SOL     OW39202   0.870   3.942   4.347 -0.8774  0.2484 -0.2607
 9247SOL    HW139203   0.878   4.005   4.419 -0.7843  2.0065 -1.8217
 9247SOL    HW239204   0.871   4.001   4.272  2.4972 -2.4384 -2.3510
 9248SOL     OW39205   2.556   4.293   6.387 -0.3410 -0.1695 -0.1286
 9248SOL    HW139206   2.484   4.352   6.364 -0.1455  0.1980  0.1928
 9248SOL    HW239207   2.638   4.342   6.377  0.8584 -2.4168 -1.2168
 9249SOL     OW39208   2.344   4.199   0.481  0.6020  0.4895 -0.4522
 9249SOL    HW139209   2.434   4.207   0.449  0.3206 -0.4547 -1.4785
 9249SOL    HW239210   2.306   4.287   0.480 -0.1546  0.1487 -1.0348
 9250SOL     OW39211   1.151   4.683  12.337 -0.5772  0.0084  0.0510
 9250SOL    HW139212   1.082   4.656  12.398 -0.4333 -2.4170 -0.8675
 9250SOL    HW239213   1.234   4.660  12.379  0.2357  0.7477 -1.1632
 9251SOL     OW39214   0.418   2.106   6.187  0.4852  0.5942 -0.0647
 9251SOL    HW139215   0.459   2.050   6.253  0.8072 -0.1700 -0.9168
 9251SOL    HW239216   0.381   2.166   6.252 -1.4818  1.1306 -1.6684
 9252SOL     OW39217   1.111   3.199   0.623  0.0747 -0.1926 -0.4808
 9252SOL    HW139218   1.049   3.236   0.561  0.8232  1.8867 -0.0110
 9252SOL    HW239219   1.157   3.275   0.658 -2.0964  0.9187 -0.0700
 9253SOL     OW39220   1.331   3.739   3.002 -0.0863 -0.0852 -0.1685
 9253SOL    HW139221   1.351   3.816   2.949 -0.1444 -0.0035 -0.0728
 9253SOL    HW239222   1.403   3.729   3.065  1.3820  4.6622 -1.1055
 9254SOL     OW39223   1.029   4.180  14.027  0.2103 -0.2726  0.1413
 9254SOL    HW139224   1.038   4.138  14.113  0.1830  0.3304  0.4373
 9254SOL    HW239225   1.030   4.275  14.041 -0.4176 -0.3518  0.7647
 9255SOL     OW39226   3.128   2.598   7.300  0.2768 -0.4711  0.0154
 9255SOL    HW139227   3.086   2.549   7.370 -1.7137 -0.9380 -1.5034
 9255SOL    HW239228   3.062   2.612   7.232 -0.1810 -1.0277  0.3538
 9256SOL     OW39229   0.129   2.444   1.482 -0.3619  0.6417  0.2376
 9256SOL    HW139230   0.139   2.362   1.433 -1.9778  0.2017  0.6542
 9256SOL    HW239231   0.177   2.423   1.563 -0.5928 -1.5570 -0.1755
 9257SOL     OW39232   0.238   2.873   3.488  0.0634 -0.4438 -0.0042
 9257SOL    HW139233   0.184   2.935   3.537 -0.9858  0.9761 -2.8968
 9257SOL    HW239234   0.306   2.926   3.447  1.9989 -2.1034  1.0746
 9258SOL     OW39235   1.171   1.468   5.323  0.6543 -0.3535  0.0734
 9258SOL    HW139236   1.208   1.383   5.345  2.0417  0.3346  0.4302
 9258SOL    HW239237   1.239   1.528   5.354  0.9154 -0.9904  0.7287
 9259SOL     OW39238   0.982   0.392   5.443  0.4801  0.1171  0.3079
 9259SOL    HW139239   1.031   0.378   5.524 -1.1261  0.1064  1.2824
 9259SOL    HW239240   0.946   0.478   5.461 -0.6667 -0.2777 -0.0938
 9260SOL     OW39241   1.347   1.733  13.224  0.7617 -0.0293  0.2235
 9260SOL    HW139242   1.324   1.702  13.136  0.1938 -0.4967  0.5327
 9260SOL    HW239243   1.377   1.650  13.260  0.5501  0.1567  0.8239
 9261SOL     OW39244   3.591   4.668   0.476 -0.9313 -0.0897  0.5512
 9261SOL    HW139245   3.505   4.709   0.479 -0.2944  1.2602  0.5119
 9261SOL    HW239246   3.593   4.622   0.392 -2.4263 -0.5532  0.7744
 9262SOL     OW39247   0.753   2.793   5.348  0.4650 -0.1578  0.2780
 9262SOL    HW139248   0.711   2.725   5.296  0.3603 -0.2719  0.5123
 9262SOL    HW239249   0.799   2.741   5.414 -4.0596 -1.9365  2.0250
 9263SOL     OW39250   0.784   4.485  10.599 -0.0116 -0.7794 -0.1932
 9263SOL    HW139251   0.716   4.434  10.556  1.1875 -1.2259 -1.5288
 9263SOL    HW239252   0.756   4.565  10.554 -1.3223  0.3501  2.5669
 9264SOL     OW39253   3.307   1.756   8.923  0.1882 -0.2234 -0.5727
 9264SOL    HW139254   3.224   1.744   8.969  0.4492  1.4618  0.3336
 9264SOL    HW239255   3.371   1.755   8.994  0.8172  0.0756 -1.1315
 9265SOL     OW39256   1.101   4.460   6.470  0.1452  0.6962 -0.4006
 9265SOL    HW139257   1.077   4.439   6.380 -0.9380  3.4256 -0.7504
 9265SOL    HW239258   1.089   4.373   6.508 -0.7013  1.7190  1.6348
 9266SOL     OW39259   2.534   4.500   1.713 -0.3393 -0.6567 -0.0982
 9266SOL    HW139260   2.609   4.555   1.735 -0.3198 -0.5258 -0.5019
 9266SOL    HW239261   2.504   4.467   1.798 -3.0301 -1.5967 -1.4183
 9267SOL     OW39262   4.595   3.027   7.495 -0.2067  0.1286  0.0941
 9267SOL    HW139263   4.672   3.080   7.473 -0.7455  1.4728  1.4479
 9267SOL    HW239264   4.545   3.034   7.414 -0.2491 -0.0940  0.1012
 9268SOL     OW39265   3.623   1.016   6.848  0.1344 -0.5330  0.2626
 9268SOL    HW139266   3.674   0.980   6.920 -1.3590 -0.5299  1.3205
 9268SOL    HW239267   3.672   0.998   6.768 -0.5509  0.0241 -0.2812
 9269SOL     OW39268   0.859   4.571   6.674  0.3387  0.0718  0.1215
 9269SOL    HW139269   0.795   4.516   6.628 -1.5306  1.1579  1.4324
 9269SOL    HW239270   0.858   4.643   6.610 -0.1077 -0.0130  0.0340
 9270SOL     OW39271   2.286   2.284   7.277  0.3578 -0.0125 -0.0026
 9270SOL    HW139272   2.198   2.315   7.298  0.1623  0.0139 -0.8410
 9270SOL    HW239273   2.262   2.248   7.191  2.6087  1.1953 -1.1166
 9271SOL     OW39274   0.638   2.639   5.165 -0.0927 -0.2161  0.2333
 9271SOL    HW139275   0.615   2.664   5.075  0.8680 -0.8615 -0.1765
 9271SOL    HW239276   0.669   2.551   5.149 -1.9285 -0.7844 -0.2130
 9272SOL     OW39277   2.433   3.442   1.848  0.1892  0.0449  0.0924
 9272SOL    HW139278   2.364   3.509   1.850  0.8649  0.7714 -1.1773
 9272SOL    HW239279   2.373   3.376   1.883  0.5041  0.5425  1.5279
 9273SOL     OW39280   1.163   2.188   8.548  0.0243  0.1931 -0.2506
 9273SOL    HW139281   1.188   2.175   8.639  0.4652  1.3783 -0.1964
 9273SOL    HW239282   1.254   2.173   8.520 -0.4280  0.5588 -1.9581
 9274SOL     OW39283   2.563   0.259   4.010 -0.3364 -0.3086 -0.1274
 9274SOL    HW139284   2.645   0.212   3.993 -0.0255  1.0460 -2.4507
 9274SOL    HW239285   2.565   0.323   3.939 -3.1279 -0.7559 -0.5912
 9275SOL     OW39286   0.875   1.017   3.241  0.3165  0.0841  0.3287
 9275SOL    HW139287   0.866   1.016   3.145  0.1069 -0.7576  0.3597
 9275SOL    HW239288   0.803   0.958   3.264 -0.8356  0.4331 -2.3014
 9276SOL     OW39289   3.778   2.468   9.032 -0.0223  0.1203  0.0215
 9276SOL    HW139290   3.690   2.451   9.067  0.8464 -0.5379  1.8642
 9276SOL    HW239291   3.774   2.562   9.016 -0.5997  0.0884 -0.0253
 9277SOL     OW39292   1.025   2.018   7.936 -0.3312 -0.1087  0.3137
 9277SOL    HW139293   0.996   2.109   7.930  1.3338  0.3240 -1.3912
 9277SOL    HW239294   1.110   2.030   7.978 -0.1112  0.2993 -0.2370
 9278SOL     OW39295   3.078   1.209  13.730 -0.0484 -0.5743  0.1467
 9278SOL    HW139296   3.021   1.135  13.750  0.0961 -1.2593 -1.9718
 9278SOL    HW239297   3.154   1.156  13.706  0.2588 -0.6143  1.1939
 9279SOL     OW39298   0.212   3.686   3.021  0.4379 -0.6625  0.6001
 9279SOL    HW139299   0.214   3.596   2.988 -2.1996 -0.2563 -0.6928
 9279SOL    HW239300   0.255   3.669   3.105  0.4788 -0.9077  0.5284
 9280SOL     OW39301   1.207   2.262   8.853 -0.0690  0.3325  0.2473
 9280SOL    HW139302   1.266   2.317   8.802  1.0979  0.2828  1.5482
 9280SOL    HW239303   1.258   2.247   8.932 -2.0315 -0.1566  1.4192
 9281SOL     OW39304   0.429   4.702   4.981 -0.6435  0.4291  0.4197
 9281SOL    HW139305   0.423   4.607   4.992  0.9079  0.1060 -1.5936
 9281SOL    HW239306   0.520   4.715   4.958 -0.5183  0.3785  0.8722
 9282SOL     OW39307   2.788   3.234  11.868  0.6027 -0.0067  0.0362
 9282SOL    HW139308   2.711   3.213  11.920  1.4711 -2.1080  0.4585
 9282SOL    HW239309   2.769   3.239  11.774  0.8211  0.4055  0.0136
 9283SOL     OW39310   4.401   2.517   4.826 -0.0618 -0.0191 -0.4637
 9283SOL    HW139311   4.431   2.475   4.907  1.5196  1.0503 -0.4968
 9283SOL    HW239312   4.308   2.526   4.849 -0.1002 -1.2060 -0.1584
 9284SOL     OW39313   1.040   0.341   0.804  0.2611 -0.0229  0.2060
 9284SOL    HW139314   1.115   0.282   0.800  1.2855  1.2408  0.8373
 9284SOL    HW239315   1.046   0.364   0.712 -1.0996  1.0200  0.3860
 9285SOL     OW39316   0.495   1.725   8.574 -0.2409 -0.3554  0.4914
 9285SOL    HW139317   0.589   1.713   8.587 -0.4336 -0.2433  2.0343
 9285SOL    HW239318   0.485   1.713   8.480  1.6160  0.1912  0.2237
 9286SOL     OW39319   1.870   0.049   0.067 -0.5626 -0.4041  0.2983
 9286SOL    HW139320   1.843   0.094  17.671  0.2536  0.2049  0.3660
 9286SOL    HW239321   1.802   4.703   0.080 -1.1027  0.1470  0.2598
 9287SOL     OW39322   3.965   3.439   7.261 -0.2171  0.1213  0.3332
 9287SOL    HW139323   3.915   3.367   7.222  0.5746 -1.5829  2.4898
 9287SOL    HW239324   4.039   3.396   7.303  0.9462  1.6173 -0.1612
 9288SOL     OW39325   4.668   3.867   9.074 -0.0921 -0.3104 -0.3151
 9288SOL    HW139326   4.714   3.847   9.156 -0.7327 -0.7577 -0.0632
 9288SOL    HW239327   0.015   3.840   9.011 -0.9279 -1.2809 -0.8013
 9289SOL     OW39328   1.947   0.612   5.286 -0.6332  0.1210 -0.5020
 9289SOL    HW139329   1.910   0.524   5.280  0.6593 -0.5652  1.7084
 9289SOL    HW239330   1.875   0.663   5.323  0.3793  0.5967  0.8093
 9290SOL     OW39331   0.084   4.545  16.851  0.3280  0.4121 -0.3720
 9290SOL    HW139332   0.137   4.588  16.918  0.2063 -0.1256  0.0718
 9290SOL    HW239333   0.120   4.457  16.842 -0.4407  0.0215  0.3525
 9291SOL     OW39334   4.158   1.286   8.141 -0.0797  0.0458  0.0401
 9291SOL    HW139335   4.211   1.290   8.220 -1.2279 -0.6688  0.8451
 9291SOL    HW239336   4.134   1.194   8.127  0.3948  0.1155 -1.2484
 9292SOL     OW39337   3.905   4.204  13.155 -0.0433 -0.0376 -0.0603
 9292SOL    HW139338   3.882   4.175  13.067 -1.8072 -0.9991  0.7129
 9292SOL    HW239339   4.000   4.201  13.144 -0.1181  0.9541 -0.9797
 9293SOL     OW39340   0.203   1.253  10.264 -0.0121  0.3641  0.1077
 9293SOL    HW139341   0.209   1.318  10.334  0.3417  1.6979 -1.1541
 9293SOL    HW239342   0.245   1.175  10.298 -0.7276  0.6270  1.6086
 9294SOL     OW39343   2.557   1.077   2.745  0.1837 -0.6633  0.0398
 9294SOL    HW139344   2.466   1.092   2.722  0.5341 -1.4291 -1.8138
 9294SOL    HW239345   2.545   1.046   2.835  0.9070 -0.4670  0.2004
 9295SOL     OW39346   4.151   2.055  11.686 -0.3557  0.3160  0.0899
 9295SOL    HW139347   4.211   2.049  11.760  0.2505  0.4968 -0.3872
 9295SOL    HW239348   4.075   2.007  11.718  0.1197  0.2100  1.0424
 9296SOL     OW39349   3.782   1.946   4.394 -0.0524 -0.1075 -0.4187
 9296SOL    HW139350   3.868   1.947   4.437  0.6372  0.7935 -1.7913
 9296SOL    HW239351   3.744   2.027   4.426 -0.5560 -0.1085 -1.0210
 9297SOL     OW39352   1.042   4.544   9.453  0.4631 -0.1361  0.3754
 9297SOL    HW139353   0.987   4.547   9.374  1.5493  0.3873 -0.3688
 9297SOL    HW239354   1.000   4.602   9.516  0.1041 -1.4017  1.2991
 9298SOL     OW39355   2.344   1.138   8.947  0.0260 -0.1318 -0.2143
 9298SOL    HW139356   2.320   1.064   9.003  0.8339 -2.7509 -3.3356
 9298SOL    HW239357   2.424   1.167   8.990 -0.6191  1.6525 -0.2062
 9299SOL     OW39358   4.631   3.933  13.901  0.9137 -0.1466 -0.5170
 9299SOL    HW139359   4.611   3.971  13.986  0.3135  3.2124 -2.1714
 9299SOL    HW239360   4.554   3.881  13.875  1.8855 -0.4106 -2.8481
 9300SOL     OW39361   0.100   0.343   7.144  0.2471  0.0660  0.2242
 9300SOL    HW139362   0.182   0.351   7.192  0.0500  2.3994  0.1656
 9300SOL    HW239363   0.104   0.250   7.120  0.1373  0.3331 -0.8338
 9301SOL     OW39364   4.148   4.305   3.205  0.1554  0.3746 -0.3130
 9301SOL    HW139365   4.156   4.338   3.294 -1.8764  0.5771 -0.1887
 9301SOL    HW239366   4.221   4.353   3.166 -0.2727  2.1995  1.1478
 9302SOL     OW39367   3.634   4.710   8.415 -0.4544  0.2903  0.3937
 9302SOL    HW139368   3.686   4.645   8.463 -2.1265 -0.2794  1.4532
 9302SOL    HW239369   3.571   0.016   8.482 -1.4211  0.0406 -0.4271
 9303SOL     OW39370   1.970   4.402   9.325  0.7888 -0.0413  0.3612
 9303SOL    HW139371   2.012   4.317   9.310 -0.2893 -0.6521  0.8202
 9303SOL    HW239372   2.034   4.443   9.382 -0.3109 -0.0085  1.5691
 9304SOL     OW39373   1.441   4.487   4.478 -0.0172  0.1094  0.9404
 9304SOL    HW139374   1.530   4.495   4.513 -0.1962 -1.5188  1.7950
 9304SOL    HW239375   1.413   4.577   4.493  1.0706  0.7298 -0.7069
 9305SOL     OW39376   4.161   2.833  17.089 -0.2846 -0.3235  0.0739
 9305SOL    HW139377   4.141   2.749  17.131  0.6880 -1.1212 -1.0689
 9305SOL    HW239378   4.149   2.892  17.164 -1.1603 -0.0344 -0.2982
 9306SOL     OW39379   0.668   0.931   2.772 -0.1551 -0.6531 -0.0744
 9306SOL    HW139380   0.724   0.909   2.697 -0.4973 -2.9713  0.3338
 9306SOL    HW239381   0.591   0.884   2.740 -1.5454  0.8661  1.1094
 9307SOL     OW39382   1.623   3.393   1.589 -0.1224 -0.3596  0.4193
 9307SOL    HW139383   1.662   3.370   1.674 -0.3525 -3.3827 -0.2940
 9307SOL    HW239384   1.554   3.455   1.613  0.8111  0.8078  0.0651
 9308SOL     OW39385   4.451   1.244  11.403 -0.1449  0.4421 -0.3495
 9308SOL    HW139386   4.516   1.178  11.425 -1.5767 -0.2228  1.9366
 9308SOL    HW239387   4.393   1.241  11.479  1.0657  1.1931  0.6036
 9309SOL     OW39388   0.582   3.332  15.251  0.1345 -0.3897  0.1573
 9309SOL    HW139389   0.677   3.335  15.241 -0.0816  3.8350 -0.5173
 9309SOL    HW239390   0.553   3.412  15.208  0.0754  0.0977  1.1003
 9310SOL     OW39391   2.109   4.426  17.469  0.1139 -0.2913 -0.1014
 9310SOL    HW139392   2.174   4.496  17.477 -0.5371  0.1834  1.0385
 9310SOL    HW239393   2.054   4.418  17.547  0.6667 -4.1587 -0.1110
 9311SOL     OW39394   2.882   1.152   7.195  1.1278  0.5553 -0.0278
 9311SOL    HW139395   2.944   1.221   7.170  0.5262  0.6454 -1.2634
 9311SOL    HW239396   2.872   1.101   7.115 -0.1239  0.3625  0.2663
 9312SOL     OW39397   2.473   4.526   5.137  0.1241 -0.3243 -0.3395
 9312SOL    HW139398   2.455   4.602   5.081 -0.1371  0.8141  1.2646
 9312SOL    HW239399   2.474   4.458   5.070 -1.0264 -0.6287 -0.0590
 9313SOL     OW39400   2.654   1.264   7.338  0.3690  0.4257 -0.1158
 9313SOL    HW139401   2.662   1.352   7.301 -2.5685 -0.4872 -2.8615
 9313SOL    HW239402   2.696   1.216   7.266  0.6072  1.7943 -0.8958
 9314SOL     OW39403   3.148   2.065   4.657  1.0875 -0.4040 -0.2407
 9314SOL    HW139404   3.195   1.982   4.658  0.4561 -0.7623 -0.6595
 9314SOL    HW239405   3.147   2.088   4.564 -1.0717 -0.7761 -0.2926
 9315SOL     OW39406   2.832   4.103  13.388 -0.0317  0.4010 -0.5316
 9315SOL    HW139407   2.861   4.106  13.479 -1.6068 -0.2514 -0.0066
 9315SOL    HW239408   2.819   4.197  13.375  1.5263  0.5164 -1.1894
 9316SOL     OW39409   2.658   2.510   1.312  0.3532 -0.3200  0.0552
 9316SOL    HW139410   2.659   2.418   1.340  0.1344 -0.5493 -0.6769
 9316SOL    HW239411   2.745   2.547   1.320  1.0071 -1.5573 -1.4088
 9317SOL     OW39412   2.767   4.165   5.241  0.0068  0.1937  0.2328
 9317SOL    HW139413   2.773   4.215   5.160 -3.0950 -0.1903 -0.2100
 9317SOL    HW239414   2.783   4.225   5.315  1.0422 -2.9424  2.5352
 9318SOL     OW39415   0.594   0.684   8.823  0.0728  0.3669 -0.8695
 9318SOL    HW139416   0.590   0.602   8.774  0.9305 -0.9776  1.2925
 9318SOL    HW239417   0.671   0.724   8.783  3.4175 -1.9877  3.2002
 9319SOL     OW39418   0.374   0.860   5.455 -0.2331 -0.1051 -0.1217
 9319SOL    HW139419   0.400   0.806   5.530 -0.1354  0.2561  0.1069
 9319SOL    HW239420   0.429   0.936   5.476 -0.9123  0.0999  0.9267
 9320SOL     OW39421   2.306   4.615   6.707  0.2636 -0.3737 -0.9019
 9320SOL    HW139422   2.265   4.538   6.668  1.5896  0.1952 -3.4173
 9320SOL    HW239423   2.264   4.685   6.657  0.4438  1.6700  1.8002
 9321SOL     OW39424   2.096   3.337   0.534  0.7129 -0.2238 -0.3912
 9321SOL    HW139425   2.174   3.348   0.589  0.3695  2.7586 -0.4776
 9321SOL    HW239426   2.048   3.285   0.598  1.0862  0.2176  0.2501
 9322SOL     OW39427   4.509   3.138   9.200 -0.0723  0.3160  0.3215
 9322SOL    HW139428   4.453   3.062   9.211 -0.3785  0.6928  1.3266
 9322SOL    HW239429   4.458   3.184   9.133  0.6462 -0.3781 -0.7068
 9323SOL     OW39430   1.863   4.636  12.962  0.1168  0.1639  1.0805
 9323SOL    HW139431   1.772   4.633  12.931  0.5488  3.1157 -0.4466
 9323SOL    HW239432   1.920   4.621  12.887  0.6446  0.7410  1.3683
 9324SOL     OW39433   4.147   0.452   7.873 -0.4547  0.1850  0.2146
 9324SOL    HW139434   4.106   0.472   7.957 -1.0268 -1.0007  0.2175
 9324SOL    HW239435   4.230   0.408   7.891 -0.3466  0.2914 -0.0228
 9325SOL     OW39436   3.236   4.519   3.756 -0.4321  0.8579  0.1560
 9325SOL    HW139437   3.308   4.582   3.768 -1.5101  1.8612  1.2884
 9325SOL    HW239438   3.194   4.514   3.841  0.8780  0.6517  0.8015
 9326SOL     OW39439   4.043   1.756   1.363 -0.3138  0.1920  0.3064
 9326SOL    HW139440   4.083   1.761   1.276  0.0902 -2.0813  0.3624
 9326SOL    HW239441   4.061   1.667   1.392 -1.1916  0.0253  0.3188
 9327SOL     OW39442   3.659   2.244   6.201 -0.2509 -0.1823  0.3066
 9327SOL    HW139443   3.636   2.313   6.139  2.0679 -0.4499 -0.8295
 9327SOL    HW239444   3.615   2.269   6.282 -0.9530 -0.5525  0.0433
 9328SOL     OW39445   0.500   1.417   3.150  0.9540  0.1398 -0.1007
 9328SOL    HW139446   0.560   1.343   3.145 -0.8166 -1.2113 -1.3705
 9328SOL    HW239447   0.453   1.413   3.067  0.2308  1.7761  0.2176
 9329SOL     OW39448   3.136   3.031  11.281  0.2015 -0.3879 -0.0914
 9329SOL    HW139449   3.187   2.979  11.219 -1.4507  0.0533 -1.7984
 9329SOL    HW239450   3.194   3.027  11.357 -1.1393 -2.7281  0.8243
 9330SOL     OW39451   4.559   3.257   6.403  0.3040 -0.0198 -0.0824
 9330SOL    HW139452   4.565   3.241   6.308 -0.6751 -0.2316 -0.1161
 9330SOL    HW239453   4.537   3.170   6.438 -0.8682 -0.0034 -0.7409
 9331SOL     OW39454   1.289   4.563   2.551 -0.1410 -0.6076 -0.3466
 9331SOL    HW139455   1.272   4.492   2.613  2.7170 -1.5068 -0.5599
 9331SOL    HW239456   1.369   4.596   2.592 -0.0814  0.4139 -1.2877
 9332SOL     OW39457   4.007   0.465   7.479 -0.8565  0.4356 -0.2371
 9332SOL    HW139458   4.099   0.477   7.503  0.0610 -0.0560 -3.4385
 9332SOL    HW239459   3.968   0.510   7.554 -0.8978 -0.2274  0.1416
 9333SOL     OW39460   4.709   3.841   5.389 -0.3053  0.4615  0.4996
 9333SOL    HW139461   4.674   3.754   5.408 -0.6615 -0.2276 -3.3295
 9333SOL    HW239462   0.070   3.829   5.340  0.1599  0.4894  1.2672
 9334SOL     OW39463   0.434   3.449   5.561  0.1432  0.0530  0.0072
 9334SOL    HW139464   0.501   3.471   5.626 -0.5785 -0.5368  0.9524
 9334SOL    HW239465   0.422   3.354   5.573  3.1429 -0.4761 -1.3843
 9335SOL     OW39466   0.123   2.398   3.947  0.5451 -0.0214 -0.4950
 9335SOL    HW139467   0.145   2.306   3.934  2.6041  0.8577 -3.2304
 9335SOL    HW239468   0.187   2.445   3.893 -0.4887  0.8025 -1.0288
 9336SOL     OW39469   0.638   3.693   8.071  0.0411 -0.3289  0.3602
 9336SOL    HW139470   0.625   3.675   8.164  0.0587 -1.0389  0.2195
 9336SOL    HW239471   0.719   3.745   8.074 -0.0798 -0.1493  0.5324
 9337SOL     OW39472   0.050   3.298   2.902 -0.1936  0.4137  0.1633
 9337SOL    HW139473   0.087   3.284   2.989 -2.1250 -0.7329  0.8069
 9337SOL    HW239474   0.105   3.365   2.861 -1.3088  0.9136 -0.5273
 9338SOL     OW39475   3.546   4.489  15.473 -0.1367  0.0724 -0.1398
 9338SOL    HW139476   3.568   4.475  15.565 -1.3800 -1.2986 -0.0417
 9338SOL    HW239477   3.635   4.508  15.445 -0.7921  3.7871  0.3317
 9339SOL     OW39478   3.525   4.554   6.332  0.0981  0.3690  0.1290
 9339SOL    HW139479   3.540   4.473   6.283 -1.1503  1.2165 -1.6565
 9339SOL    HW239480   3.596   4.560   6.396  2.1366  0.5410 -2.1412
 9340SOL     OW39481   0.861   3.805  14.251 -0.2699 -0.0611  0.0586
 9340SOL    HW139482   0.860   3.871  14.321 -2.0904  0.1582 -0.1878
 9340SOL    HW239483   0.778   3.839  14.217 -0.3215 -0.6291 -0.3963
 9341SOL     OW39484   4.033   4.620  13.588  0.2859  0.2605  0.1453
 9341SOL    HW139485   3.946   4.616  13.550  0.7418 -1.2455 -0.7260
 9341SOL    HW239486   4.035   4.542  13.644 -0.0099 -0.4137 -0.7996
 9342SOL     OW39487   2.472   2.654   9.499  0.2576  0.2509 -0.0833
 9342SOL    HW139488   2.565   2.635   9.507  0.1775  0.0315  0.3511
 9342SOL    HW239489   2.467   2.726   9.562  0.4404  0.4038 -0.2449
 9343SOL     OW39490   1.307   2.667   6.063 -0.0985 -0.1218 -0.5113
 9343SOL    HW139491   1.303   2.707   6.150  1.3623 -1.1596  0.0350
 9343SOL    HW239492   1.242   2.597   6.069  0.6520 -0.6007  1.9994
 9344SOL     OW39493   1.315   4.564   3.297  0.1593 -0.1243  0.1250
 9344SOL    HW139494   1.375   4.636   3.316 -0.6174  0.1954  1.3264
 9344SOL    HW239495   1.335   4.491   3.355 -1.3043 -1.6246 -1.2490
 9345SOL     OW39496   1.277   1.637  10.138 -0.2716  0.2184 -0.0717
 9345SOL    HW139497   1.366   1.672  10.144 -0.0526 -0.4615  0.5948
 9345SOL    HW239498   1.291   1.582  10.061 -2.5812 -2.5554  1.4951
 9346SOL     OW39499   4.083   4.656   7.883  0.9701  0.2159  0.2921
 9346SOL    HW139500   4.040   0.021   7.879 -0.1605 -0.4000 -0.6206
 9346SOL    HW239501   4.166   4.663   7.930  2.3936 -2.5181 -1.8026
 9347SOL     OW39502   2.176   4.524   4.994  0.4817  0.6241  0.1563
 9347SOL    HW139503   2.113   4.594   4.977 -0.5848 -0.3405  0.1754
 9347SOL    HW239504   2.140   4.467   4.926  1.8567  0.9276 -0.8284
 9348SOL     OW39505   3.447   2.825   9.836  0.5688 -0.2947 -0.3821
 9348SOL    HW139506   3.462   2.758   9.904  2.7266  1.5510  0.9601
 9348SOL    HW239507   3.514   2.891   9.856 -1.5426  1.3122  1.4199
 9349SOL     OW39508   2.527   2.995  10.991  0.4582  0.0795 -0.0866
 9349SOL    HW139509   2.615   3.015  11.023 -0.5092  0.6064  2.2299
 9349SOL    HW239510   2.524   3.035  10.904 -0.6369 -0.6600 -0.3929
 9350SOL     OW39511   4.212   0.474   8.413  0.0572 -0.0411 -0.1248
 9350SOL    HW139512   4.172   0.398   8.370  1.0223 -0.2169 -0.7127
 9350SOL    HW239513   4.287   0.447   8.466  0.0408 -0.7534 -0.4703
 9351SOL     OW39514   4.493   2.452   7.057 -0.1969  0.2441  0.2567
 9351SOL    HW139515   4.417   2.401   7.029  0.6486 -0.6404 -0.4251
 9351SOL    HW239516   4.451   2.526   7.099 -1.2443  0.9441 -2.0313
 9352SOL     OW39517   2.354   1.434   7.318 -0.3923 -0.3156 -0.2569
 9352SOL    HW139518   2.350   1.433   7.222  0.5691  1.5442 -0.3157
 9352SOL    HW239519   2.310   1.354   7.347 -1.0000  0.6689  1.5404
 9353SOL     OW39520   2.344   2.046  10.123 -0.1935  0.1148  0.3537
 9353SOL    HW139521   2.266   2.065  10.174 -1.0568  0.4092 -1.0834
 9353SOL    HW239522   2.400   2.079  10.194 -1.9474 -0.4087  1.9648
 9354SOL     OW39523   4.544   2.580  10.781  0.4543  0.1079 -0.2780
 9354SOL    HW139524   4.627   2.601  10.739  0.6333  1.2519  0.6634
 9354SOL    HW239525   4.516   2.667  10.809 -0.5882  0.3919 -2.1525
 9355SOL     OW39526   0.312   1.007  14.925 -0.0805  0.1420 -0.7739
 9355SOL    HW139527   0.273   0.968  14.847 -1.0810  0.7987 -0.6024
 9355SOL    HW239528   0.353   0.925  14.952 -1.2853  0.5971  2.3560
 9356SOL     OW39529   1.434   3.365   6.714  0.3877  0.9231  0.6291
 9356SOL    HW139530   1.486   3.359   6.634  0.0275  1.4558  0.3557
 9356SOL    HW239531   1.451   3.458   6.728  0.4714  0.9294  0.4883
 9357SOL     OW39532   1.156   2.952   5.382  0.0291  0.6626 -0.2407
 9357SOL    HW139533   1.110   2.947   5.465 -2.7370  1.7779 -1.7159
 9357SOL    HW239534   1.238   2.904   5.395  0.6034  1.6355 -0.3121
 9358SOL     OW39535   0.270   3.953   0.647  0.3169  0.0256  0.0471
 9358SOL    HW139536   0.228   3.907   0.720 -3.0099  0.8283 -1.3698
 9358SOL    HW239537   0.355   3.981   0.681  0.4203  0.2250 -0.3749
 9359SOL     OW39538   3.351   0.221   8.485  0.0463 -0.3112  0.2624
 9359SOL    HW139539   3.330   0.170   8.563  0.5319  1.1843  1.3620
 9359SOL    HW239540   3.274   0.211   8.430  0.5417 -0.0138 -0.4894
 9360SOL     OW39541   3.939   1.034   3.053 -0.2686  0.4253 -0.1230
 9360SOL    HW139542   3.849   1.067   3.062 -1.0176 -0.7883 -3.3666
 9360SOL    HW239543   3.975   1.116   3.087  1.7572 -0.6157  0.2715
 9361SOL     OW39544   0.896   2.847   4.820  0.2909 -0.5895 -0.5323
 9361SOL    HW139545   0.947   2.766   4.827  0.7265 -0.0487  2.4372
 9361SOL    HW239546   0.965   2.909   4.845  1.8222 -1.9004 -1.4643
 9362SOL     OW39547   4.398   4.324   0.609  0.2247 -0.1363 -0.1143
 9362SOL    HW139548   4.430   4.351   0.695 -2.2683 -0.7554  1.0115
 9362SOL    HW239549   4.421   4.401   0.557  0.6591 -0.8449 -0.9758
 9363SOL     OW39550   1.935   1.220   8.786  0.0714 -0.2709  0.6639
 9363SOL    HW139551   1.896   1.305   8.808  0.6092  0.2482 -0.3966
 9363SOL    HW239552   1.982   1.243   8.706  0.9378 -0.9989  0.9550
 9364SOL     OW39553   3.020   3.908   3.627 -0.2845  0.3255  0.1795
 9364SOL    HW139554   3.078   3.832   3.620 -0.2211  0.4815 -0.9733
 9364SOL    HW239555   2.965   3.883   3.553 -1.1042 -2.5192  1.7513
 9365SOL     OW39556   1.554   2.184   5.561  0.1061  0.0039 -0.1139
 9365SOL    HW139557   1.482   2.148   5.509  1.1293 -3.1244  0.6517
 9365SOL    HW239558   1.600   2.107   5.594 -0.8920  0.1793  1.6818
 9366SOL     OW39559   0.799   3.990   5.111  0.4126  0.1925  0.2159
 9366SOL    HW139560   0.734   4.006   5.043 -0.5264 -0.4876  0.9509
 9366SOL    HW239561   0.834   4.079   5.114  0.3305  0.1538  2.5935
 9367SOL     OW39562   1.646   0.566   6.736  0.0130 -0.7078 -0.6110
 9367SOL    HW139563   1.708   0.514   6.685  0.1807  2.1228 -3.3090
 9367SOL    HW239564   1.700   0.629   6.785 -2.8517 -0.1087  1.7570
 9368SOL     OW39565   2.752   0.580   9.030  0.7353  0.3408  0.2553
 9368SOL    HW139566   2.671   0.620   8.996  0.4512 -0.2070  0.2825
 9368SOL    HW239567   2.718   0.507   9.081 -0.7788 -0.6869 -2.2012
 9369SOL     OW39568   3.798   1.445   7.856 -0.4102  0.1471  0.6635
 9369SOL    HW139569   3.774   1.514   7.918  0.9416  2.0595 -0.9154
 9369SOL    HW239570   3.891   1.461   7.840 -0.6490 -1.2181 -2.0175
 9370SOL     OW39571   4.132   0.851   3.434  0.2616  0.1148  0.4371
 9370SOL    HW139572   4.222   0.883   3.440  1.3883 -2.8634 -0.6018
 9370SOL    HW239573   4.093   0.922   3.384 -0.4877 -0.4195  0.2706
 9371SOL     OW39574   1.916   0.503   1.113  0.0136 -0.3082  0.1376
 9371SOL    HW139575   1.965   0.585   1.119 -3.9647  2.1628 -0.9087
 9371SOL    HW239576   1.837   0.526   1.161  1.1154 -0.8463  2.1883
 9372SOL     OW39577   2.113   2.019   7.621 -0.8040  0.5010 -0.2846
 9372SOL    HW139578   2.166   2.000   7.698 -0.7474  0.3975 -0.3490
 9372SOL    HW239579   2.126   2.114   7.624  2.8761 -0.0375  0.7118
 9373SOL     OW39580   2.236   4.240  17.276  0.6524  0.6679  0.4782
 9373SOL    HW139581   2.184   4.288  17.341  0.0624  1.9428 -0.9390
 9373SOL    HW239582   2.172   4.227  17.205  1.9245 -0.1340 -0.5368
 9374SOL     OW39583   0.017   1.967   3.013  0.9070  0.4964 -0.4998
 9374SOL    HW139584   0.044   1.951   3.103  1.0060 -0.5309 -0.7171
 9374SOL    HW239585   4.644   1.943   3.012  1.3360 -1.1747  0.2939
 9375SOL     OW39586   0.334   1.714   2.226  0.1529 -0.8180 -0.3715
 9375SOL    HW139587   0.418   1.685   2.191  0.6842  0.5716 -0.2355
 9375SOL    HW239588   0.354   1.787   2.283  1.0196 -0.7117 -0.8218
 9376SOL     OW39589   3.056   4.501   4.907 -0.4569 -0.2508 -0.4560
 9376SOL    HW139590   3.059   4.406   4.918  2.3006  0.0038  1.0282
 9376SOL    HW239591   3.085   4.537   4.991  1.9791  3.3612 -2.8149
 9377SOL     OW39592   0.524   0.776   7.378 -0.1200  0.1541 -0.4360
 9377SOL    HW139593   0.611   0.737   7.375  0.9852  2.5888 -0.0581
 9377SOL    HW239594   0.541   0.841   7.310  0.6905 -0.8964 -1.2257
 9378SOL     OW39595   2.960   2.642   7.033 -0.3955 -0.6506 -0.7201
 9378SOL    HW139596   2.955   2.724   7.082  2.2649 -0.4154 -0.8254
 9378SOL    HW239597   3.033   2.663   6.974 -0.1944  1.4331  0.2697
 9379SOL     OW39598   0.564   3.086   6.380  0.4346  0.3048  0.3563
 9379SOL    HW139599   0.575   3.052   6.292 -2.6475 -0.2134  0.1488
 9379SOL    HW239600   0.614   3.166   6.362  1.0332  0.5223  2.9871
 9380SOL     OW39601   2.280   1.970  14.982  0.0641  0.3990  0.4823
 9380SOL    HW139602   2.188   1.978  14.954  0.6852 -2.3258 -2.3611
 9380SOL    HW239603   2.262   1.953  15.074 -0.2808  1.1312  0.5586
 9381SOL     OW39604   2.489   2.767   3.066 -0.2011 -0.0278  0.4641
 9381SOL    HW139605   2.398   2.761   3.094 -1.2756 -0.0432 -3.1194
 9381SOL    HW239606   2.466   2.787   2.976  1.1584 -2.7519 -0.5149
 9382SOL     OW39607   3.682   3.857   7.599 -0.0301  0.2669 -0.2488
 9382SOL    HW139608   3.639   3.785   7.646  3.4077 -1.1813  0.6777
 9382SOL    HW239609   3.662   3.927   7.662  3.1470 -0.6261  1.7755
 9383SOL     OW39610   3.603   1.971   5.087 -0.5925 -0.4484 -0.4444
 9383SOL    HW139611   3.648   1.946   5.006  0.4010 -0.2423  0.0498
 9383SOL    HW239612   3.565   1.887   5.112 -0.7829 -0.0031  0.7443
 9384SOL     OW39613   1.487   1.960  12.945 -0.2152  0.0720  0.1313
 9384SOL    HW139614   1.542   2.039  12.943 -2.7372  1.7661 -1.6303
 9384SOL    HW239615   1.445   1.954  13.030  1.5261 -0.0397  0.9881
 9385SOL     OW39616   3.043   4.404   7.566  0.1983 -0.4030  0.3334
 9385SOL    HW139617   3.112   4.460   7.528  0.5089 -0.5496  0.6751
 9385SOL    HW239618   3.022   4.357   7.486 -4.1325  1.0529  0.6357
 9386SOL     OW39619   2.992   0.493   4.117  0.2432 -0.2248  0.1733
 9386SOL    HW139620   3.001   0.537   4.033  0.4026 -0.1035  0.2525
 9386SOL    HW239621   3.044   0.414   4.100  0.1104 -0.7185  1.9788
 9387SOL     OW39622   2.349   1.457  11.987 -0.0548 -0.2028 -0.4187
 9387SOL    HW139623   2.397   1.410  12.056  0.4644 -0.3821 -0.9044
 9387SOL    HW239624   2.353   1.392  11.918  1.4741  0.2004 -0.7249
 9388SOL     OW39625   2.820   1.380   0.125 -0.0727  0.5134 -0.8780
 9388SOL    HW139626   2.727   1.358   0.120 -0.0195  0.0235  0.2881
 9388SOL    HW239627   2.838   1.383   0.218  1.7662  0.1258 -1.2197
 9389SOL     OW39628   1.701   1.697   2.736  0.3861 -0.0359 -0.5372
 9389SOL    HW139629   1.719   1.665   2.647 -1.3933 -1.4794 -0.3683
 9389SOL    HW239630   1.778   1.664   2.784  0.2386 -0.3218 -0.4975
 9390SOL     OW39631   4.604   1.979   8.908 -0.8531 -0.0237  0.0418
 9390SOL    HW139632   4.632   1.939   8.827 -1.6499  0.5828 -0.5335
 9390SOL    HW239633   4.573   1.903   8.956  0.0391 -0.9227 -0.8136
 9391SOL     OW39634   2.381   3.803   2.810 -0.5552 -0.4925  0.2473
 9391SOL    HW139635   2.365   3.893   2.838 -0.2496 -0.6474  0.9049
 9391SOL    HW239636   2.420   3.811   2.723 -1.4160 -1.0660 -0.1886
 9392SOL     OW39637   4.309   1.452   5.116 -0.1796  0.5383  0.3618
 9392SOL    HW139638   4.384   1.504   5.144  2.0409 -1.5537 -1.7008
 9392SOL    HW239639   4.337   1.362   5.127 -1.7585  0.2444  2.0953
 9393SOL     OW39640   4.668   2.312   2.970 -0.0529 -0.1373  0.7132
 9393SOL    HW139641   4.682   2.400   2.937 -0.6741 -1.4167 -2.9702
 9393SOL    HW239642   4.575   2.296   2.954  0.0848  0.3206 -0.4910
 9394SOL     OW39643   4.711   0.348   0.701 -0.0092  0.1463  0.2062
 9394SOL    HW139644   0.037   0.361   0.783  1.3218  0.1145 -0.5440
 9394SOL    HW239645   4.671   0.261   0.705 -0.8973  0.4313 -2.6664
 9395SOL     OW39646   3.385   3.572   3.393 -0.2519 -0.3639 -0.2247
 9395SOL    HW139647   3.359   3.645   3.450  0.5283  0.6409 -1.1743
 9395SOL    HW239648   3.316   3.511   3.421 -2.1166  2.0110  0.3010
 9396SOL     OW39649   1.516   0.267   6.437 -0.1025  0.1706  0.5221
 9396SOL    HW139650   1.435   0.297   6.397 -0.2344 -2.0780 -0.8854
 9396SOL    HW239651   1.500   0.250   6.530 -1.9398 -0.7762  0.0256
 9397SOL     OW39652   4.189   3.652  15.659  0.3415 -0.3755 -0.2203
 9397SOL    HW139653   4.127   3.649  15.732 -3.1613  0.2115 -3.1527
 9397SOL    HW239654   4.150   3.725  15.611 -0.7189 -0.5282  0.4075
 9398SOL     OW39655   4.128   0.940  11.977 -0.1911 -0.5036 -1.0302
 9398SOL    HW139656   4.120   0.908  12.066  0.5533 -1.6651 -1.3837
 9398SOL    HW239657   4.208   0.898  11.947  0.6339  0.1674  0.2542
 9399SOL     OW39658   0.424   3.929   8.230  0.3857 -0.3595 -0.3894
 9399SOL    HW139659   0.505   3.957   8.273  0.8691  0.3570 -1.7679
 9399SOL    HW239660   0.412   4.000   8.167  2.7171  2.5445  2.4223
 9400SOL     OW39661   2.178   2.162   3.250 -0.2724  0.0185  0.4102
 9400SOL    HW139662   2.188   2.199   3.162  0.4183 -2.8656 -0.7266
 9400SOL    HW239663   2.264   2.158   3.292  0.8177 -0.1537 -1.8353
 9401SOL     OW39664   0.696   2.541  11.905  0.2395 -0.0252  0.3508
 9401SOL    HW139665   0.663   2.469  11.959 -2.0433  1.7373  1.3229
 9401SOL    HW239666   0.788   2.515  11.904  0.5270  1.0093 -0.6619
 9402SOL     OW39667   0.506   1.345   7.816  0.2212  0.2286  0.1980
 9402SOL    HW139668   0.601   1.359   7.810  0.3498  0.0434  1.6421
 9402SOL    HW239669   0.507   1.293   7.897 -0.7821  2.0007  1.3456
 9403SOL     OW39670   1.158   3.459  14.985  0.4404  0.4309  0.2100
 9403SOL    HW139671   1.161   3.456  15.080  2.4262 -0.8934  0.1126
 9403SOL    HW239672   1.072   3.497  14.965  0.6974  1.6083  1.3658
 9404SOL     OW39673   2.626   4.271   1.542 -0.4024  0.7039  0.2603
 9404SOL    HW139674   2.548   4.268   1.487 -0.9666  0.8403  1.0455
 9404SOL    HW239675   2.632   4.366   1.535  1.6801  0.6285  1.1674
 9405SOL     OW39676   0.727   1.183   3.958  0.0072 -0.0755  0.1240
 9405SOL    HW139677   0.750   1.265   4.001  0.6651 -1.3706  2.2685
 9405SOL    HW239678   0.731   1.206   3.865 -2.6845 -0.2022 -0.0377
 9406SOL     OW39679   4.447   0.552   4.992 -0.3192  0.7549 -0.2890
 9406SOL    HW139680   4.356   0.563   4.965  0.1863  2.4423 -1.2923
 9406SOL    HW239681   4.450   0.514   5.080 -1.1065 -0.1267 -0.6417
 9407SOL     OW39682   0.646   3.156   9.925  0.1418 -0.7869  0.0448
 9407SOL    HW139683   0.680   3.153  10.014 -1.0124 -0.4402  0.4870
 9407SOL    HW239684   0.586   3.081   9.929 -2.0341  0.9746  0.3756
 9408SOL     OW39685   2.372   2.894   2.147 -0.6836 -0.0563 -0.0887
 9408SOL    HW139686   2.392   2.982   2.180  1.0039  0.1092 -1.5281
 9408SOL    HW239687   2.281   2.876   2.168 -0.1909 -2.0925  0.2966
 9409SOL     OW39688   3.076   2.254   1.636  0.0077  0.0870  0.3714
 9409SOL    HW139689   2.990   2.293   1.618  0.0904 -0.8616 -2.0871
 9409SOL    HW239690   3.041   2.172   1.671  0.3705 -1.0095 -1.8819
 9410SOL     OW39691   3.789   3.976   2.520  0.1992 -0.3109 -0.0969
 9410SOL    HW139692   3.841   3.896   2.530 -0.1362  0.0102  4.0601
 9410SOL    HW239693   3.859   4.039   2.535 -0.6778  0.5115  0.5387
 9411SOL     OW39694   2.953   2.876  17.332  0.1717  0.1597 -0.3256
 9411SOL    HW139695   2.901   2.942  17.378  0.5276  0.7680 -0.7907
 9411SOL    HW239696   2.991   2.821  17.401  1.9553 -1.3448 -2.4867
 9412SOL     OW39697   4.399   1.338   3.077 -0.5294  0.3439  0.3184
 9412SOL    HW139698   4.376   1.254   3.117 -0.6153  0.5096  0.6142
 9412SOL    HW239699   4.379   1.320   2.985 -0.1130  0.8362  0.1270
 9413SOL     OW39700   1.396   3.469   9.379 -0.4553 -0.1563 -0.2465
 9413SOL    HW139701   1.322   3.523   9.352 -1.0602 -1.6090 -1.4328
 9413SOL    HW239702   1.361   3.414   9.450  0.4506  0.0219  0.3398
 9414SOL     OW39703   2.447   3.265   2.701  0.0729 -0.3979 -0.1588
 9414SOL    HW139704   2.399   3.347   2.714 -0.4232 -0.6779 -0.1923
 9414SOL    HW239705   2.379   3.209   2.662  2.1275 -2.5286 -0.7026
 9415SOL     OW39706   3.860   1.705   9.874  0.0250 -0.6601  0.1333
 9415SOL    HW139707   3.801   1.638   9.840 -0.4675  0.5373 -1.3324
 9415SOL    HW239708   3.810   1.725   9.954 -0.5415 -1.0608 -0.1171
 9416SOL     OW39709   1.454   3.686   3.905 -0.4157 -0.1720 -0.5201
 9416SOL    HW139710   1.387   3.625   3.937 -0.0310 -0.3521 -0.0613
 9416SOL    HW239711   1.524   3.639   3.860 -0.6023 -1.3530  0.4275
 9417SOL     OW39712   1.166   2.130   2.812 -0.7456  0.5836  0.4792
 9417SOL    HW139713   1.205   2.049   2.843 -2.2107  0.1834  1.2488
 9417SOL    HW239714   1.196   2.122   2.722  1.4302  3.7007  0.9039
 9418SOL     OW39715   4.455   1.220   6.716  0.2648  0.4567 -0.2089
 9418SOL    HW139716   4.460   1.190   6.806  1.5971  2.7763  0.4926
 9418SOL    HW239717   4.362   1.212   6.693  0.5665 -2.1200 -0.4579
 9419SOL     OW39718   0.539   2.053   5.935 -0.0927  0.0908  0.1556
 9419SOL    HW139719   0.481   1.979   5.917  1.1233 -1.5140  2.8716
 9419SOL    HW239720   0.512   2.073   6.025  1.2067  0.5317  0.4428
 9420SOL     OW39721   3.094   3.371  16.245  0.3283  0.6363 -0.1802
 9420SOL    HW139722   3.142   3.293  16.220 -1.0541 -0.4730  0.6618
 9420SOL    HW239723   3.003   3.355  16.222 -0.7060  4.0457  1.3905
 9421SOL     OW39724   0.382   0.680   2.324  0.2580  0.0404 -0.3313
 9421SOL    HW139725   0.453   0.631   2.284  0.2205  0.2126 -0.6057
 9421SOL    HW239726   0.318   0.709   2.259  0.2359  2.7248  0.8838
 9422SOL     OW39727   0.491   3.245   5.293  0.1690  0.0960 -0.2737
 9422SOL    HW139728   0.507   3.159   5.254 -3.6271  1.4848 -4.9320
 9422SOL    HW239729   0.577   3.262   5.331 -0.0300  1.5327 -0.4491
 9423SOL     OW39730   3.365   0.656   4.584 -0.0389  0.0215  0.3623
 9423SOL    HW139731   3.338   0.570   4.550  0.7646 -0.2025  0.2843
 9423SOL    HW239732   3.277   0.686   4.608  0.5308  1.7061  0.2884
 9424SOL     OW39733   2.161   1.192   8.420 -0.2330 -0.2719  0.3396
 9424SOL    HW139734   2.201   1.249   8.354 -2.2165  0.5662 -0.1645
 9424SOL    HW239735   2.157   1.249   8.497  0.4531  0.9608 -0.5339
 9425SOL     OW39736   1.808   3.242   6.629  0.4180  0.3594 -0.0206
 9425SOL    HW139737   1.764   3.326   6.615  1.1346  0.9216  1.0551
 9425SOL    HW239738   1.734   3.208   6.678  1.3462  1.4591  2.1443
 9426SOL     OW39739   0.071   0.999   0.372  0.3572  0.2715  0.1391
 9426SOL    HW139740   0.097   1.008   0.463  1.5304  1.9356 -0.3697
 9426SOL    HW239741   0.115   0.916   0.350 -0.8243 -0.3866  0.2898
 9427SOL     OW39742   4.015   3.236   4.384  0.1587  0.4089  0.1468
 9427SOL    HW139743   4.075   3.195   4.446  0.4145 -4.2682 -3.1912
 9427SOL    HW239744   4.000   3.165   4.322  1.3520  1.8002 -1.7379
 9428SOL     OW39745   2.286   0.779   8.474  0.2498 -0.2589 -0.1733
 9428SOL    HW139746   2.343   0.844   8.431 -0.6473 -0.4083 -1.5955
 9428SOL    HW239747   2.259   0.728   8.397 -2.4045  2.1235 -0.8255
 9429SOL     OW39748   2.047   4.572  12.763  0.1533 -0.1385 -0.4467
 9429SOL    HW139749   2.032   4.484  12.796 -0.2067 -0.6902 -2.0645
 9429SOL    HW239750   2.121   4.554  12.705  0.9893  0.2858  0.4746
 9430SOL     OW39751   0.245   2.363   2.891 -0.0640 -0.2324 -0.2335
 9430SOL    HW139752   0.165   2.326   2.928  0.5087 -3.2507 -1.9576
 9430SOL    HW239753   0.211   2.445   2.854  0.1198 -0.2702 -0.4902
 9431SOL     OW39754   2.922   4.448   2.316  0.0525  0.2725 -0.0593
 9431SOL    HW139755   2.833   4.481   2.325  0.9299  2.5553  0.2478
 9431SOL    HW239756   2.923   4.403   2.400  0.1970 -0.0555 -0.2384
 9432SOL     OW39757   2.571   1.880   9.612 -0.7932  0.6326  0.4972
 9432SOL    HW139758   2.630   1.955   9.603  1.4846 -1.1573  0.4770
 9432SOL    HW239759   2.529   1.894   9.697 -2.3584  0.9645 -0.3137
 9433SOL     OW39760   1.398   4.464  13.027  0.5829  0.5378 -1.1618
 9433SOL    HW139761   1.367   4.481  13.116 -0.3789 -1.5185 -1.1074
 9433SOL    HW239762   1.479   4.425  13.061  0.9525  2.2474 -0.0217
 9434SOL     OW39763   1.218   2.996   1.667 -0.1321  0.3183 -0.3615
 9434SOL    HW139764   1.284   2.938   1.629 -0.3493 -1.1362  1.4262
 9434SOL    HW239765   1.274   3.071   1.682  2.0779 -1.4602  0.2536
 9435SOL     OW39766   2.196   3.079   7.927 -0.5483 -0.2100 -0.6769
 9435SOL    HW139767   2.178   2.995   7.885 -1.7933  0.3429 -1.2728
 9435SOL    HW239768   2.108   3.112   7.945 -0.8358 -0.7010 -1.1641
 9436SOL     OW39769   1.383   0.167  10.138  0.4709  0.8753 -0.5045
 9436SOL    HW139770   1.311   0.228  10.124 -1.4814 -0.8834  1.8242
 9436SOL    HW239771   1.359   0.096  10.078 -0.0516  1.1246 -0.5890
 9437SOL     OW39772   3.344   2.730  10.437 -0.3841  0.5097 -0.3670
 9437SOL    HW139773   3.257   2.700  10.463 -0.9160  0.2355 -2.5215
 9437SOL    HW239774   3.380   2.668  10.374  2.2397  0.0457  1.5668
 9438SOL     OW39775   0.426   0.369   7.875  0.0770 -0.4247 -0.0407
 9438SOL    HW139776   0.409   0.458   7.842  2.3595  0.1122  0.2305
 9438SOL    HW239777   0.492   0.341   7.812 -2.7298 -1.4646 -2.4765
 9439SOL     OW39778   4.609   1.329  16.832  0.3276  0.6548  0.1734
 9439SOL    HW139779   4.545   1.397  16.811 -2.1194 -2.0043 -0.9855
 9439SOL    HW239780   4.655   1.360  16.910  2.5946 -1.2351 -0.4151
 9440SOL     OW39781   3.898   0.688  11.066  0.5522 -0.3176  0.5168
 9440SOL    HW139782   3.816   0.651  11.032 -0.6620  0.9591  2.0610
 9440SOL    HW239783   3.961   0.659  11.000 -1.1021 -2.9452  0.0830
 9441SOL     OW39784   1.664   3.061   4.612 -0.4787  0.4470 -0.4886
 9441SOL    HW139785   1.689   3.023   4.696  1.3630  1.1032 -0.7604
 9441SOL    HW239786   1.583   3.012   4.595  0.4544 -1.3582  0.2182
 9442SOL     OW39787   0.474   3.497   7.757  0.1940 -0.2195 -0.1903
 9442SOL    HW139788   0.463   3.431   7.689 -1.4273 -2.1653  1.9715
 9442SOL    HW239789   0.436   3.455   7.834 -0.8798  0.5738 -0.2752
 9443SOL     OW39790   0.355   1.868   3.566 -0.8761 -0.3571  0.0373
 9443SOL    HW139791   0.347   1.842   3.474 -0.8481 -2.3248  0.5838
 9443SOL    HW239792   0.424   1.934   3.568  0.8863 -2.2199  0.3955
 9444SOL     OW39793   1.831   4.340  17.253 -0.0520  0.4426  0.3785
 9444SOL    HW139794   1.741   4.312  17.272  0.6356 -1.0277  1.4972
 9444SOL    HW239795   1.811   4.414  17.196  0.7121 -0.1420 -0.6453
 9445SOL     OW39796   0.155   2.158   9.255  0.0578 -0.2606 -0.5370
 9445SOL    HW139797   0.114   2.074   9.236  1.5480 -0.9943 -0.5466
 9445SOL    HW239798   0.081   2.203   9.294  0.5722 -0.2821  0.4676
 9446SOL     OW39799   1.565   0.434  13.025  0.2634 -0.1573 -0.4608
 9446SOL    HW139800   1.611   0.352  13.044 -0.3471 -0.2368  0.6834
 9446SOL    HW239801   1.497   0.407  13.087 -0.0495  0.2321 -0.6331
 9447SOL     OW39802   1.081   0.867  14.819 -0.2129  0.2672  0.2433
 9447SOL    HW139803   1.093   0.951  14.863 -2.6467  0.5770  0.3295
 9447SOL    HW239804   1.168   0.829  14.828  0.8035  2.6194  0.4352
 9448SOL     OW39805   0.590   1.252  10.892  0.0988 -0.2685  0.1224
 9448SOL    HW139806   0.568   1.328  10.946  0.3025 -0.3989  0.3912
 9448SOL    HW239807   0.685   1.257  10.887 -0.0688  1.5236 -1.1909
 9449SOL     OW39808   3.941   3.327   6.834  0.0447 -0.2679 -0.9474
 9449SOL    HW139809   4.000   3.366   6.897  0.1210 -0.6443 -0.7829
 9449SOL    HW239810   3.935   3.241   6.877 -2.7782  0.2931 -0.2183
 9450SOL     OW39811   0.661   0.300   5.266  0.7534 -0.2638 -0.2140
 9450SOL    HW139812   0.567   0.288   5.271  0.8368  0.0387  1.8230
 9450SOL    HW239813   0.668   0.381   5.317  3.0814 -1.7417  1.8066
 9451SOL     OW39814   2.164   0.405   6.980 -0.3230 -0.2106 -0.8909
 9451SOL    HW139815   2.187   0.312   6.989  0.3716 -0.0140 -0.6238
 9451SOL    HW239816   2.249   0.446   6.996  0.3150 -1.2034 -1.7135
 9452SOL     OW39817   1.753   0.377   2.159  1.0754 -0.1489 -0.5148
 9452SOL    HW139818   1.750   0.471   2.144  0.4793 -0.1508 -0.4180
 9452SOL    HW239819   1.818   0.381   2.229 -0.9831  0.7440  1.3384
 9453SOL     OW39820   4.137   4.102   4.313 -0.0749 -0.2063 -0.0998
 9453SOL    HW139821   4.063   4.146   4.354 -0.6472 -0.2384 -1.1050
 9453SOL    HW239822   4.097   4.091   4.227 -3.5302  0.3066  1.4340
 9454SOL     OW39823   0.151   3.231   3.153 -0.2532 -0.1254  0.8061
 9454SOL    HW139824   0.152   3.138   3.132  0.9620 -0.3445  1.8182
 9454SOL    HW239825   0.092   3.224   3.228 -3.3609 -0.8357 -1.7241
 9455SOL     OW39826   1.164   1.791   6.634  0.3654  0.2923  0.1515
 9455SOL    HW139827   1.113   1.725   6.681  1.1859  0.3874  1.1632
 9455SOL    HW239828   1.253   1.755   6.637 -0.4521 -1.8884 -1.2172
 9456SOL     OW39829   1.446   3.835  11.089 -0.1298 -0.5050  0.0990
 9456SOL    HW139830   1.378   3.771  11.068 -0.9142  0.0013  1.0424
 9456SOL    HW239831   1.527   3.817  11.041 -0.7436  1.0085 -1.5288
 9457SOL     OW39832   2.170   0.775  15.104  0.2302 -0.0176 -0.1338
 9457SOL    HW139833   2.190   0.729  15.023 -1.7243  0.1914 -0.7197
 9457SOL    HW239834   2.217   0.716  15.164 -1.4508  0.6553  1.8188
 9458SOL     OW39835   2.260   3.262   1.957 -0.3152  0.2843  0.4708
 9458SOL    HW139836   2.224   3.279   1.870 -0.5960  0.0173  0.5329
 9458SOL    HW239837   2.180   3.259   2.010  0.0255  0.8711  1.0076
 9459SOL     OW39838   0.591   4.330   4.035 -0.2315  1.1936  0.0367
 9459SOL    HW139839   0.627   4.329   3.947  0.3019 -3.3660  0.3310
 9459SOL    HW239840   0.622   4.420   4.048  0.0841  0.9578  0.8807
 9460SOL     OW39841   1.700   4.113  11.029  0.3852 -0.2104  0.0402
 9460SOL    HW139842   1.748   4.053  11.085  1.7188  1.1065  0.3009
 9460SOL    HW239843   1.614   4.123  11.070 -0.1324  1.4744 -1.4048
 9461SOL     OW39844   4.137   2.094  13.080 -0.2238  0.0802 -0.5636
 9461SOL    HW139845   4.150   2.021  13.018 -1.1958 -0.0042 -0.6731
 9461SOL    HW239846   4.063   2.133  13.034 -0.1425  1.3699  0.4283
 9462SOL     OW39847   3.771   0.579   3.041 -0.4285 -0.3369 -0.0980
 9462SOL    HW139848   3.733   0.667   3.036  2.8796  1.0285 -1.5236
 9462SOL    HW239849   3.805   0.588   3.130 -0.5013  0.6248 -0.1704
 9463SOL     OW39850   2.223   3.728   0.256  0.0622  0.4700  0.9532
 9463SOL    HW139851   2.140   3.684   0.276  0.5827 -0.5115  0.9655
 9463SOL    HW239852   2.249   3.673   0.182  0.0105  1.1237  0.4525
 9464SOL     OW39853   0.354   3.488  13.186 -0.3312  0.1684 -0.0375
 9464SOL    HW139854   0.274   3.517  13.144  0.5931  0.3101 -1.6920
 9464SOL    HW239855   0.369   3.562  13.244 -0.4240  0.4397 -0.3601
 9465SOL     OW39856   2.670   2.641  16.240 -0.4574 -0.2668 -0.4356
 9465SOL    HW139857   2.683   2.634  16.335  1.8005  1.2935 -0.6523
 9465SOL    HW239858   2.739   2.698  16.206 -1.2658  0.0457 -1.5366
 9466SOL     OW39859   1.196   3.570   9.039  0.1313  0.2728 -0.4209
 9466SOL    HW139860   1.242   3.650   9.063  1.5959 -0.7255  0.0689
 9466SOL    HW239861   1.230   3.547   8.952 -0.2125  2.0088 -1.0171
 9467SOL     OW39862   0.072   2.967   6.380  0.4241 -0.2111  0.3227
 9467SOL    HW139863   0.124   2.961   6.300 -0.4350  1.9648 -0.3930
 9467SOL    HW239864   0.132   2.937   6.448  1.8759  1.9495 -0.0336
 9468SOL     OW39865   2.765   3.370   1.209  0.0825 -0.6509 -0.2973
 9468SOL    HW139866   2.764   3.425   1.131 -3.5201 -1.0184 -0.5085
 9468SOL    HW239867   2.717   3.427   1.270  0.3673 -2.0075  1.2015
 9469SOL     OW39868   0.942   4.453   7.893 -0.2193  0.0064 -0.1109
 9469SOL    HW139869   1.035   4.477   7.898 -0.2244  0.1507 -0.7158
 9469SOL    HW239870   0.951   4.402   7.813 -0.0755 -1.5034  0.8492
 9470SOL     OW39871   0.628   2.132   7.829 -0.2547 -0.3492 -0.1878
 9470SOL    HW139872   0.652   2.217   7.865 -0.2829  0.8236 -2.9827
 9470SOL    HW239873   0.538   2.161   7.816 -0.6454 -1.9453 -1.0482
 9471SOL     OW39874   4.054   1.657   2.616 -0.1386 -0.4143  0.7362
 9471SOL    HW139875   3.981   1.647   2.555 -0.7968  2.7759  0.9731
 9471SOL    HW239876   4.105   1.713   2.557 -0.4751  0.5863  1.3945
 9472SOL     OW39877   2.816   3.795   5.508 -0.2401 -0.3776 -0.0390
 9472SOL    HW139878   2.766   3.834   5.437  0.5250  2.4339  0.9557
 9472SOL    HW239879   2.747   3.794   5.575 -1.6282 -0.4849 -1.4752
 9473SOL     OW39880   4.148   4.421   9.295  0.6552 -0.0705 -0.4627
 9473SOL    HW139881   4.173   4.473   9.218  0.8236 -0.2451 -0.5263
 9473SOL    HW239882   4.196   4.469   9.362  2.3018  0.4584 -2.0208
 9474SOL     OW39883   3.765   0.915   5.101  0.3001 -0.4187  0.5648
 9474SOL    HW139884   3.845   0.885   5.144  0.8827  0.7464  0.2998
 9474SOL    HW239885   3.704   0.897   5.173  1.4780  0.2671  1.7225
 9475SOL     OW39886   0.536   4.681  10.734  0.3236  0.0907 -0.4976
 9475SOL    HW139887   0.587   4.701  10.656  1.1237 -0.9269 -0.2345
 9475SOL    HW239888   0.497   0.048  10.740 -1.9741 -1.0661  1.1469
 9476SOL     OW39889   1.526   4.244   3.623 -0.0259 -0.0398 -0.5453
 9476SOL    HW139890   1.568   4.329   3.625  1.3970 -0.7559  0.1804
 9476SOL    HW239891   1.477   4.241   3.705 -0.4178  0.5575 -0.7610
 9477SOL     OW39892   0.091   0.520   0.532 -0.3145  0.2148  0.1069
 9477SOL    HW139893   0.151   0.454   0.497 -0.9320 -0.8979  1.1560
 9477SOL    HW239894   0.034   0.462   0.583  1.3500 -1.3934  0.1477
 9478SOL     OW39895   4.562   3.752   7.019 -0.0309 -0.8198  0.2203
 9478SOL    HW139896   4.625   3.818   6.989  0.4026 -1.5165 -0.4100
 9478SOL    HW239897   4.598   3.721   7.102 -1.0834 -0.6124  0.7547
 9479SOL     OW39898   4.040   0.098   4.315  0.1501  0.6457  0.2324
 9479SOL    HW139899   4.060   0.100   4.222  1.4683 -1.1256  0.4783
 9479SOL    HW239900   4.129   0.089   4.349 -0.8789 -4.5300  1.5391
 9480SOL     OW39901   1.220   1.055  15.001 -0.3629 -0.3828  0.0219
 9480SOL    HW139902   1.306   1.076  14.963 -0.6056  2.1687  0.8708
 9480SOL    HW239903   1.181   1.136  14.969  1.4212 -0.0530 -1.3445
 9481SOL     OW39904   3.255   3.502  14.517  0.5326 -1.1724 -0.0038
 9481SOL    HW139905   3.309   3.581  14.518  0.2464 -1.0043  1.5065
 9481SOL    HW239906   3.177   3.539  14.476  0.5707 -1.2815 -0.1766
 9482SOL     OW39907   2.445   2.078   8.662 -0.2413  0.5051 -0.4025
 9482SOL    HW139908   2.384   2.119   8.724 -1.7436 -2.0688 -0.1887
 9482SOL    HW239909   2.464   1.992   8.701  0.4197  0.7091 -0.2738
 9483SOL     OW39910   1.681   3.598   0.457  0.4166 -0.0030  0.1556
 9483SOL    HW139911   1.718   3.524   0.410 -0.8597 -0.4786 -0.0809
 9483SOL    HW239912   1.705   3.563   0.542 -0.8461  1.8386  1.2679
 9484SOL     OW39913   2.281   1.505   8.643  0.8325  0.0036 -0.6428
 9484SOL    HW139914   2.307   1.569   8.576  0.9143  0.8671  0.2106
 9484SOL    HW239915   2.353   1.515   8.705  0.9212 -0.3459 -0.6899
 9485SOL     OW39916   0.375   2.256   3.597  0.0895  0.2132 -0.3588
 9485SOL    HW139917   0.447   2.270   3.658 -0.1354  0.7313 -0.2109
 9485SOL    HW239918   0.409   2.182   3.548 -0.1643 -0.4287  0.4438
 9486SOL     OW39919   0.508   3.680  11.791  0.0860  0.2886 -0.3353
 9486SOL    HW139920   0.526   3.663  11.883 -1.8441  1.8606  0.3442
 9486SOL    HW239921   0.535   3.594  11.758 -0.7859 -0.6906  1.4887
 9487SOL     OW39922   0.053   2.744   8.210 -0.3595  0.0786  0.0558
 9487SOL    HW139923   0.089   2.661   8.240  2.0045  1.4187  1.0232
 9487SOL    HW239924   4.679   2.730   8.210 -0.1870 -1.0634 -1.1684
 9488SOL     OW39925   3.739   1.468   5.860 -0.6488  0.4756  0.0799
 9488SOL    HW139926   3.786   1.526   5.800 -2.5082  1.2989 -0.5545
 9488SOL    HW239927   3.793   1.389   5.846 -1.6481 -0.0663 -0.7526
 9489SOL     OW39928   1.285   3.636   5.341  0.1809 -0.4780 -0.0786
 9489SOL    HW139929   1.262   3.671   5.254 -1.1574 -0.5794  0.2303
 9489SOL    HW239930   1.363   3.592   5.310 -0.3266  0.6724 -2.9973
 9490SOL     OW39931   0.370   3.386   6.745  0.3019  0.1254  0.2091
 9490SOL    HW139932   0.360   3.304   6.696 -0.4727  1.0008 -1.0813
 9490SOL    HW239933   0.372   3.455   6.679  3.1994  1.2195  1.4511
 9491SOL     OW39934   4.075   1.863   6.225  0.3804 -0.1045 -0.4060
 9491SOL    HW139935   4.038   1.946   6.254  0.3585 -0.0493 -0.5866
 9491SOL    HW239936   4.166   1.881   6.248  0.0367  1.5537 -0.3420
 9492SOL     OW39937   2.575   1.505   3.972  0.7902 -0.1468 -0.2459
 9492SOL    HW139938   2.501   1.564   3.982  1.6204  1.1852 -1.9187
 9492SOL    HW239939   2.548   1.453   3.896  3.8013 -1.3952 -0.4510
 9493SOL     OW39940   1.337   3.166   5.466 -0.0873 -0.3023 -0.4659
 9493SOL    HW139941   1.299   3.108   5.400 -0.6931  0.7044 -1.0105
 9493SOL    HW239942   1.423   3.124   5.471 -1.3277 -2.5777  1.3642
 9494SOL     OW39943   0.313   3.563  14.117  0.0498  0.2855 -0.4124
 9494SOL    HW139944   0.386   3.624  14.115  2.4263 -2.5162  0.3909
 9494SOL    HW239945   0.326   3.538  14.209 -1.1284  1.4947  0.0850
 9495SOL     OW39946   0.102   2.817  10.775  0.4339  0.2707 -0.3323
 9495SOL    HW139947   0.127   2.909  10.766  0.9469  0.1440 -0.2022
 9495SOL    HW239948   0.115   2.794  10.867  2.1079 -1.8124 -1.0930
 9496SOL     OW39949   0.712   1.311   4.941 -0.6395  0.0126  0.1693
 9496SOL    HW139950   0.640   1.368   4.966 -1.2902  0.4896 -2.8108
 9496SOL    HW239951   0.744   1.292   5.029 -4.1606 -1.4377  1.1205
 9497SOL     OW39952   0.294   2.014   0.180  0.9034  0.4594 -0.0155
 9497SOL    HW139953   0.221   1.952   0.170 -0.5883  2.4801 -1.4787
 9497SOL    HW239954   0.250   2.098   0.183 -0.5588 -0.2167 -2.4075
 9498SOL     OW39955   4.051   2.077   3.760  0.3536  0.3751  0.2628
 9498SOL    HW139956   3.997   2.013   3.714 -0.0640  1.4390 -0.7257
 9498SOL    HW239957   4.138   2.061   3.724  0.5647  0.0719  0.9057
 9499SOL     OW39958   3.052   3.290   2.412 -0.3604  0.1692 -0.4432
 9499SOL    HW139959   2.969   3.338   2.419 -0.0038  0.6185  0.7000
 9499SOL    HW239960   3.026   3.221   2.351  0.9186 -0.2254 -0.5368
 9500SOL     OW39961   3.790   2.843  13.535  0.5080  0.4799 -0.1677
 9500SOL    HW139962   3.785   2.931  13.498 -3.2128 -0.3140 -1.5021
 9500SOL    HW239963   3.882   2.823  13.517  0.2961 -1.6807  1.1326
 9501SOL     OW39964   3.209   2.047   3.764  0.2583  0.6309 -0.3157
 9501SOL    HW139965   3.137   2.014   3.710  0.3126 -0.4307  0.2601
 9501SOL    HW239966   3.216   2.134   3.724  1.2177  0.6198 -0.1512
 9502SOL     OW39967   2.022   2.635  10.574  0.4026 -0.6676  0.6331
 9502SOL    HW139968   1.960   2.669  10.510  0.9574  0.6680  0.7938
 9502SOL    HW239969   2.101   2.672  10.533 -0.7161  1.1203  0.0796
 9503SOL     OW39970   1.946   2.742   5.938 -0.3911 -0.2769 -0.4598
 9503SOL    HW139971   2.002   2.752   6.015 -0.3704 -0.7106 -0.4141
 9503SOL    HW239972   1.861   2.742   5.983  1.3437  2.4253  2.8390
 9504SOL     OW39973   0.110   0.221   1.780 -0.3000  0.0611 -0.0414
 9504SOL    HW139974   0.204   0.205   1.784 -0.7091 -1.8519  1.8857
 9504SOL    HW239975   0.098   0.269   1.698  0.6536  1.2201  0.5092
 9505SOL     OW39976   4.704   3.705  17.158 -0.2490  0.0249  0.2300
 9505SOL    HW139977   4.719   3.798  17.138 -1.5941  0.2847  0.3800
 9505SOL    HW239978   0.050   3.691  17.226 -1.6031 -2.3191  1.0503
 9506SOL     OW39979   0.627   3.318   8.267 -0.0919 -0.1431 -0.3567
 9506SOL    HW139980   0.585   3.287   8.187 -0.8391 -1.5208  0.5501
 9506SOL    HW239981   0.688   3.380   8.229  1.1482  0.0092  1.8721
 9507SOL     OW39982   2.160   4.502  16.180  0.3992 -0.1294 -0.5747
 9507SOL    HW139983   2.070   4.531  16.195  0.2711 -0.4795 -0.6491
 9507SOL    HW239984   2.152   4.460  16.094  1.5792 -1.7618  0.0964
 9508SOL     OW39985   1.359   0.543   5.653 -0.4432 -0.4215  0.0211
 9508SOL    HW139986   1.318   0.487   5.588 -1.2043 -2.1651  2.0190
 9508SOL    HW239987   1.306   0.616   5.620  1.4014  0.9864  0.1265
 9509SOL     OW39988   0.829   3.041  12.081 -0.5203  0.6275 -0.7135
 9509SOL    HW139989   0.843   3.040  12.176  0.8812 -0.8981 -0.9270
 9509SOL    HW239990   0.804   2.950  12.064 -0.6179 -0.0358  2.9412
 9510SOL     OW39991   3.383   1.161   2.397  0.7017 -0.7693  0.2273
 9510SOL    HW139992   3.405   1.068   2.408 -2.6533 -1.5413  0.3826
 9510SOL    HW239993   3.459   1.199   2.440  0.8509 -1.6108  0.7135
 9511SOL     OW39994   1.151   3.834   9.484 -0.1907  0.3143  0.1114
 9511SOL    HW139995   1.152   3.789   9.568  3.0252 -1.6188 -0.9637
 9511SOL    HW239996   1.154   3.758   9.426 -0.2473 -0.7256  1.4691
 9512SOL     OW39997   1.770   4.682   7.818 -1.0629  0.4557 -0.2057
 9512SOL    HW139998   1.826   4.608   7.793  0.4552  1.5064  0.1440
 9512SOL    HW239999   1.696   4.658   7.761  0.8918 -2.7762 -1.3750
 9513SOL     OW40000   0.826   1.122   6.027 -0.2102  0.1903  0.5006
 9513SOL    HW140001   0.826   1.089   5.937  2.8132  1.2587  0.1007
 9513SOL    HW240002   0.918   1.145   6.041 -0.2313 -0.7110  2.0987
 9514SOL     OW40003   1.137   0.540  15.103  0.2045 -0.5941  0.0183
 9514SOL    HW140004   1.057   0.507  15.063  0.6009 -0.7994 -0.6030
 9514SOL    HW240005   1.140   0.620  15.051 -0.2577  0.3568  1.4440
 9515SOL     OW40006   4.703   3.641   2.188 -0.0722  0.5633 -0.8701
 9515SOL    HW140007   4.624   3.694   2.201 -1.8113 -1.5657 -2.7453
 9515SOL    HW240008   4.666   3.555   2.166  0.6876 -0.1354  0.6277
 9516SOL     OW40009   0.003   2.510   7.379  0.2889 -0.0054  0.6492
 9516SOL    HW140010   4.691   2.583   7.327  0.0529  0.2160  1.1060
 9516SOL    HW240011   4.692   2.435   7.329  0.5532  1.0423 -1.0734
 9517SOL     OW40012   1.105   1.998   2.425 -0.3015  0.3146 -0.3031
 9517SOL    HW140013   1.146   1.977   2.341  0.0028 -0.5371  0.0633
 9517SOL    HW240014   1.175   2.043   2.472 -2.7592  1.2258  2.4177
 9518SOL     OW40015   3.610   3.059  16.045  0.4803 -0.3402 -0.1918
 9518SOL    HW140016   3.529   3.023  16.008 -1.4052  2.6084  1.0247
 9518SOL    HW240017   3.666   2.984  16.060 -0.7238 -1.5481 -1.7376
 9519SOL     OW40018   1.028   0.968   7.075  0.4294 -0.2580 -0.4502
 9519SOL    HW140019   1.075   0.891   7.042  0.2162 -0.0987 -1.1215
 9519SOL    HW240020   1.099   1.031   7.064  0.7280 -0.2509  1.4367
 9520SOL     OW40021   2.048   4.314   8.379  0.0067  0.4409  0.0619
 9520SOL    HW140022   2.033   4.246   8.444 -1.3626  0.2576 -0.4484
 9520SOL    HW240023   2.114   4.371   8.417  2.3842 -2.8598  0.8792
 9521SOL     OW40024   2.714   0.540   4.521 -0.4109 -0.5761  0.6006
 9521SOL    HW140025   2.629   0.546   4.477 -0.4018  1.6856  0.8991
 9521SOL    HW240026   2.763   0.572   4.445  0.6194  0.2963  1.6270
 9522SOL     OW40027   3.872   1.232   6.944  0.4160 -0.3638 -0.2646
 9522SOL    HW140028   3.834   1.231   6.856  1.1786  1.2112 -0.6104
 9522SOL    HW240029   3.813   1.176   6.995  0.9276  0.3925  1.1631
 9523SOL     OW40030   3.234   3.190  16.581 -0.8418 -0.0104  0.4741
 9523SOL    HW140031   3.277   3.240  16.651 -2.2228  0.1753  1.1905
 9523SOL    HW240032   3.280   3.217  16.501 -1.9405 -0.9390 -0.4639
 9524SOL     OW40033   3.572   4.659  13.228 -0.2861  0.5364 -0.5638
 9524SOL    HW140034   3.529   4.715  13.164  2.1385  0.9584 -1.8313
 9524SOL    HW240035   3.494   4.618  13.265  0.5047 -0.4946 -0.0053
 9525SOL     OW40036   1.296   0.935   9.507 -0.1410 -0.4656 -0.0614
 9525SOL    HW140037   1.313   0.847   9.472  4.8627  0.1696  0.8202
 9525SOL    HW240038   1.273   0.984   9.428  0.6684  1.0790  0.6640
 9526SOL     OW40039   2.429   0.513  11.758 -0.4285 -0.0972 -0.0249
 9526SOL    HW140040   2.424   0.495  11.852 -0.1057  3.5091  0.7017
 9526SOL    HW240041   2.362   0.581  11.753  0.2476  0.6968  1.4165
 9527SOL     OW40042   4.683   3.070  15.646 -0.1076  0.3395 -0.1432
 9527SOL    HW140043   0.048   3.030  15.662 -0.8573 -1.2510 -0.1775
 9527SOL    HW240044   4.617   3.001  15.639  1.5981 -1.4256  1.2258
 9528SOL     OW40045   2.118   4.329   1.266  0.0898 -0.0238  0.6032
 9528SOL    HW140046   2.051   4.396   1.281 -0.5066 -0.6828  0.8347
 9528SOL    HW240047   2.163   4.325   1.351  2.6117 -1.8788 -0.8191
 9529SOL     OW40048   3.735   4.148  13.716  0.0583 -0.2554 -0.4067
 9529SOL    HW140049   3.764   4.124  13.628 -0.6260 -1.1977 -0.3806
 9529SOL    HW240050   3.772   4.235  13.726  2.9745 -1.4403 -1.0443
 9530SOL     OW40051   3.731   1.344   8.139  0.6100  0.1988  0.1539
 9530SOL    HW140052   3.748   1.345   8.045  0.5030  2.5892  0.1418
 9530SOL    HW240053   3.638   1.322   8.140  1.0750 -1.7033  2.2897
 9531SOL     OW40054   1.751   2.145  16.113  0.0894  0.1103  0.3267
 9531SOL    HW140055   1.761   2.232  16.073 -3.2207 -1.3518 -3.6369
 9531SOL    HW240056   1.844   2.127  16.124  0.4268  1.7076  0.0804
 9532SOL     OW40057   2.848   4.646   1.181  0.2395  0.1724 -0.2630
 9532SOL    HW140058   2.808   4.715   1.128 -1.2918 -1.9952 -1.9220
 9532SOL    HW240059   2.783   4.622   1.247  0.0217 -2.6452 -1.4965
 9533SOL     OW40060   1.615   3.218  13.795  0.5377 -0.0976 -0.2956
 9533SOL    HW140061   1.668   3.248  13.722 -0.3111  0.2029 -0.7830
 9533SOL    HW240062   1.672   3.155  13.838  0.9002  1.6116  1.7564
 9534SOL     OW40063   4.389   1.404   8.999 -0.0228  0.4568  0.6204
 9534SOL    HW140064   4.354   1.315   8.990 -0.9730  0.9063 -0.0684
 9534SOL    HW240065   4.335   1.429   9.074 -0.5464 -0.7388  0.6355
 9535SOL     OW40066   2.664   2.953  15.277  0.4170  0.4839  0.6800
 9535SOL    HW140067   2.726   2.903  15.225 -0.7264  0.3511 -0.5456
 9535SOL    HW240068   2.628   2.886  15.337  2.1020 -2.3493 -1.4776
 9536SOL     OW40069   2.850   3.135   7.715  0.2519  0.0141  0.7475
 9536SOL    HW140070   2.833   3.166   7.804  0.5467  1.6990  0.2050
 9536SOL    HW240071   2.857   3.041   7.733 -1.1310 -0.5898 -1.9159
 9537SOL     OW40072   1.786   2.829   2.955 -0.2745  0.1451 -0.1789
 9537SOL    HW140073   1.812   2.921   2.952 -2.8133  0.9009  0.8008
 9537SOL    HW240074   1.722   2.827   2.884 -1.5204 -1.0980  0.9753
 9538SOL     OW40075   4.414   4.474   9.986 -0.2705 -0.3361 -0.2095
 9538SOL    HW140076   4.451   4.399   9.939 -0.3850 -1.1256  0.9372
 9538SOL    HW240077   4.463   4.553   9.964  0.0281 -0.3511  0.3908
 9539SOL     OW40078   0.966   0.056   0.796  0.9719 -0.1091  0.1185
 9539SOL    HW140079   0.999   0.144   0.812 -0.1781  0.4024 -0.3450
 9539SOL    HW240080   1.029   0.002   0.845  1.1007  0.0447  0.1205
 9540SOL     OW40081   2.162   3.320   1.719 -0.1287  0.0158  0.4682
 9540SOL    HW140082   2.085   3.304   1.664 -0.9021 -0.4060  1.6733
 9540SOL    HW240083   2.224   3.348   1.652 -1.5827  1.6043 -0.1883
 9541SOL     OW40084   2.968   2.730   2.256 -0.4510  0.1418 -0.1197
 9541SOL    HW140085   3.038   2.665   2.257  0.5896  1.2492 -1.4791
 9541SOL    HW240086   3.014   2.812   2.236  0.2531 -0.2164  0.0488
 9542SOL     OW40087   3.704   2.277   4.640 -0.4931  0.0885  0.0578
 9542SOL    HW140088   3.706   2.215   4.713  0.5730  0.3189  0.2313
 9542SOL    HW240089   3.632   2.329   4.676  0.9971  1.3324  1.2342
 9543SOL     OW40090   2.163   1.374  10.597 -0.2804 -0.0366  0.0683
 9543SOL    HW140091   2.145   1.468  10.598 -1.6525 -0.3055 -0.1842
 9543SOL    HW240092   2.125   1.347  10.514 -0.2330  1.7787 -0.5317
 9544SOL     OW40093   2.389   4.720   2.386 -0.3123 -0.2221  0.1540
 9544SOL    HW140094   2.474   0.040   2.371  0.3563  0.2054  4.9912
 9544SOL    HW240095   2.325   0.066   2.363 -0.4538  0.2649  1.9715
 9545SOL     OW40096   2.008   3.578   9.527  0.2884  0.1185  0.1839
 9545SOL    HW140097   2.039   3.664   9.500 -1.6414  0.8621  0.2917
 9545SOL    HW240098   1.916   3.596   9.547  0.5779  1.4977  0.2746
 9546SOL     OW40099   0.816   0.468  14.698 -0.0105 -0.5583 -0.0783
 9546SOL    HW140100   0.763   0.546  14.684 -1.3666 -1.1425  1.9166
 9546SOL    HW240101   0.876   0.486  14.625 -2.9053 -0.3914 -2.4020
 9547SOL     OW40102   0.875   3.303   2.263  0.1921  0.4160 -0.1670
 9547SOL    HW140103   0.963   3.280   2.232  0.7126  2.4621 -0.2060
 9547SOL    HW240104   0.843   3.355   2.189  1.1047 -1.6604 -2.0307
 9548SOL     OW40105   1.853   3.490  10.829 -0.9031  0.3757 -0.2781
 9548SOL    HW140106   1.916   3.434  10.875 -0.9342  0.6055  0.0469
 9548SOL    HW240107   1.851   3.562  10.893 -0.4467  1.2382 -1.2289
 9549SOL     OW40108   1.827   2.851   6.629 -0.4069  0.6648  0.6024
 9549SOL    HW140109   1.837   2.793   6.553  1.6516  2.5326 -0.5544
 9549SOL    HW240110   1.899   2.832   6.690  2.2465  0.4026 -2.6084
 9550SOL     OW40111   4.295   4.633   2.832 -1.0114  0.0398 -0.4381
 9550SOL    HW140112   4.229   4.582   2.785 -0.1775 -0.4735 -1.0525
 9550SOL    HW240113   4.247   4.715   2.827 -0.8458  0.4232  3.9229
 9551SOL     OW40114   2.796   2.519   5.814  0.3044  0.6961  0.4026
 9551SOL    HW140115   2.872   2.540   5.760  2.3834  0.6068  3.2517
 9551SOL    HW240116   2.779   2.607   5.847  2.4494  1.0150  0.6756
 9552SOL     OW40117   2.818   4.515   4.792  0.0939  0.0635 -0.4487
 9552SOL    HW140118   2.904   4.508   4.833 -0.2695 -0.6149  0.1855
 9552SOL    HW240119   2.817   4.609   4.771 -0.1345  0.6286  2.0560
 9553SOL     OW40120   0.297   4.326   7.163  0.0601  0.2953  0.4228
 9553SOL    HW140121   0.342   4.285   7.089  0.4897  1.3620  0.0904
 9553SOL    HW240122   0.305   4.260   7.232  1.1291 -0.3688 -0.3378
 9554SOL     OW40123   2.628   1.564   8.255 -0.1712 -0.2507 -0.9014
 9554SOL    HW140124   2.557   1.615   8.294  1.2162  1.0914 -0.1106
 9554SOL    HW240125   2.587   1.513   8.186 -0.0580  0.9133 -1.8148
 9555SOL     OW40126   1.447   3.367   4.945 -0.2140 -0.0064 -0.0198
 9555SOL    HW140127   1.540   3.353   4.963  0.2664 -1.7953 -3.8225
 9555SOL    HW240128   1.449   3.462   4.932 -0.4953  0.1808  1.2965
 9556SOL     OW40129   0.815   0.063   5.501 -0.0663 -0.2055 -0.2164
 9556SOL    HW140130   0.826   4.706   5.557 -0.5186 -0.0320  0.1205
 9556SOL    HW240131   0.756   0.031   5.433  1.1833  0.3224 -1.5356
 9557SOL     OW40132   1.971   3.350   8.749 -0.1909 -0.4644  0.0394
 9557SOL    HW140133   2.047   3.402   8.776 -2.0728  2.6197 -0.5475
 9557SOL    HW240134   2.008   3.295   8.680 -1.4558 -1.3580  0.0693
 9558SOL     OW40135   3.483   3.049   4.408 -0.4996 -0.2166  0.2001
 9558SOL    HW140136   3.435   3.098   4.341 -0.5398 -0.5249  0.0001
 9558SOL    HW240137   3.533   2.990   4.351 -1.2158  0.2030 -0.8733
 9559SOL     OW40138   3.208   3.256   5.565  0.2853  0.7147  0.1379
 9559SOL    HW140139   3.138   3.275   5.627  0.9610  0.4915  0.9756
 9559SOL    HW240140   3.159   3.284   5.487 -0.0419 -1.4164 -0.4223
 9560SOL     OW40141   3.256   0.044   6.935  0.2596 -0.5074  0.1469
 9560SOL    HW140142   3.205   0.002   7.005  0.2360  0.7998  0.9300
 9560SOL    HW240143   3.289   0.122   6.981 -0.4792  1.6245 -2.9302
 9561SOL     OW40144   4.503   2.617   2.854 -0.2520 -0.4269 -0.5421
 9561SOL    HW140145   4.448   2.586   2.782 -2.2247 -1.9432  1.5948
 9561SOL    HW240146   4.443   2.671   2.905 -1.8963 -2.9618  0.2325
 9562SOL     OW40147   1.742   2.285  15.818 -0.4833  0.1615  0.6807
 9562SOL    HW140148   1.746   2.378  15.839  0.5670  0.6572 -1.7014
 9562SOL    HW240149   1.654   2.268  15.785 -1.0946  1.5223  1.6390
 9563SOL     OW40150   2.046   3.170  13.475 -0.0954  0.1554  0.5935
 9563SOL    HW140151   2.041   3.192  13.382 -1.2991  4.0932  1.5968
 9563SOL    HW240152   2.120   3.220  13.508 -0.2185  0.3186  0.6243
 9564SOL     OW40153   4.265   1.677   0.391 -0.1916 -0.1164 -0.4048
 9564SOL    HW140154   4.218   1.724   0.322  0.2787 -0.8366 -1.2138
 9564SOL    HW240155   4.224   1.723   0.464 -0.2461 -0.4944 -0.1983
 9565SOL     OW40156   2.506   3.524  14.412 -0.1321 -0.2017  0.2989
 9565SOL    HW140157   2.509   3.445  14.358  0.9518 -0.2057  0.3782
 9565SOL    HW240158   2.415   3.523  14.444 -0.9199 -2.1750 -1.9879
 9566SOL     OW40159   4.494   0.769   7.341  0.1674 -0.5492 -0.5641
 9566SOL    HW140160   4.563   0.805   7.398  0.4415  0.9371 -1.8420
 9566SOL    HW240161   4.522   0.680   7.363 -1.8407 -1.2250 -0.7455
 9567SOL     OW40162   0.116   1.478   7.076  0.1876 -0.0634  0.1914
 9567SOL    HW140163   0.103   1.541   7.005  0.2462  1.0927  1.2078
 9567SOL    HW240164   0.051   1.520   7.132 -0.4128  0.0946 -0.6310
 9568SOL     OW40165   3.937   1.829  11.194 -0.5061  0.0037 -0.1898
 9568SOL    HW140166   3.977   1.860  11.275  0.3259  1.9792 -1.3534
 9568SOL    HW240167   3.845   1.845  11.214 -0.5588  0.3325 -0.6886
   4.72043   4.72043  17.68429
