Membrane in water
40167
    1TCq1    O1    1   2.769   2.466  11.102  0.3559 -0.5449  0.2349
    1TCq1    C1    2   2.697   2.351  11.098 -0.2474  0.5787 -0.5420
    1TCq1    O2    3   2.730   2.248  11.152 -0.2845  0.5718 -0.4881
    1TCq1    C2    4   2.559   2.401  11.111  0.2193  0.8436  0.1978
    1TCq1    C3    5   2.520   2.505  11.033 -0.0318  0.5551  0.0411
    1TCq1    C4    6   2.399   2.565  11.064  0.5549  0.4785 -0.1395
    1TCq1    C5    7   2.320   2.521  11.170 -0.1256  0.0920 -0.0405
    1TCq1    C6    8   2.361   2.414  11.240 -0.5767 -0.0433 -0.4386
    1TCq1    C7    9   2.489   2.365  11.222 -0.3000  0.0879 -0.1765
    1TCq1    C8   10   2.287   2.372  11.353 -0.1371  0.2747  0.0529
    1TCq1    O4   11   2.197   2.450  11.390 -0.2732 -0.7956  0.0520
    1TCq1    C9   12   2.342   2.667  10.975 -0.0078 -1.1460 -0.0279
    1TCq1    O5   13   2.214   2.680  10.982 -0.6502 -0.7109  0.5738
    1TCq1    O6   14   2.414   2.730  10.889 -0.0464  0.1546 -0.0675
    1TCq1    H1   15   2.725   2.551  11.084  0.8573 -0.8546 -2.3704
    1TCq1    H2   16   2.568   2.532  10.940 -1.0848  0.3944 -0.5399
    1TCq1    H3   17   2.219   2.558  11.181  0.1400  0.9201 -0.3242
    1TCq1    H4   18   2.533   2.290  11.287  1.9121  0.1251 -1.6295
    2MPD2     C   19   2.102   2.003  11.652 -0.3569 -0.1644 -0.6029
    2MPD2    C1   20   2.093   2.139  11.666 -0.0144 -0.4143  0.1279
    2MPD2    C2   21   2.155   2.219  11.571 -0.1479 -0.4565  0.4964
    2MPD2    C3   22   2.228   2.163  11.470  0.1414  0.4869  0.8917
    2MPD2    C4   23   2.239   2.028  11.458  0.5927 -0.1616  0.0826
    2MPD2    C5   24   2.174   1.946  11.547 -0.3686  0.5774  0.3046
    2MPD2     H   25   2.156   2.326  11.589  0.0698 -0.4021  0.1653
    2MPD2    H1   26   2.303   1.980  11.384  0.3241 -1.6544  0.8238
    2MPD2    H2   27   2.064   1.939  11.730 -0.7278  1.7527  0.7795
    2MPD2    H3   28   2.193   1.839  11.546 -0.1516  0.6191  0.0528
    2MPD2     N   29   2.303   2.236  11.376  0.1839  0.1853  0.4582
    2MPD2    H5   30   2.367   2.187  11.314  0.1088 -0.3735  0.8299
    2MPD2    N1   31   2.014   2.198  11.769  0.7234 -0.2079 -0.1852
    2MPD2    H7   32   2.020   2.299  11.769  0.9838 -0.2264  0.5239
    3TCq1    O1   33   2.000   4.507  10.063  0.0779  0.3923  0.2199
    3TCq1    C1   34   1.890   4.491  10.137 -0.0529 -0.0345  0.2158
    3TCq1    O2   35   1.871   4.547  10.242 -0.8704  0.4780 -0.5179
    3TCq1    C2   36   1.805   4.390  10.073  0.2610  0.0016 -0.1585
    3TCq1    C3   37   1.779   4.411   9.942  0.4669  0.0217 -0.0288
    3TCq1    C4   38   1.693   4.322   9.886 -0.3801  0.0089  0.8899
    3TCq1    C5   39   1.630   4.217   9.957 -0.2683 -0.0926 -0.1810
    3TCq1    C6   40   1.652   4.212  10.089 -0.4400  0.3388  0.6544
    3TCq1    C7   41   1.744   4.297  10.158  0.1290 -0.3477  0.0450
    3TCq1    C8   42   1.601   4.103  10.163  0.8985 -0.1582  0.1280
    3TCq1    O4   43   1.601   3.992  10.116 -0.7536 -0.1334 -0.4086
    3TCq1    C9   44   1.676   4.330   9.745 -0.5982  0.0197  0.1874
    3TCq1    O5   45   1.760   4.404   9.685  0.1589  0.1791 -0.2442
    3TCq1    O6   46   1.603   4.244   9.693  0.6373 -0.1187  0.2598
    3TCq1    H1   47   2.006   4.435   9.997 -3.8403  0.4640 -0.1972
    3TCq1    H2   48   1.826   4.495   9.892  1.8924 -0.9677 -0.3572
    3TCq1    H3   49   1.573   4.145   9.901  1.3118  0.7216 -2.8339
    3TCq1    H4   50   1.774   4.280  10.261  0.6084 -2.2675 -0.4103
    4MPD2     C   51   1.373   3.992  10.621 -0.3034  0.1840  0.0272
    4MPD2    C1   52   1.358   4.124  10.601 -0.2577  0.5506 -0.6809
    4MPD2    C2   53   1.403   4.179  10.476 -0.8405  0.4213 -0.3593
    4MPD2    C3   54   1.473   4.102  10.384  0.4912  0.5032 -0.2144
    4MPD2    C4   55   1.489   3.968  10.408 -0.3305  0.5334  0.3530
    4MPD2    C5   56   1.442   3.915  10.527  0.2731 -0.4756  0.7162
    4MPD2     H   57   1.388   4.284  10.453 -1.1534 -0.1665 -2.8128
    4MPD2    H1   58   1.547   3.905  10.342  0.5326  0.9970  0.6742
    4MPD2    H2   59   1.350   3.936  10.711 -1.3655 -0.5531 -0.7072
    4MPD2    H3   60   1.456   3.810  10.549  0.1625 -0.5868  0.2644
    4MPD2     N   61   1.535   4.162  10.270  0.4249  0.3645  0.1977
    4MPD2    H5   62   1.524   4.263  10.270 -0.0725  0.3060 -0.6785
    4MPD2    N1   63   1.291   4.211  10.692  0.1329 -0.1620  0.0145
    4MPD2    H7   64   1.261   4.301  10.658  0.5124  0.3983  1.1455
    5TCq1    O1   65   2.602   0.293  12.585  0.4501 -0.4103 -0.0945
    5TCq1    C1   66   2.621   0.302  12.451 -0.5017 -0.3304  0.2819
    5TCq1    O2   67   2.662   0.206  12.385 -0.4873  0.3105  0.2781
    5TCq1    C2   68   2.526   0.407  12.408 -0.2586  0.3204 -0.5269
    5TCq1    C3   69   2.496   0.509  12.487 -0.4300 -0.0123  0.7841
    5TCq1    C4   70   2.405   0.597  12.446 -0.0222 -0.6451  0.0819
    5TCq1    C5   71   2.346   0.582  12.326  0.2875  0.4658 -0.0283
    5TCq1    C6   72   2.363   0.467  12.254 -0.2309 -0.9398 -0.4704
    5TCq1    C7   73   2.463   0.381  12.294 -0.3893  0.7326 -0.0181
    5TCq1    C8   74   2.280   0.423  12.141  0.2291  0.8472 -0.3165
    5TCq1    O4   75   2.333   0.342  12.070 -0.1281 -0.4371  0.0780
    5TCq1    C9   76   2.375   0.713  12.524  0.4196  0.2694 -0.0634
    5TCq1    O5   77   2.300   0.798  12.468  0.3567 -0.2120  0.2550
    5TCq1    O6   78   2.419   0.726  12.643 -0.3424  1.3219  0.0681
    5TCq1    H1   79   2.537   0.361  12.613  3.0044  1.0067  2.4006
    5TCq1    H2   80   2.538   0.526  12.586 -1.6018 -0.1072  1.2988
    5TCq1    H3   81   2.264   0.646  12.295 -0.1901  0.4250  1.1333
    5TCq1    H4   82   2.485   0.290  12.238  1.0618  1.2851 -0.3445
    6MPD2     C   83   1.942   0.551  12.090  0.3775 -0.7464  0.7318
    6MPD2    C1   84   2.052   0.474  12.055 -0.1889  0.2942 -0.1726
    6MPD2    C2   85   2.062   0.421  11.928  0.0476 -1.0114 -0.2437
    6MPD2    C3   86   1.957   0.424  11.839  0.5882  0.0683 -1.2479
    6MPD2    C4   87   1.851   0.503  11.863 -0.1907 -0.3933  0.0831
    6MPD2    C5   88   1.842   0.565  11.988  0.0191 -0.5093  0.0720
    6MPD2     H   89   2.152   0.366  11.904  0.4765 -0.2744 -0.3376
    6MPD2    H1   90   1.770   0.522  11.794  1.0833  0.9427 -1.0539
    6MPD2    H2   91   1.920   0.606  12.181 -1.4521  1.6734 -1.1523
    6MPD2    H3   92   1.759   0.629  12.017  0.5093 -1.2621  3.2283
    6MPD2     N   93   1.971   0.359  11.712 -0.3897 -0.1893 -0.0169
    6MPD2    H5   94   2.054   0.301  11.704 -0.0922  0.1533  0.6220
    6MPD2    N1   95   2.158   0.481  12.147 -0.2685 -0.3317 -0.3883
    6MPD2    H7   96   2.136   0.538  12.228 -1.0997  0.5198 -1.2171
    7TCq1    O1   97   3.826   0.490  13.113 -0.4216 -0.1624  0.0318
    7TCq1    C1   98   3.875   0.422  13.221 -0.3835 -0.4284  0.0051
    7TCq1    O2   99   3.888   0.466  13.333 -0.1113 -0.0180 -0.3365
    7TCq1    C2  100   3.946   0.298  13.174  0.0302 -0.2694  0.4000
    7TCq1    C3  101   3.911   0.224  13.064  0.2327 -0.1287 -0.2692
    7TCq1    C4  102   3.973   0.103  13.044 -1.1877 -0.2842 -0.3607
    7TCq1    C5  103   4.080   0.066  13.120 -0.3966 -0.5037 -0.3782
    7TCq1    C6  104   4.112   0.143  13.230  0.0817  0.6504 -0.0575
    7TCq1    C7  105   4.049   0.258  13.255  0.6052  0.3934 -0.1861
    7TCq1    C8  106   4.208   0.080  13.323  0.0155 -0.5823  0.2957
    7TCq1    O4  107   4.279   4.711  13.279 -0.1357  0.4667 -0.1537
    7TCq1    C9  108   3.942   0.032  12.927  0.8213 -0.2726  0.2241
    7TCq1    O5  109   4.011   4.650  12.904 -0.4913 -0.4150 -0.0516
    7TCq1    O6  110   3.842   0.057  12.860  0.1059  0.2613  0.0181
    7TCq1    H1  111   3.867   0.464  13.028 -1.2072 -1.4122  0.0311
    7TCq1    H2  112   3.836   0.253  12.992 -0.1784  0.0930  0.2496
    7TCq1    H3  113   4.121   4.697  13.080  0.4103 -0.7516  1.0043
    7TCq1    H4  114   4.093   0.324  13.330  0.1121 -0.4797  0.8677
    8MPD2     C  115   4.467   0.040  13.761 -0.1316  0.2790  0.4996
    8MPD2    C1  116   4.490   4.697  13.641 -0.3707  0.0854  0.0732
    8MPD2    C2  117   4.411   0.012  13.537  0.8682 -0.0284  0.2461
    8MPD2    C3  118   4.312   0.109  13.553  0.1600  0.3541 -0.6888
    8MPD2    C4  119   4.304   0.179  13.674  0.1847 -0.2178 -0.3536
    8MPD2    C5  120   4.381   0.141  13.783  0.0511  0.1345 -0.0447
    8MPD2     H  121   4.428   4.680  13.445  0.3448  1.8724 -0.9840
    8MPD2    H1  122   4.225   0.250  13.696 -0.6201 -0.8258 -1.2910
    8MPD2    H2  123   4.517   0.006  13.851 -0.1783  0.1547  0.4777
    8MPD2    H3  124   4.367   0.199  13.873  0.5382 -2.0671  1.4482
    8MPD2     N  125   4.214   0.135  13.452 -0.5998 -0.2569 -0.0216
    8MPD2    H5  126   4.152   0.211  13.477  0.0453 -0.5343  2.4350
    8MPD2    N1  127   4.589   4.589  13.636  0.4427 -0.2333 -0.3133
    8MPD2    H7  128   4.635   4.567  13.723 -0.8277  1.2395  0.7172
    9TCq1    O1  129   1.475   3.417  10.518  0.4095 -0.0027 -0.9362
    9TCq1    C1  130   1.557   3.410  10.624  0.4737 -0.2702 -0.4206
    9TCq1    O2  131   1.519   3.398  10.736  0.6399 -0.2394  0.2359
    9TCq1    C2  132   1.685   3.475  10.599  0.0835 -0.6805  0.2486
    9TCq1    C3  133   1.724   3.516  10.471 -0.3843 -0.2010 -0.8811
    9TCq1    C4  134   1.858   3.563  10.463 -0.2491 -0.1800 -1.0375
    9TCq1    C5  135   1.942   3.563  10.570  0.4701  0.2865 -0.3116
    9TCq1    C6  136   1.894   3.526  10.695  0.1357  0.4734 -0.3257
    9TCq1    C7  137   1.763   3.482  10.709 -1.1430 -0.2823 -0.8720
    9TCq1    C8  138   1.972   3.551  10.812 -0.0971 -0.7126  0.5378
    9TCq1    O4  139   2.079   3.603  10.792  0.8442 -0.2207 -0.2651
    9TCq1    C9  140   1.906   3.591  10.326 -0.4083 -0.4101 -0.4029
    9TCq1    O5  141   2.020   3.544  10.295 -0.4774 -0.0430 -0.0383
    9TCq1    O6  142   1.812   3.606  10.242  0.8512 -0.5529  0.3133
    9TCq1    H1  143   1.509   3.426  10.426  3.4700  1.7833  0.3652
    9TCq1    H2  144   1.673   3.506  10.376  0.7395 -1.2974 -1.3663
    9TCq1    H3  145   2.047   3.579  10.548  0.7092 -1.2655 -0.2952
    9TCq1    H4  146   1.714   3.469  10.804 -3.3908 -0.2396 -2.0436
   10MPD2     C  147   2.020   3.694  11.064  0.1585 -0.1745  0.4076
   10MPD2    C1  148   1.940   3.581  11.055 -0.1624  0.6669 -0.3457
   10MPD2    C2  149   1.886   3.523  11.169  0.2287  0.1686  0.2569
   10MPD2    C3  150   1.919   3.580  11.293 -0.1595  0.0537 -0.0722
   10MPD2    C4  151   1.995   3.698  11.296  0.3444 -0.1516 -0.0110
   10MPD2    C5  152   2.037   3.749  11.186 -0.0441 -0.4120  0.2644
   10MPD2     H  153   1.815   3.441  11.165  0.4017  0.1139 -1.5116
   10MPD2    H1  154   2.009   3.753  11.388 -0.1118  1.2373 -0.7799
   10MPD2    H2  155   2.054   3.753  10.980  0.5805 -2.0770 -0.7593
   10MPD2    H3  156   2.092   3.843  11.187  0.2082 -0.5499 -0.7264
   10MPD2     N  157   1.870   3.538  11.420 -0.7603  0.6377 -0.0740
   10MPD2    H5  158   1.891   3.603  11.496  1.1749 -0.1412  0.0573
   10MPD2    N1  159   1.914   3.518  10.929 -0.0856 -0.7772 -0.5541
   10MPD2    H7  160   1.847   3.441  10.933  0.3865 -1.1947 -0.6946
   11TCq1    O1  161   3.142   3.592  14.181  0.7462 -0.5336 -0.6426
   11TCq1    C1  162   3.028   3.524  14.182 -0.2404 -0.1562  0.6660
   11TCq1    O2  163   3.002   3.413  14.131 -0.3765 -0.4755 -0.4469
   11TCq1    C2  164   2.946   3.593  14.280  0.2980  0.1176  0.7208
   11TCq1    C3  165   2.997   3.717  14.329 -0.1073 -0.6421  0.1549
   11TCq1    C4  166   2.954   3.760  14.447 -0.6236 -0.4032  0.4336
   11TCq1    C5  167   2.865   3.695  14.526 -0.7509 -0.2250  0.5804
   11TCq1    C6  168   2.804   3.580  14.472 -0.2269  0.3214  0.2054
   11TCq1    C7  169   2.850   3.529  14.356 -0.4589  0.2744  0.0325
   11TCq1    C8  170   2.672   3.546  14.526 -1.0239 -0.3924 -0.1256
   11TCq1    O4  171   2.646   3.588  14.637  0.1778 -0.2652 -0.2631
   11TCq1    C9  172   3.022   3.879  14.498 -0.2775  0.3001 -0.5208
   11TCq1    O5  173   3.031   3.890  14.619 -0.7607 -0.2266 -0.2393
   11TCq1    O6  174   3.101   3.938  14.412 -0.5338 -0.2255 -0.2010
   11TCq1    H1  175   3.166   3.673  14.231 -1.5235 -0.6114  0.5716
   11TCq1    H2  176   3.058   3.781  14.267  0.2217 -1.7101 -0.6207
   11TCq1    H3  177   2.844   3.727  14.628  0.8685  0.9522  0.5328
   11TCq1    H4  178   2.822   3.431  14.321  1.0522 -0.2302  0.2822
   12MPD2     C  179   2.393   3.453  14.543  0.2351 -0.6434  0.3377
   12MPD2    C1  180   2.463   3.443  14.428  0.5017  0.5836 -0.4717
   12MPD2    C2  181   2.407   3.386  14.315  0.4873  0.2628  0.3360
   12MPD2    C3  182   2.278   3.335  14.314 -0.3042  0.4565 -0.0813
   12MPD2    C4  183   2.211   3.358  14.427 -0.1315 -0.7784  0.1767
   12MPD2    C5  184   2.262   3.405  14.546 -0.5411 -0.3580 -0.1083
   12MPD2     H  185   2.462   3.366  14.223 -0.8429 -0.8886 -0.1945
   12MPD2    H1  186   2.121   3.301  14.450  1.1050 -2.5541  0.6119
   12MPD2    H2  187   2.440   3.471  14.639 -0.8278 -0.9931  0.9181
   12MPD2    H3  188   2.197   3.408  14.634  0.3758  0.6635  0.5384
   12MPD2     N  189   2.220   3.278  14.196 -0.8572 -0.1869 -0.1410
   12MPD2    H5  190   2.277   3.272  14.112  1.0231  0.3980  1.1194
   12MPD2    N1  191   2.598   3.488  14.424 -0.3493 -0.2626  0.1835
   12MPD2    H7  192   2.642   3.491  14.332 -0.9575  1.2878 -0.0606
   13TCq1    O1  193   2.154   3.350  10.383  0.2189 -0.2358 -0.5857
   13TCq1    C1  194   2.102   3.250  10.441  0.7663 -0.0587 -0.3883
   13TCq1    O2  195   2.169   3.177  10.517  0.1413 -0.2913  0.1781
   13TCq1    C2  196   1.956   3.258  10.444 -0.8129 -0.6822 -0.6161
   13TCq1    C3  197   1.898   3.266  10.320 -0.1694  0.0812 -0.1971
   13TCq1    C4  198   1.773   3.223  10.315 -0.3109 -0.2753  0.0809
   13TCq1    C5  199   1.702   3.158  10.419  0.0893  0.1334  1.0406
   13TCq1    C6  200   1.767   3.145  10.535  0.2050  0.3798  1.0667
   13TCq1    C7  201   1.889   3.198  10.547  0.3737  0.4085 -0.0483
   13TCq1    C8  202   1.707   3.084  10.660  0.2161  0.0475  0.4608
   13TCq1    O4  203   1.754   3.124  10.768 -0.0118  0.6234 -0.1936
   13TCq1    C9  204   1.696   3.219  10.189 -0.2845  0.0788  0.6598
   13TCq1    O5  205   1.645   3.105  10.163 -0.0649  0.2550  0.2455
   13TCq1    O6  206   1.723   3.306  10.105  0.5689  0.7296  0.0120
   13TCq1    H1  207   2.082   3.414  10.362  0.0802 -0.1723  0.0936
   13TCq1    H2  208   1.945   3.322  10.240 -0.3010  1.0713  0.4163
   13TCq1    H3  209   1.602   3.127  10.391  0.1512  0.6909  0.1988
   13TCq1    H4  210   1.947   3.184  10.638 -0.9048  1.4287  0.9177
   14MPD2     C  211   1.411   2.869  10.690 -0.3275  0.9985  0.1860
   14MPD2    C1  212   1.500   2.969  10.732 -0.0382 -0.1123  0.0937
   14MPD2    C2  213   1.484   3.024  10.862  1.0055  0.8152 -0.1026
   14MPD2    C3  214   1.391   2.967  10.944 -0.2794  0.0209  0.4212
   14MPD2    C4  215   1.306   2.872  10.899 -0.3023  0.0089 -0.1572
   14MPD2    C5  216   1.317   2.818  10.771 -0.3690 -1.2520  0.5327
   14MPD2     H  217   1.532   3.116  10.893  0.2475  1.1394  0.1132
   14MPD2    H1  218   1.234   2.824  10.965  0.7942  0.2627  1.2239
   14MPD2    H2  219   1.424   2.833  10.589  0.4100  2.8539 -0.3784
   14MPD2    H3  220   1.253   2.740  10.733  0.1535 -2.2298  1.6623
   14MPD2     N  221   1.376   3.014  11.075  0.0247  0.0543 -1.1068
   14MPD2    H5  222   1.440   3.089  11.099  0.3709 -0.2433 -1.1074
   14MPD2    N1  223   1.596   3.013  10.637 -0.0344  0.2409  0.0027
   14MPD2    H7  224   1.581   2.974  10.544 -2.3488  2.8002 -0.7130
   15TCq1    O1  225   3.409   1.930   1.418  0.8633  0.0188  0.3799
   15TCq1    C1  226   3.362   1.805   1.393  0.8599 -0.3560  0.2732
   15TCq1    O2  227   3.242   1.769   1.386 -0.4244  0.0034 -0.3568
   15TCq1    C2  228   3.468   1.707   1.385  0.5749  0.9346 -0.7778
   15TCq1    C3  229   3.561   1.698   1.487  0.1880  0.4444  0.1668
   15TCq1    C4  230   3.644   1.593   1.494 -0.4956  0.0087 -1.1524
   15TCq1    C5  231   3.649   1.501   1.396 -0.3556  0.3506  0.0018
   15TCq1    C6  232   3.564   1.506   1.287 -0.3187 -0.1306  0.6326
   15TCq1    C7  233   3.473   1.612   1.282 -0.3189  0.6536 -0.1179
   15TCq1    C8  234   3.573   1.403   1.180 -0.6090  0.4700 -0.4245
   15TCq1    O4  235   3.619   1.299   1.213  0.0696  0.1133  0.0740
   15TCq1    C9  236   3.730   1.581   1.607 -0.0773 -0.3792 -0.5590
   15TCq1    O5  237   3.763   1.689   1.664 -0.3053 -0.3179  0.5949
   15TCq1    O6  238   3.786   1.469   1.628  0.1974  0.1519 -0.0563
   15TCq1    H1  239   3.507   1.933   1.416  0.9413 -0.6450  3.7686
   15TCq1    H2  240   3.570   1.775   1.563 -1.1333 -1.1551  1.9414
   15TCq1    H3  241   3.730   1.429   1.396 -1.9869 -1.5036 -0.9862
   15TCq1    H4  242   3.385   1.604   1.218 -0.4693 -2.1768  0.4684
   16MPD2     C  243   3.483   1.441   0.816 -0.2894 -0.1873 -0.5254
   16MPD2    C1  244   3.545   1.385   0.927 -0.4229 -0.1908  0.4274
   16MPD2    C2  245   3.603   1.260   0.918 -0.0861  0.2014  0.1810
   16MPD2    C3  246   3.594   1.191   0.796 -0.4162 -0.4007 -0.2101
   16MPD2    C4  247   3.545   1.252   0.687 -0.0359 -0.2728  0.0383
   16MPD2    C5  248   3.495   1.378   0.692 -0.2617 -0.6120 -0.2765
   16MPD2     H  249   3.647   1.210   1.004 -0.6226 -1.2709 -0.4094
   16MPD2    H1  250   3.527   1.210   0.589 -0.5412  0.0575 -0.0131
   16MPD2    H2  251   3.423   1.531   0.827  0.0761  0.2336 -2.0168
   16MPD2    H3  252   3.452   1.418   0.602  0.3847  2.0389  0.6019
   16MPD2     N  253   3.636   1.058   0.788  0.0027  0.0658  0.1658
   16MPD2    H5  254   3.703   1.033   0.860  0.8984  2.4012  0.1314
   16MPD2    N1  255   3.521   1.448   1.055 -0.0540  0.2578 -0.7139
   16MPD2    H7  256   3.471   1.536   1.053 -0.2009  0.2621  3.7254
   17TCq1    O1  257   1.264   2.030  11.425 -0.1335  0.1873 -0.2918
   17TCq1    C1  258   1.343   1.985  11.328  0.0854  0.0922 -0.0923
   17TCq1    O2  259   1.361   1.865  11.304  0.0747 -0.2146 -0.0095
   17TCq1    C2  260   1.465   2.061  11.336 -0.2154  1.2899 -0.3818
   17TCq1    C3  261   1.453   2.191  11.302 -0.2682  0.0595 -0.5806
   17TCq1    C4  262   1.568   2.256  11.276 -0.4449 -0.2948 -0.5531
   17TCq1    C5  263   1.684   2.196  11.267 -0.2519  0.0516  0.2028
   17TCq1    C6  264   1.693   2.065  11.284 -0.0419 -0.4141 -1.1150
   17TCq1    C7  265   1.582   1.995  11.321  0.3709  0.6131  0.2759
   17TCq1    C8  266   1.817   1.983  11.276 -0.9065  0.2174  0.5954
   17TCq1    O4  267   1.806   1.860  11.295 -0.4128  0.5353 -0.5817
   17TCq1    C9  268   1.559   2.399  11.238  0.3449  0.4279  1.0264
   17TCq1    O5  269   1.460   2.463  11.278 -0.3896  0.1738  0.2554
   17TCq1    O6  270   1.648   2.431  11.155 -0.1622 -0.0172  0.1200
   17TCq1    H1  271   1.290   2.124  11.439  1.8052 -0.5322  0.8829
   17TCq1    H2  272   1.355   2.235  11.285 -0.7389 -0.2559  1.2923
   17TCq1    H3  273   1.774   2.253  11.249  1.2032 -2.4949 -0.6265
   17TCq1    H4  274   1.582   1.889  11.345 -0.8977  0.4547 -0.4180
   18MPD2     C  275   2.080   1.868  11.197  0.2788 -0.0202  0.6978
   18MPD2    C1  276   2.039   1.998  11.172 -0.5861 -0.0667 -0.8526
   18MPD2    C2  277   2.120   2.083  11.099 -0.5600 -0.2771 -0.1659
   18MPD2    C3  278   2.233   2.033  11.037 -0.4319 -0.0459 -0.0199
   18MPD2    C4  279   2.262   1.902  11.056 -0.1205  0.0317  0.0162
   18MPD2    C5  280   2.189   1.816  11.134 -0.4127  0.3018 -0.3197
   18MPD2     H  281   2.091   2.186  11.083 -1.1152 -0.2746  0.8537
   18MPD2    H1  282   2.351   1.857  11.015  0.2599 -1.0583  2.0152
   18MPD2    H2  283   2.036   1.802  11.271 -2.1757  0.4879 -0.3014
   18MPD2    H3  284   2.216   1.712  11.151  1.2146  0.3140 -2.7542
   18MPD2     N  285   2.313   2.096  10.944 -0.0457  0.0682 -0.1558
   18MPD2    H5  286   2.389   2.043  10.902  0.1053 -0.6968  1.0748
   18MPD2    N1  287   1.920   2.055  11.225 -0.4555 -0.0261 -0.1014
   18MPD2    H7  288   1.902   2.154  11.226  2.2115  0.4351  0.7297
   19TMC2    C1  289   3.762   3.074  13.781  0.3121  0.0138  0.2332
   19TMC2    C2  290   3.815   3.030  13.659 -0.2684  0.5054  0.2766
   19TMC2    C3  291   3.752   2.934  13.588  0.4895  0.3301 -0.2793
   19TMC2    C4  292   3.643   3.023  13.829  0.7911  0.2160  0.0017
   19TMC2    C5  293   3.580   2.925  13.755  0.0551  0.1828  0.6000
   19TMC2    C6  294   3.632   2.888  13.638  0.5726  1.2147 -0.1713
   19TMC2     C  295   3.850   3.151  13.877  0.0781  0.8898 -0.2092
   19TMC2     O  296   3.942   3.217  13.831 -0.3580 -0.3318 -0.2736
   19TMC2     H  297   3.915   3.057  13.626  0.2404 -2.4850 -0.7252
   19TMC2    H1  298   3.601   3.064  13.921  1.2867  0.9093 -0.0871
   19TMC2    H2  299   3.577   2.824  13.569 -0.3212 -0.4159  2.0713
   19TMC2    C7  300   3.453   2.870  13.798  0.4153 -0.1212  0.4410
   19TMC2    C8  301   3.819   2.858  13.487  0.0595  0.0252 -0.2952
   19TMC2    O1  302   3.404   2.775  13.744  0.1442 -0.0110 -0.2537
   19TMC2    O2  303   3.866   2.750  13.510 -0.2356 -0.1141  0.4909
   19TMC2    O5  304   3.754   2.895  13.375 -0.0736 -0.0242 -0.3809
   19TMC2    H5  305   3.716   2.985  13.388 -1.0323 -0.2338 -1.6343
   20MPD2     C  306   3.950   3.296  14.127  0.2795  0.5801  0.8175
   20MPD2    C1  307   3.904   3.164  14.125  0.1224 -0.3149 -0.2256
   20MPD2    C2  308   3.922   3.086  14.240  0.2977  0.2291 -0.5416
   20MPD2    C3  309   3.985   3.139  14.350  0.6229  0.2241  0.0122
   20MPD2    C4  310   4.038   3.268  14.344 -1.2636  0.3115 -0.5434
   20MPD2    C5  311   4.018   3.349  14.231 -0.1692  0.5396  0.4183
   20MPD2     H  312   3.899   2.980  14.241 -0.2203  0.3708  1.6983
   20MPD2    H1  313   4.082   3.316  14.431  0.2487 -0.7543 -0.7217
   20MPD2    H2  314   3.933   3.355  14.038  2.0431  1.3207  0.9755
   20MPD2    H3  315   4.064   3.446  14.220 -0.7117  0.4538 -2.4960
   20MPD2     N  316   4.026   3.066  14.464 -0.2296 -0.4053  0.0229
   20MPD2    H5  317   4.066   3.118  14.542 -1.1670 -0.3260  0.4466
   20MPD2    N1  318   3.830   3.111  14.011 -0.5804 -0.3768 -0.1879
   20MPD2    H7  319   3.754   3.045  14.025  0.6000 -1.0426  3.1495
   21MPD2     C  320   1.276   3.915  14.325 -0.0135 -0.4206 -0.5754
   21MPD2    C1  321   1.317   3.781  14.344  0.6625 -0.5796 -0.0126
   21MPD2    C2  322   1.244   3.704  14.427 -0.1403 -0.1068 -0.1182
   21MPD2    C3  323   1.142   3.757  14.505  0.2797  0.3292 -0.3012
   21MPD2    C4  324   1.104   3.887  14.483 -0.2623  0.7626 -0.0346
   21MPD2    C5  325   1.177   3.972  14.402 -0.0987  0.1739  0.0276
   21MPD2     H  326   1.274   3.600  14.429  0.9760  0.2352  0.8449
   21MPD2    H1  327   1.025   3.932  14.541 -1.1949 -2.8206  1.4815
   21MPD2    H2  328   1.332   3.981  14.260  1.2341  0.7297  1.6588
   21MPD2    H3  329   1.156   4.078  14.390 -1.4503 -0.0577  0.3695
   21MPD2     N  330   1.082   3.678  14.606  0.0738  0.1030 -0.0255
   21MPD2    H5  331   1.005   3.723  14.654  1.7736  1.2221  1.6563
   21MPD2    N1  332   1.427   3.728  14.279 -0.0778  0.0248 -0.6394
   21MPD2    H7  333   1.431   3.627  14.273  1.9579 -0.0635  2.4026
   22TCq2    C1  334   1.135   3.553  14.648  0.3520 -0.3283  0.2768
   22TCq2    O2  335   1.231   3.493  14.609 -0.2390  0.3869  0.1286
   22TCq2    C2  336   1.062   3.505  14.765 -0.6027 -0.0141  1.1245
   22TCq2    C3  337   1.117   3.423  14.858  0.8937  0.0241  0.3226
   22TCq2    C4  338   1.058   3.404  14.979  0.3509 -0.4804  0.0151
   22TCq2    C5  339   0.939   3.457  15.013 -0.0046 -0.2483 -0.3751
   22TCq2    C6  340   0.874   3.528  14.920  0.2618 -1.2163 -0.4214
   22TCq2    C7  341   0.935   3.560  14.795 -0.5128  0.4210 -0.6896
   22TCq2    C8  342   0.743   3.579  14.957 -0.0302  0.8653  0.2143
   22TCq2    O4  343   0.698   3.549  15.067  0.1335 -0.4976 -0.4232
   22TCq2    C9  344   1.137   3.358  15.088 -0.0099  0.3688  0.5768
   22TCq2    O5  345   1.225   3.272  15.058 -0.6587 -0.1346 -0.4478
   22TCq2    O6  346   1.103   3.393  15.207  0.0707 -0.3832  0.5277
   22TCq2    H2  347   1.223   3.402  14.854  1.1993  1.3281  1.2306
   22TCq2    H3  348   0.901   3.429  15.111 -2.1895 -2.6767 -1.9315
   22TCq2    H4  349   0.884   3.630  14.729 -2.7931  0.1980  0.8056
   23MPD2     C  350   2.912   4.556  14.568 -0.1749  0.2166  1.0079
   23MPD2    C1  351   2.808   4.612  14.646  0.3490  0.8352  0.4924
   23MPD2    C2  352   2.754   0.016  14.615  0.2366 -0.0949  0.6805
   23MPD2    C3  353   2.799   0.086  14.502 -0.0414  0.7271  0.0822
   23MPD2    C4  354   2.892   0.023  14.421 -0.2528 -0.1387 -0.3129
   23MPD2    C5  355   2.955   4.628  14.457 -0.4116  1.0583  0.2298
   23MPD2     H  356   2.689   0.068  14.684  0.0885 -1.8144  1.8441
   23MPD2    H1  357   2.931   0.069  14.331 -1.4112  0.5850 -0.4571
   23MPD2    H2  358   2.948   4.456  14.590  3.6250  1.4351  0.3556
   23MPD2    H3  359   3.030   4.578  14.398  0.0636  1.4979  0.4632
   23MPD2     N  360   2.746   0.211  14.465 -0.0433 -0.5632 -0.4315
   23MPD2    H5  361   2.755   0.232  14.366  2.2568 -0.6291 -0.2439
   23MPD2    N1  362   2.758   4.550  14.767  0.1217 -0.3283  0.4699
   23MPD2    H7  363   2.687   4.601  14.819 -0.3870 -0.9509  0.3850
   24TCq2    C1  364   2.671   0.292  14.552 -0.6487 -0.0407 -0.2617
   24TCq2    O2  365   2.681   0.299  14.672 -0.1235 -0.2845 -0.2288
   24TCq2    C2  366   2.586   0.381  14.483 -0.0248  0.1448  0.2510
   24TCq2    C3  367   2.547   0.336  14.357  0.0941  0.1827 -0.5177
   24TCq2    C4  368   2.416   0.351  14.319  0.2669  0.3969  1.4762
   24TCq2    C5  369   2.324   0.393  14.409  0.1529  0.5191 -0.7141
   24TCq2    C6  370   2.362   0.438  14.535 -0.2295  0.8136  0.4292
   24TCq2    C7  371   2.495   0.439  14.574  0.1284  0.6470  0.0576
   24TCq2    C8  372   2.284   0.366  14.640 -0.5776  0.6162 -0.4260
   24TCq2    O4  373   2.337   0.327  14.743  0.3147  0.8650  0.3163
   24TCq2    C9  374   2.374   0.340  14.186 -0.5091 -0.0931  0.1905
   24TCq2    O5  375   2.460   0.301  14.100 -0.2304 -0.0184 -0.7715
   24TCq2    O6  376   2.252   0.355  14.162 -0.1929  0.2217  0.9675
   24TCq2    H2  377   2.618   0.304  14.281  0.6579 -1.5508  0.7211
   24TCq2    H3  378   2.221   0.383  14.375  0.4641 -0.7541 -1.2650
   24TCq2    H4  379   2.521   0.475  14.673 -0.0172 -0.9024  0.6652
   25TMC2    C1  380   1.458   2.231  11.778  0.4906  0.4303 -0.5141
   25TMC2    C2  381   1.477   2.366  11.768 -1.3290  0.2997 -0.6583
   25TMC2    C3  382   1.367   2.444  11.796 -0.7017  0.4751 -0.9102
   25TMC2    C4  383   1.346   2.167  11.829  0.7888  0.2786 -0.0007
   25TMC2    C5  384   1.243   2.248  11.855 -0.3161 -0.3995 -0.8016
   25TMC2    C6  385   1.255   2.384  11.840 -0.7543 -0.1757 -0.7071
   25TMC2     C  386   1.564   2.156  11.713 -0.0947 -0.0507  0.2482
   25TMC2     O  387   1.674   2.211  11.695  0.4078 -0.1251  0.0515
   25TMC2     H  388   1.562   2.403  11.712 -1.8604  1.9477 -0.3895
   25TMC2    H1  389   1.353   2.063  11.855 -4.2645  0.4212  1.7973
   25TMC2    H2  390   1.171   2.447  11.867 -0.0091  0.6010 -0.2169
   25TMC2    C7  391   1.128   2.194  11.925 -0.6775  1.0150 -0.3613
   25TMC2    C8  392   1.358   2.579  11.736 -0.1223 -0.1260  0.5518
   25TMC2    O1  393   1.053   2.268  11.988 -0.0414 -0.2548 -0.0190
   25TMC2    O2  394   1.449   2.631  11.674 -0.5442 -1.0022 -0.2731
   25TMC2    O5  395   1.226   2.618  11.730 -0.3300  0.2075 -0.0965
   25TMC2    H5  396   1.215   2.704  11.684 -1.9647  0.8507  1.4997
   26MPD2     C  397   1.784   1.704  11.592  0.8403 -0.3786 -0.4276
   26MPD2    C1  398   1.653   1.680  11.637 -0.1845  0.0562 -0.4806
   26MPD2    C2  399   1.573   1.789  11.668 -0.0355  0.1798 -0.3441
   26MPD2    C3  400   1.627   1.917  11.684 -0.0091 -0.1985  0.0238
   26MPD2    C4  401   1.752   1.929  11.637  0.2724 -0.4688  0.3622
   26MPD2    C5  402   1.824   1.827  11.590 -0.3921 -0.1072 -0.1730
   26MPD2     H  403   1.468   1.769  11.685 -0.3941 -0.3169 -3.1640
   26MPD2    H1  404   1.796   2.026  11.619  2.0983 -1.3897 -0.1722
   26MPD2    H2  405   1.851   1.626  11.559  0.7805 -1.0457  1.0456
   26MPD2    H3  406   1.925   1.843  11.555  0.0414  0.6598  1.4478
   26MPD2     N  407   1.545   2.023  11.721  0.0811  0.2440  0.2323
   26MPD2    H5  408   1.452   1.998  11.750  1.2908 -0.4224  3.5042
   26MPD2    N1  409   1.612   1.546  11.635  0.2468 -0.3189 -0.2813
   26MPD2    H7  410   1.686   1.482  11.608  0.9741  0.9114 -1.2183
   27TMC2    C1  411   4.683   3.307  11.916  0.3870 -0.5531  0.0036
   27TMC2    C2  412   4.712   3.214  11.818 -0.8170 -0.2277 -0.3805
   27TMC2    C3  413   4.679   3.244  11.692 -0.7490  0.1638  0.2128
   27TMC2    C4  414   4.607   3.420  11.889  1.2532  0.7245  0.3871
   27TMC2    C5  415   4.577   3.441  11.751  0.0161 -0.4644 -0.5391
   27TMC2    C6  416   4.600   3.348  11.662  0.2335  0.2439 -0.0828
   27TMC2     C  417   0.017   3.284  12.049 -0.6165  0.3909 -0.2869
   27TMC2     O  418   0.065   3.171  12.066 -0.8140 -0.1063  0.2738
   27TMC2     H  419   0.033   3.120  11.850  0.5865  0.3095 -0.7148
   27TMC2    H1  420   4.560   3.487  11.960  1.5315 -0.0558  1.3070
   27TMC2    H2  421   4.561   3.361  11.562 -0.6738  2.1924  0.5219
   27TMC2    C7  422   4.485   3.551  11.730 -0.1077 -0.1481  0.1895
   27TMC2    C8  423   4.719   3.157  11.585 -0.3276  0.2541 -0.3219
   27TMC2    O1  424   4.408   3.550  11.631  0.1845 -0.0839 -0.7837
   27TMC2    O2  425   4.679   3.167  11.469 -0.3503 -0.0352  0.0946
   27TMC2    O5  426   0.116   3.110  11.622  0.2827  0.2732 -0.2920
   27TMC2    H5  427   0.138   3.125  11.717  2.2148  0.4752 -0.7802
   28MPD2     C  428   0.060   3.350  12.559 -0.2680 -1.1001 -0.0299
   28MPD2    C1  429   0.005   3.463  12.503 -0.4349 -0.6158 -0.5671
   28MPD2    C2  430   4.717   3.480  12.362  0.2158 -0.2271  0.2799
   28MPD2    C3  431   0.023   3.371  12.283 -0.0030 -1.6302 -0.2151
   28MPD2    C4  432   0.084   3.262  12.342  0.3941  0.7074  0.2455
   28MPD2    C5  433   0.103   3.251  12.477  0.2308  0.2565  0.2234
   28MPD2     H  434   4.669   3.568  12.320  0.6941 -0.4932 -0.8296
   28MPD2    H1  435   0.101   3.170  12.288 -0.8919  0.9482 -0.5436
   28MPD2    H2  436   0.051   3.341  12.667  1.0600  2.9891  0.4329
   28MPD2    H3  437   0.127   3.163  12.536 -1.5252 -0.3384  0.0373
   28MPD2     N  438   4.714   3.383  12.145  0.5009  0.5273  0.8865
   28MPD2    H5  439   4.681   3.475  12.119  0.1642  0.0815 -0.2359
   28MPD2    N1  440   4.669   3.547  12.597  0.3181  0.2000  0.0270
   28MPD2    H7  441   4.669   3.517  12.694  1.6091 -0.5498 -0.1971
   29MPD2     C  442   4.037   1.509  14.423 -0.1078  0.0506  0.4162
   29MPD2    C1  443   4.161   1.512  14.477  0.1752  0.2887  0.8243
   29MPD2    C2  444   4.198   1.628  14.538  0.8405  0.9815 -0.0970
   29MPD2    C3  445   4.111   1.729  14.553  0.4304  0.1372  0.0106
   29MPD2    C4  446   3.992   1.731  14.495  0.2200 -0.2959  0.4670
   29MPD2    C5  447   3.955   1.619  14.432 -0.2790 -0.2949  0.5731
   29MPD2     H  448   4.300   1.623  14.575  0.2820 -5.0013  0.6294
   29MPD2    H1  449   3.921   1.813  14.504 -1.0739 -1.3484 -0.0586
   29MPD2    H2  450   4.001   1.429  14.359  0.0822  0.8853 -0.7426
   29MPD2    H3  451   3.858   1.622  14.384  0.5358 -0.8155 -1.0665
   29MPD2     N  452   4.137   1.840  14.633 -0.5451  0.2552  0.3022
   29MPD2    H5  453   4.078   1.922  14.642  0.0935  0.7206  0.2326
   29MPD2    N1  454   4.251   1.408  14.471  0.3274 -0.4693 -0.3825
   29MPD2    H7  455   4.347   1.427  14.498 -0.1869 -0.4990  1.4924
   30TCq2    C1  456   4.254   1.857  14.705  0.3808  0.0286  0.4997
   30TCq2    O2  457   4.353   1.790  14.720 -0.2053  0.1485 -0.2289
   30TCq2    C2  458   4.273   1.996  14.743  0.5579  0.3236 -0.0326
   30TCq2    C3  459   4.193   2.041  14.844 -0.0425  0.2091  0.1244
   30TCq2    C4  460   4.246   2.143  14.921 -0.0140  0.5217 -0.1109
   30TCq2    C5  461   4.376   2.179  14.913  1.1413 -0.0334  0.1193
   30TCq2    C6  462   4.448   2.133  14.811  0.0125  0.2181 -0.7557
   30TCq2    C7  463   4.401   2.043  14.724  0.2057  0.0942  0.5234
   30TCq2    C8  464   4.583   2.164  14.794 -0.1919 -0.8620  0.7074
   30TCq2    O4  465   4.642   2.102  14.703 -0.3686  0.0033  0.5942
   30TCq2    C9  466   4.165   2.195  15.033  0.3030  0.1618  0.9072
   30TCq2    O5  467   4.220   2.274  15.112  0.5859  0.4094  0.4065
   30TCq2    O6  468   4.048   2.152  15.041 -0.9217 -0.1900  0.4328
   30TCq2    H2  469   4.094   2.001  14.863  0.0360  0.7968  1.7720
   30TCq2    H3  470   4.419   2.240  14.992 -1.2064  2.4031 -0.4979
   30TCq2    H4  471   4.462   2.003  14.644 -1.4011  1.1576 -1.2152
   31MPD2     C  472   2.355   0.842  14.611  0.8776  0.7515  0.0671
   31MPD2    C1  473   2.237   0.901  14.591 -0.9902  0.1201  0.5819
   31MPD2    C2  474   2.145   0.908  14.694 -0.2116 -0.4561 -0.1769
   31MPD2    C3  475   2.175   0.861  14.821 -0.4013  0.0317 -0.0552
   31MPD2    C4  476   2.287   0.786  14.841  0.2475  0.1137  0.2136
   31MPD2    C5  477   2.376   0.777  14.736 -0.1256  0.0935 -0.6602
   31MPD2     H  478   2.046   0.947  14.672  0.6549  1.6361 -0.4279
   31MPD2    H1  479   2.309   0.737  14.935 -0.6517  3.2467  2.0514
   31MPD2    H2  480   2.436   0.841  14.539  1.6323  0.4138  0.9282
   31MPD2    H3  481   2.463   0.715  14.755 -0.0117  0.3063 -0.4953
   31MPD2     N  482   2.083   0.863  14.936 -0.1079 -0.0987 -0.7140
   31MPD2    H5  483   2.119   0.809  15.015 -0.1579 -0.6039 -1.0386
   31MPD2    N1  484   2.225   0.957  14.457 -0.4078 -0.4211 -0.2656
   31MPD2    H7  485   2.307   0.939  14.401 -0.3738 -0.0887 -0.3227
   32TCq2    C1  486   1.949   0.890  14.935  0.5358  0.0800 -0.5398
   32TCq2    O2  487   1.883   0.957  14.851 -0.5352 -0.2886  0.2947
   32TCq2    C2  488   1.868   0.831  15.045  0.6659 -0.0431  0.0645
   32TCq2    C3  489   1.732   0.862  15.059  0.1326  0.2576 -0.7037
   32TCq2    C4  490   1.652   0.795  15.148  0.9280 -0.2725  0.1583
   32TCq2    C5  491   1.704   0.705  15.232 -1.1777 -0.4537 -0.1419
   32TCq2    C6  492   1.836   0.679  15.220  0.0821  0.2317 -0.0602
   32TCq2    C7  493   1.925   0.741  15.131  1.2356  0.5571 -0.3570
   32TCq2    C8  494   1.900   0.581  15.306 -0.4866 -0.2410 -0.0760
   32TCq2    O4  495   2.025   0.580  15.312 -0.1884 -0.0805 -0.0273
   32TCq2    C9  496   1.511   0.824  15.167  0.4757  0.2804 -0.3565
   32TCq2    O5  497   1.442   0.755  15.248  0.8837 -0.1187  0.1254
   32TCq2    O6  498   1.463   0.929  15.112 -0.1951 -0.2767  0.3616
   32TCq2    H2  499   1.684   0.929  14.988 -1.7192  0.4669  0.7384
   32TCq2    H3  500   1.631   0.654  15.293 -0.8194 -1.2573 -0.3826
   32TCq2    H4  501   2.030   0.714  15.126  0.5208 -2.0210 -1.5652
   33MPD2     C  502   2.738   2.776  10.444 -0.5654 -0.9836 -0.4763
   33MPD2    C1  503   2.600   2.727  10.454  0.0502  0.4329  0.0566
   33MPD2    C2  504   2.505   2.790  10.374 -0.5110  0.0884 -0.6233
   33MPD2    C3  505   2.541   2.903  10.302 -0.2967  0.0382  0.5990
   33MPD2    C4  506   2.670   2.945  10.291 -0.3796  0.9449 -0.3170
   33MPD2    C5  507   2.768   2.882  10.366  0.2408  1.0921 -0.3247
   33MPD2     H  508   2.405   2.748  10.375  0.8090 -3.0754 -3.4336
   33MPD2    H1  509   2.709   3.021  10.225  0.3701  1.1345  0.3406
   33MPD2    H2  510   2.817   2.735  10.506  0.1628  0.3526 -0.5333
   33MPD2    H3  511   2.873   2.910  10.361 -0.1827  2.7489 -0.0571
   33MPD2     N  512   2.448   2.980  10.239  0.2590 -0.3252  0.0921
   33MPD2    H5  513   2.485   3.051  10.176 -0.3519 -3.8982 -4.3304
   33MPD2    N1  514   2.576   2.620  10.544 -0.2707 -0.1610  0.2401
   33MPD2    H7  515   2.660   2.591  10.594  0.5203  1.9416  0.0988
   34TCq2    C1  516   2.309   2.970  10.246 -1.0300 -0.3765 -0.2711
   34TCq2    O2  517   2.241   2.886  10.302  0.3038  0.0783 -0.3401
   34TCq2    C2  518   2.234   3.073  10.168 -0.1791 -0.0040 -0.3647
   34TCq2    C3  519   2.114   3.039  10.115 -0.4050  0.2092 -0.3182
   34TCq2    C4  520   2.070   3.115  10.012 -0.4787 -0.3981 -0.3513
   34TCq2    C5  521   2.136   3.217   9.959  0.1808  0.4759  0.5175
   34TCq2    C6  522   2.261   3.250  10.011 -0.4833  0.0113 -0.4117
   34TCq2    C7  523   2.314   3.171  10.107 -0.2478 -0.0784  0.4162
   34TCq2    C8  524   2.349   3.363   9.967 -0.2278  0.3461 -0.3107
   34TCq2    O4  525   2.468   3.363  10.006  0.1091  0.2109  0.4283
   34TCq2    C9  526   1.944   3.079   9.947  0.5725 -0.0902 -0.3987
   34TCq2    O5  527   1.881   3.175   9.898  0.4836  0.2783 -0.1906
   34TCq2    O6  528   1.894   2.967   9.976 -0.6831 -0.1567 -0.0026
   34TCq2    H2  529   2.058   2.955  10.153  1.0240  0.3153  2.0390
   34TCq2    H3  530   2.106   3.262   9.865 -2.9880 -1.9548  0.3567
   34TCq2    H4  531   2.398   3.212  10.163 -1.4008  0.3451  1.8614
   35MPD2     C  532   3.700   4.106  11.915 -0.2431  0.1422  0.7347
   35MPD2    C1  533   3.676   3.989  11.976  0.3334  0.8823 -0.6487
   35MPD2    C2  534   3.546   3.933  11.967  0.5173 -0.6020 -0.0475
   35MPD2    C3  535   3.449   3.998  11.893 -0.2630  0.1392  0.2262
   35MPD2    C4  536   3.479   4.114  11.824 -0.1703 -0.3279 -0.3476
   35MPD2    C5  537   3.607   4.164  11.833  0.1466 -0.2250 -0.2144
   35MPD2     H  538   3.517   3.835  12.004 -0.5830 -0.1265  0.3558
   35MPD2    H1  539   3.408   4.153  11.752  0.5284 -1.6832 -1.7843
   35MPD2    H2  540   3.799   4.146  11.934  0.8060 -2.3297  0.3898
   35MPD2    H3  541   3.646   4.251  11.781 -2.3397  0.7236 -0.4949
   35MPD2     N  542   3.331   3.927  11.866  0.3430  0.3680  0.3382
   35MPD2    H5  543   3.329   3.827  11.881  1.0830  0.3302  0.1795
   35MPD2    N1  544   3.778   3.937  12.064 -0.6700 -0.7720  0.7807
   35MPD2    H7  545   3.859   3.998  12.074 -0.2048 -1.3463  0.5062
   36TCq2    C1  546   3.219   3.989  11.824  0.2628  0.3021  0.0762
   36TCq2    O2  547   3.190   4.106  11.810 -0.2525  0.0773  0.6684
   36TCq2    C2  548   3.118   3.889  11.792 -0.4878  0.2267  0.2869
   36TCq2    C3  549   2.990   3.944  11.800 -0.4671 -0.4841  0.4332
   36TCq2    C4  550   2.892   3.858  11.780 -0.1604  0.1161  0.4033
   36TCq2    C5  551   2.911   3.729  11.731  0.1677 -0.1380  0.2784
   36TCq2    C6  552   3.041   3.677  11.724 -0.0749 -0.7958 -0.7306
   36TCq2    C7  553   3.147   3.762  11.750  1.6512  0.8007  0.7289
   36TCq2    C8  554   3.059   3.539  11.710 -0.2735 -0.3445 -0.3921
   36TCq2    O4  555   2.985   3.487  11.622 -0.1881 -0.0563 -0.2297
   36TCq2    C9  556   2.759   3.911  11.785  0.2699 -0.5552  0.9362
   36TCq2    O5  557   2.744   4.024  11.831 -0.1059  0.1103 -0.1258
   36TCq2    O6  558   2.658   3.840  11.754 -0.2191 -0.6309  0.3015
   36TCq2    H2  559   2.963   4.043  11.836  0.4601 -0.3170  0.6813
   36TCq2    H3  560   2.828   3.663  11.710 -0.8201  1.7590 -1.7645
   36TCq2    H4  561   3.253   3.738  11.743  1.2378 -0.5389 -0.9663
   37TMC2    C1  562   0.924   4.217  11.628  0.3355  0.7959 -0.2152
   37TMC2    C2  563   0.852   4.125  11.556  0.3180 -0.3739  0.2183
   37TMC2    C3  564   0.917   4.041  11.472 -0.0965 -0.9798  1.0265
   37TMC2    C4  565   1.060   4.230  11.604 -0.4755  0.6364 -0.3073
   37TMC2    C5  566   1.114   4.144  11.508 -0.2126 -0.2122  0.1056
   37TMC2    C6  567   1.048   4.047  11.439 -0.1040 -0.3552 -0.0227
   37TMC2     C  568   0.872   4.255  11.755 -0.5782 -1.2029  0.3665
   37TMC2     O  569   0.750   4.254  11.775  0.6461 -0.2044 -0.2434
   37TMC2     H  570   0.745   4.110  11.571  0.2713  0.2813  0.5390
   37TMC2    H1  571   1.118   4.308  11.652 -0.2143 -0.2724  0.8711
   37TMC2    H2  572   1.085   3.984  11.359  2.4284  0.4876  0.4885
   37TMC2    C7  573   1.255   4.155  11.497  0.0827 -0.0662 -0.2839
   37TMC2    C8  574   0.844   3.922  11.424 -1.0087 -0.1683 -0.4306
   37TMC2    O1  575   1.320   4.248  11.544  0.1242 -0.9030  0.1686
   37TMC2    O2  576   0.868   3.865  11.322  0.1314 -0.2981 -0.4640
   37TMC2    O5  577   0.780   3.858  11.525 -1.0289 -0.4926  0.2806
   37TMC2    H5  578   0.787   3.909  11.609  1.3664 -1.6415  0.7830
   38MPD2     C  579   0.910   4.382  12.256 -0.1753 -0.0919 -0.4029
   38MPD2    C1  580   1.018   4.302  12.212 -1.3239 -0.4270  0.3614
   38MPD2    C2  581   1.047   4.288  12.079 -0.0571 -0.4927 -0.2646
   38MPD2    C3  582   0.951   4.326  11.983 -0.2436  0.5439  0.9922
   38MPD2    C4  583   0.835   4.387  12.025  0.0460  0.2384  0.1361
   38MPD2    C5  584   0.819   4.417  12.159  0.0615  0.2568  0.9737
   38MPD2     H  585   1.135   4.233  12.048  0.6829 -1.0594  2.8678
   38MPD2    H1  586   0.766   4.426  11.951 -1.2900 -0.6399  0.9219
   38MPD2    H2  587   0.887   4.383  12.362  2.4442 -0.4580  0.1781
   38MPD2    H3  588   0.727   4.473  12.174 -1.6115 -2.3859  0.5570
   38MPD2     N  589   0.973   4.283  11.846 -0.4520  0.1474 -0.1568
   38MPD2    H5  590   1.055   4.227  11.823 -0.2442 -0.4719  2.0519
   38MPD2    N1  591   1.113   4.233  12.296  0.1741  0.3475 -0.2510
   38MPD2    H7  592   1.184   4.185  12.242 -0.3744 -1.0513  0.2823
   39MPD2     C  593   3.738   0.489   0.998 -0.2875 -0.6870  0.0914
   39MPD2    C1  594   3.792   0.606   1.042 -0.0197  0.2677 -0.9281
   39MPD2    C2  595   3.703   0.707   1.052 -0.3237  0.1945 -1.4094
   39MPD2    C3  596   3.571   0.689   1.032  0.0073  0.0639  0.3554
   39MPD2    C4  597   3.519   0.568   0.988 -0.2077 -0.1508  0.1160
   39MPD2    C5  598   3.607   0.472   0.959  0.1309 -0.3964 -0.3305
   39MPD2     H  599   3.742   0.803   1.084 -1.5130  0.3112 -0.3240
   39MPD2    H1  600   3.415   0.559   0.960  0.2425 -2.8707 -0.7267
   39MPD2    H2  601   3.805   0.404   0.984  1.0695  0.8541 -2.6644
   39MPD2    H3  602   3.576   0.381   0.909 -1.2413 -1.0276  1.6833
   39MPD2     N  603   3.479   0.798   1.039 -0.6558  0.1614  1.0092
   39MPD2    H5  604   3.390   0.786   0.990  0.8048  1.2471 -1.9482
   39MPD2    N1  605   3.930   0.619   1.090 -0.1256  0.2619 -0.1023
   39MPD2    H7  606   3.984   0.534   1.090 -0.9031 -0.2342 -0.0546
   40TCq2    C1  607   3.998   0.731   1.115 -0.4103 -1.3480  0.0484
   40TCq2    O2  608   3.971   0.850   1.104  0.5001  0.3513  0.6388
   40TCq2    C2  609   4.132   0.702   1.160 -0.7152 -0.3103 -0.4336
   40TCq2    C3  610   4.168   0.571   1.189  0.5949  0.4062  0.1929
   40TCq2    C4  611   4.301   0.559   1.230  0.3673  1.1122 -0.1522
   40TCq2    C5  612   4.388   0.664   1.245 -0.3676  0.5953  0.4138
   40TCq2    C6  613   4.344   0.787   1.221 -0.2606 -0.1505 -0.0497
   40TCq2    C7  614   4.210   0.813   1.185  0.2521  0.1432  0.3871
   40TCq2    C8  615   4.441   0.897   1.230  0.3152 -0.1215 -1.6408
   40TCq2    O4  616   4.556   0.861   1.219  0.2068 -0.2618 -0.4026
   40TCq2    C9  617   4.352   0.423   1.247 -0.3607 -0.4273  0.5828
   40TCq2    O5  618   4.268   0.331   1.238  0.4463 -0.4520 -0.1588
   40TCq2    O6  619   4.473   0.412   1.257 -0.0394  0.0280 -0.0625
   40TCq2    H2  620   4.105   0.483   1.186 -0.2315  0.9628  0.9793
   40TCq2    H3  621   4.491   0.646   1.273  0.4117 -0.7511 -3.3416
   40TCq2    H4  622   4.175   0.914   1.165  0.7843  0.1339 -0.5947
   41TMC2    C1  623   3.419   4.485  13.328 -0.2699 -0.0793  0.0314
   41TMC2    C2  624   3.385   4.613  13.364  0.0672 -0.2240  0.3872
   41TMC2    C3  625   3.288   4.670  13.291 -0.2593  1.0173  0.2679
   41TMC2    C4  626   3.369   4.424  13.212 -0.4703 -0.5947  0.1224
   41TMC2    C5  627   3.279   4.495  13.137  0.0296  0.1320 -0.5684
   41TMC2    C6  628   3.229   4.617  13.177  0.1190 -0.3440 -1.0538
   41TMC2     C  629   3.516   4.428  13.414  0.5534 -0.4080  0.4347
   41TMC2     O  630   3.599   4.354  13.361 -0.1768 -0.1132 -0.2175
   41TMC2     H  631   3.425   4.668  13.449 -1.9570  1.0061  0.5548
   41TMC2    H1  632   3.404   4.325  13.187  0.5845  0.3434 -2.1069
   41TMC2    H2  633   3.156   4.673  13.120 -0.4152  0.3328  0.3152
   41TMC2    C7  634   3.238   4.459  13.004  0.5216 -0.3829 -0.0445
   41TMC2    C8  635   3.271   0.086  13.307  0.3497  0.5074 -0.4306
   41TMC2    O1  636   3.129   4.501  12.968  0.0458  0.5752 -0.4861
   41TMC2    O2  637   3.165   0.134  13.349 -0.2548  0.8056  0.3057
   41TMC2    O5  638   3.330   0.128  13.187 -0.2563  0.1244 -0.0449
   41TMC2    H5  639   3.406   0.071  13.161 -1.1639 -0.5462 -1.2233
   42MPD2     C  640   3.705   4.373  13.642 -0.2012 -0.0569 -0.3646
   42MPD2    C1  641   3.579   4.434  13.652 -0.1578  0.3573  0.3767
   42MPD2    C2  642   3.525   4.459  13.770  0.6261 -0.1144  0.7791
   42MPD2    C3  643   3.595   4.424  13.882 -0.1683 -0.1389  0.1372
   42MPD2    C4  644   3.725   4.379  13.878  0.1401  0.7415 -0.5470
   42MPD2    C5  645   3.777   4.352  13.756  0.1219 -0.3683  0.6129
   42MPD2     H  646   3.424   4.498  13.771 -0.1722 -2.2486  2.2243
   42MPD2    H1  647   3.787   4.359  13.965 -1.5753 -0.2904  0.4308
   42MPD2    H2  648   3.739   4.344  13.543  1.3746 -3.7142  1.2283
   42MPD2    H3  649   3.881   4.323  13.746 -0.2655 -1.3984 -0.4994
   42MPD2     N  650   3.540   4.440  14.015 -0.1398  0.8613  0.0122
   42MPD2    H5  651   3.598   4.408  14.091 -1.9881 -2.1211  0.1419
   42MPD2    N1  652   3.493   4.460  13.543 -0.5067 -0.6362 -0.2442
   42MPD2    H7  653   3.405   4.505  13.565 -0.0586  0.7874 -1.4364
   43MPD2     C  654   4.130   2.745   0.827 -0.7594  0.1890 -0.4592
   43MPD2    C1  655   4.238   2.736   0.747  0.7514  0.2558 -0.9366
   43MPD2    C2  656   4.333   2.835   0.746 -0.3947 -0.2042 -0.1244
   43MPD2    C3  657   4.308   2.955   0.800 -0.4942 -0.5644 -0.0071
   43MPD2    C4  658   4.188   2.979   0.867  0.7585 -0.6214 -0.7538
   43MPD2    C5  659   4.096   2.873   0.871 -0.4476  0.4106  0.1346
   43MPD2     H  660   4.418   2.824   0.679  0.7647 -0.5169  1.3884
   43MPD2    H1  661   4.166   3.073   0.916  1.4884 -2.4224  2.9966
   43MPD2    H2  662   4.043   2.680   0.829  0.1919 -1.0010  1.8341
   43MPD2    H3  663   3.990   2.874   0.895 -0.4747 -0.3398  0.0629
   43MPD2     N  664   4.399   3.069   0.786 -0.0957 -0.5622  0.4640
   43MPD2    H5  665   4.368   3.160   0.818 -3.2416 -1.7956  0.8816
   43MPD2    N1  666   4.267   2.620   0.672  0.0856 -0.0650  0.0216
   43MPD2    H7  667   4.354   2.637   0.624 -0.1916  0.8575 -0.1596
   44TCq2    C1  668   0.155   3.273   0.974 -0.8696  0.7247  0.5340
   44TCq2    O2  669   0.214   3.165   0.990  0.0777 -0.3768 -0.1611
   44TCq2    C2  670   0.064   3.283   0.860 -0.1637 -0.7574  0.4833
   44TCq2    C3  671   0.006   3.402   0.832  0.1815  0.4738  0.8275
   44TCq2    C4  672   4.606   3.408   0.770  0.0609  0.5669 -0.3164
   44TCq2    C5  673   4.546   3.291   0.726  0.6922  0.4358 -1.3349
   44TCq2    C6  674   4.608   3.172   0.759 -0.1917 -0.2514 -0.0642
   44TCq2    C7  675   0.014   3.166   0.817  0.0134 -0.0342  0.1061
   44TCq2    C8  676   4.533   3.047   0.759 -0.0655  1.4759  0.8102
   44TCq2    O4  677   4.593   2.941   0.737 -0.1496 -0.8595 -0.2249
   44TCq2    C9  678   4.529   3.529   0.740  0.6941 -0.2638 -0.1012
   44TCq2    O5  679   4.453   3.534   0.643  0.5653  0.8138  0.5614
   44TCq2    O6  680   4.577   3.630   0.802 -0.4322 -0.3217  0.2550
   44TCq2    H2  681   0.057   3.495   0.856  0.7858  0.3189  0.1425
   44TCq2    H3  682   4.445   3.301   0.687  0.3468 -0.3578 -0.6399
   44TCq2    H4  683   0.059   3.071   0.841 -1.9834 -0.5961  1.6142
   45TMC2    C1  684   0.954   4.515   9.914  0.6178  0.3222 -0.4730
   45TMC2    C2  685   0.964   4.555   9.782  0.6585 -0.2323 -0.3747
   45TMC2    C3  686   1.037   4.661   9.757  0.6377 -0.6088  0.2727
   45TMC2    C4  687   1.030   4.570  10.023 -0.3694 -0.0965 -0.4662
   45TMC2    C5  688   1.108   4.676   9.989  0.1188 -0.4098  0.2298
   45TMC2    C6  689   1.110   4.720   9.855 -0.5714 -0.2660  0.1534
   45TMC2     C  690   0.871   4.400   9.946 -0.6043 -0.0637  0.1465
   45TMC2     O  691   0.912   4.344  10.050 -0.3878 -0.3223 -1.1111
   45TMC2     H  692   0.886   4.528   9.712  0.4404 -1.2505  0.2502
   45TMC2    H1  693   1.022   4.527  10.122 -2.5187 -3.6729 -2.1982
   45TMC2    H2  694   1.181   0.075   9.828 -1.4929  0.7056  0.5469
   45TMC2    C7  695   1.196   0.004  10.097  0.3766 -0.2461  0.3656
   45TMC2    C8  696   1.038   4.701   9.618 -0.6649  0.0401 -0.1186
   45TMC2    O1  697   1.174   4.687  10.209 -0.0638 -0.0251 -0.4823
   45TMC2    O2  698   0.997   4.628   9.528 -0.6055  0.0344  0.1164
   45TMC2    O5  699   1.085   0.107   9.596  0.3539  0.1770 -0.3766
   45TMC2    H5  700   1.091   0.176   9.665 -0.7806  1.3896 -1.4886
   46MPD2     C  701   0.745   4.132   9.907  0.0746  0.5210  0.7363
   46MPD2    C1  702   0.703   4.248   9.846  0.9454 -0.0593  0.0587
   46MPD2    C2  703   0.597   4.248   9.766 -0.3376  0.6856 -0.0602
   46MPD2    C3  704   0.518   4.133   9.751  0.0300  0.4094  0.4659
   46MPD2    C4  705   0.551   4.021   9.825 -0.3265 -0.7193 -0.3671
   46MPD2    C5  706   0.674   4.023   9.889 -0.3192  0.6305  0.0984
   46MPD2     H  707   0.568   4.338   9.712  0.5173  0.9224 -0.1218
   46MPD2    H1  708   0.503   3.924   9.816 -1.6593 -0.1319  0.4508
   46MPD2    H2  709   0.841   4.131   9.959  0.7403 -0.0657 -0.5116
   46MPD2    H3  710   0.701   3.928   9.935  0.7207  1.2763  0.8118
   46MPD2     N  711   0.406   4.152   9.669  0.4875 -0.2010 -0.0161
   46MPD2    H5  712   0.407   4.242   9.624  1.9028 -0.1423  0.1155
   46MPD2    N1  713   0.773   4.371   9.854  0.0426 -0.2309 -0.1991
   46MPD2    H7  714   0.747   4.441   9.785  0.9903  1.2063  0.9085
   47TMC2    C1  715   3.024   4.645   9.629 -0.0249 -0.7810 -0.0936
   47TMC2    C2  716   3.031   4.581   9.507  0.4214 -0.1154 -0.3831
   47TMC2    C3  717   2.923   4.525   9.459 -0.2200 -0.0588  0.0197
   47TMC2    C4  718   2.908   4.642   9.704 -0.1775 -0.3065  0.0630
   47TMC2    C5  719   2.804   4.558   9.658  0.2786  0.0020 -0.3156
   47TMC2    C6  720   2.806   4.511   9.534 -0.3652 -0.1635  0.1780
   47TMC2     C  721   3.144   4.699   9.683 -0.2315  0.0053 -0.7311
   47TMC2     O  722   3.126   0.036   9.788  0.3836 -0.3800  0.4715
   47TMC2     H  723   3.111   4.587   9.435  1.5870  0.6495  0.9624
   47TMC2    H1  724   2.903   4.696   9.797  1.8522  2.4098 -1.4018
   47TMC2    H2  725   2.731   4.441   9.498  0.9029 -1.7986  0.7572
   47TMC2    C7  726   2.681   4.632   9.695 -0.5479  0.3247  0.3322
   47TMC2    C8  727   2.943   4.446   9.333 -0.0775  0.7071 -0.1005
   47TMC2    O1  728   2.694   0.029   9.707  0.0701  0.1669 -0.0153
   47TMC2    O2  729   3.052   4.415   9.284 -0.0505 -0.3119 -0.3445
   47TMC2    O5  730   2.828   4.437   9.264 -0.0663  0.0757  0.2658
   47TMC2    H5  731   2.762   4.499   9.302 -0.3606  0.5392 -0.9732
   48MPD2     C  732   3.437   0.037   9.744  0.0328 -0.1462 -0.4257
   48MPD2    C1  733   3.390   4.652   9.669  0.5128  0.3486 -0.0057
   48MPD2    C2  734   3.473   4.559   9.618 -0.5338  0.6093  0.1563
   48MPD2    C3  735   3.611   4.577   9.621  0.2928 -0.6009  0.4421
   48MPD2    C4  736   3.662   4.687   9.687 -0.4031 -0.1850 -0.2501
   48MPD2    C5  737   3.575   0.044   9.758 -0.0050  0.8863  0.0079
   48MPD2     H  738   3.429   4.472   9.572  0.8505 -0.5858  1.0751
   48MPD2    H1  739   3.770   4.697   9.697 -0.2579 -2.1468  0.0715
   48MPD2    H2  740   3.379   0.110   9.799 -0.1781 -0.6796  0.0511
   48MPD2    H3  741   3.605   0.120   9.829  1.4142  0.1485  0.2001
   48MPD2     N  742   3.693   4.478   9.568  0.0939  1.0021  0.4149
   48MPD2    H5  743   3.638   4.406   9.522  1.1362 -0.6466  1.7634
   48MPD2    N1  744   3.249   4.624   9.645 -0.6554  0.0884 -0.2723
   48MPD2    H7  745   3.229   4.547   9.583  0.5712  0.0162 -0.5685
   49MPD2     C  746   1.833   2.330  10.076  0.4738  0.7117 -0.2310
   49MPD2    C1  747   1.728   2.264  10.135 -0.0000  0.1898  0.1102
   49MPD2    C2  748   1.688   2.297  10.262 -0.4075 -0.1735 -0.2439
   49MPD2    C3  749   1.754   2.391  10.336 -0.0204  0.2227  0.1416
   49MPD2    C4  750   1.859   2.460  10.280 -0.1670 -0.0373  0.0464
   49MPD2    C5  751   1.902   2.425  10.154 -0.2361  0.3064  0.1008
   49MPD2     H  752   1.605   2.234  10.294  1.9787 -3.0847  0.2699
   49MPD2    H1  753   1.919   2.529  10.339 -0.7005  0.7494 -0.3521
   49MPD2    H2  754   1.866   2.323   9.973  2.3681  0.9695  0.3473
   49MPD2    H3  755   1.981   2.482  10.106  0.0308  0.3894  0.6401
   49MPD2     N  756   1.723   2.421  10.471 -0.5337  0.0886  0.8977
   49MPD2    H5  757   1.770   2.498  10.518 -1.0026  1.3809 -0.7792
   49MPD2    N1  758   1.634   2.182  10.068  0.3538 -0.2998 -0.6114
   49MPD2    H7  759   1.555   2.148  10.121 -0.0740  0.2179 -0.9189
   50TCq2    C1  760   1.645   2.160   9.931 -0.1522  0.2616 -0.1522
   50TCq2    O2  761   1.734   2.187   9.857 -0.7045  0.3458  0.5153
   50TCq2    C2  762   1.527   2.094   9.885 -0.4423  0.7286 -0.2388
   50TCq2    C3  763   1.554   2.006   9.789  0.8377 -0.3351 -0.0766
   50TCq2    C4  764   1.457   1.917   9.753 -0.0205  0.4690  0.5816
   50TCq2    C5  765   1.338   1.925   9.812 -0.0595 -0.2293 -0.9660
   50TCq2    C6  766   1.310   2.021   9.907 -0.2677 -0.3176 -0.6358
   50TCq2    C7  767   1.413   2.094   9.956 -0.2543  0.1412  0.1204
   50TCq2    C8  768   1.187   2.021   9.983 -0.6344 -0.2850  0.3948
   50TCq2    O4  769   1.185   2.100  10.076  0.0115  0.6827  0.1659
   50TCq2    C9  770   1.486   1.824   9.646 -0.5930 -0.2979  0.2611
   50TCq2    O5  771   1.404   1.733   9.627  0.5177  0.6679 -0.5536
   50TCq2    O6  772   1.585   1.853   9.572  0.0178 -0.0140 -0.7508
   50TCq2    H2  773   1.657   2.001   9.754  0.9758 -0.2320  0.3114
   50TCq2    H3  774   1.255   1.868   9.773  0.7595  1.0023 -4.4924
   50TCq2    H4  775   1.392   2.174  10.027  0.1823  1.1428 -0.8686
   51MPD2     C  776   1.255   1.542   1.175 -0.0792  0.4573  0.3686
   51MPD2    C1  777   1.352   1.485   1.257 -0.0768 -0.1259 -0.0445
   51MPD2    C2  778   1.376   1.539   1.378 -0.5027  0.0835  0.3799
   51MPD2    C3  779   1.311   1.656   1.418 -0.1484 -0.3273  0.0299
   51MPD2    C4  780   1.229   1.722   1.324  0.7711  0.2758 -0.0429
   51MPD2    C5  781   1.204   1.667   1.206 -0.3162  0.3366 -0.0628
   51MPD2     H  782   1.447   1.488   1.442 -3.5362 -0.5932  3.2129
   51MPD2    H1  783   1.177   1.813   1.349 -0.6844 -0.3213 -0.8754
   51MPD2    H2  784   1.257   1.521   1.068 -1.5723  1.4708  0.1302
   51MPD2    H3  785   1.134   1.712   1.138  2.0510  2.0225 -1.3895
   51MPD2     N  786   1.336   1.726   1.541  0.2495  0.2475  0.4685
   51MPD2    H5  787   1.279   1.808   1.556  0.9629  0.9263 -0.5821
   51MPD2    N1  788   1.426   1.370   1.228 -0.1389  0.0613 -0.1865
   51MPD2    H7  789   1.483   1.333   1.304  1.4574 -2.2784 -2.5148
   52TCq2    C1  790   1.416   1.684   1.648  0.4552  0.0299  0.6886
   52TCq2    O2  791   1.478   1.577   1.649  0.7186  0.3591 -0.2961
   52TCq2    C2  792   1.395   1.756   1.772  0.0025 -0.4169  0.7744
   52TCq2    C3  793   1.421   1.682   1.888 -0.0980 -0.4743 -0.2454
   52TCq2    C4  794   1.409   1.752   2.004  0.2018  0.4644 -0.0895
   52TCq2    C5  795   1.391   1.888   2.013  0.4186 -0.3588  0.7812
   52TCq2    C6  796   1.371   1.954   1.891  0.5534 -0.4600  0.3543
   52TCq2    C7  797   1.375   1.888   1.772  0.0819 -0.2514 -0.4371
   52TCq2    C8  798   1.388   2.095   1.878  0.5880 -0.1094 -0.1857
   52TCq2    O4  799   1.458   2.140   1.793  0.4860 -0.2887 -0.1639
   52TCq2    C9  800   1.436   1.679   2.124 -0.8092  1.3569  0.2906
   52TCq2    O5  801   1.415   1.739   2.235 -0.7928 -0.5445 -0.5474
   52TCq2    O6  802   1.487   1.565   2.114  0.0247 -0.5625  0.0543
   52TCq2    H2  803   1.455   1.579   1.890  1.4680  0.0854  1.7969
   52TCq2    H3  804   1.405   1.936   2.109  0.4460  1.9618 -0.3774
   52TCq2    H4  805   1.361   1.944   1.680  1.9261  2.4177  0.9254
   53TMC2    C1  806   1.994   4.236  11.497  0.0729  0.0122 -0.1709
   53TMC2    C2  807   2.127   4.215  11.482 -0.3554  0.0118  0.0650
   53TMC2    C3  808   2.212   4.298  11.546  0.4275  0.4348 -0.2877
   53TMC2    C4  809   1.947   4.349  11.566 -0.0607 -0.1688 -0.5668
   53TMC2    C5  810   2.040   4.425  11.629  0.0773 -0.4802  0.0472
   53TMC2    C6  811   2.178   4.400  11.622  0.2907 -0.1961 -0.0396
   53TMC2     C  812   1.897   4.150  11.416 -0.5169  0.8906 -0.1773
   53TMC2     O  813   1.946   4.090  11.324 -0.4550  0.4936  0.6918
   53TMC2     H  814   2.166   4.130  11.427 -1.5948  0.0007 -0.7981
   53TMC2    H1  815   1.846   4.382  11.544  0.5156  2.3709  0.6582
   53TMC2    H2  816   2.250   4.460  11.677  0.0632 -0.0398  0.0918
   53TMC2    C7  817   1.990   4.537  11.701 -0.4747  0.3487 -0.4538
   53TMC2    C8  818   2.354   4.282  11.521 -0.2162  0.0736 -0.1554
   53TMC2    O1  819   2.068   4.626  11.727 -0.2294 -0.3639 -0.2788
   53TMC2    O2  820   2.427   4.256  11.613 -0.2598  0.1900 -0.5331
   53TMC2    O5  821   2.371   4.226  11.399  0.7489 -0.5826 -0.6168
   53TMC2    H5  822   2.312   4.274  11.338 -0.3146  0.7399  1.4752
   54MPD2     C  823   1.696   3.952  11.326  0.0534  0.0285  0.3586
   54MPD2    C1  824   1.672   4.063  11.408 -0.2793 -0.3050  0.1392
   54MPD2    C2  825   1.545   4.099  11.439  0.2238  0.0086 -0.9426
   54MPD2    C3  826   1.439   4.016  11.400 -0.0353  0.7544  0.2690
   54MPD2    C4  827   1.464   3.903  11.332 -0.3561 -0.2725  0.2394
   54MPD2    C5  828   1.591   3.872  11.290  0.0032 -0.4728  0.2079
   54MPD2     H  829   1.529   4.181  11.508  0.7542 -0.2220 -0.5491
   54MPD2    H1  830   1.384   3.837  11.298  1.4411 -2.1578 -0.3002
   54MPD2    H2  831   1.791   3.905  11.303 -0.2238 -1.7418  2.8154
   54MPD2    H3  832   1.596   3.777  11.238 -1.0182 -0.1065 -0.5580
   54MPD2     N  833   1.302   4.040  11.441 -0.4547 -0.2358  0.1904
   54MPD2    H5  834   1.234   3.968  11.419 -0.0960 -0.5258  0.0361
   54MPD2    N1  835   1.769   4.141  11.461 -0.0924 -0.2661  0.4848
   54MPD2    H7  836   1.749   4.213  11.530  1.3106  3.3703 -2.9142
   55MPD2     C  837   2.863   2.401   0.310  0.1078  0.0817  0.3519
   55MPD2    C1  838   2.837   2.385   0.443  0.0379  0.4489  0.1293
   55MPD2    C2  839   2.726   2.444   0.498 -0.1535  0.3777  0.1673
   55MPD2    C3  840   2.664   2.547   0.422  0.4785 -0.2068 -0.3318
   55MPD2    C4  841   2.707   2.573   0.291  0.1441  0.3218  0.5970
   55MPD2    C5  842   2.810   2.504   0.235  0.7083 -0.4536 -0.5921
   55MPD2     H  843   2.682   2.421   0.594 -0.1543 -1.3226 -0.2402
   55MPD2    H1  844   2.653   2.643   0.228 -1.3637 -0.7408  0.6936
   55MPD2    H2  845   2.942   2.342   0.265  1.6529  1.7854  0.8061
   55MPD2    H3  846   2.839   2.515   0.131 -1.5744 -1.9839 -1.3804
   55MPD2     N  847   2.546   2.608   0.479 -0.1155  0.6800 -0.4477
   55MPD2    H5  848   2.522   2.583   0.575  0.8943 -0.9582 -0.6106
   55MPD2    N1  849   2.910   2.283   0.508  0.1266  0.4085 -0.0022
   55MPD2    H7  850   2.986   2.238   0.457  0.3564 -0.6735  1.3111
   56TCq2    C1  851   2.884   2.238   0.638  0.0151  0.0644 -0.6757
   56TCq2    O2  852   2.816   2.279   0.733 -0.0565  0.4104  0.5311
   56TCq2    C2  853   2.978   2.138   0.674  0.0382 -0.1037  0.0073
   56TCq2    C3  854   3.084   2.099   0.586  0.4876  1.0986  0.3131
   56TCq2    C4  855   3.176   2.008   0.629 -0.4905  0.9226  0.5037
   56TCq2    C5  856   3.168   1.952   0.754  0.3309  0.2350 -0.2709
   56TCq2    C6  857   3.066   1.988   0.839 -0.5211  0.0446  0.0899
   56TCq2    C7  858   2.966   2.078   0.802  0.2042 -0.3515 -0.0930
   56TCq2    C8  859   3.061   1.916   0.963 -0.2970  0.7337  0.4135
   56TCq2    O4  860   3.129   1.813   0.968  0.3286  0.0169  0.2746
   56TCq2    C9  861   3.285   1.976   0.546 -0.0748  0.2636  0.7336
   56TCq2    O5  862   3.270   2.001   0.423  0.0827  0.3255  0.2440
   56TCq2    O6  863   3.394   1.962   0.608 -0.1658  0.0123 -0.5006
   56TCq2    H2  864   3.103   2.142   0.489 -0.3670 -1.1564 -0.8529
   56TCq2    H3  865   3.242   1.875   0.775  0.1197 -0.0082 -0.4158
   56TCq2    H4  866   2.886   2.110   0.868  0.3960  2.2269 -1.0942
   57TMC2    C1  867   1.265   3.325  13.700 -0.4644 -0.4501 -0.7605
   57TMC2    C2  868   1.398   3.339  13.743 -0.0205  0.3110 -0.1438
   57TMC2    C3  869   1.502   3.324  13.653  0.6889  0.8488  0.6949
   57TMC2    C4  870   1.228   3.308  13.566 -0.6557 -0.0914 -0.2906
   57TMC2    C5  871   1.333   3.289  13.481  0.4005  0.4995  1.1788
   57TMC2    C6  872   1.465   3.300  13.513 -0.1765 -0.0630 -0.1329
   57TMC2     C  873   1.176   3.273  13.804  0.0678 -0.1035 -0.2378
   57TMC2     O  874   1.214   3.280  13.919  0.0022 -0.1305  0.3476
   57TMC2     H  875   1.413   3.342  13.850 -0.2594  1.3656 -0.1444
   57TMC2    H1  876   1.125   3.307  13.532 -0.6794 -0.0174 -0.2192
   57TMC2    H2  877   1.543   3.311  13.439 -1.4412 -1.9972 -1.7553
   57TMC2    C7  878   1.300   3.243  13.351 -0.7243  0.0344  0.3272
   57TMC2    C8  879   1.630   3.391  13.671 -0.4948  0.1223  0.4742
   57TMC2    O1  880   1.179   3.265  13.324  0.7932 -0.3181 -0.3673
   57TMC2    O2  881   1.667   3.467  13.581  0.0072 -0.0801 -0.2888
   57TMC2    O5  882   1.634   3.430  13.803 -0.1047  0.2244 -0.4767
   57TMC2    H5  883   1.611   3.350  13.854 -0.3461  1.4221  1.2743
   58MPD2     C  884   0.709   3.110  13.949  0.2625 -0.2858 -0.2322
   58MPD2    C1  885   0.802   3.184  14.016 -0.2303  0.1681 -0.8772
   58MPD2    C2  886   0.924   3.205  13.954  0.2059 -0.5149  0.0369
   58MPD2    C3  887   0.947   3.168  13.826 -0.9411  0.1896 -0.8028
   58MPD2    C4  888   0.846   3.100  13.760 -0.3388  0.1933  0.1897
   58MPD2    C5  889   0.732   3.070  13.820  0.3076  0.1618  0.1772
   58MPD2     H  890   0.997   3.269  14.004 -1.2077  1.1024  0.0288
   58MPD2    H1  891   0.854   3.076  13.654 -0.7966  2.1450 -0.2892
   58MPD2    H2  892   0.611   3.083  13.987  0.7732  0.1126  1.3684
   58MPD2    H3  893   0.656   3.013  13.768 -0.6540  1.0749  0.5859
   58MPD2     N  894   1.063   3.203  13.755 -0.0792 -0.0293  0.2155
   58MPD2    H5  895   1.066   3.171  13.659  0.9307 -1.5105  0.7328
   58MPD2    N1  896   0.778   3.228  14.146 -0.0869  0.2571  0.0426
   58MPD2    H7  897   0.838   3.301  14.180  1.4068 -0.8659 -0.1649
   59MPD2     C  898   4.295   3.165  13.540 -0.6691  0.2810 -0.3576
   59MPD2    C1  899   4.342   3.189  13.409 -0.5588  0.6783  0.7848
   59MPD2    C2  900   4.456   3.267  13.388 -0.4636  0.0565  0.2727
   59MPD2    C3  901   4.522   3.329  13.493  0.6277 -0.1201  0.9184
   59MPD2    C4  902   4.468   3.311  13.617 -0.3788  0.2285 -0.2125
   59MPD2    C5  903   4.357   3.234  13.637 -0.0023  0.0817  0.2023
   59MPD2     H  904   4.486   3.278  13.285 -2.5488  1.4886 -0.1904
   59MPD2    H1  905   4.513   3.361  13.702  0.1013 -1.1976  0.3810
   59MPD2    H2  906   4.217   3.095  13.568  1.5198 -0.7534  3.1009
   59MPD2    H3  907   4.309   3.227  13.734 -0.0691  0.9216  0.2333
   59MPD2     N  908   4.633   3.418  13.479  0.6924 -0.5767 -0.1709
   59MPD2    H5  909   4.667   3.456  13.566 -0.5243 -2.1009  0.9773
   59MPD2    N1  910   4.285   3.128  13.294  0.3563 -0.3696  0.6076
   59MPD2    H7  911   4.328   3.133  13.202  0.4774  1.0466  0.7387
   60TCq2    C1  912   4.183   3.042  13.293  0.6150 -0.0428  0.0820
   60TCq2    O2  913   4.109   3.014  13.391 -0.4889 -0.0340  0.4173
   60TCq2    C2  914   4.145   3.007  13.157  0.0724  0.2861 -0.2756
   60TCq2    C3  915   4.013   2.975  13.142 -0.4120 -0.4522  0.9060
   60TCq2    C4  916   3.957   2.977  13.020 -0.4571 -0.3236 -0.6225
   60TCq2    C5  917   4.019   3.015  12.909  0.3222  0.3987 -0.3123
   60TCq2    C6  918   4.153   3.055  12.929  0.3451  0.0502 -0.1395
   60TCq2    C7  919   4.219   3.059  13.048  0.5561  0.5382  0.8929
   60TCq2    C8  920   4.235   3.094  12.812 -0.4566 -0.1312 -0.1057
   60TCq2    O4  921   4.345   3.044  12.820  0.2783  0.2737 -0.0688
   60TCq2    C9  922   3.820   2.934  13.001 -0.5649  0.2845 -0.0116
   60TCq2    O5  923   3.742   2.985  12.915 -0.2926  0.0579  0.0910
   60TCq2    O6  924   3.785   2.832  13.064  0.2039 -0.0202 -0.2349
   60TCq2    H2  925   3.945   2.939  13.219 -2.2087 -2.0050 -1.4221
   60TCq2    H3  926   3.973   3.005  12.811 -1.2357 -0.9352  0.5639
   60TCq2    H4  927   4.326   3.070  13.043  0.3532  1.8023 -0.7004
   61MPD2     C  928   3.642   4.614  15.765 -0.4232 -0.6240  0.3816
   61MPD2    C1  929   3.652   0.024  15.760  0.1580 -0.2838 -0.2412
   61MPD2    C2  930   3.696   0.082  15.638  0.2532  0.5006 -0.2279
   61MPD2    C3  931   3.725   0.004  15.532 -0.4315  0.4955  0.5122
   61MPD2    C4  932   3.717   4.593  15.543  0.7794 -1.0610  0.6192
   61MPD2    C5  933   3.678   4.535  15.656 -0.0803 -0.1215 -0.2352
   61MPD2     H  934   3.690   0.190  15.631  1.9990  0.7126  1.7299
   61MPD2    H1  935   3.740   4.523  15.463  1.1111  1.0254 -1.1202
   61MPD2    H2  936   3.616   4.553  15.850  1.6625 -0.5715  1.0409
   61MPD2    H3  937   3.672   4.427  15.666  0.4579 -0.3077 -2.0441
   61MPD2     N  938   3.752   0.058  15.409 -0.6910 -0.2558  0.3312
   61MPD2    H5  939   3.756   4.715  15.332  1.5368  3.2967 -2.6223
   61MPD2    N1  940   3.613   0.113  15.864 -0.2652 -0.0025  0.1095
   61MPD2    H7  941   3.636   0.210  15.845 -4.2945  0.2055 -3.6154
   62TCq2    C1  942   3.535   0.076  15.974 -0.0318  0.7498  0.3088
   62TCq2    O2  943   3.522   4.681  16.015  0.1164  0.8860 -0.5023
   62TCq2    C2  944   3.487   0.190  16.055  0.4788 -0.2725  0.4504
   62TCq2    C3  945   3.452   0.169  16.184 -0.9887  0.0928 -0.1757
   62TCq2    C4  946   3.400   0.267  16.261 -0.4953  0.6332  0.4061
   62TCq2    C5  947   3.387   0.398  16.208  0.0832  0.1393  0.6640
   62TCq2    C6  948   3.423   0.415  16.073 -0.0517  0.2127  0.4469
   62TCq2    C7  949   3.472   0.312  15.997  0.6771 -0.5534 -0.5459
   62TCq2    C8  950   3.409   0.544  16.005  0.0462 -0.5193 -0.0664
   62TCq2    O4  951   3.483   0.574  15.912 -0.3205  0.4078  0.3526
   62TCq2    C9  952   3.380   0.234  16.405  0.4828  0.3391  0.4140
   62TCq2    O5  953   3.391   0.333  16.482 -0.4754 -0.3216 -0.4205
   62TCq2    O6  954   3.394   0.111  16.439 -0.2711 -0.0133 -0.0289
   62TCq2    H2  955   3.466   0.071  16.227  1.1954  0.3615 -0.3005
   62TCq2    H3  956   3.358   0.471  16.283  0.1369  0.9456 -0.0954
   62TCq2    H4  957   3.479   0.321  15.890 -1.3602 -1.1933 -0.7313
   63TMC2    C1  958   3.004   0.635  10.908 -0.3965 -0.3776 -0.2987
   63TMC2    C2  959   3.067   0.735  10.969  0.1462 -0.1269 -0.0330
   63TMC2    C3  960   3.150   0.807  10.887  0.5170  0.7471 -0.2477
   63TMC2    C4  961   3.023   0.595  10.779 -0.8722 -0.0242 -0.3214
   63TMC2    C5  962   3.120   0.659  10.710 -0.3671  0.0027 -0.1281
   63TMC2    C6  963   3.180   0.775  10.760 -0.6298 -0.5656  0.0287
   63TMC2     C  964   2.901   0.570  10.993 -0.5238  0.2373  0.3503
   63TMC2     O  965   2.849   0.626  11.089  0.6188  0.0773 -0.6541
   63TMC2     H  966   3.044   0.770  11.069  3.0249 -1.2073  0.9961
   63TMC2    H1  967   2.943   0.537  10.736 -0.2423 -1.9477  1.0437
   63TMC2    H2  968   3.253   0.825  10.697  0.1841 -0.8973  0.7132
   63TMC2    C7  969   3.142   0.624  10.573 -0.1336 -0.0374  0.4502
   63TMC2    C8  970   3.231   0.915  10.940  0.1029  0.7682  0.1324
   63TMC2    O1  971   3.069   0.529  10.544  0.2407 -0.0672  0.0764
   63TMC2    O2  972   3.307   0.979  10.864  0.0657  0.1606 -0.6817
   63TMC2    O5  973   3.267   0.887  11.066  0.3120 -0.2142  0.2317
   63TMC2    H5  974   3.200   0.826  11.105 -1.3504  1.6072  0.2482
   64MPD2     C  975   2.621   0.140  11.077 -0.1933 -0.1756 -0.2328
   64MPD2    C1  976   2.714   0.115  10.985  0.3119  0.0915  0.7177
   64MPD2    C2  977   2.795   0.218  10.944 -0.7141  0.0110 -0.3660
   64MPD2    C3  978   2.789   0.342  11.000 -0.1811  0.1872  0.0017
   64MPD2    C4  979   2.707   0.369  11.106  1.6733 -0.0538 -0.1534
   64MPD2    C5  980   2.629   0.266  11.142  0.0019  0.5321 -0.9483
   64MPD2     H  981   2.870   0.197  10.868 -1.3796 -3.7292  0.0137
   64MPD2    H1  982   2.698   0.463  11.160 -1.2019 -2.0337  2.8078
   64MPD2    H2  983   2.558   0.061  11.116  0.1725 -0.0097  0.6899
   64MPD2    H3  984   2.556   0.278  11.221  1.4860  0.2845  0.4680
   64MPD2     N  985   2.883   0.437  10.949 -0.0594  0.3989  0.0998
   64MPD2    H5  986   2.958   0.408  10.888 -0.3695  2.7688 -1.4094
   64MPD2    N1  987   2.729   4.715  10.912 -0.7114 -0.4381  0.2643
   64MPD2    H7  988   2.808   4.715  10.848 -0.0207 -0.5361  1.1290
   65MPD2     C  989   3.966   4.412  15.705 -0.0298 -0.0653  0.3911
   65MPD2    C1  990   4.036   4.421  15.585 -0.0675 -0.6143 -0.6694
   65MPD2    C2  991   4.045   4.305  15.507 -0.5393 -0.2618 -0.8168
   65MPD2    C3  992   3.994   4.181  15.547 -0.7808  0.0619  0.6285
   65MPD2    C4  993   3.927   4.174  15.666  0.0289 -0.3544  0.4592
   65MPD2    C5  994   3.909   4.286  15.740 -0.2470 -0.1722  0.7818
   65MPD2     H  995   4.090   4.321  15.410  1.9162  0.6149  0.4533
   65MPD2    H1  996   3.901   4.084  15.721 -0.5883 -0.8282 -0.6122
   65MPD2    H2  997   3.954   4.502  15.764  0.1777  0.4393 -0.3471
   65MPD2    H3  998   3.860   4.278  15.837 -1.5931  1.0712  0.2205
   65MPD2     N  999   4.022   4.062  15.473  0.0680  0.1163 -0.3121
   65MPD2    H5 1000   3.981   3.977  15.512 -0.7935  0.2779 -0.8484
   65MPD2    N1 1001   4.090   4.538  15.530  0.1207  0.0975  0.0673
   65MPD2    H7 1002   4.147   4.534  15.446 -0.1098  1.5346 -0.1641
   66TCq2    C1 1003   4.096   4.664  15.587  0.1696 -0.3289  0.3586
   66TCq2    O2 1004   4.044   4.709  15.691  0.5401  0.5992 -0.3842
   66TCq2    C2 1005   4.138   0.043  15.491  0.3258 -0.6868 -0.6961
   66TCq2    C3 1006   4.125   0.022  15.350  0.4368 -0.3549 -1.0197
   66TCq2    C4 1007   4.159   0.126  15.268  0.4065 -0.0017  0.1293
   66TCq2    C5 1008   4.194   0.248  15.327 -0.2130  0.3083  0.4779
   66TCq2    C6 1009   4.176   0.270  15.462  0.4989  0.4885  0.2878
   66TCq2    C7 1010   4.152   0.165  15.545 -0.4885 -0.9382  0.3530
   66TCq2    C8 1011   4.198   0.404  15.516  0.1494  0.8926 -0.6742
   66TCq2    O4 1012   4.246   0.486  15.439 -0.4418 -0.1716  0.1016
   66TCq2    C9 1013   4.168   0.105  15.125  0.3633  0.0271 -0.4140
   66TCq2    O5 1014   4.171   4.714  15.085  0.7565 -0.1445 -0.2217
   66TCq2    O6 1015   4.164   0.202  15.047  0.7046  0.1046  1.1375
   66TCq2    H2 1016   4.084   4.655  15.306 -3.1448  0.5925  0.3351
   66TCq2    H3 1017   4.218   0.332  15.263  0.3905 -0.8516 -0.8195
   66TCq2    H4 1018   4.155   0.179  15.652  2.2235 -0.5369  0.2254
   67MPD2     C 1019   4.055   3.805  14.015 -0.3086 -0.1329  1.1958
   67MPD2    C1 1020   4.002   3.904  14.094  0.2854  0.4227 -0.7139
   67MPD2    C2 1021   3.883   3.968  14.054 -0.0399 -0.0832  0.3308
   67MPD2    C3 1022   3.821   3.935  13.932  0.0857  0.3512 -0.3097
   67MPD2    C4 1023   3.881   3.835  13.853  0.2130  0.3413 -0.1221
   67MPD2    C5 1024   3.999   3.778  13.896  0.1682 -1.3215  0.9610
   67MPD2     H 1025   3.849   4.045  14.122  0.3677  1.1533 -0.8766
   67MPD2    H1 1026   3.843   3.803  13.757  0.2065  1.8826 -0.6365
   67MPD2    H2 1027   4.144   3.755  14.051  0.0664  0.3394  0.9351
   67MPD2    H3 1028   4.045   3.699  13.837  2.2729  0.6247 -0.0355
   67MPD2     N 1029   3.705   3.988  13.883  0.1882  0.2698  0.1658
   67MPD2    H5 1030   3.663   3.939  13.805 -1.8852 -1.2871  2.2663
   67MPD2    N1 1031   4.059   3.940  14.222  0.3158  0.6518 -0.5374
   67MPD2    H7 1032   4.003   4.009  14.270  0.8118  1.2070 -0.7463
   68TCq2    C1 1033   4.167   3.892  14.292 -0.0012 -0.4421 -0.2063
   68TCq2    O2 1034   4.244   3.801  14.262 -0.3748 -0.1147 -0.4135
   68TCq2    C2 1035   4.178   3.949  14.432  0.0190  0.1182  0.8059
   68TCq2    C3 1036   4.115   4.063  14.461  0.7836  0.1848  0.0458
   68TCq2    C4 1037   4.141   4.125  14.582  0.1722  0.5328  0.3725
   68TCq2    C5 1038   4.238   4.081  14.667  0.0377 -0.0203  0.5587
   68TCq2    C6 1039   4.314   3.974  14.618  0.1392 -0.1974  0.8063
   68TCq2    C7 1040   4.286   3.909  14.503  0.1606  0.0706  0.3499
   68TCq2    C8 1041   4.418   3.932  14.702  1.0949  0.0093 -1.0289
   68TCq2    O4 1042   4.518   3.880  14.654  0.3846  0.3868  0.3009
   68TCq2    C9 1043   4.070   4.243  14.603  0.4146  0.2394  0.3418
   68TCq2    O5 1044   4.072   4.294  14.716  0.5278  0.1715 -0.0074
   68TCq2    O6 1045   4.057   4.314  14.497 -0.0100 -0.1246 -0.2883
   68TCq2    H2 1046   4.034   4.106  14.403  0.0627 -2.2321 -0.7246
   68TCq2    H3 1047   4.260   4.136  14.757 -0.6155  0.2766  0.5406
   68TCq2    H4 1048   4.353   3.828  14.476  1.3732  0.8227  1.0946
   69TMC2    C1 1049   1.606   4.314  12.609  0.4961 -0.3906 -0.6623
   69TMC2    C2 1050   1.532   4.390  12.518  0.2636  0.2039  0.5241
   69TMC2    C3 1051   1.582   4.422  12.391  0.5205  0.1876 -0.0245
   69TMC2    C4 1052   1.734   4.275  12.575  0.3162  0.4232  1.1684
   69TMC2    C5 1053   1.788   4.317  12.453 -0.2378  0.0300  0.3341
   69TMC2    C6 1054   1.711   4.383  12.357  0.3178  0.0840  0.2837
   69TMC2     C 1055   1.539   4.244  12.718 -0.1313 -0.0215 -0.3010
   69TMC2     O 1056   1.601   4.156  12.775  0.3441 -0.3772 -0.6267
   69TMC2     H 1057   1.429   4.419  12.531 -0.6279 -1.9619 -1.5394
   69TMC2    H1 1058   1.797   4.225  12.648 -1.3149 -1.3670  1.3546
   69TMC2    H2 1059   1.752   4.381  12.256  2.1268  2.1321  0.9603
   69TMC2    C7 1060   1.923   4.289  12.411 -0.0378 -0.7917 -0.0404
   69TMC2    C8 1061   1.487   4.471  12.298  0.7744 -0.1645 -0.5542
   69TMC2    O1 1062   1.964   4.351  12.316  0.0463 -0.3655 -1.2455
   69TMC2    O2 1063   1.370   4.450  12.320 -0.5003 -0.2564  0.0995
   69TMC2    O5 1064   1.541   4.474  12.175 -0.3856 -0.6033 -0.4472
   69TMC2    H5 1065   1.625   4.524  12.174 -0.6065 -0.2445 -0.7969
   70MPD2     C 1066   1.190   4.252  12.839 -0.1488  0.6807 -0.6500
   70MPD2    C1 1067   1.316   4.198  12.808  0.0295 -0.7980  0.6606
   70MPD2    C2 1068   1.337   4.063  12.843  0.1809 -0.7798  0.2100
   70MPD2    C3 1069   1.246   3.990  12.913 -0.5164  0.0870  0.0401
   70MPD2    C4 1070   1.126   4.045  12.938  0.3960 -0.5905  0.2739
   70MPD2    C5 1071   1.096   4.170  12.897 -0.3694  0.3252  0.4195
   70MPD2     H 1072   1.423   4.009  12.806 -0.7699 -1.4707 -0.9842
   70MPD2    H1 1073   1.048   3.998  12.997 -1.2862  1.0105 -0.6787
   70MPD2    H2 1074   1.159   4.354  12.821 -1.4723  0.7487  2.1216
   70MPD2    H3 1075   0.995   4.203  12.918 -0.2950  0.3989  0.6596
   70MPD2     N 1076   1.272   3.864  12.974  0.0049 -0.2579 -0.2700
   70MPD2    H5 1077   1.185   3.823  13.008 -0.8156  0.9123 -0.9743
   70MPD2    N1 1078   1.409   4.273  12.733  0.0091  0.3420  0.4918
   70MPD2    H7 1079   1.388   4.368  12.704  0.0008  0.6962  1.6509
   71TMC2    C1 1080   2.062   4.423   0.504 -0.5036  0.7252  0.2758
   71TMC2    C2 1081   1.982   4.402   0.387  0.0138  0.6479  0.3653
   71TMC2    C3 1082   1.848   4.411   0.403  0.4688  0.0792  0.0807
   71TMC2    C4 1083   2.004   4.491   0.615  0.1205  0.2247  0.1391
   71TMC2    C5 1084   1.866   4.510   0.612  0.2601  0.1441 -0.2478
   71TMC2    C6 1085   1.789   4.460   0.517  0.4068  0.3509 -0.2875
   71TMC2     C 1086   2.204   4.442   0.484 -0.5591 -0.9078 -0.4515
   71TMC2     O 1087   2.245   4.454   0.369  0.1760  0.4150 -0.0258
   71TMC2     H 1088   2.021   4.365   0.293 -0.6104  0.8627  0.0201
   71TMC2    H1 1089   2.064   4.517   0.701 -1.3197 -0.9152  1.4963
   71TMC2    H2 1090   1.682   4.476   0.525  0.3718 -0.8373  1.6114
   71TMC2    C7 1091   1.803   4.587   0.722 -0.3791 -0.8780 -0.2321
   71TMC2    C8 1092   1.751   4.369   0.304  0.9096  0.7341 -0.0985
   71TMC2    O1 1093   1.682   4.568   0.732 -0.6826  0.0252 -0.4009
   71TMC2    O2 1094   1.629   4.358   0.315  0.4977  1.0767  0.3093
   71TMC2    O5 1095   1.798   4.409   0.185 -0.1829  0.0999  0.3669
   71TMC2    H5 1096   1.888   4.447   0.189 -0.2743  0.0618  2.8560
   72MPD2     C 1097   2.684   4.436   0.665 -0.2196  0.2804  0.6913
   72MPD2    C1 1098   2.633   4.499   0.555 -0.5785  0.4036 -0.9267
   72MPD2    C2 1099   2.499   4.482   0.530  0.5673 -0.2695 -0.8134
   72MPD2    C3 1100   2.415   4.410   0.615  0.1283  0.0117  0.0221
   72MPD2    C4 1101   2.469   4.337   0.718 -0.4096 -0.4961 -0.4732
   72MPD2    C5 1102   2.606   4.354   0.742 -0.2952 -0.9315  0.1410
   72MPD2     H 1103   2.468   4.536   0.441  0.9552 -0.9860 -1.3881
   72MPD2    H1 1104   2.414   4.274   0.787  1.7828  0.0674  1.8150
   72MPD2    H2 1105   2.788   4.440   0.694  0.2823  0.8011 -1.1882
   72MPD2    H3 1106   2.655   4.307   0.826 -0.1613  0.6736  0.9504
   72MPD2     N 1107   2.274   4.401   0.596  0.2302  0.6072 -0.1018
   72MPD2    H5 1108   2.220   4.350   0.666  0.3544  0.7762  0.1156
   72MPD2    N1 1109   2.705   4.585   0.474  0.6130  1.1491  1.1889
   72MPD2    H7 1110   2.666   4.638   0.397  0.6673  0.1498  0.4781
   73TMC2    C1 1111   3.507   2.063  14.364  0.3877 -0.5437 -0.0210
   73TMC2    C2 1112   3.414   2.089  14.461  0.9186 -0.3634 -0.1439
   73TMC2    C3 1113   3.444   2.080  14.590  0.4586 -0.3889  0.1151
   73TMC2    C4 1114   3.629   2.018  14.414  0.0491  0.4311  0.0697
   73TMC2    C5 1115   3.660   2.024  14.547  0.6947 -0.7903 -0.5205
   73TMC2    C6 1116   3.568   2.050  14.642  0.0971 -0.0189  0.1868
   73TMC2     C 1117   3.540   2.175  14.277  0.2089  0.0512  0.0450
   73TMC2     O 1118   3.660   2.182  14.254 -0.1492 -0.3138 -0.4697
   73TMC2     H 1119   3.312   2.115  14.436  0.0207 -1.8294  1.9417
   73TMC2    H1 1120   3.710   1.979  14.353  1.3715  1.7827  0.9671
   73TMC2    H2 1121   3.594   2.065  14.746  0.7346 -3.0971  0.4753
   73TMC2    C7 1122   3.785   2.094  14.583  0.4028  0.1670 -0.0399
   73TMC2    C8 1123   3.357   2.138  14.681  0.2169  0.8967 -0.0362
   73TMC2    O1 1124   3.840   2.072  14.693 -0.0793 -0.1905 -0.0244
   73TMC2    O2 1125   3.266   2.216  14.654 -0.1534 -0.4356 -0.1568
   73TMC2    O5 1126   3.350   2.054  14.781 -0.3167 -0.3923  0.0968
   73TMC2    H5 1127   3.405   1.978  14.754  1.4569  1.3575 -1.2269
   74MPD2     C 1128   3.463   2.643  14.091  0.8128 -0.0873 -0.1572
   74MPD2    C1 1129   3.565   2.556  14.073 -0.0572  0.1058 -0.7284
   74MPD2    C2 1130   3.560   2.424  14.120 -0.6646 -0.2949 -0.3709
   74MPD2    C3 1131   3.447   2.385  14.197  0.0888 -0.5035  0.3087
   74MPD2    C4 1132   3.335   2.473  14.204 -0.5911  0.2680  0.5144
   74MPD2    C5 1133   3.343   2.601  14.144 -0.2937  0.3197  0.1439
   74MPD2     H 1134   3.643   2.355  14.105 -0.7364 -0.4686  0.0244
   74MPD2    H1 1135   3.246   2.440  14.257 -1.2361  2.2032  0.6331
   74MPD2    H2 1136   3.476   2.748  14.065 -0.0383 -0.1025 -0.6402
   74MPD2    H3 1137   3.261   2.672  14.154  0.8349  1.6507 -0.1874
   74MPD2     N 1138   3.431   2.261  14.258 -0.5470 -0.4502 -0.3200
   74MPD2    H5 1139   3.342   2.236  14.298 -2.0705  1.5212 -2.5169
   74MPD2    N1 1140   3.676   2.606  14.005  0.6485 -0.0896  0.2379
   74MPD2    H7 1141   3.666   2.702  13.974  1.6901 -0.4114 -1.0875
   75TCq2    C1 1142   3.616   4.059  13.961  0.7695  0.7969  0.1486
   75TCq2    O2 1143   3.611   4.070  14.083 -0.0831 -0.1851 -0.1909
   75TCq2    C2 1144   3.499   4.110  13.886 -0.8505 -0.9783 -0.5159
   75TCq2    C3 1145   3.384   4.136  13.959 -0.1191 -0.2854 -0.2336
   75TCq2    C4 1146   3.272   4.172  13.891 -0.1829 -0.0464  0.8788
   75TCq2    C5 1147   3.269   4.170  13.753  0.5513 -0.7704 -0.7594
   75TCq2    C6 1148   3.384   4.143  13.685  0.1642 -0.2793 -0.6553
   75TCq2    C7 1149   3.502   4.114  13.751  0.3334  0.8483 -0.5707
   75TCq2    C8 1150   3.370   4.131  13.538  0.2109 -0.8023 -0.7411
   75TCq2    O4 1151   3.453   4.053  13.490  0.5872  0.2548  0.4767
   75TCq2    C9 1152   3.145   4.191  13.956 -0.1412 -0.1593  0.5081
   75TCq2    O5 1153   3.150   4.180  14.083  0.0059 -0.4667  0.4668
   75TCq2    O6 1154   3.047   4.155  13.881 -0.0720  0.1710 -0.1440
   75TCq2    H2 1155   3.390   4.128  14.067  2.1645 -0.9983 -0.4192
   75TCq2    H3 1156   3.176   4.188  13.700  0.6502  0.9539 -0.3634
   75TCq2    H4 1157   3.598   4.116  13.701  0.8952 -2.0711  0.4206
   76MPD2     C 1158   3.080   4.121  12.196  0.1884  0.4626  0.0434
   76MPD2    C1 1159   2.961   4.055  12.151  0.4339 -0.0119 -0.2578
   76MPD2    C2 1160   2.964   3.913  12.150 -0.2956  0.5861 -0.5359
   76MPD2    C3 1161   3.075   3.847  12.200  0.6581 -0.1850  0.0800
   76MPD2    C4 1162   3.183   3.911  12.253 -0.2302 -0.9667  0.4284
   76MPD2    C5 1163   3.186   4.050  12.251 -0.1480  0.4799 -0.6750
   76MPD2     H 1164   2.877   3.862  12.110  0.0550 -1.6226  1.4750
   76MPD2    H1 1165   3.265   3.852  12.290  0.2952 -0.3089  0.3118
   76MPD2    H2 1166   3.071   4.228  12.208 -0.8992  0.1654  1.9423
   76MPD2    H3 1167   3.272   4.102  12.291 -0.1655  1.0634 -1.3922
   76MPD2     N 1168   3.080   3.701  12.193 -0.0166 -0.3761 -0.0249
   76MPD2    H5 1169   3.156   3.657  12.244  0.3466 -0.5181 -0.6812
   76MPD2    N1 1170   2.849   4.122  12.108  0.8050  1.0427  0.3915
   76MPD2    H7 1171   2.762   4.070  12.102  1.8520 -0.1081 -4.8658
   77TCq2    C1 1172   2.985   3.617  12.140  0.8920  0.2219 -0.5000
   77TCq2    O2 1173   2.900   3.648  12.057  0.0999 -0.2568 -0.1053
   77TCq2    C2 1174   3.022   3.478  12.145  0.7670 -0.2413 -0.0139
   77TCq2    C3 1175   2.967   3.393  12.057 -0.7798 -0.4284  0.0707
   77TCq2    C4 1176   2.995   3.262  12.078 -0.4845 -0.7118 -0.3580
   77TCq2    C5 1177   3.074   3.211  12.178 -0.0001  0.1001 -0.0221
   77TCq2    C6 1178   3.134   3.299  12.253 -0.3397 -0.4141  0.0602
   77TCq2    C7 1179   3.121   3.438  12.234  0.0191 -0.7161 -0.1973
   77TCq2    C8 1180   3.272   3.251  12.307 -0.2766 -0.1468  0.9354
   77TCq2    O4 1181   3.286   3.130  12.320  0.1097  0.1848  0.0414
   77TCq2    C9 1182   2.907   3.168  12.008  0.7055  0.2123  0.4218
   77TCq2    O5 1183   2.913   3.049  12.054  0.1810  0.1930  0.0167
   77TCq2    O6 1184   2.806   3.211  11.942  0.2591 -0.1113 -0.2161
   77TCq2    H2 1185   2.899   3.424  11.978 -1.9252  0.3446  1.3504
   77TCq2    H3 1186   3.082   3.104  12.193 -0.5472 -0.1733 -1.6772
   77TCq2    H4 1187   3.161   3.502  12.312  1.7337 -0.9478 -0.8907
   78MPD1     C 1188   0.148   4.654   2.486  0.5640 -0.0432  0.4205
   78MPD1    C1 1189   0.083   4.577   2.390  0.6938  0.2213  0.2529
   78MPD1    C2 1190   4.684   4.626   2.345 -0.4815 -0.6406 -0.3551
   78MPD1    C3 1191   4.633   0.030   2.367 -0.4435  0.3168  0.3116
   78MPD1    C4 1192   4.704   0.105   2.455  0.1707  0.1673 -0.3249
   78MPD1    C5 1193   0.094   0.055   2.515 -0.2475  0.0239  0.0478
   78MPD1     H 1194   4.622   4.565   2.281 -0.4825  0.6020 -1.5536
   78MPD1    H1 1195   4.684   0.210   2.469  1.6209  0.3682  0.1770
   78MPD1    H2 1196   0.243   4.625   2.531  0.6591  1.6155  1.2901
   78MPD1    H3 1197   0.149   0.119   2.584 -0.6945  1.9978 -1.4128
   78MPD1     N 1198   4.517   0.085   2.306 -0.3887 -0.2990 -0.2023
   78MPD1    H5 1199   4.505   0.182   2.334 -0.2203  0.0443 -1.3083
   78MPD1    N1 1200   0.135   4.452   2.364  0.1772  0.6584 -0.3021
   78MPD1    H6 1201   0.111   4.419   2.271  5.4519 -2.6020 -0.4805
   78MPD1    H7 1202   0.229   4.426   2.393 -0.1879  0.4859  0.7326
   79TCq2    C1 1203   4.434   0.026   2.217 -0.9772  0.4088 -0.0022
   79TCq2    O2 1204   4.437   4.635   2.179  0.4948 -0.7876  0.0870
   79TCq2    C2 1205   4.345   0.124   2.152 -0.1297 -0.2979  0.2556
   79TCq2    C3 1206   4.229   0.085   2.096 -0.2081 -0.0331 -0.2622
   79TCq2    C4 1207   4.162   0.165   2.016  0.2904  0.1604 -1.2346
   79TCq2    C5 1208   4.206   0.291   1.981 -0.0983  0.8139  0.3421
   79TCq2    C6 1209   4.317   0.332   2.043  0.5161  0.1577  0.7185
   79TCq2    C7 1210   4.386   0.252   2.133  0.0934  0.2435 -0.3127
   79TCq2    C8 1211   4.374   0.459   2.021 -0.0572 -0.2601  0.2302
   79TCq2    O4 1212   4.472   0.488   2.091  0.4556 -0.7384  0.1441
   79TCq2    C9 1213   4.028   0.123   1.973  0.7690 -0.3592  0.2510
   79TCq2    O5 1214   4.025   4.718   1.973 -0.2803  0.2534  0.1906
   79TCq2    O6 1215   3.948   0.209   1.930  0.1647 -0.5178 -0.1194
   79TCq2    H2 1216   4.193   4.709   2.124 -0.9122  0.0415 -0.8955
   79TCq2    H3 1217   4.152   0.356   1.913  1.1752  0.4338 -1.0158
   79TCq2    H4 1218   4.481   0.282   2.177 -0.8430  1.7881  0.6755
   80MPD2     C 1219   1.969   3.788  12.348  0.3600 -0.3476 -0.4923
   80MPD2    C1 1220   1.900   3.881  12.279 -0.3356 -0.1511 -0.0167
   80MPD2    C2 1221   1.784   3.930  12.325  0.5707  0.6402  0.7070
   80MPD2    C3 1222   1.732   3.876  12.444 -0.4645 -0.3703 -0.3573
   80MPD2    C4 1223   1.808   3.795  12.524 -0.4323 -0.1695  0.6363
   80MPD2    C5 1224   1.932   3.749  12.476  0.4926  0.4429 -0.3292
   80MPD2     H 1225   1.724   3.998  12.266  0.4900 -0.4889 -0.5213
   80MPD2    H1 1226   1.766   3.748  12.612 -1.4105  0.2504  0.3914
   80MPD2    H2 1227   2.067   3.749  12.321  1.5176  2.3664 -0.2421
   80MPD2    H3 1228   1.987   3.683  12.541 -0.7812 -0.2318  0.0564
   80MPD2     N 1229   1.598   3.904  12.495 -0.4067  0.2675  0.5975
   80MPD2    H5 1230   1.590   3.867  12.589  1.9065 -0.9491  0.2999
   80MPD2    N1 1231   1.938   3.936  12.154 -0.4030  0.5244 -1.1274
   80MPD2    H7 1232   1.883   4.008  12.108  0.0713  2.4572  1.2727
   81TCq2    C1 1233   2.061   3.908  12.100  0.6123 -0.0025 -0.6228
   81TCq2    O2 1234   2.155   3.841  12.136 -0.3103  0.7845  0.8397
   81TCq2    C2 1235   2.050   3.938  11.964  0.3383  0.0502 -0.2760
   81TCq2    C3 1236   2.167   3.945  11.893 -0.4972  0.0126 -0.5286
   81TCq2    C4 1237   2.170   3.935  11.755 -0.7142 -0.0120 -0.6517
   81TCq2    C5 1238   2.062   3.890  11.686  0.6289 -0.4184 -0.0204
   81TCq2    C6 1239   1.940   3.885  11.761  0.7534  0.2319  0.5137
   81TCq2    C7 1240   1.930   3.912  11.897 -0.1461 -0.5062  1.2509
   81TCq2    C8 1241   1.828   3.814  11.699  0.2816 -0.3958  0.5945
   81TCq2    O4 1242   1.832   3.779  11.579 -0.0486  0.5440  0.3334
   81TCq2    C9 1243   2.293   3.925  11.689 -0.4131  0.5607  0.0196
   81TCq2    O5 1244   2.387   3.925  11.773  0.2625 -0.0978  0.2363
   81TCq2    O6 1245   2.298   3.887  11.568  0.4633 -0.8302  0.8163
   81TCq2    H2 1246   2.258   3.951  11.952 -1.6798  0.8983  1.2221
   81TCq2    H3 1247   2.055   3.882  11.578 -0.2068 -0.5872  0.0506
   81TCq2    H4 1248   1.836   3.932  11.947 -0.7362 -0.6701  0.1956
   82MPD2     C 1249   0.059   3.905  10.744 -0.1663 -0.1897 -0.0860
   82MPD2    C1 1250   4.686   3.810  10.775 -1.0105 -1.0269  0.4565
   82MPD2    C2 1251   4.722   3.683  10.825 -0.0670 -0.0580  0.9247
   82MPD2    C3 1252   0.139   3.669  10.857  0.1003 -0.3567 -0.1882
   82MPD2    C4 1253   0.234   3.768  10.829  0.1083  0.3320 -0.1504
   82MPD2    C5 1254   0.189   3.890  10.771 -1.1187 -0.1968  0.5643
   82MPD2     H 1255   4.644   3.608  10.835 -0.0892 -0.3850 -1.7592
   82MPD2    H1 1256   0.341   3.755  10.829 -0.2050 -2.2049  0.3153
   82MPD2    H2 1257   0.025   3.998  10.700  0.0045 -0.3765 -0.6185
   82MPD2    H3 1258   0.261   3.967  10.747  0.1934 -1.1904  1.2971
   82MPD2     N 1259   0.189   3.551  10.917 -0.1988 -0.0279  0.0001
   82MPD2    H5 1260   0.287   3.548  10.940  0.2119  2.8308 -1.4033
   82MPD2    N1 1261   4.551   3.845  10.749 -0.8686  0.2503  0.0641
   82MPD2    H7 1262   4.538   3.932  10.699 -2.2297 -1.3263 -2.3250
   83TCq2    C1 1263   0.119   3.433  10.936  0.0237 -0.6133 -0.0216
   83TCq2    O2 1264   0.001   3.413  10.934 -0.7480 -0.0604  0.2617
   83TCq2    C2 1265   0.182   3.329  11.007  0.7649 -0.5642  0.1260
   83TCq2    C3 1266   0.268   3.357  11.114  0.4093 -0.8915 -0.1390
   83TCq2    C4 1267   0.315   3.253  11.183 -0.0307  0.3582  0.8044
   83TCq2    C5 1268   0.266   3.127  11.169 -0.1437  0.3344 -0.0230
   83TCq2    C6 1269   0.180   3.104  11.063 -0.0499 -0.0237 -0.1024
   83TCq2    C7 1270   0.137   3.205  10.985 -0.4666  0.8232 -0.0095
   83TCq2    C8 1271   0.102   2.981  11.069 -0.6457 -0.0925 -0.0924
   83TCq2    O4 1272   0.116   2.914  11.168 -0.4454  0.1413  0.1175
   83TCq2    C9 1273   0.423   3.264  11.278  0.0202 -0.0046 -0.6340
   83TCq2    O5 1274   0.453   3.156  11.337 -0.1555 -0.5728  0.5047
   83TCq2    O6 1275   0.474   3.375  11.301 -0.5623  0.5217  0.0425
   83TCq2    H2 1276   0.307   3.458  11.116  1.4343 -1.2782 -1.0933
   83TCq2    H3 1277   0.303   3.040  11.221  1.0132  0.3718 -0.7978
   83TCq2    H4 1278   0.059   3.180  10.913  1.0457  0.7860 -1.6286
   84TCq2    C1 1279   1.650   2.351  10.560 -0.3696  0.3819  0.2946
   84TCq2    O2 1280   1.572   2.263  10.533  0.5041 -0.1903 -0.0837
   84TCq2    C2 1281   1.624   2.428  10.684 -0.1146 -0.0323 -0.4294
   84TCq2    C3 1282   1.708   2.530  10.720  0.5885 -0.4330  0.3009
   84TCq2    C4 1283   1.682   2.596  10.834 -0.2887 -0.3030 -0.3024
   84TCq2    C5 1284   1.566   2.579  10.908  0.9301 -0.1479  0.6089
   84TCq2    C6 1285   1.488   2.478  10.862  0.4735 -0.0324 -0.5212
   84TCq2    C7 1286   1.511   2.403  10.754 -0.2773 -0.2412  0.2042
   84TCq2    C8 1287   1.362   2.465  10.944 -0.4032  0.3812  0.6958
   84TCq2    O4 1288   1.343   2.558  11.020 -0.1633 -0.0590 -0.3422
   84TCq2    C9 1289   1.776   2.696  10.873 -0.5608  0.4574 -0.4927
   84TCq2    O5 1290   1.783   2.719  10.997  0.1239 -0.0162 -0.0557
   84TCq2    O6 1291   1.854   2.750  10.793 -0.3511 -0.4043  0.0419
   84TCq2    H2 1292   1.799   2.546  10.665 -0.9745  1.6075 -1.6934
   84TCq2    H3 1293   1.561   2.636  11.000 -3.4516  1.9674 -0.9752
   84TCq2    H4 1294   1.451   2.315  10.736  0.0034 -0.8411  2.1640
   85MPD2     C 1295   1.377   0.676  16.453  0.0633 -0.3922 -0.5417
   85MPD2    C1 1296   1.373   0.632  16.318  0.3186 -0.2102 -0.3088
   85MPD2    C2 1297   1.456   0.698  16.233 -0.1980  0.4458 -0.6364
   85MPD2    C3 1298   1.551   0.784  16.278  0.5705  0.1830  0.1819
   85MPD2    C4 1299   1.557   0.822  16.414 -0.0458  0.3660  0.1481
   85MPD2    C5 1300   1.466   0.763  16.497 -0.1435 -0.2587  0.5181
   85MPD2     H 1301   1.449   0.678  16.127 -1.1710  0.7160 -0.6242
   85MPD2    H1 1302   1.630   0.891  16.454  0.2692 -0.2032  0.5348
   85MPD2    H2 1303   1.305   0.653  16.530 -1.9146  4.3448 -0.9808
   85MPD2    H3 1304   1.479   0.778  16.603  1.4997 -1.6854  0.5274
   85MPD2     N 1305   1.629   0.854  16.180  0.0511 -0.0919  0.4341
   85MPD2    H5 1306   1.615   0.836  16.081 -1.5221  1.1761  0.4230
   85MPD2    N1 1307   1.282   0.537  16.261 -0.6779  0.2125  0.6657
   85MPD2    H7 1308   1.281   0.535  16.160 -0.3118  0.3848  0.6585
   86TCq2    C1 1309   1.731   0.938  16.209 -0.3350 -0.0693 -0.5387
   86TCq2    O2 1310   1.788   0.964  16.315 -0.2384 -0.2429 -0.0197
   86TCq2    C2 1311   1.785   1.005  16.094  0.4031 -0.7120 -0.0056
   86TCq2    C3 1312   1.700   1.046  15.990 -0.1556 -0.0878  0.4232
   86TCq2    C4 1313   1.758   1.072  15.870 -0.4119 -0.3146 -0.7180
   86TCq2    C5 1314   1.889   1.064  15.853  0.0490  0.2512  0.2982
   86TCq2    C6 1315   1.970   1.019  15.955  0.4750 -0.1025 -0.0171
   86TCq2    C7 1316   1.920   0.989  16.077  0.0756  0.1834  0.1312
   86TCq2    C8 1317   2.115   1.009  15.950  0.5297 -0.1470  0.0717
   86TCq2    O4 1318   2.178   0.982  16.047  0.3285  0.1017  0.5589
   86TCq2    C9 1319   1.671   1.110  15.759 -0.1209  0.2800 -0.1553
   86TCq2    O5 1320   1.722   1.163  15.658 -0.3694 -0.3944 -0.1184
   86TCq2    O6 1321   1.548   1.088  15.777  0.4460  0.2085  0.2347
   86TCq2    H2 1322   1.593   1.056  16.003 -0.5067 -0.9156 -1.7614
   86TCq2    H3 1323   1.935   1.094  15.760 -2.0441 -1.4509 -1.2702
   86TCq2    H4 1324   1.985   0.953  16.155 -0.4543  0.1982  0.5766
   87MPD2     C 1325   3.576   4.307   1.040 -0.2707 -0.4527  0.7740
   87MPD2    C1 1326   3.689   4.322   0.963 -0.4574 -0.0758 -0.0389
   87MPD2    C2 1327   3.676   4.330   0.827  0.3255  0.4128  0.6067
   87MPD2    C3 1328   3.557   4.308   0.760 -0.6763 -0.1658 -0.1352
   87MPD2    C4 1329   3.443   4.296   0.835 -0.5053  0.4892  0.2666
   87MPD2    C5 1330   3.462   4.284   0.970 -0.2645 -0.7205  0.1476
   87MPD2     H 1331   3.764   4.355   0.768 -0.1852  1.9795  0.4997
   87MPD2    H1 1332   3.342   4.293   0.794 -0.4651  0.1828  0.1902
   87MPD2    H2 1333   3.574   4.300   1.148  0.2792  1.5164  0.9048
   87MPD2    H3 1334   3.379   4.260   1.036 -0.2671  0.4569  0.5711
   87MPD2     N 1335   3.541   4.302   0.619  0.0335 -0.0339  0.1153
   87MPD2    H5 1336   3.449   4.275   0.587  1.3556 -1.4669 -2.4198
   87MPD2    N1 1337   3.814   4.345   1.023  0.1149  0.0009 -0.0263
   87MPD2    H7 1338   3.823   4.390   1.113 -0.0045 -1.5963  0.7874
   88TCq2    C1 1339   3.933   4.316   0.956  0.8390  0.2227  0.4592
   88TCq2    O2 1340   3.950   4.240   0.860 -0.8851 -0.3492  0.3602
   88TCq2    C2 1341   4.049   4.398   0.993  0.6664  0.1798  0.2003
   88TCq2    C3 1342   4.042   4.498   1.087 -0.6413  0.1024  0.2125
   88TCq2    C4 1343   4.157   4.569   1.109 -0.1210 -0.4444  0.3426
   88TCq2    C5 1344   4.269   4.556   1.038  0.0127 -0.1763  0.1698
   88TCq2    C6 1345   4.268   4.468   0.938 -0.0880 -0.1371  0.1491
   88TCq2    C7 1346   4.161   4.381   0.917 -0.0301  0.0417  0.4013
   88TCq2    C8 1347   4.372   4.480   0.835  0.0032  0.1005 -0.0711
   88TCq2    O4 1348   4.417   4.591   0.806 -0.4733  0.7401 -0.2630
   88TCq2    C9 1349   4.154   4.670   1.204 -0.2659  0.2588 -0.2440
   88TCq2    O5 1350   4.258   0.008   1.231 -0.2748  0.5978 -0.4752
   88TCq2    O6 1351   4.039   4.709   1.241 -0.2993  0.2823 -0.0083
   88TCq2    H2 1352   3.967   4.514   1.163 -2.3612 -1.8972 -1.0709
   88TCq2    H3 1353   4.350   4.627   1.051  0.2929 -0.4415 -0.1371
   88TCq2    H4 1354   4.160   4.320   0.827 -2.1160  1.5247 -0.5678
   89MPD2     C 1355   4.582   1.146   1.166  0.2696 -0.5133 -0.5361
   89MPD2    C1 1356   4.449   1.145   1.195  0.0842  0.1333  0.6814
   89MPD2    C2 1357   4.390   1.264   1.195  0.0925  0.1163  0.2712
   89MPD2    C3 1358   4.453   1.384   1.164  1.2403 -0.6937  0.3685
   89MPD2    C4 1359   4.588   1.380   1.132 -0.2101  0.2831 -0.5440
   89MPD2    C5 1360   4.651   1.261   1.137  0.1494  0.0326  0.1290
   89MPD2     H 1361   4.282   1.269   1.205  0.0801  0.6057 -0.1511
   89MPD2    H1 1362   4.643   1.470   1.107 -0.5605  0.4245 -0.8034
   89MPD2    H2 1363   4.643   1.058   1.149  0.8353 -0.2430  0.1349
   89MPD2    H3 1364   0.036   1.258   1.122 -0.2672 -0.0958 -2.8422
   89MPD2     N 1365   4.379   1.504   1.165  0.2154 -0.6107  0.7020
   89MPD2    H5 1366   4.285   1.483   1.199 -0.8258  2.5062 -0.3131
   89MPD2    N1 1367   4.378   1.024   1.225  0.3073 -0.2434  0.3903
   89MPD2    H7 1368   4.277   1.032   1.227  0.3670  0.0808  2.1025
   90TCq2    C1 1369   4.421   1.632   1.135 -0.3029  0.1285 -0.3340
   90TCq2    O2 1370   4.532   1.666   1.091 -0.2503 -0.5339 -0.4662
   90TCq2    C2 1371   4.316   1.732   1.173  0.0087  0.1984  0.3466
   90TCq2    C3 1372   4.228   1.704   1.272 -0.0020 -0.6976  0.1573
   90TCq2    C4 1373   4.130   1.791   1.307  0.0341  0.2174 -0.0312
   90TCq2    C5 1374   4.120   1.904   1.230  0.7414  0.4104  0.2975
   90TCq2    C6 1375   4.219   1.930   1.136  0.2031 -0.3978  0.3864
   90TCq2    C7 1376   4.323   1.848   1.103 -0.5681 -0.4376 -0.6832
   90TCq2    C8 1377   4.226   2.065   1.080 -0.6192 -0.7075 -0.2740
   90TCq2    O4 1378   4.128   2.133   1.095 -0.0704 -0.2920 -0.2394
   90TCq2    C9 1379   4.024   1.753   1.402 -0.1735 -0.0950  0.4137
   90TCq2    O5 1380   4.055   1.665   1.494 -0.3383  0.2351 -0.1972
   90TCq2    O6 1381   3.912   1.801   1.385 -0.1379 -0.9836  0.5844
   90TCq2    H2 1382   4.224   1.610   1.326 -2.3504  0.1971  1.5330
   90TCq2    H3 1383   4.041   1.975   1.252  0.4116  0.4622 -1.0916
   90TCq2    H4 1384   4.372   1.830   1.007 -1.3180  0.8941 -1.3054
   91TMC2    C1 1385   1.481   2.226  16.810 -0.3110 -0.2662 -0.2358
   91TMC2    C2 1386   1.347   2.205  16.852  0.0473 -0.0453  0.5509
   91TMC2    C3 1387   1.252   2.219  16.752 -0.7298  0.4313  0.3304
   91TMC2    C4 1388   1.519   2.279  16.693  0.3018  0.6827 -0.0246
   91TMC2    C5 1389   1.421   2.285  16.599  0.2597  0.2463 -1.2275
   91TMC2    C6 1390   1.291   2.243  16.627 -0.6251  0.0241 -0.9268
   91TMC2     C 1391   1.568   2.230  16.928 -0.1450 -0.5353 -0.0341
   91TMC2     O 1392   1.521   2.281  17.027  0.0970 -0.5080 -0.5024
   91TMC2     H 1393   1.324   2.176  16.954 -2.7400 -0.7119 -0.2610
   91TMC2    H1 1394   1.624   2.298  16.673  0.7912 -1.6102  0.3141
   91TMC2    H2 1395   1.220   2.248  16.545 -1.4248 -2.3625 -0.3963
   91TMC2    C7 1396   1.465   2.334  16.469 -1.3214 -0.0443 -0.3795
   91TMC2    C8 1397   1.138   2.135  16.765 -0.2238 -0.1542 -0.2865
   91TMC2    O1 1398   1.581   2.376  16.461 -0.6635 -0.4673 -0.1233
   91TMC2    O2 1399   1.094   2.076  16.669 -0.6191 -0.1742  0.0207
   91TMC2    O5 1400   1.075   2.155  16.881  0.3055 -0.3792  0.1814
   91TMC2    H5 1401   1.122   2.225  16.932  0.6487 -0.8625  0.5178
   92MPD2     C 1402   1.782   2.232  17.139 -0.5367 -0.3706  0.4579
   92MPD2    C1 1403   1.802   2.227  17.002  0.1820  0.3232 -0.3699
   92MPD2    C2 1404   1.939   2.215  16.955 -0.7917  0.5889  0.4206
   92MPD2    C3 1405   2.045   2.208  17.044 -0.3870 -0.0092  0.0204
   92MPD2    C4 1406   2.016   2.209  17.179  0.2912  0.3763  0.4134
   92MPD2    C5 1407   1.889   2.226  17.223 -0.2280 -0.0435 -0.0465
   92MPD2     H 1408   1.959   2.218  16.849  1.1680  2.8698  0.8455
   92MPD2    H1 1409   2.095   2.198  17.252  0.7198  0.6191 -0.0085
   92MPD2    H2 1410   1.682   2.246  17.178 -2.1522 -2.1530 -3.0751
   92MPD2    H3 1411   1.879   2.228  17.331 -0.0139 -1.2607  0.0007
   92MPD2     N 1412   2.172   2.183  16.988  0.3851 -1.0589 -0.2339
   92MPD2    H5 1413   2.175   2.187  16.887 -1.8399  1.5286 -0.2046
   92MPD2    N1 1414   1.700   2.210  16.907 -0.3982 -0.3480  0.6651
   92MPD2    H7 1415   1.734   2.181  16.816  0.4954 -0.5662  1.0644
   93MPD2     C 1416   3.469   1.875  14.064 -0.2168  0.6053  0.0504
   93MPD2    C1 1417   3.496   1.768  13.975  0.2383  0.0333 -0.1464
   93MPD2    C2 1418   3.414   1.747  13.871  1.2805  0.5503  0.3122
   93MPD2    C3 1419   3.311   1.837  13.853 -0.4690 -0.5118  0.3352
   93MPD2    C4 1420   3.291   1.941  13.939 -0.1877 -0.6754 -0.5740
   93MPD2    C5 1421   3.362   1.961  14.052  0.2398 -0.0004  0.5362
   93MPD2     H 1422   3.431   1.659  13.810 -1.4876 -0.2439  0.6812
   93MPD2    H1 1423   3.214   2.013  13.913  0.4684 -0.7356 -2.6172
   93MPD2    H2 1424   3.535   1.899  14.147  1.7481 -0.8277 -1.1127
   93MPD2    H3 1425   3.345   2.044  14.119 -0.5734  0.3928 -0.1505
   93MPD2     N 1426   3.226   1.825  13.744 -0.1994 -0.5102  0.7628
   93MPD2    H5 1427   3.144   1.884  13.758 -0.4456 -0.3718 -1.2658
   93MPD2    N1 1428   3.604   1.678  13.993 -0.0208  0.0277 -0.5803
   93MPD2    H7 1429   3.616   1.599  13.930 -1.1035 -2.1510  1.9504
   94TCq2    C1 1430   3.713   1.711  14.075 -0.9786  0.0859 -0.1886
   94TCq2    O2 1431   3.740   1.815  14.129 -0.6414  0.5450  0.1172
   94TCq2    C2 1432   3.817   1.608  14.070 -0.3810  0.0313  0.3349
   94TCq2    C3 1433   3.790   1.485  14.016 -0.0759 -0.3928 -0.0043
   94TCq2    C4 1434   3.891   1.400  13.974  0.1282 -0.4272  0.3474
   94TCq2    C5 1435   4.020   1.445  13.994 -0.3290 -0.2652  0.1960
   94TCq2    C6 1436   4.046   1.558  14.062  0.4579  0.6462  0.1804
   94TCq2    C7 1437   3.946   1.644  14.097  0.6220  0.0200  0.3791
   94TCq2    C8 1438   4.188   1.589  14.091 -0.3995 -0.0042  0.5019
   94TCq2    O4 1439   4.279   1.523  14.041  0.7844 -0.1510  0.0445
   94TCq2    C9 1440   3.864   1.273  13.914 -0.4441 -0.1772  0.2705
   94TCq2    O5 1441   3.744   1.250  13.889  0.5653 -0.2139  0.1234
   94TCq2    O6 1442   3.958   1.189  13.891 -0.4230 -0.0193  0.0398
   94TCq2    H2 1443   3.688   1.448  14.010 -0.2089  0.8068 -5.4728
   94TCq2    H3 1444   4.100   1.377  13.965  0.1499 -0.5556  2.2051
   94TCq2    H4 1445   3.958   1.728  14.164 -0.5315 -0.6797  1.4583
   95TMC2    C1 1446   3.551   3.232  15.901  0.0216 -0.3094 -0.1331
   95TMC2    C2 1447   3.471   3.218  16.008 -0.1413 -0.6222  0.5984
   95TMC2    C3 1448   3.357   3.143  15.997 -0.5127  0.5138  0.1710
   95TMC2    C4 1449   3.516   3.183  15.774 -0.5396  0.3778  0.1520
   95TMC2    C5 1450   3.395   3.120  15.770 -0.3449 -0.2151 -0.0925
   95TMC2    C6 1451   3.313   3.097  15.880  0.0479  0.7343 -0.2789
   95TMC2     C 1452   3.670   3.294  15.930  0.5684 -0.5763 -0.2968
   95TMC2     O 1453   3.705   3.295  16.047 -0.1216 -0.0882 -0.6754
   95TMC2     H 1454   3.498   3.271  16.098  0.7100  1.6982 -1.0165
   95TMC2    H1 1455   3.585   3.198  15.692  0.9362 -1.4988  1.0369
   95TMC2    H2 1456   3.221   3.044  15.856 -0.1451  0.5531  0.9006
   95TMC2    C7 1457   3.324   3.110  15.645 -0.5947  0.0846  0.4543
   95TMC2    C8 1458   3.277   3.134  16.116  0.2145 -0.9374 -1.1996
   95TMC2    O1 1459   3.204   3.127  15.638  0.2796 -0.0943 -0.0940
   95TMC2    O2 1460   3.325   3.157  16.225 -0.1410  0.1253  0.3744
   95TMC2    O5 1461   3.141   3.121  16.091  0.4087  0.9727 -0.7219
   95TMC2    H5 1462   3.121   3.144  15.998  2.3569 -1.0073 -1.6325
   96MPD2     C 1463   4.111   3.516  15.777  0.4433  0.4854  0.1766
   96MPD2    C1 1464   4.020   3.526  15.673  0.1910  0.2777 -0.6609
   96MPD2    C2 1465   3.890   3.477  15.695 -0.0031  0.6084  0.6396
   96MPD2    C3 1466   3.850   3.423  15.816  0.0539  0.6981 -0.3780
   96MPD2    C4 1467   3.942   3.429  15.925  1.0007 -0.2720 -0.0927
   96MPD2    C5 1468   4.068   3.476  15.903 -0.4126  0.1013  0.5235
   96MPD2     H 1469   3.819   3.467  15.614 -2.9324  0.5130  3.2231
   96MPD2    H1 1470   3.921   3.399  16.027  0.6785 -0.1580 -0.1249
   96MPD2    H2 1471   4.206   3.569  15.775  1.3489 -1.1269  0.4061
   96MPD2    H3 1472   4.144   3.482  15.980 -0.0161 -0.8739  0.2083
   96MPD2     N 1473   3.723   3.363  15.819 -0.3336 -0.0298 -0.0491
   96MPD2    H5 1474   3.665   3.359  15.736  1.4815  1.8454 -1.4083
   96MPD2    N1 1475   4.066   3.580  15.552  0.4517  0.2110  0.0290
   96MPD2    H7 1476   4.163   3.610  15.552  0.7471 -0.7473  0.0841
   97MPD2     C 1477   1.250   0.839   1.209 -0.1872  0.0573 -0.1914
   97MPD2    C1 1478   1.197   0.933   1.113  0.0859  0.4080  0.1419
   97MPD2    C2 1479   1.222   0.910   0.979 -0.2891  0.7240 -0.4078
   97MPD2    C3 1480   1.299   0.807   0.933 -0.1996 -0.1766  0.6475
   97MPD2    C4 1481   1.343   0.716   1.021 -0.3900 -0.3164 -0.7112
   97MPD2    C5 1482   1.322   0.735   1.153  0.5088 -0.2901  0.4537
   97MPD2     H 1483   1.185   0.989   0.914 -1.0781  0.6364 -0.0643
   97MPD2    H1 1484   1.392   0.622   0.997  0.9678  0.8512 -2.4885
   97MPD2    H2 1485   1.237   0.862   1.314  2.2386  2.4736 -0.4081
   97MPD2    H3 1486   1.367   0.661   1.219  0.8826 -1.0370 -0.6352
   97MPD2     N 1487   1.332   0.784   0.800  0.5101 -0.2501 -0.3271
   97MPD2    H5 1488   1.402   0.713   0.779  0.7283  0.1390 -0.9023
   97MPD2    N1 1489   1.130   1.048   1.163  0.3355  0.1556  0.3547
   97MPD2    H7 1490   1.120   1.048   1.264 -2.1385 -0.8890  0.0960
   98TCq2    C1 1491   1.310   0.872   0.698  0.6357 -0.0086  0.1170
   98TCq2    O2 1492   1.241   0.973   0.691  0.0718  0.3847 -0.4860
   98TCq2    C2 1493   1.374   0.827   0.577  0.3235 -0.4497  0.7703
   98TCq2    C3 1494   1.399   0.695   0.555 -0.0744  0.7912  0.5412
   98TCq2    C4 1495   1.455   0.663   0.432  0.2184  0.7428  0.2933
   98TCq2    C5 1496   1.487   0.757   0.340  0.7638  0.1899  0.2922
   98TCq2    C6 1497   1.458   0.888   0.360  0.2156 -0.2198  0.0121
   98TCq2    C7 1498   1.407   0.917   0.486 -0.4744  0.2111 -0.0324
   98TCq2    C8 1499   1.562   0.982   0.328  0.1321 -0.4998 -0.5856
   98TCq2    O4 1500   1.581   1.062   0.421  0.2810 -0.1581  0.4072
   98TCq2    C9 1501   1.481   0.522   0.410  0.7562 -0.7653  0.1891
   98TCq2    O5 1502   1.549   0.495   0.311 -0.4449  0.3134 -0.2875
   98TCq2    O6 1503   1.431   0.436   0.492 -0.3412  0.5121 -0.0987
   98TCq2    H2 1504   1.366   0.612   0.616 -3.4731  2.2650  0.6793
   98TCq2    H3 1505   1.535   0.726   0.248 -0.0545  3.0459 -1.0844
   98TCq2    H4 1506   1.375   1.019   0.505 -0.3469  0.5236 -1.4523
   99MPD2     C 1507   0.238   3.388   1.463  0.7970  0.1891  0.1091
   99MPD2    C1 1508   0.149   3.478   1.414  0.5255 -0.2577  0.4154
   99MPD2    C2 1509   0.118   3.476   1.282 -0.2261  0.1885  0.6101
   99MPD2    C3 1510   0.167   3.385   1.192  0.1278  0.3760 -0.6779
   99MPD2    C4 1511   0.267   3.307   1.245  0.4165 -0.6658 -0.6458
   99MPD2    C5 1512   0.304   3.308   1.373  0.1158 -0.5299  0.2703
   99MPD2     H 1513   0.058   3.554   1.237  0.2407  2.6900  4.2865
   99MPD2    H1 1514   0.319   3.239   1.178  0.6725 -0.3712 -0.7457
   99MPD2    H2 1515   0.269   3.379   1.566  2.1167 -1.5829 -0.4377
   99MPD2    H3 1516   0.390   3.250   1.406  0.2765 -1.2293 -1.3963
   99MPD2     N 1517   0.126   3.380   1.058  0.2021  0.1810 -0.9020
   99MPD2    H5 1518   0.062   3.454   1.031  0.0404  1.7320  3.7031
   99MPD2    N1 1519   0.087   3.579   1.492 -0.6584 -0.1727 -0.0664
   99MPD2    H7 1520   0.024   3.644   1.444  0.2276  0.3653 -0.4979
  100TCq2    C1 1521   0.112   3.603   1.628 -1.2493  0.1180  0.2872
  100TCq2    O2 1522   0.208   3.560   1.697 -0.4424 -0.0922 -0.1377
  100TCq2    C2 1523   0.020   3.696   1.688 -0.3247  0.5622  0.5645
  100TCq2    C3 1524   0.062   3.756   1.805 -0.1806  0.3217 -0.0418
  100TCq2    C4 1525   4.707   3.863   1.846  0.1321  0.6851  0.2214
  100TCq2    C5 1526   4.590   3.903   1.786  0.0646 -0.2303 -0.0568
  100TCq2    C6 1527   4.546   3.824   1.682  0.1737 -0.0321  0.0486
  100TCq2    C7 1528   4.629   3.727   1.626 -0.7222  0.2912 -0.5424
  100TCq2    C8 1529   4.433   3.871   1.600  0.1860 -0.5522  0.8477
  100TCq2    O4 1530   4.408   3.991   1.603 -0.8869 -0.3922 -0.0139
  100TCq2    C9 1531   0.037   3.932   1.959  0.5347 -0.9538  0.1174
  100TCq2    O5 1532   4.703   4.037   1.995  0.0512  0.2103  0.0616
  100TCq2    O6 1533   0.127   3.872   2.023  0.0162 -0.7944  0.1575
  100TCq2    H2 1534   0.153   3.733   1.859 -1.4411 -0.7960  1.5751
  100TCq2    H3 1535   4.514   3.957   1.841 -1.1780 -0.4833 -1.5240
  100TCq2    H4 1536   4.581   3.659   1.556 -1.6481 -1.2408  1.5624
  101MPD2     C 1537   0.550   3.937  12.764  0.8687  0.0561 -0.2992
  101MPD2    C1 1538   0.528   4.012  12.886 -0.3793 -0.0427  0.2347
  101MPD2    C2 1539   0.465   3.958  12.992  0.4910 -0.0145 -0.2142
  101MPD2    C3 1540   0.437   3.826  12.989  0.6199  0.3205  0.5721
  101MPD2    C4 1541   0.461   3.754  12.873 -0.9134  0.7197 -0.1217
  101MPD2    C5 1542   0.514   3.810  12.758 -0.5573  0.5132 -0.0729
  101MPD2     H 1543   0.442   4.004  13.088  2.7176  3.3433 -1.2990
  101MPD2    H1 1544   0.445   3.647  12.869  1.1364  0.4779 -1.9342
  101MPD2    H2 1545   0.594   3.989  12.679  0.7755 -2.3571 -1.8118
  101MPD2    H3 1546   0.529   3.751  12.669 -0.5821  1.6189 -0.8043
  101MPD2     N 1547   0.387   3.771  13.110  0.3864  0.1273  0.5987
  101MPD2    H5 1548   0.364   3.833  13.186 -0.5327  0.5782 -0.0452
  101MPD2    N1 1549   0.576   4.149  12.895 -0.0156 -0.1092  0.1740
  101MPD2    H7 1550   0.619   4.188  12.811  0.3706  0.4005  0.6117
  102TCq2    C1 1551   0.617   4.601  12.672 -0.0748  0.0641 -0.4624
  102TCq2    O2 1552   0.668   4.528  12.587 -0.1245  0.0605  0.0549
  102TCq2    C2 1553   0.606   4.550  12.813  0.7357  0.5186  0.0956
  102TCq2    C3 1554   0.591   4.640  12.915  0.5505 -0.6943 -0.2559
  102TCq2    C4 1555   0.557   4.602  13.040  0.4469  0.1995  0.2519
  102TCq2    C5 1556   0.552   4.466  13.065 -0.2256 -0.5060 -0.1368
  102TCq2    C6 1557   0.587   4.377  12.972 -0.6909 -0.5137  0.0750
  102TCq2    C7 1558   0.607   4.414  12.839 -1.1862 -0.0591  0.7422
  102TCq2    C8 1559   0.560   4.235  13.000 -0.1585  0.4388  0.4003
  102TCq2    O4 1560   0.483   4.217  13.093 -0.0907 -0.3582 -0.4497
  102TCq2    C9 1561   0.553   4.705  13.143  0.5015 -0.0949 -0.1627
  102TCq2    O5 1562   0.568   0.105  13.106  0.4119  0.1343 -0.4796
  102TCq2    O6 1563   0.576   4.667  13.261  0.6063  0.0260  0.2612
  102TCq2    H2 1564   0.604   0.024  12.903 -0.3722 -0.2723  2.5056
  102TCq2    H3 1565   0.523   4.433  13.165 -1.1321  0.7419  0.0201
  102TCq2    H4 1566   0.612   4.346  12.754  0.9145  1.7673 -0.5929
  103TMC2    C1 1567   3.756   3.812  12.535 -0.1145 -0.1627 -0.6050
  103TMC2    C2 1568   3.868   3.785  12.603  0.2323  0.5844  0.0112
  103TMC2    C3 1569   3.925   3.891  12.654  0.3559 -0.2251 -0.4620
  103TMC2    C4 1570   3.694   3.937  12.532  0.0812 -0.2500 -0.1154
  103TMC2    C5 1571   3.767   4.035  12.587  0.0634  0.4931  0.6736
  103TMC2    C6 1572   3.884   4.018  12.647  0.6723 -0.1859  0.1292
  103TMC2     C 1573   3.674   3.705  12.492 -0.4847  0.3780  0.2665
  103TMC2     O 1574   3.557   3.741  12.467  0.0323  0.6756  0.3487
  103TMC2     H 1575   3.894   3.684  12.630 -0.7378  0.5710  0.8571
  103TMC2    H1 1576   3.594   3.953  12.493 -1.4928  1.1415  4.5451
  103TMC2    H2 1577   3.943   4.081  12.712 -1.1347  0.9077  0.7134
  103TMC2    C7 1578   3.696   4.147  12.643  0.1141  0.2047  0.4560
  103TMC2    C8 1579   4.047   3.857  12.716 -0.1108  0.1701  0.1301
  103TMC2    O1 1580   3.727   4.151  12.761 -0.1538 -0.2438  0.1698
  103TMC2    O2 1581   4.108   3.755  12.679  0.1472 -0.4948  0.3830
  103TMC2    O5 1582   4.004   3.873  12.844  0.8170 -0.0235  0.1198
  103TMC2    H5 1583   3.950   3.949  12.876  1.0602  1.0935 -2.1819
  104MPD2     C 1584   3.755   3.354  12.433 -0.0162 -0.1261 -0.5126
  104MPD2    C1 1585   3.682   3.468  12.437  0.7652 -0.3684 -0.3663
  104MPD2    C2 1586   3.549   3.450  12.403 -0.0473  0.1603 -0.0017
  104MPD2    C3 1587   3.495   3.340  12.348  0.1238 -0.1084 -0.5225
  104MPD2    C4 1588   3.570   3.232  12.340  0.0048 -0.5049  0.1199
  104MPD2    C5 1589   3.692   3.234  12.405 -0.2259 -0.2126 -0.0283
  104MPD2     H 1590   3.487   3.539  12.413 -1.1103 -0.6546  0.7278
  104MPD2    H1 1591   3.528   3.136  12.311 -0.4557  0.7595 -3.4391
  104MPD2    H2 1592   3.855   3.340  12.472  0.6411  0.6722 -1.9137
  104MPD2    H3 1593   3.750   3.143  12.406 -0.0351 -0.0862  0.6503
  104MPD2     N 1594   3.360   3.355  12.316  0.1256 -0.2735  0.1194
  104MPD2    H5 1595   3.320   3.448  12.322  0.3483 -0.0305 -2.2311
  104MPD2    N1 1596   3.738   3.589  12.476 -0.1831  0.3151  0.5144
  104MPD2    H7 1597   3.838   3.585  12.495 -0.2639  2.6127  1.4301
  105MPD2     C 1598   0.057   4.252  17.096 -0.0456 -0.0788  0.6366
  105MPD2    C1 1599   4.651   4.270  17.152 -0.0327 -0.1682 -0.0317
  105MPD2    C2 1600   4.640   4.353  17.265 -0.2401  1.5198  0.0694
  105MPD2    C3 1601   0.028   4.420  17.314  0.2591 -0.4281  0.3377
  105MPD2    C4 1602   0.153   4.394  17.257  0.5175 -0.8671  0.7397
  105MPD2    C5 1603   0.163   4.311  17.145 -0.2730  0.2432  0.3110
  105MPD2     H 1604   4.540   4.368  17.305 -1.6687 -0.8473 -2.5793
  105MPD2    H1 1605   0.245   4.431  17.301  0.9344 -2.2485  1.0397
  105MPD2    H2 1606   0.069   4.185  17.011 -2.1373 -3.0735  2.7084
  105MPD2    H3 1607   0.259   4.280  17.105 -0.9570 -0.1939 -0.9967
  105MPD2     N 1608   0.013   4.509  17.433  0.5400  0.4294  0.1544
  105MPD2    H5 1609   4.640   4.518  17.463  0.6113  0.4678  0.3738
  105MPD2    N1 1610   4.532   4.203  17.102  0.1998  0.4128 -0.4139
  105MPD2    H7 1611   4.446   4.212  17.154  1.3035  2.5261  1.0307
  106TCq2    C1 1612   0.107   4.585  17.501 -0.8579 -0.0270  0.6635
  106TCq2    O2 1613   0.225   4.599  17.461  0.2064  0.0662  0.2757
  106TCq2    C2 1614   0.059   4.625  17.637 -0.1069  0.2085 -0.3434
  106TCq2    C3 1615   0.124   0.006  17.692  0.3894  0.5061 -0.1556
  106TCq2    C4 1616   0.086   0.032   0.126 -0.6172  0.6254  0.1434
  106TCq2    C5 1617   4.712   4.690   0.198 -0.7090 -0.2401  0.0833
  106TCq2    C6 1618   4.653   4.587   0.137  0.4082 -0.7415  0.1228
  106TCq2    C7 1619   4.685   4.558   0.008 -0.4709  0.3398 -0.5667
  106TCq2    C8 1620   4.627   4.475   0.225  0.3231  0.7584 -0.7654
  106TCq2    O4 1621   4.630   4.363   0.176 -0.3574  0.4262  0.0617
  106TCq2    C9 1622   0.142   0.139   0.199 -0.0314  0.0525 -0.2425
  106TCq2    O5 1623   0.085   0.190   0.302  0.0913 -0.0393  0.3684
  106TCq2    O6 1624   0.266   0.168   0.174 -0.3171 -0.1050  0.3432
  106TCq2    H2 1625   0.184   0.085  17.648  2.2097 -0.5293  0.4380
  106TCq2    H3 1626   4.698   4.720   0.301 -0.9950  1.1057 -0.3379
  106TCq2    H4 1627   4.649   4.465  17.658  2.1658 -1.4205  1.0792
  107TMC2    C1 1628   0.805   2.602  11.699  0.4717 -0.4338 -0.3729
  107TMC2    C2 1629   0.820   2.725  11.644 -0.1419  0.8296  0.1704
  107TMC2    C3 1630   0.870   2.752  11.527 -0.2806 -0.6172 -0.0931
  107TMC2    C4 1631   0.841   2.497  11.622  0.8778 -0.2698  0.0995
  107TMC2    C5 1632   0.890   2.526  11.498  0.2646  0.6424 -0.1343
  107TMC2    C6 1633   0.919   2.652  11.445  0.3692  0.4410  0.7141
  107TMC2     C 1634   0.693   2.577  11.793 -0.0165 -0.4789 -0.4374
  107TMC2     O 1635   0.693   2.637  11.903  0.3672 -0.2615 -0.0033
  107TMC2     H 1636   0.780   2.801  11.710 -1.6904  0.5943 -0.4923
  107TMC2    H1 1637   0.824   2.396  11.660 -0.3016 -0.2678 -0.4306
  107TMC2    H2 1638   0.960   2.680  11.349 -1.2602 -0.2611 -0.1938
  107TMC2    C7 1639   0.918   2.411  11.415 -0.0175 -0.0081 -0.5941
  107TMC2    C8 1640   0.880   2.891  11.475 -0.7290  0.2260  0.0873
  107TMC2    O1 1641   0.853   2.314  11.447 -0.1131  0.0251 -0.8050
  107TMC2    O2 1642   0.956   2.912  11.383 -0.3569  0.5309  0.5510
  107TMC2    O5 1643   0.771   2.970  11.512  0.1097  0.0032  0.4150
  107TMC2    H5 1644   0.707   2.926  11.571 -1.7102 -1.0968 -2.3441
  108MPD2     C 1645   0.367   2.456  11.699  0.2738  0.3173 -0.2914
  108MPD2    C1 1646   0.464   2.504  11.778 -0.5091 -0.0473 -0.1135
  108MPD2    C2 1647   0.423   2.549  11.901  0.0859 -0.8043  0.2550
  108MPD2    C3 1648   0.292   2.543  11.949  0.3356 -0.6803 -0.5395
  108MPD2    C4 1649   0.196   2.486  11.869 -0.3441  0.5820 -0.5108
  108MPD2    C5 1650   0.235   2.443  11.748  0.3864 -0.1875  0.0557
  108MPD2     H 1651   0.494   2.575  11.979 -1.5055 -1.0818  1.7999
  108MPD2    H1 1652   0.088   2.481  11.882 -0.0635 -1.0716  1.2234
  108MPD2    H2 1653   0.389   2.415  11.601 -0.7856  0.9184 -0.7872
  108MPD2    H3 1654   0.158   2.389  11.695 -0.3281  0.7523  0.1457
  108MPD2     N 1655   0.246   2.590  12.075  0.1210 -0.1879  0.7601
  108MPD2    H5 1656   0.146   2.598  12.089  0.1347  1.0449  0.1377
  108MPD2    N1 1657   0.589   2.511  11.729  0.9064  0.0982  0.2501
  108MPD2    H7 1658   0.596   2.492  11.629 -0.7455  0.3675  0.0919
  109MPD2     C 1659   0.560   0.724   2.361 -0.7032  0.5413 -0.4611
  109MPD2    C1 1660   0.573   0.832   2.272 -0.7813  0.1760  0.2785
  109MPD2    C2 1661   0.700   0.881   2.251 -0.0107  0.7814 -0.1094
  109MPD2    C3 1662   0.816   0.837   2.320  0.2574  0.1072  0.1698
  109MPD2    C4 1663   0.801   0.728   2.403 -0.1330 -0.8139 -0.5863
  109MPD2    C5 1664   0.675   0.673   2.421 -0.7298 -0.4102 -0.2747
  109MPD2     H 1665   0.714   0.974   2.197  0.1076 -0.0516 -1.5040
  109MPD2    H1 1666   0.887   0.689   2.456  0.1287  0.2870 -0.1939
  109MPD2    H2 1667   0.467   0.677   2.390 -1.3193  0.6036 -2.3237
  109MPD2    H3 1668   0.667   0.599   2.501 -2.6157  1.0304  0.8606
  109MPD2     N 1669   0.943   0.887   2.303 -0.4968  0.2334  0.3956
  109MPD2    H5 1670   1.020   0.857   2.361 -0.5616  1.8568  1.3285
  109MPD2    N1 1671   0.459   0.878   2.207  0.4217  0.7076  0.1660
  109MPD2    H7 1672   0.374   0.824   2.226  2.2068 -1.4897  1.9890
  110TCq2    C1 1673   0.970   0.988   2.214  0.3013 -0.3349  0.5311
  110TCq2    O2 1674   0.923   1.018   2.106 -0.4505 -0.4757 -0.0658
  110TCq2    C2 1675   1.088   1.066   2.255  0.5008 -0.1489  0.3553
  110TCq2    C3 1676   1.073   1.142   2.368 -0.2819 -0.6457 -0.7923
  110TCq2    C4 1677   1.125   1.268   2.361 -0.2691 -0.0549 -0.0819
  110TCq2    C5 1678   1.192   1.314   2.252  0.8405  0.1320  0.0774
  110TCq2    C6 1679   1.204   1.236   2.145  0.1982  0.7159 -0.5200
  110TCq2    C7 1680   1.156   1.105   2.145  0.4677 -0.4364 -0.5146
  110TCq2    C8 1681   1.186   1.296   2.014  0.2053  0.3649  0.3386
  110TCq2    O4 1682   1.163   1.217   1.922 -0.2625  0.2089 -0.3312
  110TCq2    C9 1683   1.111   1.342   2.485  0.3422  0.2332 -0.1102
  110TCq2    O5 1684   1.155   1.458   2.493  0.0651  0.1327  0.1325
  110TCq2    O6 1685   1.055   1.280   2.579  0.5858  0.1297  0.5780
  110TCq2    H2 1686   0.999   1.122   2.444 -1.5712  0.0068 -1.8648
  110TCq2    H3 1687   1.256   1.401   2.253 -0.0532  0.7726  2.1235
  110TCq2    H4 1688   1.143   1.041   2.059 -3.2201 -0.5934  0.1595
  111TMC2    C1 1689   0.250   0.043  11.410  0.3865 -0.6083 -0.0324
  111TMC2    C2 1690   0.159   4.669  11.458  0.2894  0.7046  0.7226
  111TMC2    C3 1691   0.202   4.542  11.474 -0.0248  0.5198  0.2274
  111TMC2    C4 1692   0.380   0.014  11.383 -0.0996 -0.7787 -0.6218
  111TMC2    C5 1693   0.414   4.604  11.399 -0.0739  0.3093  0.6277
  111TMC2    C6 1694   0.338   4.504  11.448  0.0115  0.3227  0.1005
  111TMC2     C 1695   0.196   0.138  11.315 -0.2988 -0.4225 -0.2238
  111TMC2     O 1696   0.271   0.216  11.256 -0.8778  0.0377  0.3398
  111TMC2     H 1697   0.055   4.687  11.480 -0.3608 -3.2395  0.9817
  111TMC2    H1 1698   0.447   0.097  11.364 -0.9579  0.0940  0.1219
  111TMC2    H2 1699   0.384   4.406  11.456  1.6205  1.2804  2.6574
  111TMC2    C7 1700   0.551   4.573  11.440  0.1853  0.0379  0.2948
  111TMC2    C8 1701   0.113   4.437  11.514 -0.0855 -0.9308  0.3582
  111TMC2    O1 1702   0.565   4.526  11.553 -0.3317 -0.0595 -0.0990
  111TMC2    O2 1703   0.132   4.319  11.484 -0.5728  0.0550 -0.1527
  111TMC2    O5 1704   0.066   4.477  11.636  0.3978  0.0698 -0.2843
  111TMC2    H5 1705   0.093   4.567  11.662 -2.0516  0.7019  0.0721
  112MPD2     C 1706   4.544   0.325  11.014  0.2877  0.1456 -0.1042
  112MPD2    C1 1707   4.684   0.338  11.001 -0.0245  0.2724  0.3023
  112MPD2    C2 1708   0.047   0.285  11.095  0.1595 -0.2406  0.0830
  112MPD2    C3 1709   4.712   0.197  11.192  0.3115  0.4866  0.3529
  112MPD2    C4 1710   4.577   0.183  11.196  0.3612 -0.0254 -0.5703
  112MPD2    C5 1711   4.490   0.245  11.116  0.2083  0.3727  0.0757
  112MPD2     H 1712   0.154   0.301  11.086  0.2951 -0.4561  1.3734
  112MPD2    H1 1713   4.544   0.125  11.281  0.0186  1.9022  0.6051
  112MPD2    H2 1714   4.473   0.385  10.960  0.9555  0.7598 -0.2928
  112MPD2    H3 1715   4.384   0.241  11.136 -0.2570  1.8765 -1.9974
  112MPD2     N 1716   0.067   0.123  11.285  0.9975  0.4237 -0.5388
  112MPD2    H5 1717   0.014   0.068  11.352 -0.9959  3.0800  0.0509
  112MPD2    N1 1718   0.023   0.419  10.892  0.3395 -0.4456 -0.3918
  112MPD2    H7 1719   0.123   0.436  10.889  0.1519  0.9057  0.9104
  113MPD2     C 1720   3.717   3.355   1.056  0.0563  0.2572 -0.5299
  113MPD2    C1 1721   3.584   3.402   1.076  0.4628  0.1353  0.6172
  113MPD2    C2 1722   3.490   3.313   1.109  0.4101  0.3075 -0.4626
  113MPD2    C3 1723   3.522   3.183   1.125 -0.2112  0.6021 -1.1894
  113MPD2    C4 1724   3.652   3.137   1.097 -0.3289 -0.2477 -0.1090
  113MPD2    C5 1725   3.745   3.227   1.066 -0.0180  0.1041 -0.9044
  113MPD2     H 1726   3.386   3.339   1.124 -0.0678 -0.8601 -1.6335
  113MPD2    H1 1727   3.684   3.036   1.116  1.3214  0.2014 -0.5578
  113MPD2    H2 1728   3.800   3.420   1.033  1.0790 -1.3058 -1.2132
  113MPD2    H3 1729   3.848   3.202   1.045  0.1851 -1.0296  1.5118
  113MPD2     N 1730   3.433   3.082   1.161 -0.3419 -0.1379 -0.7554
  113MPD2    H5 1731   3.465   2.986   1.171  0.5331  0.1580 -0.7427
  113MPD2    N1 1732   3.540   3.536   1.075 -0.1633  0.0981  0.1582
  113MPD2    H7 1733   3.439   3.548   1.072 -0.3358 -1.3835  0.3756
  114TCq2    C1 1734   3.314   3.103   1.226  0.2563  0.2871  0.0681
  114TCq2    O2 1735   3.261   3.214   1.254 -0.0560 -0.4475  0.0605
  114TCq2    C2 1736   3.243   2.990   1.272 -0.0768  0.1646  0.2608
  114TCq2    C3 1737   3.156   3.013   1.377 -0.2600  0.4506  0.6617
  114TCq2    C4 1738   3.085   2.903   1.431 -0.1682 -0.9317 -0.2932
  114TCq2    C5 1739   3.104   2.778   1.375  0.1524 -0.4929 -0.0840
  114TCq2    C6 1740   3.205   2.767   1.279  0.5771  0.3347 -0.3497
  114TCq2    C7 1741   3.275   2.867   1.225  0.3631  0.0999 -0.8297
  114TCq2    C8 1742   3.234   2.632   1.233  0.5187  0.0585 -0.5311
  114TCq2    O4 1743   3.324   2.623   1.151 -0.0337  0.1197 -0.1365
  114TCq2    C9 1744   2.992   2.911   1.539 -0.7429 -0.3393 -0.0615
  114TCq2    O5 1745   2.976   2.800   1.599 -0.1003  0.0611  0.7383
  114TCq2    O6 1746   2.957   3.025   1.584  0.7621 -0.2795 -0.1181
  114TCq2    H2 1747   3.127   3.107   1.421  0.0086 -0.9683  3.8755
  114TCq2    H3 1748   3.054   2.700   1.432  1.0845 -0.2849  1.0181
  114TCq2    H4 1749   3.357   2.850   1.157  0.8917 -0.3561 -0.0878
  115TMC2    C1 1750   4.339   1.134   0.100 -0.1596  1.1050  0.4908
  115TMC2    C2 1751   4.474   1.140   0.111  0.1331  0.5045 -0.3232
  115TMC2    C3 1752   4.541   1.250   0.075  0.0848  0.6434 -0.0047
  115TMC2    C4 1753   4.271   1.242   0.056 -0.5492  0.2550  0.1582
  115TMC2    C5 1754   4.337   1.356   0.029  0.8546 -0.3250 -0.1952
  115TMC2    C6 1755   4.473   1.366   0.044  0.3189 -0.1676  0.4440
  115TMC2     C 1756   4.280   0.999   0.102 -0.6072 -0.1259 -0.0171
  115TMC2     O 1757   4.361   0.909   0.121 -0.7323  0.5937 -0.4989
  115TMC2     H 1758   4.525   1.045   0.126  0.4666  1.2246  3.2887
  115TMC2    H1 1759   4.169   1.240   0.018  0.0414  2.0341 -1.5303
  115TMC2    H2 1760   4.525   1.458   0.018  1.8038 -0.9314  0.6912
  115TMC2    C7 1761   4.256   1.473   0.015  0.8064 -0.1475 -0.0446
  115TMC2    C8 1762   4.680   1.237   0.119 -0.5296  0.6827 -0.0038
  115TMC2    O1 1763   4.136   1.462   0.045  0.2208 -0.5281 -0.5373
  115TMC2    O2 1764   0.012   1.130   0.134  0.3498  0.2489  0.0922
  115TMC2    O5 1765   0.002   1.363   0.148 -0.0980 -0.2507  0.1585
  115TMC2    H5 1766   4.649   1.425   0.149  0.8776  0.9585 -0.7850
  116MPD2     C 1767   3.886   0.679   0.032  0.1619  0.1868 -0.3643
  116MPD2    C1 1768   4.014   0.643   0.072  1.6641  0.2987  0.7077
  116MPD2    C2 1769   4.098   0.747   0.103  0.7338 -0.2459 -0.2288
  116MPD2    C3 1770   4.059   0.885   0.103 -0.2141 -0.7751 -0.2246
  116MPD2    C4 1771   3.928   0.913   0.069  0.3618  0.3548  0.5242
  116MPD2    C5 1772   3.843   0.808   0.044  0.4475  0.1029  0.1174
  116MPD2     H 1773   4.201   0.724   0.128  0.4423 -2.0367 -0.6837
  116MPD2    H1 1774   3.884   1.012   0.073 -0.4300  0.1275 -2.4437
  116MPD2    H2 1775   3.816   0.600   0.007 -1.3697  0.9092  1.6355
  116MPD2    H3 1776   3.740   0.833   0.023  0.7553  1.9344  0.7691
  116MPD2     N 1777   4.142   0.999   0.099 -0.4442  0.2838  0.5085
  116MPD2    H5 1778   4.104   1.092   0.112 -1.6720 -0.1452  0.0769
  116MPD2    N1 1779   4.057   0.512   0.062  0.3455  0.1445 -0.2110
  116MPD2    H7 1780   3.986   0.446   0.033  1.3051 -2.0675  2.4116
  117TMC2    C1 1781   2.739   2.329  13.876  0.3444 -0.2933 -0.3762
  117TMC2    C2 1782   2.803   2.212  13.849 -0.2183  0.3345 -0.8625
  117TMC2    C3 1783   2.935   2.207  13.840 -0.5315 -0.0457 -0.7633
  117TMC2    C4 1784   2.805   2.439  13.910 -0.2798 -0.4094  0.6354
  117TMC2    C5 1785   2.941   2.433  13.906 -0.4397 -0.5815  0.2734
  117TMC2    C6 1786   3.009   2.317  13.875  0.6690 -0.2532  0.2923
  117TMC2     C 1787   2.587   2.316  13.887  0.2456 -0.2421 -0.1610
  117TMC2     O 1788   2.537   2.204  13.878  0.3069 -0.1375 -0.2122
  117TMC2     H 1789   2.747   2.128  13.810  0.7798 -0.3883 -0.7007
  117TMC2    H1 1790   2.757   2.535  13.920 -0.6638 -0.6550  1.1229
  117TMC2    H2 1791   3.112   2.329  13.843  1.3041 -0.6124  2.2358
  117TMC2    C7 1792   3.014   2.556  13.876  0.3054 -0.3816 -0.2666
  117TMC2    C8 1793   2.997   2.086  13.787  0.4183  0.3170  0.0873
  117TMC2    O1 1794   3.103   2.545  13.791  0.0276  1.1388  0.1662
  117TMC2    O2 1795   3.095   2.074  13.715  0.3553 -0.1305 -0.0589
  117TMC2    O5 1796   2.937   1.994  13.868 -0.3652  0.2468  0.0275
  117TMC2    H5 1797   2.857   2.023  13.917 -0.2101  0.7320 -0.0034
  118MPD2     C 1798   3.001   2.869  14.059  0.7802 -0.3637  0.1866
  118MPD2    C1 1799   3.058   2.777  13.974 -0.2571  0.9401  0.4648
  118MPD2    C2 1800   3.187   2.788  13.925  0.4375  0.4760 -0.0132
  118MPD2    C3 1801   3.256   2.914  13.944 -0.4452  0.6945  0.2183
  118MPD2    C4 1802   3.193   3.008  14.024 -0.2837 -0.1407 -0.3889
  118MPD2    C5 1803   3.070   2.986  14.084  0.5694  0.0046 -0.2348
  118MPD2     H 1804   3.236   2.705  13.876 -0.7028 -0.5032  0.4835
  118MPD2    H1 1805   3.243   3.104  14.038  0.5737 -0.8588  1.4624
  118MPD2    H2 1806   2.911   2.853  14.115  1.5954 -0.8513  1.3541
  118MPD2    H3 1807   3.022   3.063  14.142  0.9945 -0.6937  1.0409
  118MPD2     N 1808   3.378   2.953  13.882 -0.8213 -0.2282 -0.1844
  118MPD2    H5 1809   3.414   3.044  13.908  0.1113 -0.8108  0.5607
  118MPD2    N1 1810   2.981   2.656  13.960 -0.1103 -0.1293 -0.4824
  118MPD2    H7 1811   2.911   2.655  14.033  0.8960  0.7666  0.5064
  119MPD2     C 1812   1.040   3.580  14.134  0.0060  0.0513  0.1232
  119MPD2    C1 1813   0.920   3.590  14.190  0.0448 -0.8589  0.1952
  119MPD2    C2 1814   0.807   3.595  14.107 -0.2399 -0.3402 -0.5261
  119MPD2    C3 1815   0.816   3.553  13.980  0.1456  0.1283 -0.3113
  119MPD2    C4 1816   0.937   3.527  13.926 -0.3599 -0.1164  0.4328
  119MPD2    C5 1817   1.050   3.545  14.003  0.0182 -0.5878 -0.1833
  119MPD2     H 1818   0.719   3.634  14.157  0.2130 -0.5007  0.4141
  119MPD2    H1 1819   0.953   3.503  13.821 -2.3599 -1.2364  0.3779
  119MPD2    H2 1820   1.129   3.579  14.196 -0.9542  0.4576  1.5135
  119MPD2    H3 1821   1.150   3.548  13.962 -0.1498 -1.2035 -0.6480
  119MPD2     N 1822   0.703   3.559  13.893  0.4435  0.7085 -0.0597
  119MPD2    H5 1823   0.714   3.522  13.799 -2.0305 -2.4266  0.8711
  119MPD2    N1 1824   0.912   3.630  14.325 -0.1473 -0.7776  0.2188
  119MPD2    H7 1825   1.001   3.671  14.351  0.4437 -1.5397 -0.5732
  120TCq2    C1 1826   0.580   3.588  13.921  0.2292  0.3298 -0.0333
  120TCq2    O2 1827   0.537   3.619  14.028 -0.2340 -0.5236  0.2440
  120TCq2    C2 1828   0.490   3.550  13.816  0.0133 -0.1657 -0.4080
  120TCq2    C3 1829   0.531   3.511  13.688  0.1577 -0.2063 -0.3050
  120TCq2    C4 1830   0.446   3.451  13.599 -0.4798 -0.0442  0.9122
  120TCq2    C5 1831   0.318   3.429  13.640 -0.4803 -0.3068  0.7152
  120TCq2    C6 1832   0.279   3.470  13.764 -0.8233 -0.2486 -0.3248
  120TCq2    C7 1833   0.362   3.532  13.858  0.4417 -0.6512 -0.1136
  120TCq2    C8 1834   0.148   3.447  13.820 -0.4733  0.4580 -0.4422
  120TCq2    O4 1835   0.071   3.392  13.743  0.2344 -0.4374 -0.1564
  120TCq2    C9 1836   0.496   3.405  13.473 -0.1712 -0.1644  0.7615
  120TCq2    O5 1837   0.606   3.444  13.435  0.0185 -0.0359  0.0951
  120TCq2    O6 1838   0.412   3.342  13.398 -0.8949 -0.2266  0.4896
  120TCq2    H2 1839   0.634   3.520  13.657  0.6853  1.6512  1.8976
  120TCq2    H3 1840   0.244   3.375  13.582 -1.3458  0.1130  1.4377
  120TCq2    H4 1841   0.321   3.600  13.931  3.9053  1.7414 -0.3881
  121TMC2    C1 1842   2.709   1.003  14.024  0.0825 -0.6462  0.5694
  121TMC2    C2 1843   2.670   0.937  14.130 -0.3531 -0.0345 -0.2792
  121TMC2    C3 1844   2.570   0.847  14.110  0.0039  0.1141  0.0653
  121TMC2    C4 1845   2.648   0.991  13.902  0.7679  0.0520  0.3815
  121TMC2    C5 1846   2.542   0.906  13.883  0.6566  0.5616  0.2420
  121TMC2    C6 1847   2.499   0.841  13.993  0.4268  0.5105  0.7961
  121TMC2     C 1848   2.847   1.033  14.034  0.4704  0.1148  0.5270
  121TMC2     O 1849   2.906   0.963  14.113  0.1492  0.1006 -0.4532
  121TMC2     H 1850   2.720   0.958  14.224 -1.1205  0.1414  0.0938
  121TMC2    H1 1851   2.697   1.033  13.815  0.2628  3.6468  1.7943
  121TMC2    H2 1852   2.418   0.770  13.982 -1.1368  2.2891  0.6610
  121TMC2    C7 1853   2.545   0.834  13.758 -0.9320  0.4951  0.2348
  121TMC2    C8 1854   2.514   0.795  14.227 -0.8563 -1.1012 -0.3099
  121TMC2    O1 1855   2.640   0.835  13.680 -0.0098  0.3962  0.7999
  121TMC2    O2 1856   2.398   0.835  14.246  0.3025  0.2524  0.3737
  121TMC2    O5 1857   2.611   0.769  14.319  0.4968 -0.0970  0.6233
  121TMC2    H5 1858   2.680   0.720  14.270  0.9949 -0.7523  1.9757
  122MPD2     C 1859   3.142   1.056  13.946  0.4988  0.6830  0.1425
  122MPD2    C1 1860   3.029   1.118  13.881 -0.0579 -0.3669 -0.0037
  122MPD2    C2 1861   3.045   1.190  13.767 -0.7212 -0.0350  0.1399
  122MPD2    C3 1862   3.176   1.197  13.719 -0.1490  0.0473 -0.0587
  122MPD2    C4 1863   3.288   1.142  13.783  0.1489  0.1950  0.1949
  122MPD2    C5 1864   3.266   1.074  13.898  0.8118  0.3052  0.1032
  122MPD2     H 1865   2.966   1.233  13.707 -0.1597 -2.3089 -2.2217
  122MPD2    H1 1866   3.385   1.134  13.734 -0.6340 -1.3035 -1.0903
  122MPD2    H2 1867   3.125   1.004  14.040  0.9219 -0.0909 -0.2118
  122MPD2    H3 1868   3.349   1.024  13.946  1.2969 -1.1393 -2.2208
  122MPD2     N 1869   3.213   1.244  13.596  0.3340 -0.6427  0.6883
  122MPD2    H5 1870   3.301   1.210  13.560  0.0389 -0.9972  0.3012
  122MPD2    N1 1871   2.896   1.109  13.925  0.7386  0.1645 -0.6866
  122MPD2    H7 1872   2.830   1.156  13.864  0.1479  0.8896  0.5122
  123MPD2     C 1873   0.015   3.246   9.714  1.1635 -0.5152 -0.2163
  123MPD2    C1 1874   0.120   3.306   9.786  0.3873  0.0840  0.5306
  123MPD2    C2 1875   0.176   3.425   9.748  0.2260  0.0725 -0.6393
  123MPD2    C3 1876   0.132   3.492   9.628  0.0973  0.4121 -0.5586
  123MPD2    C4 1877   0.028   3.434   9.557 -0.1399 -0.4944 -0.4164
  123MPD2    C5 1878   4.700   3.312   9.600 -0.2181 -0.2820 -0.2368
  123MPD2     H 1879   0.256   3.464   9.810  1.6666  0.1608 -2.5323
  123MPD2    H1 1880   4.705   3.468   9.465  1.3728  0.4951 -0.8129
  123MPD2    H2 1881   4.686   3.155   9.741  1.8739 -0.5990  0.9039
  123MPD2    H3 1882   4.625   3.273   9.533 -0.8208  0.4622  0.0024
  123MPD2     N 1883   0.199   3.604   9.595  0.3743  0.1005 -0.1282
  123MPD2    H5 1884   0.269   3.639   9.659 -1.4962  1.4816  1.1445
  123MPD2    N1 1885   0.169   3.229   9.896  0.4533 -1.0086  0.7171
  123MPD2    H7 1886   0.117   3.143   9.913 -2.1558  0.4341  0.0465
  124TCq2    C1 1887   0.176   3.673   9.479  0.1450 -0.6184  0.1083
  124TCq2    O2 1888   0.099   3.644   9.388  0.0166 -0.6149 -0.0697
  124TCq2    C2 1889   0.277   3.773   9.453 -0.2166  0.2336  0.4532
  124TCq2    C3 1890   0.259   3.870   9.358 -0.3236 -0.1648 -0.6279
  124TCq2    C4 1891   0.366   3.930   9.302  0.3464 -0.1557 -0.0063
  124TCq2    C5 1892   0.490   3.903   9.349  0.4204 -0.0853 -0.4896
  124TCq2    C6 1893   0.506   3.827   9.457 -0.3199 -0.2703  0.1263
  124TCq2    C7 1894   0.401   3.760   9.510 -0.1700  0.3928  0.4107
  124TCq2    C8 1895   0.627   3.832   9.543  0.3861 -0.4035  0.2236
  124TCq2    O4 1896   0.649   3.734   9.613 -0.3061  0.0127  0.0842
  124TCq2    C9 1897   0.351   4.033   9.202 -0.6349 -0.0510  0.2255
  124TCq2    O5 1898   0.234   4.041   9.153  0.3326 -0.7708  0.3521
  124TCq2    O6 1899   0.448   4.109   9.169 -0.1810  0.0312  0.3031
  124TCq2    H2 1900   0.160   3.900   9.324 -1.5153 -5.0388 -1.4254
  124TCq2    H3 1901   0.574   3.952   9.302 -1.4422  1.6316 -2.0440
  124TCq2    H4 1902   0.425   3.696   9.594  0.2063 -2.1647 -1.6375
  125TMC2    C1 1903   2.207   0.628  10.116  0.4158 -0.4597  0.4021
  125TMC2    C2 1904   2.237   0.691   9.998  0.5270 -0.3080 -0.0923
  125TMC2    C3 1905   2.275   0.618   9.889 -0.8005  0.3812  0.3258
  125TMC2    C4 1906   2.233   0.490  10.128 -0.2618 -0.0940 -0.6045
  125TMC2    C5 1907   2.265   0.418  10.017  0.2182  0.0052 -0.0553
  125TMC2    C6 1908   2.277   0.482   9.894  0.8706  0.5605  0.6713
  125TMC2     C 1909   2.079   0.668  10.166  0.3927  0.0075 -0.5508
  125TMC2     O 1910   1.999   0.579  10.204 -0.4601 -0.0951 -0.1119
  125TMC2     H 1911   2.226   0.798   9.997 -0.3042 -0.4060 -1.0555
  125TMC2    H1 1912   2.195   0.434  10.212  1.5452 -1.9671 -1.0439
  125TMC2    H2 1913   2.269   0.430   9.799 -0.2377 -0.4464  1.3192
  125TMC2    C7 1914   2.250   0.275  10.021 -0.6198  0.1657 -0.2455
  125TMC2    C8 1915   2.242   0.667   9.757 -0.0512  0.1590  0.2468
  125TMC2    O1 1916   2.189   0.234  10.118 -0.5041  0.2614 -0.2150
  125TMC2    O2 1917   2.154   0.747   9.742 -0.0756  0.3894  0.1520
  125TMC2    O5 1918   2.353   0.660   9.686  0.5149 -0.4461  0.5213
  125TMC2    H5 1919   2.429   0.633   9.742 -1.4029  0.2586  3.4652
  126MPD1     C 1920   1.751   1.021  10.357  0.3870  0.4681 -0.2366
  126MPD1    C1 1921   1.846   1.082  10.278 -0.5562  0.5790  0.2593
  126MPD1    C2 1922   1.946   1.007  10.211  0.0750 -0.0935 -0.1814
  126MPD1    C3 1923   1.953   0.873  10.232 -0.4199 -0.4602 -0.0509
  126MPD1    C4 1924   1.850   0.816  10.310 -0.0248  0.1773 -0.1442
  126MPD1    C5 1925   1.753   0.891  10.365 -0.4153  0.3713  0.4023
  126MPD1     H 1926   2.015   1.054  10.142  0.1223 -1.3152 -0.9566
  126MPD1    H1 1927   1.857   0.708  10.315 -2.7370 -0.0169 -0.4440
  126MPD1    H2 1928   1.679   1.069  10.422  0.5683  0.5268 -0.0766
  126MPD1    H3 1929   1.690   0.839  10.437  0.2072 -0.1798  0.5525
  126MPD1     N 1930   2.058   0.800  10.167 -0.5152 -0.1947 -0.7574
  126MPD1    H5 1931   2.137   0.861  10.145 -1.5118  1.4311  0.2051
  126MPD1    N1 1932   1.849   1.220  10.258  0.1182  0.2117  0.0343
  126MPD1    H6 1933   1.848   1.269  10.346  1.6857  2.8477 -1.4189
  126MPD1    H7 1934   1.927   1.258  10.205  1.8386  0.2770  2.6285
  127MPD2     C 1935   3.323   3.784   9.314 -0.0437 -0.1589  0.3246
  127MPD2    C1 1936   3.336   3.852   9.433  0.4015 -0.2112  0.1294
  127MPD2    C2 1937   3.439   3.941   9.446  0.4613  0.6157 -0.5471
  127MPD2    C3 1938   3.533   3.952   9.346  0.0418  0.2884  0.1914
  127MPD2    C4 1939   3.526   3.881   9.229 -0.0396 -0.2472 -0.0417
  127MPD2    C5 1940   3.411   3.806   9.206  0.2181  0.0444  0.1187
  127MPD2     H 1941   3.445   4.008   9.532 -2.5489 -0.1516  0.2561
  127MPD2    H1 1942   3.591   3.907   9.146  0.3710 -0.5157  0.1961
  127MPD2    H2 1943   3.239   3.719   9.293 -0.6409  1.2573 -1.6973
  127MPD2    H3 1944   3.406   3.752   9.112 -1.5529  0.0104  0.2367
  127MPD2     N 1945   3.639   4.048   9.373 -0.3758 -0.4863 -0.1518
  127MPD2    H5 1946   3.642   4.078   9.470  0.1850  2.1966 -1.0120
  127MPD2    N1 1947   3.234   3.830   9.531  0.3419  0.0189 -0.4192
  127MPD2    H7 1948   3.157   3.776   9.492  0.1249  1.0940 -1.4837
  128TCq2    C1 1949   3.234   3.896   9.651  0.0095 -0.5233  0.5360
  128TCq2    O2 1950   3.326   3.956   9.712 -0.0670 -0.0350 -0.3610
  128TCq2    C2 1951   3.115   3.873   9.731 -0.3122  0.5220  0.2374
  128TCq2    C3 1952   3.114   3.906   9.871  0.2993  0.1888  0.2890
  128TCq2    C4 1953   3.000   3.886   9.942  0.2900 -0.1374 -0.1448
  128TCq2    C5 1954   2.883   3.849   9.874  0.2303 -0.6212 -0.2967
  128TCq2    C6 1955   2.891   3.821   9.740 -0.3221  0.0575 -0.2764
  128TCq2    C7 1956   3.002   3.831   9.666 -0.2789  0.6343  0.7863
  128TCq2    C8 1957   2.765   3.775   9.679 -0.0586  0.1805  0.5911
  128TCq2    O4 1958   2.756   3.787   9.558  0.0476 -0.0592 -0.0082
  128TCq2    C9 1959   2.998   3.912  10.083 -0.2224  0.2234 -0.0643
  128TCq2    O5 1960   2.893   3.887  10.146  0.0169  0.1884 -0.0123
  128TCq2    O6 1961   3.098   3.958  10.139 -0.1052  0.6124  0.0228
  128TCq2    H2 1962   3.202   3.940   9.924  1.1298  2.5868 -2.5659
  128TCq2    H3 1963   2.787   3.857   9.924 -1.0901 -0.0189 -2.9367
  128TCq2    H4 1964   2.992   3.814   9.559 -1.4908 -0.0761  1.0171
  129MPD2     C 1965   1.409   0.664   1.712  0.2721  0.5243 -0.2399
  129MPD2    C1 1966   1.320   0.765   1.675  0.6616  1.1027  0.1453
  129MPD2    C2 1967   1.351   0.846   1.573 -0.8866 -0.4340 -1.1288
  129MPD2    C3 1968   1.468   0.826   1.500  0.2541 -0.1438 -0.0152
  129MPD2    C4 1969   1.554   0.727   1.540 -0.6596 -0.0254 -0.3484
  129MPD2    C5 1970   1.528   0.643   1.647 -0.0828 -0.4836 -0.4521
  129MPD2     H 1971   1.289   0.928   1.539  1.0474  0.8361 -1.6165
  129MPD2    H1 1972   1.657   0.739   1.507 -0.1429 -0.9372  0.9615
  129MPD2    H2 1973   1.378   0.607   1.799  0.2916 -0.0185 -0.5874
  129MPD2    H3 1974   1.609   0.575   1.669  0.3125  0.7698  1.9638
  129MPD2     N 1975   1.498   0.906   1.389 -0.1762 -0.4614 -0.2782
  129MPD2    H5 1976   1.423   0.973   1.374 -1.6941 -1.9707  0.6048
  129MPD2    N1 1977   1.197   0.791   1.744  0.2564  0.1921  0.3980
  129MPD2    H7 1978   1.155   0.877   1.710 -2.1104 -0.3826  1.9222
  130TCq2    C1 1979   1.133   0.713   1.835  0.2409  0.2171 -0.3847
  130TCq2    O2 1980   1.171   0.618   1.899 -0.6147  0.3442 -0.1056
  130TCq2    C2 1981   0.994   0.754   1.852 -0.1291 -0.7751  0.2502
  130TCq2    C3 1982   0.939   0.783   1.727  0.5193 -0.1659  0.0744
  130TCq2    C4 1983   0.806   0.762   1.720 -0.0386  0.4068 -0.2438
  130TCq2    C5 1984   0.734   0.708   1.825  0.7058  0.1255  0.6225
  130TCq2    C6 1985   0.796   0.690   1.944  0.8793  0.0221  0.1698
  130TCq2    C7 1986   0.930   0.707   1.958  0.3441 -0.2179 -0.7370
  130TCq2    C8 1987   0.734   0.583   2.017  0.1824  0.2575  0.5882
  130TCq2    O4 1988   0.612   0.571   2.002  0.1240  0.2824  0.7627
  130TCq2    C9 1989   0.740   0.785   1.599 -0.2318 -0.0670 -0.0952
  130TCq2    O5 1990   0.808   0.828   1.504  0.0763 -0.0768 -0.4971
  130TCq2    O6 1991   0.622   0.748   1.587 -0.0231  0.2407  0.3062
  130TCq2    H2 1992   0.985   0.791   1.629  1.2202  0.6170  0.4643
  130TCq2    H3 1993   0.627   0.693   1.813  0.2203  3.6414  0.3756
  130TCq2    H4 1994   0.988   0.708   2.050 -1.2933  0.7010  0.2769
  131MPD2     C 1995   0.948   3.305  10.585  0.5756 -0.3071  0.6053
  131MPD2    C1 1996   0.912   3.379  10.474  0.0544 -0.3262 -0.3557
  131MPD2    C2 1997   0.797   3.345  10.411  0.5758 -0.0725  0.2161
  131MPD2    C3 1998   0.718   3.240  10.452  0.9697 -0.9166 -0.5685
  131MPD2    C4 1999   0.756   3.164  10.559 -0.7029  0.0827 -0.3839
  131MPD2    C5 2000   0.873   3.198  10.626 -0.4549  0.0662 -0.4357
  131MPD2     H 2001   0.765   3.400  10.323 -0.0835  0.5639  0.8539
  131MPD2    H1 2002   0.709   3.074  10.598 -0.0543 -0.4670 -0.8830
  131MPD2    H2 2003   1.046   3.316  10.631  0.0099  1.8922  1.2693
  131MPD2    H3 2004   0.904   3.140  10.712  1.6803  0.7145 -0.7937
  131MPD2     N 2005   0.595   3.221  10.380 -0.0602 -0.3187  0.1481
  131MPD2    H5 2006   0.582   3.286  10.304  0.7597  1.7597  1.7732
  131MPD2    N1 2007   0.995   3.488  10.431  0.5381 -0.9536 -0.4409
  131MPD2    H7 2008   1.073   3.501  10.494 -1.7530  1.0288  1.9625
  132TCq2    C1 2009   1.135   3.957  10.101 -0.0467 -0.4301 -0.0009
  132TCq2    O2 2010   1.024   3.979  10.060  0.2626  0.4389 -0.1667
  132TCq2    C2 2011   1.174   3.834  10.171  0.1023 -0.2199 -0.5680
  132TCq2    C3 2012   1.303   3.793  10.196 -0.5722  0.4287 -0.1212
  132TCq2    C4 2013   1.330   3.688  10.273  0.1335 -0.4480 -0.3832
  132TCq2    C5 2014   1.223   3.605  10.309  0.4089 -0.0249 -0.2351
  132TCq2    C6 2015   1.092   3.646  10.289  1.2188  0.1868 -0.6354
  132TCq2    C7 2016   1.071   3.764  10.230  0.3790  0.5807 -0.3736
  132TCq2    C8 2017   0.984   3.564  10.321  0.7722 -0.4191 -0.0022
  132TCq2    O4 2018   0.890   3.580  10.241  0.4173 -0.5286 -0.1330
  132TCq2    C9 2019   1.460   3.625  10.256 -0.2610 -0.3342 -0.3179
  132TCq2    O5 2020   1.540   3.686  10.185  0.3700 -0.1496  0.2229
  132TCq2    O6 2021   1.473   3.499  10.278 -0.2051  0.0551  0.0421
  132TCq2    H2 2022   1.388   3.853  10.164 -0.2802 -0.7285 -1.4808
  132TCq2    H3 2023   1.241   3.512  10.363  3.4807  0.1101 -1.0104
  132TCq2    H4 2024   0.968   3.796  10.215 -0.6391 -2.1175  0.9222
  133MPD2     C 2025   0.113   0.185   9.238  1.4533  0.4658 -0.8317
  133MPD2    C1 2026   0.172   0.138   9.352  0.1549 -0.3735  0.8986
  133MPD2    C2 2027   0.177   0.001   9.376  0.1836  0.6339  0.3899
  133MPD2    C3 2028   0.116   4.634   9.297 -0.3823 -0.4197 -0.6126
  133MPD2    C4 2029   0.042   4.678   9.189  0.1910 -0.3883  0.1719
  133MPD2    C5 2030   0.045   0.088   9.162  0.0347  0.2851  0.2746
  133MPD2     H 2031   0.240   4.677   9.452  3.9812  0.7660 -2.6754
  133MPD2    H1 2032   4.714   4.609   9.124  2.6105 -3.3485  1.3667
  133MPD2    H2 2033   0.115   0.290   9.211  2.0660  0.6280 -0.1236
  133MPD2    H3 2034   4.711   0.126   9.078 -0.4020  1.8132  1.2647
  133MPD2     N 2035   0.105   4.495   9.325 -0.2844 -0.8438  0.3644
  133MPD2    H5 2036   0.032   4.444   9.276  0.0344 -0.2375 -0.7392
  133MPD2    N1 2037   0.244   0.227   9.432 -0.3945 -0.2855  0.4915
  133MPD2    H7 2038   0.250   0.324   9.400 -1.0598  0.3106  2.1816
  134TCq2    C1 2039   0.304   0.200   9.556  0.3686  0.0207 -0.1527
  134TCq2    O2 2040   0.329   0.095   9.606 -0.2482  0.4304 -0.3757
  134TCq2    C2 2041   0.352   0.312   9.633 -0.7498  0.3300  0.2796
  134TCq2    C3 2042   0.307   0.438   9.610 -0.7496 -0.2178 -0.1957
  134TCq2    C4 2043   0.385   0.547   9.645  0.4878 -0.0079  0.3738
  134TCq2    C5 2044   0.482   0.533   9.732 -0.0070  0.5231 -0.2427
  134TCq2    C6 2045   0.521   0.400   9.761  0.5859 -0.5354 -0.4608
  134TCq2    C7 2046   0.459   0.287   9.710  0.3698  0.1130 -0.4709
  134TCq2    C8 2047   0.635   0.382   9.851  1.2517 -0.4549  0.3158
  134TCq2    O4 2048   0.628   0.282   9.921  0.6572 -0.1765  0.2830
  134TCq2    C9 2049   0.342   0.673   9.596 -0.4587  0.0233  1.0528
  134TCq2    O5 2050   0.388   0.783   9.648 -0.0938  0.2111  0.4150
  134TCq2    O6 2051   0.255   0.671   9.510  0.6331 -0.5388 -0.3947
  134TCq2    H2 2052   0.218   0.448   9.548 -1.5422 -0.0424  0.9703
  134TCq2    H3 2053   0.523   0.617   9.786 -0.3849 -0.5774  1.7626
  134TCq2    H4 2054   0.499   0.187   9.720  0.5463  0.1701 -0.6098
  135MPD2     C 2055   2.131   1.423  10.202 -0.4734 -0.3760 -0.2956
  135MPD2    C1 2056   2.177   1.286  10.186  0.1957 -0.1087  0.1613
  135MPD2    C2 2057   2.198   1.242  10.062 -0.2191  0.1225 -0.1689
  135MPD2    C3 2058   2.178   1.326   9.949  0.5705 -0.4038  0.4918
  135MPD2    C4 2059   2.130   1.452   9.969 -0.3330 -0.4010 -0.8101
  135MPD2    C5 2060   2.105   1.498  10.092  0.4631 -0.2029  0.2238
  135MPD2     H 2061   2.227   1.142  10.035  0.1098  0.4888 -1.1813
  135MPD2    H1 2062   2.125   1.518   9.883  3.2082  1.5859  0.4970
  135MPD2    H2 2063   2.126   1.482  10.293  0.4941 -2.0654  0.8439
  135MPD2    H3 2064   2.064   1.598  10.085  1.8065  0.3955  1.1579
  135MPD2     N 2065   2.197   1.290   9.817 -0.1738  0.1343  0.0247
  135MPD2    H5 2066   2.177   1.353   9.740  0.5668 -0.2256 -0.4681
  135MPD2    N1 2067   2.198   1.202  10.295 -0.2914 -0.2413 -0.2568
  135MPD2    H7 2068   2.208   1.103  10.275 -0.9234 -0.2337 -0.6123
  136TCq2    C1 2069   2.234   1.243  10.425 -0.5549 -0.4713 -0.2181
  136TCq2    O2 2070   2.261   1.352  10.465 -0.2841  0.0392  0.3542
  136TCq2    C2 2071   2.208   1.139  10.531 -0.3171  0.1818  0.5758
  136TCq2    C3 2072   2.236   1.174  10.661  0.0520 -0.2085 -0.0036
  136TCq2    C4 2073   2.225   1.089  10.762  0.3913 -0.2798  0.5734
  136TCq2    C5 2074   2.191   0.960  10.739 -0.4586  0.3940  0.4089
  136TCq2    C6 2075   2.159   0.924  10.610 -0.1398  0.5800  0.4093
  136TCq2    C7 2076   2.157   1.015  10.504  0.1609  0.0991 -0.1311
  136TCq2    C8 2077   2.152   0.785  10.578  0.3191 -0.4725  0.4660
  136TCq2    O4 2078   2.207   0.760  10.471 -0.2596  0.2815 -0.8482
  136TCq2    C9 2079   2.252   1.131  10.898 -0.0546  0.0603 -0.4008
  136TCq2    O5 2080   2.207   1.046  10.980 -0.6396 -0.0744 -0.1183
  136TCq2    O6 2081   2.301   1.241  10.928  0.0756 -0.3176  0.6003
  136TCq2    H2 2082   2.264   1.275  10.688  0.4738 -0.6754  1.2995
  136TCq2    H3 2083   2.189   0.882  10.815  0.4478  0.3258  0.3592
  136TCq2    H4 2084   2.122   0.978  10.408  0.9827 -2.3225  0.5219
  137MPD2     C 2085   2.413   4.152   9.580  0.2075  0.0589  0.0541
  137MPD2    C1 2086   2.328   4.244   9.637 -0.3472  0.4701 -0.1192
  137MPD2    C2 2087   2.267   4.234   9.754  0.1276  0.6115  0.0125
  137MPD2    C3 2088   2.319   4.134   9.838  0.0445 -0.4734 -0.1226
  137MPD2    C4 2089   2.401   4.035   9.786 -0.2519 -0.1236 -0.2810
  137MPD2    C5 2090   2.439   4.041   9.656  0.1685 -0.2563 -1.1728
  137MPD2     H 2091   2.206   4.309   9.804 -1.7564 -1.7220  1.2621
  137MPD2    H1 2092   2.437   3.948   9.841  1.3482 -0.2885 -1.5814
  137MPD2    H2 2093   2.464   4.162   9.485 -0.5867 -2.6761 -0.6715
  137MPD2    H3 2094   2.506   3.964   9.618  0.5873 -0.2575 -0.4253
  137MPD2     N 2095   2.291   4.128   9.971  0.2811 -0.2793 -0.2537
  137MPD2    H5 2096   2.350   4.069  10.029  1.5231  1.5570  0.3504
  137MPD2    N1 2097   2.309   4.361   9.555 -1.1445  0.4236  0.0331
  137MPD2    H7 2098   2.354   4.357   9.464 -2.5045 -0.0695 -0.6050
  138TCq2    C1 2099   2.240   4.470   9.590  0.0810 -0.4276 -0.5193
  138TCq2    O2 2100   2.155   4.488   9.675 -0.1203  0.2490 -0.0324
  138TCq2    C2 2101   2.279   4.584   9.507 -0.1307 -1.3702 -0.3086
  138TCq2    C3 2102   2.405   4.591   9.460 -0.5175  0.7349 -0.6331
  138TCq2    C4 2103   2.454   4.721   9.442  0.6588  0.1102 -0.1869
  138TCq2    C5 2104   2.390   0.115   9.467 -0.4985 -0.3928 -0.7930
  138TCq2    C6 2105   2.268   0.101   9.518 -0.3737 -0.5794 -0.2725
  138TCq2    C7 2106   2.213   4.702   9.544 -0.5495  0.1880  0.9123
  138TCq2    C8 2107   2.211   0.229   9.554 -0.2847 -0.0586  0.0521
  138TCq2    O4 2108   2.246   0.337   9.507  0.1210 -0.9043 -0.1189
  138TCq2    C9 2109   2.579   0.003   9.372  0.1092  0.7153  0.9869
  138TCq2    O5 2110   2.640   4.623   9.331 -0.1136  0.2352 -0.1370
  138TCq2    O6 2111   2.607   0.118   9.338 -0.2452  0.4976 -0.1805
  138TCq2    H2 2112   2.471   4.508   9.440 -0.4998  0.5311  0.2662
  138TCq2    H3 2113   2.431   0.211   9.438  1.5876 -0.7319  1.0283
  138TCq2    H4 2114   2.120   4.700   9.599 -0.3495  1.4337  1.2913
  139TMC2    C1 2115   2.741   3.013  13.770  0.7937 -0.5147  0.0883
  139TMC2    C2 2116   2.741   2.911  13.862 -0.2028 -0.0574 -0.0454
  139TMC2    C3 2117   2.634   2.917  13.947 -0.2822  0.4852  0.4810
  139TMC2    C4 2118   2.653   3.121  13.766 -0.1368 -0.0719 -0.5027
  139TMC2    C5 2119   2.558   3.126  13.868  0.3210  0.1196  0.5014
  139TMC2    C6 2120   2.545   3.020  13.960 -0.3264  0.3533  0.3488
  139TMC2     C 2121   2.819   3.007  13.654  0.2279  0.4156 -0.1162
  139TMC2     O 2122   2.760   3.040  13.551  0.6184  0.2237 -0.4331
  139TMC2     H 2123   2.820   2.837  13.854 -0.9884 -1.2262  3.0246
  139TMC2    H1 2124   2.659   3.199  13.692 -2.4614  0.6774  0.1215
  139TMC2    H2 2125   2.488   3.033  14.051 -1.2023 -3.2377  0.3054
  139TMC2    C7 2126   2.495   3.250  13.911 -0.5967  0.0951  0.5439
  139TMC2    C8 2127   2.622   2.800  14.035  0.0990 -0.4666  0.6012
  139TMC2    O1 2128   2.407   3.242  13.999 -0.4592 -0.0493  0.0120
  139TMC2    O2 2129   2.709   2.718  14.050  0.0154 -0.3009  0.0603
  139TMC2    O5 2130   2.492   2.784  14.072 -0.3473  0.2890  1.0642
  139TMC2    H5 2131   2.431   2.832  14.012  0.8717  1.6205  0.8773
  140MPD2     C 2132   3.167   2.938  13.592  0.2052 -0.6946 -0.3229
  140MPD2    C1 2133   3.031   2.940  13.567 -0.1666 -0.0050  0.1449
  140MPD2    C2 2134   2.983   2.917  13.438 -0.3535  0.5473  0.5302
  140MPD2    C3 2135   3.060   2.905  13.332 -0.4834 -0.1054  0.3160
  140MPD2    C4 2136   3.192   2.898  13.355  0.5601 -0.2000  0.8866
  140MPD2    C5 2137   3.246   2.908  13.481  0.3699 -0.1747 -0.5521
  140MPD2     H 2138   2.876   2.916  13.421 -0.4995  0.7196  1.4610
  140MPD2    H1 2139   3.271   2.892  13.280  1.8438  1.0949  2.1224
  140MPD2    H2 2140   3.206   2.962  13.690  0.4822 -0.8977 -0.3867
  140MPD2    H3 2141   3.354   2.903  13.483  0.4337  1.4986  0.7055
  140MPD2     N 2142   3.012   2.865  13.200 -0.6936 -0.0976  0.0815
  140MPD2    H5 2143   3.083   2.836  13.133 -1.9026  1.5746 -1.9324
  140MPD2    N1 2144   2.944   2.961  13.673  0.0005  0.3740  0.5690
  140MPD2    H7 2145   2.973   2.952  13.769  2.0344 -0.3412 -0.1186
  141TCq2    C1 2146   3.432   4.509  14.049  0.4305 -0.2049 -0.0937
  141TCq2    O2 2147   3.362   4.584  13.984 -0.3142 -0.3861 -0.1152
  141TCq2    C2 2148   3.411   4.500  14.190 -0.4532 -0.2309  0.0253
  141TCq2    C3 2149   3.419   4.377  14.261 -0.2485  0.5224  0.4549
  141TCq2    C4 2150   3.367   4.380  14.385  0.8624  0.0963 -0.0070
  141TCq2    C5 2151   3.313   4.489  14.444  0.1933 -0.3502  0.2236
  141TCq2    C6 2152   3.309   4.600  14.372  0.2659  1.0930  0.2214
  141TCq2    C7 2153   3.343   4.607  14.247  0.2588  0.2434  0.3567
  141TCq2    C8 2154   3.257   4.719  14.434 -0.4459 -0.1439 -0.2934
  141TCq2    O4 2155   3.198   0.067  14.357 -0.7111 -0.0511 -0.0544
  141TCq2    C9 2156   3.332   4.248  14.437 -0.5767 -0.3992 -0.3641
  141TCq2    O5 2157   3.297   4.248  14.558  0.3957 -0.3348  0.3734
  141TCq2    O6 2158   3.349   4.143  14.366  0.3885  0.3233  0.8473
  141TCq2    H2 2159   3.451   4.283  14.219  0.6508  0.7689  0.5981
  141TCq2    H3 2160   3.279   4.481  14.547  1.4962  0.6389  0.7413
  141TCq2    H4 2161   3.355   4.707  14.207  0.0551 -0.1532 -0.6766
  142MPD2     C 2162   1.144   3.005  10.465  0.8443 -0.0056 -0.0377
  142MPD2    C1 2163   1.052   3.026  10.361 -0.5058  0.4880  0.2426
  142MPD2    C2 2164   1.083   3.120  10.270 -0.2664  0.1419  0.1705
  142MPD2    C3 2165   1.197   3.197  10.274  0.4342  0.9670 -0.2361
  142MPD2    C4 2166   1.276   3.190  10.385 -0.1612 -0.4234  0.1518
  142MPD2    C5 2167   1.247   3.097  10.482 -0.6761 -0.1876  0.0700
  142MPD2     H 2168   1.012   3.133  10.188 -0.7346 -0.0452  0.5418
  142MPD2    H1 2169   1.367   3.248  10.393 -1.0427  1.0962 -0.8984
  142MPD2    H2 2170   1.140   2.930  10.543 -0.0493 -1.1075 -1.1482
  142MPD2    H3 2171   1.326   3.078  10.553  0.7872  0.6582 -1.3222
  142MPD2     N 2172   1.224   3.299  10.180  0.2024 -0.2971  0.2435
  142MPD2    H5 2173   1.298   3.367  10.195  0.2708 -0.2207 -0.4458
  142MPD2    N1 2174   0.940   2.932  10.354 -0.2061 -0.2011  0.7179
  142MPD2    H7 2175   0.945   2.857  10.422 -2.9649 -0.1617  0.9926
  143TCq2    C1 2176   1.153   3.321  10.063  0.6270  0.3245 -0.1769
  143TCq2    O2 2177   1.043   3.288  10.027  0.1828 -0.4917 -0.0932
  143TCq2    C2 2178   1.208   3.429   9.992  0.6775 -0.2509  0.0765
  143TCq2    C3 2179   1.346   3.453   9.983 -0.5117  0.1865  0.0428
  143TCq2    C4 2180   1.393   3.547   9.893  0.0349  0.0604 -0.0108
  143TCq2    C5 2181   1.304   3.620   9.821 -0.6035  0.1883  0.3853
  143TCq2    C6 2182   1.171   3.602   9.835 -0.2392 -0.6733 -0.5442
  143TCq2    C7 2183   1.122   3.508   9.918  0.0358  0.2567 -0.6566
  143TCq2    C8 2184   1.069   3.670   9.765 -0.5230  0.3910 -0.4550
  143TCq2    O4 2185   0.951   3.625   9.758  0.4499  0.1956  0.5206
  143TCq2    C9 2186   1.531   3.578   9.882 -0.1987  0.8111 -0.1285
  143TCq2    O5 2187   1.574   3.681   9.825  0.2989 -0.6940  0.8832
  143TCq2    O6 2188   1.605   3.491   9.934  0.4253  0.1079 -0.2731
  143TCq2    H2 2189   1.416   3.400  10.047 -1.6390 -1.1451  0.1644
  143TCq2    H3 2190   1.358   3.691   9.759 -1.0008  1.8538  1.9530
  143TCq2    H4 2191   1.017   3.506   9.943  0.4214 -0.0562  0.9197
  144MPD2     C 2192   3.190   2.456   0.624  0.5252  0.4170  0.0506
  144MPD2    C1 2193   3.309   2.387   0.603 -0.0968 -0.6286 -0.0567
  144MPD2    C2 2194   3.402   2.384   0.699  0.5290  0.0802  0.2747
  144MPD2    C3 2195   3.382   2.449   0.820  0.0105  0.6014 -0.1481
  144MPD2    C4 2196   3.262   2.512   0.842 -0.9462  0.1541 -0.2140
  144MPD2    C5 2197   3.171   2.522   0.744 -0.2118 -0.2960 -0.2016
  144MPD2     H 2198   3.499   2.341   0.677 -0.3595 -0.7889 -1.9187
  144MPD2    H1 2199   3.241   2.555   0.939 -0.5017  0.1545 -0.1198
  144MPD2    H2 2200   3.109   2.451   0.552  0.0452  1.5325  0.5247
  144MPD2    H3 2201   3.075   2.569   0.762 -0.6630 -1.2191 -0.2332
  144MPD2     N 2202   3.469   2.458   0.926 -0.3087 -0.3667 -0.3821
  144MPD2    H5 2203   3.429   2.501   1.009 -0.2861  2.4089 -1.8097
  144MPD2    N1 2204   3.341   2.339   0.478 -0.4636  0.1475  0.1354
  144MPD2    H7 2205   3.427   2.285   0.471 -0.0154  0.5076  2.9667
  145TCq2    C1 2206   3.578   2.374   0.937 -0.2196 -0.0370  1.1855
  145TCq2    O2 2207   3.629   2.300   0.851 -0.5197 -0.4983 -0.7500
  145TCq2    C2 2208   3.620   2.338   1.070 -0.1912 -0.3624  0.1591
  145TCq2    C3 2209   3.659   2.207   1.096 -0.0910  0.2704  0.2942
  145TCq2    C4 2210   3.656   2.154   1.222 -0.0652  0.1790 -0.3639
  145TCq2    C5 2211   3.628   2.232   1.329 -0.1896  0.0864  0.5289
  145TCq2    C6 2212   3.585   2.360   1.304  0.1613 -0.3807  0.5314
  145TCq2    C7 2213   3.576   2.411   1.175 -0.3189  0.8644  0.5796
  145TCq2    C8 2214   3.530   2.430   1.423 -0.4610 -0.4340 -0.4292
  145TCq2    O4 2215   3.489   2.357   1.509 -0.5581  0.4527 -0.2294
  145TCq2    C9 2216   3.692   2.011   1.240  0.3658  0.3662  0.6812
  145TCq2    O5 2217   3.662   1.958   1.349 -0.1638 -1.0703  0.1376
  145TCq2    O6 2218   3.709   1.949   1.135 -0.8728 -0.5777  0.2031
  145TCq2    H2 2219   3.676   2.143   1.010  2.1082  1.5891 -0.2555
  145TCq2    H3 2220   3.633   2.187   1.427  0.2838  0.1895  0.5495
  145TCq2    H4 2221   3.534   2.510   1.161 -0.5160  0.7627  0.4524
  146TMC2    C1 2222   0.887   0.330  12.662  0.4900  0.3360 -0.4982
  146TMC2    C2 2223   0.809   0.438  12.661  0.2022 -0.9246  0.1014
  146TMC2    C3 2224   0.827   0.533  12.563  0.0843  0.0881 -0.3147
  146TMC2    C4 2225   0.997   0.320  12.580 -0.0882 -0.2424  0.2736
  146TMC2    C5 2226   1.021   0.430  12.492  1.0200 -0.4684  0.8869
  146TMC2    C6 2227   0.929   0.533  12.477  0.1263  0.0648  0.3796
  146TMC2     C 2228   0.884   0.245  12.779  0.3742  0.3438 -0.4074
  146TMC2     O 2229   0.833   0.289  12.884 -0.5999 -0.1839 -0.1301
  146TMC2     H 2230   0.734   0.461  12.736  0.6619 -0.3358  0.3815
  146TMC2    H1 2231   1.064   0.234  12.583  1.4677  0.9384 -0.6810
  146TMC2    H2 2232   0.929   0.603  12.394  0.4351  1.3200  1.4181
  146TMC2    C7 2233   1.161   0.437  12.444 -0.5284  0.1573 -0.2582
  146TMC2    C8 2234   0.732   0.633  12.532  0.3225  0.1673 -0.1241
  146TMC2    O1 2235   1.171   0.460  12.323  0.3437  0.7396 -0.1870
  146TMC2    O2 2236   0.730   0.707  12.439 -0.2850  0.2192 -0.2155
  146TMC2    O5 2237   0.617   0.581  12.572  0.3248  0.4757  0.3849
  146TMC2    H5 2238   0.613   0.534  12.658 -0.8735  0.3964  0.2853
  147MPD2     C 2239   1.581   0.152  12.478 -0.1486 -0.9503 -0.2057
  147MPD2    C1 2240   1.524   0.163  12.605 -1.1092 -0.2266  0.0718
  147MPD2    C2 2241   1.408   0.239  12.617  0.4600 -0.2387 -0.0104
  147MPD2    C3 2242   1.359   0.311  12.511  0.1270  0.4821 -0.1262
  147MPD2    C4 2243   1.413   0.305  12.381  0.1778  0.5346 -0.1312
  147MPD2    C5 2244   1.517   0.214  12.369 -0.0787 -0.2721 -0.3941
  147MPD2     H 2245   1.363   0.253  12.715  1.0137  0.1746  0.1845
  147MPD2    H1 2246   1.390   0.364  12.293  0.2800 -0.1170 -0.5957
  147MPD2    H2 2247   1.671   0.099  12.450  0.6080  1.1285 -1.6123
  147MPD2    H3 2248   1.565   0.211  12.272 -2.4224  0.1923 -1.5674
  147MPD2     N 2249   1.243   0.384  12.538  0.0829 -0.2545  0.5614
  147MPD2    H5 2250   1.205   0.371  12.631 -0.4945  2.4026  0.6915
  147MPD2    N1 2251   1.595   0.101  12.716  0.6007 -0.1636  0.3792
  147MPD2    H7 2252   1.681   0.052  12.694 -0.1561 -1.4141  0.2075
  148MPD2     C 2253   0.172   4.611  10.338 -0.4741 -1.1302 -0.4955
  148MPD2    C1 2254   0.213   4.501  10.413 -0.0891  0.2045 -0.0183
  148MPD2    C2 2255   0.150   4.384  10.405 -0.7893 -0.0421  0.3177
  148MPD2    C3 2256   0.043   4.371  10.323 -0.3731 -0.7725 -0.0933
  148MPD2    C4 2257   4.714   4.484  10.253  0.9494 -0.3335 -0.5488
  148MPD2    C5 2258   0.063   4.600  10.256 -0.0575  0.2656  0.2755
  148MPD2     H 2259   0.196   4.307  10.465  0.0131  1.3704  1.5123
  148MPD2    H1 2260   4.626   4.471  10.190  0.5479 -0.8416  0.1201
  148MPD2    H2 2261   0.231   4.702  10.335  0.4345 -1.7687 -2.0389
  148MPD2    H3 2262   0.034   4.692  10.205 -0.1848  0.4639  0.7081
  148MPD2     N 2263   4.686   4.251  10.310 -0.1215 -0.4494 -0.3044
  148MPD2    H5 2264   4.617   4.262  10.237 -0.4595 -2.1838 -0.2486
  148MPD2    N1 2265   0.332   4.499  10.485 -0.1360  0.5455  0.4937
  148MPD2    H7 2266   0.356   4.414  10.536 -0.4997 -0.6693 -1.3385
  149TCq2    C1 2267   0.417   4.601  10.507 -1.1380  0.1001  0.0538
  149TCq2    O2 2268   0.414   4.720  10.470  0.3536  0.1995  0.6167
  149TCq2    C2 2269   0.524   4.559  10.589  0.2763  0.5930 -0.3545
  149TCq2    C3 2270   0.583   4.651  10.669 -0.2587  0.0105 -0.2623
  149TCq2    C4 2271   0.686   4.604  10.744  0.1488  0.3721 -0.0590
  149TCq2    C5 2272   0.733   4.475  10.742  0.2070 -0.2490  0.3568
  149TCq2    C6 2273   0.678   4.389  10.650 -0.1001  0.7738 -0.1063
  149TCq2    C7 2274   0.579   4.436  10.566  0.1304  0.1104 -0.2092
  149TCq2    C8 2275   0.700   4.247  10.652 -0.2888 -0.7456  0.3373
  149TCq2    O4 2276   0.674   4.182  10.553 -0.0247 -0.3097 -0.2612
  149TCq2    C9 2277   0.720   4.682  10.859 -0.1191 -0.8247 -0.2496
  149TCq2    O5 2278   0.723   0.083  10.844 -0.1706 -0.1639  0.0572
  149TCq2    O6 2279   0.744   4.619  10.961  0.1914 -0.5871 -0.2312
  149TCq2    H2 2280   0.554   0.032  10.659 -0.8545 -0.2238 -0.9887
  149TCq2    H3 2281   0.805   4.448  10.819 -1.8742 -1.4802  1.8783
  149TCq2    H4 2282   0.535   4.355  10.508 -0.6428  1.0171 -0.8828
  150MPD2     C 2283   1.907   3.381  12.269 -0.3217  0.1490  0.8376
  150MPD2    C1 2284   1.969   3.418  12.160  0.1910  0.4560 -0.4097
  150MPD2    C2 2285   2.101   3.453  12.166  0.5080  0.6148  0.0268
  150MPD2    C3 2286   2.171   3.448  12.281 -0.0489  0.3381 -0.0389
  150MPD2    C4 2287   2.103   3.420  12.401 -0.1982 -0.0181  0.2804
  150MPD2    C5 2288   1.973   3.378  12.386  0.2300 -0.4686 -0.2360
  150MPD2     H 2289   2.151   3.488  12.076  1.7001 -2.1889 -0.3936
  150MPD2    H1 2290   2.151   3.416  12.498  0.7356  1.5411 -0.1110
  150MPD2    H2 2291   1.807   3.340  12.267 -0.1364 -0.0425 -3.7780
  150MPD2    H3 2292   1.921   3.354  12.477 -0.3459  1.4286 -0.0618
  150MPD2     N 2293   2.308   3.482  12.277 -0.4425  0.0486  0.2869
  150MPD2    H5 2294   2.353   3.475  12.187 -0.3184 -1.3004  0.4577
  150MPD2    N1 2295   1.898   3.399  12.037 -0.2795 -0.2257 -0.5596
  150MPD2    H7 2296   1.801   3.373  12.048 -0.0342 -1.6661 -1.8735
  151TCq2    C1 2297   2.391   3.508  12.384 -0.0418  0.0735  0.4934
  151TCq2    O2 2298   2.364   3.502  12.499  0.5970 -0.0014 -0.0480
  151TCq2    C2 2299   2.519   3.566  12.343  0.5382 -0.0999 -0.2909
  151TCq2    C3 2300   2.515   3.658  12.241 -0.2090 -0.0386  0.5920
  151TCq2    C4 2301   2.598   3.764  12.240  0.0423 -0.0182  0.9354
  151TCq2    C5 2302   2.692   3.783  12.335 -0.1077 -0.2914  0.2326
  151TCq2    C6 2303   2.708   3.685  12.429 -0.2994 -0.0060 -0.1140
  151TCq2    C7 2304   2.618   3.582  12.440 -0.4619  0.3379 -0.3575
  151TCq2    C8 2305   2.838   3.691  12.506  0.2053 -0.2809 -0.5994
  151TCq2    O4 2306   2.893   3.794  12.540 -0.0142 -0.5320  0.0767
  151TCq2    C9 2307   2.586   3.867  12.138  0.4406 -0.2074  0.4337
  151TCq2    O5 2308   2.516   3.844  12.035  0.1339 -0.4442  0.2406
  151TCq2    O6 2309   2.623   3.987  12.160  0.4081 -0.0947  0.2213
  151TCq2    H2 2310   2.441   3.653  12.162  0.4870  1.3663 -0.1644
  151TCq2    H3 2311   2.762   3.865  12.321 -1.4718  0.5764 -1.4427
  151TCq2    H4 2312   2.634   3.493  12.499 -1.8676 -1.0936 -2.1129
  152MPD2     C 2313   1.825   3.048  12.777 -0.5877  0.1138  0.2533
  152MPD2    C1 2314   1.868   3.082  12.651  0.4457 -0.0625  0.0330
  152MPD2    C2 2315   1.776   3.107  12.548 -0.4104  0.7638 -0.0149
  152MPD2    C3 2316   1.642   3.098  12.566 -0.3605  0.3173 -0.1210
  152MPD2    C4 2317   1.602   3.058  12.695 -0.3486  0.0703  0.0604
  152MPD2    C5 2318   1.692   3.038  12.796  0.5759 -0.2268 -0.1981
  152MPD2     H 2319   1.815   3.139  12.452  1.3543 -1.6189 -0.0946
  152MPD2    H1 2320   1.496   3.045  12.714 -0.4518  0.7195 -0.0503
  152MPD2    H2 2321   1.883   3.032  12.866 -0.5305  1.4560  0.4548
  152MPD2    H3 2322   1.660   2.999  12.892  2.4451  1.0922  0.9527
  152MPD2     N 2323   1.558   3.125  12.453  0.4313 -0.1850  0.6970
  152MPD2    H5 2324   1.601   3.148  12.364 -0.6237  0.0190  0.2318
  152MPD2    N1 2325   2.008   3.093  12.637  0.3275 -0.0703  0.0881
  152MPD2    H7 2326   2.060   3.094  12.724  1.8186 -2.0558 -0.7847
  153TCq2    C1 2327   2.070   3.083  12.517 -0.7929 -0.0125 -0.3055
  153TCq2    O2 2328   2.025   3.062  12.404  0.0036  0.3726 -0.0610
  153TCq2    C2 2329   2.217   3.087  12.518  0.8312  0.8459 -0.3464
  153TCq2    C3 2330   2.286   3.086  12.398  0.3529  0.1477 -0.2114
  153TCq2    C4 2331   2.420   3.121  12.401 -0.6107 -0.2034 -1.0664
  153TCq2    C5 2332   2.476   3.169  12.511  0.5015  0.1419 -0.4320
  153TCq2    C6 2333   2.413   3.158  12.631  0.0298 -0.2920 -0.1171
  153TCq2    C7 2334   2.281   3.118  12.632 -0.5961 -0.6850 -0.5491
  153TCq2    C8 2335   2.443   3.262  12.724 -0.4323 -0.7864 -0.1822
  153TCq2    O4 2336   2.352   3.326  12.772 -0.0381  0.0202  0.3496
  153TCq2    C9 2337   2.488   3.126  12.277 -0.3753 -0.3704  0.5605
  153TCq2    O5 2338   2.599   3.182  12.284  0.4721 -0.4421 -0.0821
  153TCq2    O6 2339   2.439   3.074  12.176 -0.2924 -0.3363 -0.6039
  153TCq2    H2 2340   2.238   3.062  12.303 -0.2371 -0.3145  0.2053
  153TCq2    H3 2341   2.578   3.205  12.505  0.2379  1.1552  1.3183
  153TCq2    H4 2342   2.228   3.130  12.726  1.8793  0.6550  0.6748
  154MPD2     C 2343   3.428   3.020   0.338  0.3845  0.4583  0.4700
  154MPD2    C1 2344   3.436   3.108   0.446 -0.1779 -0.7632 -0.3081
  154MPD2    C2 2345   3.319   3.176   0.482 -0.0247 -0.3767  0.6421
  154MPD2    C3 2346   3.206   3.175   0.397 -0.0706 -0.5479 -0.4696
  154MPD2    C4 2347   3.207   3.096   0.286  0.1950  0.5470  0.1796
  154MPD2    C5 2348   3.313   3.010   0.261 -0.1267  0.1488  0.1699
  154MPD2     H 2349   3.308   3.235   0.573 -2.0945 -0.3781  0.3941
  154MPD2    H1 2350   3.126   3.102   0.214  0.7731 -1.1371 -0.6223
  154MPD2    H2 2351   3.506   2.949   0.313 -0.9755 -1.2014  0.9612
  154MPD2    H3 2352   3.309   2.941   0.177  1.6678  0.2967 -0.0353
  154MPD2     N 2353   3.103   3.267   0.428 -0.2028 -0.0220  0.0032
  154MPD2    H5 2354   3.109   3.317   0.516  0.3722  0.3482 -0.2427
  154MPD2    N1 2355   3.549   3.114   0.525  0.0991 -0.6964  0.3150
  154MPD2    H7 2356   3.633   3.079   0.478 -0.0620  1.1154 -1.3276
  155TCq2    C1 2357   3.572   3.204   0.623  0.2179  0.3791  0.3280
  155TCq2    O2 2358   3.512   3.301   0.665 -0.3646  0.0142  0.3013
  155TCq2    C2 2359   3.703   3.195   0.677 -0.7433  0.2617  0.8330
  155TCq2    C3 2360   3.768   3.310   0.715  0.6945  0.1038 -0.7289
  155TCq2    C4 2361   3.908   3.317   0.715 -0.0068  0.6867 -0.1580
  155TCq2    C5 2362   3.975   3.197   0.685 -0.1281 -0.3371 -0.0286
  155TCq2    C6 2363   3.908   3.081   0.657  1.0205  0.0709  0.4314
  155TCq2    C7 2364   3.769   3.077   0.654 -0.5628  0.2207  0.3521
  155TCq2    C8 2365   3.974   2.983   0.568  0.0996  0.2753  0.5889
  155TCq2    O4 2366   3.904   2.881   0.550  0.0686 -0.5238 -0.5137
  155TCq2    C9 2367   3.978   3.443   0.745 -0.5477 -0.2315 -0.4248
  155TCq2    O5 2368   4.105   3.435   0.748  0.5017  0.1191  0.2745
  155TCq2    O6 2369   3.910   3.547   0.763 -0.5644 -0.1928 -0.0910
  155TCq2    H2 2370   3.725   3.406   0.740 -0.2238 -0.4576 -0.1469
  155TCq2    H3 2371   4.083   3.198   0.695 -0.0376  0.8536 -1.1000
  155TCq2    H4 2372   3.716   2.990   0.616  0.2366 -0.0058 -0.2430
  156MPD2     C 2373   2.754   0.569  12.177 -0.7898  0.7946  0.3687
  156MPD2    C1 2374   2.662   0.648  12.122  0.1958 -0.5969 -0.3518
  156MPD2    C2 2375   2.634   0.768  12.191  0.1807 -0.0778 -0.5702
  156MPD2    C3 2376   2.693   0.785  12.315 -0.4102  0.3334  0.0182
  156MPD2    C4 2377   2.774   0.691  12.373  0.8761 -0.1974 -0.1344
  156MPD2    C5 2378   2.803   0.581  12.303 -0.1474  1.0658  0.0237
  156MPD2     H 2379   2.574   0.847  12.147  0.0186  0.0102 -0.1939
  156MPD2    H1 2380   2.825   0.712  12.466  0.6229 -0.5163  0.0766
  156MPD2    H2 2381   2.768   0.480  12.117 -0.4945 -1.0875  3.2056
  156MPD2    H3 2382   2.866   0.509  12.354  1.0645  1.5711 -0.7648
  156MPD2     N 2383   2.681   0.917  12.368 -0.5730  0.3343  0.1932
  156MPD2    H5 2384   2.608   0.963  12.314  1.2050  1.9936 -0.7864
  156MPD2    N1 2385   2.617   0.615  11.994  0.4198 -0.3315  0.5979
  156MPD2    H7 2386   2.642   0.526  11.952  0.0812  0.0093 -0.3544
  157TCq2    C1 2387   2.523   0.691  11.933 -0.0300  0.3792 -1.0848
  157TCq2    O2 2388   2.475   0.802  11.956  0.7228 -0.0329 -0.6948
  157TCq2    C2 2389   2.471   0.637  11.809  0.6688 -0.2025  0.5554
  157TCq2    C3 2390   2.454   0.499  11.803  0.2389  0.7020 -0.4333
  157TCq2    C4 2391   2.349   0.439  11.736  0.0389 -0.1685 -0.3021
  157TCq2    C5 2392   2.261   0.515  11.663  0.0408  0.2992  0.1052
  157TCq2    C6 2393   2.274   0.648  11.672  0.1134 -0.1616  0.2335
  157TCq2    C7 2394   2.363   0.710  11.756 -0.5863  0.4652  0.8536
  157TCq2    C8 2395   2.186   0.727  11.597 -0.5747  0.8018 -0.3757
  157TCq2    O4 2396   2.252   0.793  11.519 -0.3150  0.0776 -0.6230
  157TCq2    C9 2397   2.345   0.296  11.725  0.3726 -0.2354 -0.0409
  157TCq2    O5 2398   2.435   0.233  11.780 -0.7130  0.1629 -1.0392
  157TCq2    O6 2399   2.233   0.244  11.699 -0.1461  0.3094 -0.1737
  157TCq2    H2 2400   2.523   0.429  11.849  1.4545  2.4740  0.4545
  157TCq2    H3 2401   2.202   0.464  11.588  0.1479 -0.0977  0.2926
  157TCq2    H4 2402   2.377   0.817  11.757 -1.2407  0.5862 -1.5214
  158TMC2    C1 2403   2.329   4.583  13.287  0.2895  0.0683  0.4932
  158TMC2    C2 2404   2.364   4.590  13.151  0.3068 -0.2842  0.1604
  158TMC2    C3 2405   2.347   4.483  13.074 -0.1873  0.0300  0.0704
  158TMC2    C4 2406   2.278   4.475  13.344  0.3019  0.2836  0.3825
  158TMC2    C5 2407   2.260   4.372  13.253  0.1423 -0.0512 -0.0452
  158TMC2    C6 2408   2.297   4.371  13.124  0.1574 -0.4345  0.1817
  158TMC2     C 2409   2.334   4.700  13.365  0.1522 -0.1773  0.1933
  158TMC2     O 2410   2.341   0.089  13.315 -0.2758  0.0652 -0.7257
  158TMC2     H 2411   2.410   4.682  13.118 -1.2844  0.6714  0.5802
  158TMC2    H1 2412   2.243   4.482  13.446 -1.5024 -1.9396 -0.0938
  158TMC2    H2 2413   2.304   4.279  13.068 -1.2287 -0.2369 -0.3102
  158TMC2    C7 2414   2.153   4.273  13.275 -0.3915 -0.0133  0.5748
  158TMC2    C8 2415   2.431   4.455  12.963  0.6795 -0.1622  0.1350
  158TMC2    O1 2416   2.105   4.219  13.174 -0.3037  0.4621  0.2094
  158TMC2    O2 2417   2.502   4.358  12.952 -0.1180  0.1857  0.5716
  158TMC2    O5 2418   2.441   4.564  12.880 -0.1034 -0.1560 -0.0809
  158TMC2    H5 2419   2.369   4.624  12.906  1.4150  2.0891 -1.0873
  159MPD2     C 2420   2.320   0.202  13.821  0.7592  0.2397 -0.3356
  159MPD2    C1 2421   2.383   0.082  13.831 -0.6182 -0.8353 -1.1868
  159MPD2    C2 2422   2.394   0.001  13.721 -0.2463 -0.1507 -0.2357
  159MPD2    C3 2423   2.360   0.045  13.594 -0.4967 -0.1742 -0.3910
  159MPD2    C4 2424   2.302   0.168  13.581  0.1220 -0.1235  0.2900
  159MPD2    C5 2425   2.282   0.246  13.696  0.5615 -0.5008 -0.0351
  159MPD2     H 2426   2.438   4.625  13.731 -0.4592 -0.1751  0.4496
  159MPD2    H1 2427   2.267   0.210  13.488 -0.1255  0.2615  0.5565
  159MPD2    H2 2428   2.301   0.261  13.909  0.9867  0.6811 -0.5823
  159MPD2    H3 2429   2.235   0.343  13.681 -2.5256 -1.6991  1.9634
  159MPD2     N 2430   2.373   4.677  13.493  0.2369 -0.0678  0.2932
  159MPD2    H5 2431   2.386   4.577  13.503  1.1762  0.2080  1.7361
  159MPD2    N1 2432   2.431   0.055  13.960 -0.3405 -0.4763  0.1821
  159MPD2    H7 2433   2.410   0.122  14.033 -0.1815 -0.7694  0.4947
  160TMC2    C1 2434   1.975   3.334   2.197  0.1510 -0.2375 -0.6282
  160TMC2    C2 2435   2.073   3.268   2.258  0.2133  0.9885 -0.1690
  160TMC2    C3 2436   2.137   3.169   2.189 -0.4202  0.1895 -0.2917
  160TMC2    C4 2437   1.938   3.317   2.063  0.3152  0.6272 -0.1011
  160TMC2    C5 2438   2.020   3.225   1.996 -0.0207 -0.1773  0.2670
  160TMC2    C6 2439   2.114   3.148   2.057 -0.3184 -0.0687 -0.2337
  160TMC2     C 2440   1.896   3.414   2.288  0.1437 -0.0096 -0.4095
  160TMC2     O 2441   1.956   3.468   2.376  0.5966  0.3079  0.0384
  160TMC2     H 2442   2.101   3.281   2.362  0.8188  2.5211 -0.5319
  160TMC2    H1 2443   1.879   3.395   2.015 -0.0597  0.3209 -0.1413
  160TMC2    H2 2444   2.169   3.081   1.992 -1.3039 -1.2720  0.1787
  160TMC2    C7 2445   1.998   3.209   1.851 -0.3191  0.2706  0.8461
  160TMC2    C8 2446   2.272   3.155   2.244  0.5512  0.7117 -0.8135
  160TMC2    O1 2447   1.890   3.245   1.813 -0.2406  0.8005 -0.3474
  160TMC2    O2 2448   2.307   3.226   2.330  0.0722  0.1125 -0.5605
  160TMC2    O5 2449   2.325   3.035   2.214 -0.2334  0.4154  0.8799
  160TMC2    H5 2450   2.258   2.975   2.173  1.3355 -0.6446 -0.1312
  161MPD2     C 2451   1.699   3.595   2.412 -0.1199  0.0572 -0.8391
  161MPD2    C1 2452   1.685   3.536   2.292 -0.6124 -0.1851 -0.0032
  161MPD2    C2 2453   1.584   3.580   2.208  0.3189  0.1786  0.4078
  161MPD2    C3 2454   1.511   3.684   2.251  0.4606 -0.1832  0.0813
  161MPD2    C4 2455   1.517   3.737   2.378 -0.4320  0.2307 -0.2303
  161MPD2    C5 2456   1.611   3.687   2.463  0.2239 -0.2501 -0.0310
  161MPD2     H 2457   1.577   3.532   2.111 -1.9217  1.8691 -0.2825
  161MPD2    H1 2458   1.451   3.816   2.412 -1.4921 -1.3353  1.4026
  161MPD2    H2 2459   1.774   3.562   2.483 -0.4149 -0.1011 -0.6023
  161MPD2    H3 2460   1.621   3.724   2.564  1.6907  1.8578 -0.9493
  161MPD2     N 2461   1.408   3.745   2.170 -0.4025 -0.3053 -0.2092
  161MPD2    H5 2462   1.339   3.803   2.216 -2.0069 -0.5780 -2.3259
  161MPD2    N1 2463   1.769   3.439   2.243  0.3118  0.0686 -0.1303
  161MPD2    H7 2464   1.733   3.394   2.160  1.4945 -1.2898  0.0961
  162TMC2    C1 2465   0.092   0.826   1.469 -0.2639 -0.0771  0.1626
  162TMC2    C2 2466   0.030   0.951   1.470  0.6114 -0.3077 -1.0283
  162TMC2    C3 2467   4.639   0.950   1.546 -0.5993  0.1398 -0.1108
  162TMC2    C4 2468   0.056   0.716   1.536 -0.0075  0.1906  0.9384
  162TMC2    C5 2469   4.668   0.728   1.612 -0.4141  0.6920  0.0600
  162TMC2    C6 2470   4.596   0.846   1.625 -0.0967 -0.2366 -0.7718
  162TMC2     C 2471   0.185   0.800   1.363  0.0898  0.9828  0.4122
  162TMC2     O 2472   0.244   0.691   1.360  0.3022  0.2146 -0.3758
  162TMC2     H 2473   0.044   1.044   1.416  1.5245  0.2385  0.1520
  162TMC2    H1 2474   0.105   0.621   1.524 -0.3274  0.0362  0.8486
  162TMC2    H2 2475   4.500   0.848   1.675 -0.1450 -2.3340 -0.7773
  162TMC2    C7 2476   4.593   0.609   1.623 -0.8986 -0.4159  0.4617
  162TMC2    C8 2477   4.575   1.076   1.546  0.3935 -0.7801  0.3221
  162TMC2    O1 2478   4.477   0.624   1.593  0.2837 -0.2676  0.1447
  162TMC2    O2 2479   4.625   1.177   1.495  0.1392 -0.6098 -0.0511
  162TMC2    O5 2480   4.476   1.081   1.638 -0.0072  0.4346  0.4511
  162TMC2    H5 2481   4.409   1.014   1.612  0.7390 -0.1670  0.0701
  163MPD2     C 2482   0.378   0.932   0.903 -0.1676  0.7845  0.0364
  163MPD2    C1 2483   0.378   0.808   0.967  0.0906 -0.1079 -0.0116
  163MPD2    C2 2484   0.328   0.802   1.101  0.0402 -0.2941 -0.4212
  163MPD2    C3 2485   0.257   0.910   1.151 -0.9822 -0.2864  0.2873
  163MPD2    C4 2486   0.269   1.031   1.098  0.4881 -0.6449 -0.0867
  163MPD2    C5 2487   0.331   1.039   0.974  0.0493  0.2972 -0.0141
  163MPD2     H 2488   0.331   0.707   1.153 -0.7834 -0.0833  0.0049
  163MPD2    H1 2489   0.208   1.108   1.145 -0.7061 -1.3022 -0.5524
  163MPD2    H2 2490   0.403   0.940   0.798 -1.4418  0.1046 -0.3213
  163MPD2    H3 2491   0.334   1.138   0.931 -1.8728  0.7795  0.9668
  163MPD2     N 2492   0.192   0.906   1.277  0.2579 -0.4473  0.1598
  163MPD2    H5 2493   0.153   0.992   1.314 -0.3732 -0.1244 -1.2242
  163MPD2    N1 2494   0.441   0.701   0.891 -0.5672  0.1807 -0.4475
  163MPD2    H7 2495   0.491   0.729   0.807 -1.5793  1.9553 -0.4696
  164TCq2    C1 2496   1.243   4.173  10.817  0.2267 -0.3590  0.9192
  164TCq2    O2 2497   1.254   4.064  10.876  0.0546 -0.2328  0.0262
  164TCq2    C2 2498   1.181   4.278  10.885 -0.0713 -0.3894 -0.4641
  164TCq2    C3 2499   1.215   4.410  10.858  0.1145  0.9139 -0.9589
  164TCq2    C4 2500   1.135   4.507  10.915 -0.6377 -0.0470  0.2679
  164TCq2    C5 2501   1.032   4.477  10.996 -0.1837  0.0203 -0.4934
  164TCq2    C6 2502   1.014   4.343  11.032  0.1063 -0.1489  1.2402
  164TCq2    C7 2503   1.089   4.240  10.976  0.4544 -0.3401  0.4170
  164TCq2    C8 2504   0.900   4.307  11.113 -0.1183  0.2167  0.3843
  164TCq2    O4 2505   0.924   4.199  11.170  0.0005  0.1231  0.0648
  164TCq2    C9 2506   1.154   4.645  10.877 -0.5881  0.0446 -0.2656
  164TCq2    O5 2507   1.264   4.667  10.821 -0.3578  0.1849 -0.0595
  164TCq2    O6 2508   1.076   0.012  10.918 -0.3425 -0.4128  0.1213
  164TCq2    H2 2509   1.300   4.435  10.796  1.1145 -1.5360 -0.5822
  164TCq2    H3 2510   0.971   4.553  11.044  0.0061 -0.7102  0.8720
  164TCq2    H4 2511   1.066   4.136  10.998  0.5784 -0.3189  0.6430
  165MPD2     C 2512   1.345   2.321   2.170  0.1361 -0.1021  0.5925
  165MPD2    C1 2513   1.401   2.273   2.050 -0.6112  0.1914 -0.0957
  165MPD2    C2 2514   1.511   2.340   1.997  0.5121  0.1408 -0.0048
  165MPD2    C3 2515   1.580   2.435   2.073 -0.4762  0.6665 -0.7402
  165MPD2    C4 2516   1.522   2.475   2.193 -0.0538 -0.7874 -0.0821
  165MPD2    C5 2517   1.399   2.432   2.233 -0.6237 -0.6510  0.1424
  165MPD2     H 2518   1.548   2.309   1.900 -0.8706  0.2804 -0.5647
  165MPD2    H1 2519   1.582   2.534   2.262  0.1701 -0.7055 -0.3493
  165MPD2    H2 2520   1.252   2.277   2.205 -0.6322  0.9929 -0.0409
  165MPD2    H3 2521   1.359   2.467   2.328 -3.4502 -0.0434 -1.2546
  165MPD2     N 2522   1.701   2.487   2.031 -0.0359 -0.0219 -0.0151
  165MPD2    H5 2523   1.742   2.554   2.095 -0.9978  0.3968  0.1632
  165MPD2    N1 2524   1.351   2.156   1.992  0.2815 -0.0012 -0.1672
  165MPD2    H7 2525   1.267   2.120   2.037 -0.2675 -0.2182 -1.3715
  166TCq2    C1 2526   1.759   2.469   1.912  0.3660 -0.5842 -0.2314
  166TCq2    O2 2527   1.736   2.383   1.828  0.4253  0.0043  0.0438
  166TCq2    C2 2528   1.889   2.533   1.907  0.6334 -0.1523  0.5977
  166TCq2    C3 2529   1.911   2.639   1.989  0.6200  0.0580 -0.3980
  166TCq2    C4 2530   2.036   2.674   2.016  0.2100 -0.2102  0.2174
  166TCq2    C5 2531   2.139   2.598   1.969  0.2391 -0.6637  0.1687
  166TCq2    C6 2532   2.110   2.491   1.887 -0.3731  0.5779  0.2794
  166TCq2    C7 2533   1.986   2.461   1.842  0.9529 -0.4655 -0.2818
  166TCq2    C8 2534   2.219   2.391   1.853  0.4763  0.0990  0.3546
  166TCq2    O4 2535   2.331   2.433   1.873 -0.2201  0.3267  0.0334
  166TCq2    C9 2536   2.058   2.786   2.102  0.1066 -0.7921  0.8614
  166TCq2    O5 2537   1.971   2.813   2.188 -0.3639  0.2225 -0.0002
  166TCq2    O6 2538   2.174   2.840   2.103 -0.1917  0.4567 -0.5477
  166TCq2    H2 2539   1.839   2.706   2.035 -0.5245 -1.8913  0.6668
  166TCq2    H3 2540   2.236   2.625   2.009 -0.1592  0.0485  0.6535
  166TCq2    H4 2541   1.957   2.391   1.765 -1.0171  1.1591 -1.0255
  167TMC2    C1 2542   4.511   4.260  12.158 -0.2113  0.1338  0.3340
  167TMC2    C2 2543   4.518   4.395  12.155 -0.1507  0.0684 -0.9391
  167TMC2    C3 2544   4.587   4.452  12.256 -0.6641  0.6831 -0.2808
  167TMC2    C4 2545   4.576   4.182  12.249 -0.0078  0.0938 -0.5920
  167TMC2    C5 2546   4.659   4.251  12.337  0.1727  0.4997 -0.0751
  167TMC2    C6 2547   4.654   4.382  12.354  0.3763  0.7096  0.6421
  167TMC2     C 2548   4.419   4.190  12.076 -0.2701  0.0488 -0.2531
  167TMC2     O 2549   4.316   4.245  12.043  0.2932  0.3606 -0.0054
  167TMC2     H 2550   4.467   4.450  12.078 -0.2080  1.6632  0.2417
  167TMC2    H1 2551   4.553   4.077  12.260 -0.0702  0.1068 -0.6004
  167TMC2    H2 2552   0.012   4.435  12.404  2.4216  0.0436 -1.9645
  167TMC2    C7 2553   0.025   4.174  12.420 -0.4204  0.4762  0.3175
  167TMC2    C8 2554   4.562   4.592  12.282 -0.1364  0.4548 -0.0586
  167TMC2    O1 2555   0.033   4.219  12.532  0.3501  0.5954 -0.7362
  167TMC2    O2 2556   4.510   4.671  12.200 -0.2765  0.0843 -0.0217
  167TMC2    O5 2557   4.553   4.612  12.409 -0.1886 -0.1846 -0.3983
  167TMC2    H5 2558   4.550   4.530  12.462 -0.6383 -1.1687 -1.9211
  168MPD2     C 2559   4.291   4.004  11.878  0.0406  0.6879  0.1189
  168MPD2    C1 2560   4.411   3.981  11.942 -0.1051 -0.0481  0.3855
  168MPD2    C2 2561   4.481   3.865  11.917 -0.2909  0.6052 -0.2459
  168MPD2    C3 2562   4.436   3.777  11.824 -0.3463  0.1920 -0.3438
  168MPD2    C4 2563   4.319   3.799  11.766  0.5789  0.2901  0.3626
  168MPD2    C5 2564   4.238   3.904  11.796 -0.6912  0.0030  0.1553
  168MPD2     H 2565   4.575   3.835  11.962  0.4451 -0.1605 -2.3135
  168MPD2    H1 2566   4.271   3.730  11.697 -0.8154 -0.2375  1.8751
  168MPD2    H2 2567   4.230   4.092  11.893 -1.6397 -0.2574 -0.9898
  168MPD2    H3 2568   4.141   3.913  11.748 -1.6777  1.6917  2.4706
  168MPD2     N 2569   4.515   3.661  11.815 -0.3603  0.2343 -0.3744
  168MPD2    H5 2570   4.600   3.657  11.871  0.9147  1.2540 -2.2406
  168MPD2    N1 2571   4.468   4.069  12.041  0.1496  0.1604  0.2742
  168MPD2    H7 2572   4.565   4.048  12.062 -0.3156 -2.1791  0.1261
  169MPD1     C 2573   2.091   3.359   8.757 -0.6430  0.5455  0.8654
  169MPD1    C1 2574   2.228   3.379   8.776 -0.3444  0.3161  0.0532
  169MPD1    C2 2575   2.275   3.386   8.907 -0.1180  0.2502  0.6058
  169MPD1    C3 2576   2.196   3.365   9.020  0.3466 -0.6761  0.1399
  169MPD1    C4 2577   2.061   3.334   8.998  0.7169  0.7451 -0.4989
  169MPD1    C5 2578   2.006   3.341   8.869  0.5698 -1.0597  0.6407
  169MPD1     H 2579   2.379   3.409   8.926  0.5409 -1.2763 -1.1532
  169MPD1    H1 2580   1.997   3.327   9.085 -0.9899 -0.3788 -1.8518
  169MPD1    H2 2581   2.050   3.347   8.658  2.0996  0.7716 -0.3155
  169MPD1    H3 2582   1.903   3.325   8.842  0.8908 -2.1211  0.0384
  169MPD1     N 2583   2.259   3.393   9.142 -0.0566 -0.0562 -0.1234
  169MPD1    H5 2584   2.357   3.418   9.143 -0.4483  1.4604 -0.2350
  169MPD1    N1 2585   2.310   3.408   8.659  0.0525  0.7461  0.4195
  169MPD1    H6 2586   2.409   3.397   8.684  0.6414  1.2340 -1.7604
  169MPD1    H7 2587   2.271   3.374   8.572  2.6360  1.3357 -0.9552
  170MPD1     C 2588   1.747   1.296  12.998 -0.1204 -0.0283  0.1174
  170MPD1    C1 2589   1.787   1.296  13.131  0.0625  0.2300  1.0316
  170MPD1    C2 2590   1.723   1.383  13.219 -0.3295 -0.4718  0.5765
  170MPD1    C3 2591   1.601   1.446  13.194  0.4861  0.6103  0.5794
  170MPD1    C4 2592   1.550   1.418  13.067 -0.7758  0.6384  0.2095
  170MPD1    C5 2593   1.624   1.349  12.974  0.1131  0.3075  0.7252
  170MPD1     H 2594   1.767   1.392  13.318 -1.9947  0.1884  1.2545
  170MPD1    H1 2595   1.456   1.463  13.037 -0.3639 -0.1490 -2.3113
  170MPD1    H2 2596   1.788   1.245  12.911  0.0316  0.5145 -0.1292
  170MPD1    H3 2597   1.585   1.337  12.874  2.6320  2.0142 -0.4654
  170MPD1     N 2598   1.535   1.524  13.296  0.1326 -0.0271 -0.5661
  170MPD1    H5 2599   1.582   1.527  13.386 -0.4591  0.5584 -0.2754
  170MPD1    N1 2600   1.902   1.226  13.165 -0.4313 -0.0549 -0.4716
  170MPD1    H6 2601   1.903   1.141  13.109  0.6063  0.7119 -1.5954
  170MPD1    H7 2602   1.900   1.192  13.262  4.7250 -2.2013 -1.1329
  171MPD1     C 2603   0.071   3.229  15.925  0.0852  0.2428  0.2470
  171MPD1    C1 2604   4.708   3.204  15.820  0.3268 -0.6120  0.3223
  171MPD1    C2 2605   4.646   3.079  15.811 -0.1604  0.1048 -0.0475
  171MPD1    C3 2606   4.683   2.976  15.897 -0.1787 -0.2515  0.2217
  171MPD1    C4 2607   0.045   2.996  16.002 -0.1224  0.2596  0.1892
  171MPD1    C5 2608   0.100   3.120  16.007  0.1411 -0.9448 -0.1109
  171MPD1     H 2609   4.574   3.055  15.732 -1.7696  1.5090  0.9965
  171MPD1    H1 2610   0.064   2.920  16.077  0.3695  0.7433  0.5522
  171MPD1    H2 2611   0.121   3.324  15.939  0.3266 -0.0181  1.1939
  171MPD1    H3 2612   0.167   3.140  16.090  0.2779 -0.9051 -0.2304
  171MPD1     N 2613   4.625   2.848  15.878  0.2170  0.0030  0.1911
  171MPD1    H5 2614   4.642   2.786  15.956  1.1240  0.2518  0.1919
  171MPD1    N1 2615   4.673   3.309  15.738 -0.2009  0.4876  0.3171
  171MPD1    H6 2616   4.657   3.277  15.642  0.3086 -0.5861  0.5852
  171MPD1    H7 2617   0.017   3.385  15.737  0.5473 -0.1654  0.1560
  172MPD1     C 2618   3.931   2.538   1.303 -0.0675  0.0653 -0.1398
  172MPD1    C1 2619   3.855   2.654   1.317  0.9063  0.7222 -0.0084
  172MPD1    C2 2620   3.815   2.720   1.197 -0.4365  0.2825 -0.0431
  172MPD1    C3 2621   3.811   2.658   1.075  0.0753  0.1372  0.0761
  172MPD1    C4 2622   3.887   2.543   1.062 -0.0093  0.5836  0.2716
  172MPD1    C5 2623   3.944   2.489   1.175 -0.7435 -0.0386 -0.3775
  172MPD1     H 2624   3.753   2.807   1.207 -0.8241  0.1503 -1.2610
  172MPD1    H1 2625   3.901   2.507   0.961  0.2293 -0.1703  0.5672
  172MPD1    H2 2626   3.975   2.489   1.389 -3.0326  3.0088  3.0686
  172MPD1    H3 2627   4.013   2.409   1.153 -1.4927 -0.8577  0.2573
  172MPD1     N 2628   3.731   2.693   0.962 -0.8981 -0.1555  0.6044
  172MPD1    H5 2629   3.758   2.648   0.875  0.1821  0.1119  0.7964
  172MPD1    N1 2630   3.846   2.716   1.443 -0.7521  0.1443 -0.2871
  172MPD1    H6 2631   3.763   2.774   1.457 -0.8770 -0.1690  0.2909
  172MPD1    H7 2632   3.853   2.655   1.524  1.0618 -0.8332 -1.1973
  173MPD1     C 2633   4.556   1.155  14.105 -0.1554  0.5064 -0.0516
  173MPD1    C1 2634   4.682   1.145  14.159 -0.4365 -0.1963  0.4393
  173MPD1    C2 2635   4.718   1.251  14.245  0.6222 -0.1372  0.4913
  173MPD1    C3 2636   4.639   1.352  14.276  0.7003 -0.3878  0.1803
  173MPD1    C4 2637   4.516   1.358  14.226 -0.4798  0.6222  0.0365
  173MPD1    C5 2638   4.475   1.261  14.138 -0.6371  0.2349  0.8030
  173MPD1     H 2639   0.096   1.259  14.283  0.2911  0.9661  1.1262
  173MPD1    H1 2640   4.450   1.441  14.249 -0.8024  0.4532 -0.2911
  173MPD1    H2 2641   4.519   1.078  14.037  5.4347 -2.6290  0.4944
  173MPD1    H3 2642   4.373   1.272  14.102 -0.7866 -1.8795  0.5608
  173MPD1     N 2643   4.692   1.445  14.370  0.2685 -0.0014 -0.3373
  173MPD1    H5 2644   0.069   1.445  14.386  0.4400 -0.1839 -1.4107
  173MPD1    N1 2645   0.053   1.041  14.129  0.3339 -0.4408 -0.0317
  173MPD1    H6 2646   0.147   1.055  14.166 -0.4014  1.8516  0.9332
  173MPD1    H7 2647   0.065   1.010  14.033  0.3282  1.1282 -0.5300
  174MPD1     C 2648   0.687   2.104  14.385 -0.2185  0.1683 -0.1056
  174MPD1    C1 2649   0.669   1.977  14.353 -0.4169  0.0723 -0.3516
  174MPD1    C2 2650   0.552   1.919  14.395 -0.4118 -0.1595 -0.7860
  174MPD1    C3 2651   0.447   1.993  14.443  0.1846  0.3077  0.5216
  174MPD1    C4 2652   0.459   2.131  14.456  0.6366 -0.3019 -0.5660
  174MPD1    C5 2653   0.589   2.180  14.451 -0.3730  0.2829  0.2350
  174MPD1     H 2654   0.536   1.820  14.355  1.3761 -1.2233  1.1399
  174MPD1    H1 2655   0.380   2.195  14.492  1.8286 -0.0470  1.6337
  174MPD1    H2 2656   0.782   2.150  14.364  0.0830 -0.6656 -0.5881
  174MPD1    H3 2657   0.609   2.281  14.482 -2.5198  0.9778 -0.6465
  174MPD1     N 2658   0.317   1.942  14.470  0.1019  0.3861  0.3181
  174MPD1    H5 2659   0.251   2.008  14.510  0.4534  0.9047  0.0442
  174MPD1    N1 2660   0.770   1.888  14.313  0.6560 -0.6116 -0.5385
  174MPD1    H6 2661   0.842   1.933  14.256  1.2987 -0.4840  0.3560
  174MPD1    H7 2662   0.732   1.816  14.253 -2.1476  0.9943 -0.6766
  175MPD1     C 2663   3.332   2.719  15.585  0.2021 -0.4984  0.3949
  175MPD1    C1 2664   3.200   2.720  15.613 -0.3865  0.0360  0.3999
  175MPD1    C2 2665   3.158   2.738  15.745  0.7150  0.3698  0.1156
  175MPD1    C3 2666   3.254   2.738  15.848 -0.0517  0.1586 -0.4717
  175MPD1    C4 2667   3.385   2.728  15.812 -0.4385  0.0511  0.3973
  175MPD1    C5 2668   3.425   2.726  15.684  0.3372 -1.0906 -0.4875
  175MPD1     H 2669   3.053   2.748  15.772  1.2049  3.2710  0.9593
  175MPD1    H1 2670   3.460   2.729  15.891 -0.3163 -0.0217  0.2824
  175MPD1    H2 2671   3.368   2.715  15.482  1.0733 -1.6590  0.7474
  175MPD1    H3 2672   3.531   2.732  15.661  0.9651 -0.0221  2.7189
  175MPD1     N 2673   3.228   2.728  15.987 -0.3530 -0.3269  0.5741
  175MPD1    H5 2674   3.312   2.714  16.044  0.3395 -1.6372 -0.7571
  175MPD1    N1 2675   3.101   2.703  15.513  0.4115  0.2226 -0.2942
  175MPD1    H6 2676   3.019   2.651  15.545  1.7879 -2.3018 -0.9012
  175MPD1    H7 2677   3.140   2.668  15.426  2.8145 -0.6261  1.1426
  176MPD1     C 2678   1.331   1.290   0.283 -0.1064 -0.2992 -0.2900
  176MPD1    C1 2679   1.288   1.238   0.159  0.0358  0.3481 -0.1355
  176MPD1    C2 2680   1.154   1.215   0.135  0.5888 -0.2127 -0.3265
  176MPD1    C3 2681   1.060   1.224   0.241 -0.5177  0.2943 -0.0819
  176MPD1    C4 2682   1.102   1.270   0.365 -0.5767  0.1853 -1.0760
  176MPD1    C5 2683   1.235   1.303   0.385 -0.1421  0.1902  0.5155
  176MPD1     H 2684   1.123   1.168   0.043  0.3076 -0.1610 -0.2583
  176MPD1    H1 2685   1.039   1.263   0.453 -0.6062 -1.1762 -1.2042
  176MPD1    H2 2686   1.433   1.319   0.307  0.0068 -0.9418  0.0271
  176MPD1    H3 2687   1.268   1.337   0.482 -1.0796  0.6162  0.6872
  176MPD1     N 2688   0.933   1.186   0.215 -0.5058 -0.2323 -0.9335
  176MPD1    H5 2689   0.914   1.150   0.122 -0.9472 -2.1079 -0.1181
  176MPD1    N1 2690   1.385   1.243   0.055  0.0712 -0.0701 -0.4508
  176MPD1    H6 2691   1.356   1.185  17.669  0.3661 -0.7857 -0.0295
  176MPD1    H7 2692   1.483   1.226   0.072 -0.0360 -0.8428 -0.6060
  177MPD1     C 2693   4.620   3.943   9.265 -0.0159 -0.4266  0.7425
  177MPD1    C1 2694   4.521   3.868   9.320 -0.0500  0.4215  0.2155
  177MPD1    C2 2695   4.395   3.922   9.342 -0.1446 -0.2789  0.1176
  177MPD1    C3 2696   4.357   4.052   9.316  0.2913 -0.4216 -0.1672
  177MPD1    C4 2697   4.463   4.126   9.267  0.2914 -0.3881 -0.4299
  177MPD1    C5 2698   4.586   4.071   9.228 -0.1033  0.1030 -0.1791
  177MPD1     H 2699   4.328   3.863   9.402 -1.4715 -0.3198 -1.3893
  177MPD1    H1 2700   4.453   4.233   9.251  1.9262 -0.3619 -1.2477
  177MPD1    H2 2701   4.713   3.904   9.224 -0.6339 -1.0485 -0.0817
  177MPD1    H3 2702   4.665   4.123   9.174  0.4323 -1.1676 -0.6430
  177MPD1     N 2703   4.234   4.106   9.358  0.0357  0.3221 -0.0234
  177MPD1    H5 2704   4.172   4.032   9.391  0.7130 -0.2203  0.0186
  177MPD1    N1 2705   4.542   3.729   9.345 -0.0566 -0.1395  0.8004
  177MPD1    H6 2706   4.636   3.708   9.378 -0.9517 -2.1434  2.1154
  177MPD1    H7 2707   4.480   3.697   9.419  0.6828  0.9794  1.8990
  178MPD1     C 2708   0.924   1.665   0.405  0.3863  0.3715 -0.3103
  178MPD1    C1 2709   0.829   1.640   0.311  0.2809 -0.0931 -0.1906
  178MPD1    C2 2710   0.855   1.590   0.189 -0.0876  0.0687  0.5684
  178MPD1    C3 2711   0.986   1.557   0.158  0.1902 -0.0839 -0.3957
  178MPD1    C4 2712   1.079   1.582   0.252  0.1320 -0.0527 -0.5520
  178MPD1    C5 2713   1.052   1.635   0.374 -0.4189  0.7236  0.3652
  178MPD1     H 2714   0.777   1.579   0.114  0.9688  0.2444 -0.5530
  178MPD1    H1 2715   1.183   1.557   0.230  0.3641  0.1140  0.3528
  178MPD1    H2 2716   0.895   1.711   0.499 -0.4109  1.1773 -0.9424
  178MPD1    H3 2717   1.132   1.666   0.440  0.6570 -0.7686 -0.2391
  178MPD1     N 2718   1.037   1.500   0.036  0.3094 -0.1173 -0.6301
  178MPD1    H5 2719   1.136   1.490   0.019  0.2750 -1.0786 -0.2602
  178MPD1    N1 2720   0.698   1.680   0.340  0.1630  0.0663  0.0763
  178MPD1    H6 2721   0.672   1.636   0.429  0.1232  0.8484  0.4524
  178MPD1    H7 2722   0.642   1.646   0.262 -0.1030 -2.1265  1.2165
  179MPD1     C 2723   1.126   3.917  15.404  0.6499  0.2101 -0.0439
  179MPD1    C1 2724   1.095   3.819  15.492 -0.4800 -0.1419 -0.2481
  179MPD1    C2 2725   0.977   3.833  15.566  0.8535  0.4633  0.3811
  179MPD1    C3 2726   0.910   3.952  15.566  0.0196 -1.0051 -0.1181
  179MPD1    C4 2727   0.953   4.055  15.480  0.0629 -0.0122  0.3888
  179MPD1    C5 2728   1.063   4.039  15.405  0.2200  0.0819 -0.2362
  179MPD1     H 2729   0.935   3.757  15.631  0.2858  0.9372  0.5698
  179MPD1    H1 2730   0.891   4.143  15.463  2.0824  1.2082 -0.6267
  179MPD1    H2 2731   1.214   3.911  15.341 -0.1148 -0.1247 -1.0666
  179MPD1    H3 2732   1.088   4.116  15.332  0.5013  0.1899 -0.0249
  179MPD1     N 2733   0.801   3.978  15.659 -0.4685 -0.4054  0.2344
  179MPD1    H5 2734   0.745   4.062  15.643  0.4362 -0.0641 -1.1507
  179MPD1    N1 2735   1.179   3.700  15.495  0.3361 -0.5357  0.1664
  179MPD1    H6 2736   1.187   3.666  15.591 -2.2499  0.6307  0.7926
  179MPD1    H7 2737   1.273   3.718  15.460 -0.0763  0.7717 -0.2772
  180MPD1     C 2738   0.012   0.932  15.037 -0.3748  0.4934  0.6705
  180MPD1    C1 2739   0.085   1.016  14.957  0.0620  0.2292 -0.0338
  180MPD1    C2 2740   0.117   0.987  14.829 -0.6768  0.0941  0.1973
  180MPD1    C3 2741   0.094   0.855  14.784  0.2237 -0.0037  0.3046
  180MPD1    C4 2742   0.026   0.767  14.864 -0.1643 -0.2733  0.6290
  180MPD1    C5 2743   4.702   0.812  14.984  0.2800 -0.3505 -0.1613
  180MPD1     H 2744   0.174   1.055  14.766 -1.9308  2.3325  1.5026
  180MPD1    H1 2745   0.005   0.664  14.840  2.3834 -0.1336 -2.0581
  180MPD1    H2 2746   4.696   0.956  15.135  1.1817  1.8431  0.9494
  180MPD1    H3 2747   4.659   0.740  15.053 -1.4896  0.5280 -0.3434
  180MPD1     N 2748   0.145   0.808  14.662 -0.5377  0.0590 -0.1679
  180MPD1    H5 2749   0.209   0.876  14.623 -1.8543  0.5127 -1.5399
  180MPD1    N1 2750   0.112   1.151  15.004 -0.2749  0.6396 -0.6158
  180MPD1    H6 2751   0.134   1.151  15.103  0.0227 -2.4806 -0.6696
  180MPD1    H7 2752   0.200   1.186  14.967 -0.5883 -1.4094 -3.3074
  181MPD1     C 2753   2.183   1.786  10.749  0.9528  0.7798 -0.2479
  181MPD1    C1 2754   2.298   1.719  10.742 -0.7058  0.2670  0.0794
  181MPD1    C2 2755   2.400   1.775  10.676  0.6941  0.8455 -0.8490
  181MPD1    C3 2756   2.383   1.892  10.604  0.2854 -0.2231 -0.5880
  181MPD1    C4 2757   2.255   1.948  10.597  0.5817 -0.2058 -0.1309
  181MPD1    C5 2758   2.158   1.898  10.676 -0.2844 -0.0969  0.1923
  181MPD1     H 2759   2.497   1.729  10.671 -0.1331 -0.9469 -0.2497
  181MPD1    H1 2760   2.234   2.037  10.539 -0.7897 -0.5711 -0.1993
  181MPD1    H2 2761   2.105   1.744  10.811  3.1688 -1.6049  0.9046
  181MPD1    H3 2762   2.069   1.957  10.692  1.7430  3.6924 -2.5401
  181MPD1     N 2763   2.488   1.924  10.518 -0.6220 -0.2810 -0.3860
  181MPD1    H5 2764   2.572   1.868  10.518  0.9815  2.1427  0.5318
  181MPD1    N1 2765   2.307   1.579  10.775  0.0094 -0.4372  0.2084
  181MPD1    H6 2766   2.246   1.574  10.856 -0.1517  3.4851  0.3479
  181MPD1    H7 2767   2.401   1.550  10.802 -0.0269 -0.3200  0.4536
  182MPD1     C 2768   3.448   1.039   2.001  0.3468  0.0106 -0.2686
  182MPD1    C1 2769   3.376   1.086   2.105 -0.2423 -0.2116 -0.1875
  182MPD1    C2 2770   3.260   1.156   2.082 -0.0096  0.4552  0.3377
  182MPD1    C3 2771   3.206   1.169   1.956  0.3549  0.2587 -0.0616
  182MPD1    C4 2772   3.278   1.120   1.848  0.1418  0.0996  0.7888
  182MPD1    C5 2773   3.391   1.048   1.876 -0.9374 -0.7344  0.0302
  182MPD1     H 2774   3.210   1.204   2.165  0.5696  1.4271  0.1258
  182MPD1    H1 2775   3.238   1.128   1.747  2.3962  0.6150 -0.0682
  182MPD1    H2 2776   3.549   1.007   2.019 -0.6565 -1.7560  2.2452
  182MPD1    H3 2777   3.443   1.004   1.792  1.0355 -1.2320  1.4829
  182MPD1     N 2778   3.084   1.232   1.922 -0.0954 -0.3822  0.0205
  182MPD1    H5 2779   3.042   1.210   1.832  0.4202 -0.0537 -0.2977
  182MPD1    N1 2780   3.433   1.078   2.236 -0.0165 -0.5175 -0.8999
  182MPD1    H6 2781   3.379   1.095   2.320 -0.5715 -0.4291 -1.2756
  182MPD1    H7 2782   3.497   0.999   2.245 -0.8043 -1.1947 -1.2111
  183MPD1     C 2783   2.564   1.339   9.918  0.6023  0.1722  0.3787
  183MPD1    C1 2784   2.550   1.478   9.917 -0.1312  0.4178  0.1289
  183MPD1    C2 2785   2.660   1.552   9.869  0.3012  0.1799 -0.2333
  183MPD1    C3 2786   2.773   1.488   9.821  0.3633  0.0426 -0.6367
  183MPD1    C4 2787   2.778   1.348   9.813  0.3129 -0.9326 -0.3109
  183MPD1    C5 2788   2.671   1.278   9.861 -0.1675  0.2120  0.3429
  183MPD1     H 2789   2.659   1.661   9.876  2.0730  0.2488 -1.0544
  183MPD1    H1 2790   2.847   1.280   9.765  2.0006  0.6042 -0.0491
  183MPD1    H2 2791   2.489   1.269   9.954 -0.1658  0.2470 -1.0690
  183MPD1    H3 2792   2.670   1.170   9.847  0.9631  0.3296 -0.6444
  183MPD1     N 2793   2.881   1.564   9.779  0.4889 -0.3139  0.0637
  183MPD1    H5 2794   2.880   1.662   9.804  0.3288 -0.4613  0.6325
  183MPD1    N1 2795   2.458   1.550   9.994 -0.3534  0.6211  0.3852
  183MPD1    H6 2796   2.370   1.501  10.001 -0.1880  0.1428 -0.8230
  183MPD1    H7 2797   2.438   1.641   9.952  1.2150  1.0963  0.6591
  184MPD1     C 2798   3.999   3.801   9.777 -0.5230 -0.0196 -0.5049
  184MPD1    C1 2799   3.883   3.807   9.696  0.3530  0.0526 -0.0800
  184MPD1    C2 2800   3.795   3.914   9.719 -0.2231 -0.4191  0.2969
  184MPD1    C3 2801   3.823   4.019   9.806 -1.2230 -0.1339  0.7669
  184MPD1    C4 2802   3.936   4.005   9.878 -0.7013 -0.0993  0.5520
  184MPD1    C5 2803   4.025   3.905   9.869  0.1276 -0.5349  0.1683
  184MPD1     H 2804   3.707   3.933   9.659 -2.6081 -1.2966  3.5322
  184MPD1    H1 2805   3.963   4.092   9.938 -0.3495 -0.0774  0.3608
  184MPD1    H2 2806   4.069   3.720   9.765 -0.6988 -0.1409 -0.7159
  184MPD1    H3 2807   4.121   3.897   9.919 -0.5122 -1.0034  1.3133
  184MPD1     N 2808   3.747   4.136   9.829  1.0595  0.4007 -0.7817
  184MPD1    H5 2809   3.776   4.196   9.906 -1.2289 -0.1676  0.5137
  184MPD1    N1 2810   3.863   3.717   9.586  0.3033 -0.0063  0.4209
  184MPD1    H6 2811   3.772   3.702   9.544  0.1197  1.2490  0.3867
  184MPD1    H7 2812   3.895   3.621   9.600 -1.4705 -0.8004 -0.8851
  185MPD1     C 2813   2.767   4.186   9.614  0.5777  0.1858 -0.1016
  185MPD1    C1 2814   2.776   4.223   9.745  0.3982 -0.9277 -0.0985
  185MPD1    C2 2815   2.902   4.257   9.795 -0.4829 -0.2837 -0.8184
  185MPD1    C3 2816   3.012   4.230   9.713 -0.0471  0.1953  0.6482
  185MPD1    C4 2817   2.996   4.183   9.584 -0.0968 -0.2340 -0.5480
  185MPD1    C5 2818   2.872   4.168   9.536 -0.2225 -0.1634 -0.5168
  185MPD1     H 2819   2.911   4.291   9.898 -0.7704 -1.7591 -0.3043
  185MPD1    H1 2820   3.082   4.154   9.525  0.6644  0.4901  0.1986
  185MPD1    H2 2821   2.676   4.149   9.568  1.8018 -2.2013 -0.6435
  185MPD1    H3 2822   2.864   4.145   9.430  1.5748  1.6443 -1.0418
  185MPD1     N 2823   3.146   4.265   9.745 -0.3253  0.1735 -0.5012
  185MPD1    H5 2824   3.216   4.248   9.673 -1.6511  1.0600 -1.9977
  185MPD1    N1 2825   2.658   4.253   9.815  0.4035 -0.4239 -0.0916
  185MPD1    H6 2826   2.574   4.204   9.783  0.9783 -0.2735 -1.8410
  185MPD1    H7 2827   2.664   4.256   9.916 -1.5194 -1.8428  0.0728
  186MPD1     C 2828   1.128   3.584  16.336  0.0504 -0.1821  0.4111
  186MPD1    C1 2829   1.094   3.675  16.242  0.4321  0.3151 -0.4402
  186MPD1    C2 2830   1.066   3.803  16.277  0.2075  0.6214 -0.1002
  186MPD1    C3 2831   1.071   3.851  16.407 -0.4486  0.1992 -0.3137
  186MPD1    C4 2832   1.098   3.760  16.501 -0.1215 -0.0934  0.1819
  186MPD1    C5 2833   1.121   3.627  16.467 -0.0104 -0.6061  0.3233
  186MPD1     H 2834   1.040   3.875  16.201  0.0018  1.3268  0.6376
  186MPD1    H1 2835   1.118   3.787  16.604  0.6037  1.8489 -0.4538
  186MPD1    H2 2836   1.158   3.481  16.320 -0.9887 -0.4485  0.1825
  186MPD1    H3 2837   1.130   3.549  16.542 -2.1278 -2.4356 -1.3007
  186MPD1     N 2838   1.036   3.980  16.451  0.2333  0.5746 -0.5815
  186MPD1    H5 2839   1.056   4.014  16.545  0.3028  0.0454 -0.4083
  186MPD1    N1 2840   1.080   3.633  16.110 -0.2236 -0.0163  0.1532
  186MPD1    H6 2841   1.144   3.562  16.074  0.4041  0.4348  0.3785
  186MPD1    H7 2842   1.083   3.713  16.046 -0.2619  0.5594  0.8760
  187MPD1     C 2843   0.373   1.395   0.574 -0.2347 -0.1954  0.6695
  187MPD1    C1 2844   0.485   1.390   0.497  0.1922  0.1519 -0.4377
  187MPD1    C2 2845   0.470   1.422   0.362  0.7383 -0.3368 -0.5823
  187MPD1    C3 2846   0.347   1.448   0.307 -0.3021 -0.5569  0.5044
  187MPD1    C4 2847   0.239   1.409   0.381 -0.1152 -0.1747 -0.0869
  187MPD1    C5 2848   0.253   1.395   0.518  0.4045  0.8418 -1.2348
  187MPD1     H 2849   0.556   1.429   0.296 -0.1753 -2.0951 -1.9714
  187MPD1    H1 2850   0.144   1.408   0.330  2.1030  0.4179 -4.2515
  187MPD1    H2 2851   0.393   1.382   0.680 -0.5534  1.3848  0.9248
  187MPD1    H3 2852   0.163   1.378   0.577  1.8460 -0.5637  0.5897
  187MPD1     N 2853   0.316   1.491   0.178 -0.7823 -0.2674 -0.1485
  187MPD1    H5 2854   0.223   1.477   0.140 -1.9572 -0.8382  2.9007
  187MPD1    N1 2855   0.609   1.383   0.566  0.0815  0.4685 -0.1874
  187MPD1    H6 2856   0.598   1.326   0.650  0.7244 -0.1505 -0.5220
  187MPD1    H7 2857   0.688   1.358   0.506  0.0692  1.7022 -0.7290
  188MPD1     C 2858   1.092   0.948  10.847  0.1676  0.2176 -0.5989
  188MPD1    C1 2859   0.953   0.917  10.857 -0.1177  0.1056 -0.1814
  188MPD1    C2 2860   0.890   0.870  10.743  0.3172 -0.3426 -0.4623
  188MPD1    C3 2861   0.966   0.815  10.643  0.0926 -0.0126 -0.1721
  188MPD1    C4 2862   1.102   0.818  10.646 -0.4114 -0.3481 -0.0241
  188MPD1    C5 2863   1.163   0.884  10.746 -0.1301 -0.2714 -0.0141
  188MPD1     H 2864   0.781   0.863  10.747  0.3528 -0.9823 -0.6182
  188MPD1    H1 2865   1.159   0.747  10.587 -0.5367 -0.3570 -0.1343
  188MPD1    H2 2866   1.160   0.970  10.927 -2.6684 -1.0537  2.1813
  188MPD1    H3 2867   1.271   0.883  10.738 -0.0501 -1.1888  1.2621
  188MPD1     N 2868   0.909   0.734  10.537  0.5089  0.2262 -0.1546
  188MPD1    H5 2869   0.961   0.671  10.477 -0.5252 -0.0840 -0.7323
  188MPD1    N1 2870   0.877   0.982  10.954  0.1113  0.2227 -0.4940
  188MPD1    H6 2871   0.923   0.982  11.045  1.9313 -2.3596 -1.3721
  188MPD1    H7 2872   0.784   0.942  10.962  1.1410 -2.3402 -0.9847
  189MPD1     C 2873   2.406   1.498   0.994  0.2321  0.0162  0.8177
  189MPD1    C1 2874   2.318   1.396   0.960  0.6980 -0.4124 -0.2480
  189MPD1    C2 2875   2.197   1.431   0.897  0.0175 -0.3404  0.5898
  189MPD1    C3 2876   2.167   1.561   0.853 -0.0193  0.1737 -0.2214
  189MPD1    C4 2877   2.253   1.662   0.896 -0.7605 -0.1527  0.0265
  189MPD1    C5 2878   2.363   1.625   0.971  0.1816 -0.0101 -0.1313
  189MPD1     H 2879   2.124   1.359   0.863 -2.2453  1.5393  1.4501
  189MPD1    H1 2880   2.235   1.767   0.876 -3.0469 -0.6100 -0.3421
  189MPD1    H2 2881   2.501   1.486   1.044  0.7297 -0.9818 -0.3581
  189MPD1    H3 2882   2.431   1.709   0.983  0.0191  0.2214 -0.7981
  189MPD1     N 2883   2.054   1.587   0.775  0.3054  0.3067 -0.2591
  189MPD1    H5 2884   2.004   1.506   0.740  0.2447  0.7898 -1.2851
  189MPD1    N1 2885   2.338   1.260   1.001 -0.5377 -0.0995  0.0124
  189MPD1    H6 2886   2.432   1.226   0.984 -0.1770  0.1589  1.4766
  189MPD1    H7 2887   2.273   1.205   0.947  0.5773 -0.0604 -1.3490
  190MPD1     C 2888   0.731   4.414  16.149 -0.1508 -0.3734  0.3810
  190MPD1    C1 2889   0.800   4.423  16.027 -0.4547 -1.1589 -1.2572
  190MPD1    C2 2890   0.822   4.550  15.966 -0.3691  0.2161 -0.2307
  190MPD1    C3 2891   0.795   4.666  16.030 -0.4673 -0.2095  0.5852
  190MPD1    C4 2892   0.759   4.660  16.160  0.5173 -0.0441 -0.2248
  190MPD1    C5 2893   0.724   4.539  16.221  0.3692 -0.3206  0.0110
  190MPD1     H 2894   0.860   4.559  15.865 -1.9495  0.0285 -0.8395
  190MPD1    H1 2895   0.755   0.025  16.224 -1.7515 -1.1716  1.2074
  190MPD1    H2 2896   0.704   4.318  16.191  1.3707 -0.7747  0.4423
  190MPD1    H3 2897   0.684   4.533  16.321 -1.5798  0.8639 -0.6862
  190MPD1     N 2898   0.830   0.066  15.971  0.3389 -0.3118  0.3350
  190MPD1    H5 2899   0.873   0.068  15.880  0.7446 -1.6090  0.4993
  190MPD1    N1 2900   0.800   4.313  15.945  0.0007 -0.2972  0.5895
  190MPD1    H6 2901   0.865   4.318  15.866  0.6724 -1.9558  1.0344
  190MPD1    H7 2902   0.803   4.226  15.998  0.6417  0.9107  2.5645
  191MPD1     C 2903   3.840   2.991  11.928 -1.1150  0.2550 -0.4119
  191MPD1    C1 2904   3.952   2.923  11.889  0.5902 -0.0822 -0.7709
  191MPD1    C2 2905   4.037   2.869  11.986  0.3014 -0.3762 -0.5378
  191MPD1    C3 2906   4.022   2.903  12.116 -0.6363 -0.4732  0.0135
  191MPD1    C4 2907   3.922   2.988  12.159 -0.0767 -0.1462  0.0018
  191MPD1    C5 2908   3.837   3.035  12.059 -0.1425 -0.3861 -0.4745
  191MPD1     H 2909   4.130   2.819  11.963  0.3219  0.0210 -1.3248
  191MPD1    H1 2910   3.907   3.013  12.263  2.1746  1.2012  0.0014
  191MPD1    H2 2911   3.760   3.011  11.857 -0.7815  0.1683 -0.8095
  191MPD1    H3 2912   3.750   3.090  12.092  0.8507 -0.2725  1.9788
  191MPD1     N 2913   4.114   2.842  12.210  0.3415 -0.4058  0.1645
  191MPD1    H5 2914   4.160   2.755  12.185  0.4478 -0.4576  0.5355
  191MPD1    N1 2915   3.958   2.869  11.761  0.0194 -1.1576  0.3788
  191MPD1    H6 2916   3.898   2.918  11.696 -0.3105 -0.8362  0.9227
  191MPD1    H7 2917   4.049   2.883  11.719 -1.3596  1.7904 -1.6430
  192MPD1     C 2918   4.206   2.642  13.274 -0.1533 -0.2013  0.0014
  192MPD1    C1 2919   4.103   2.669  13.186 -0.4462  0.2160  0.4812
  192MPD1    C2 2920   4.123   2.683  13.046 -0.5801 -0.3025  0.5596
  192MPD1    C3 2921   4.255   2.678  12.998  0.5437 -0.4078  1.1512
  192MPD1    C4 2922   4.358   2.650  13.089  0.0119  0.1118  0.4815
  192MPD1    C5 2923   4.333   2.623  13.221  0.2268  0.6732  0.0916
  192MPD1     H 2924   4.039   2.691  12.979  0.9156  2.3497 -1.0036
  192MPD1    H1 2925   4.457   2.648  13.046 -0.3886 -0.9437 -0.3999
  192MPD1    H2 2926   4.177   2.629  13.377 -2.0313  0.0723 -0.4865
  192MPD1    H3 2927   4.421   2.606  13.282 -0.2585 -0.3688  0.4922
  192MPD1     N 2928   4.290   2.683  12.861 -0.0581 -0.1593 -0.0766
  192MPD1    H5 2929   4.388   2.699  12.839  0.3625  0.2248  2.0526
  192MPD1    N1 2930   3.971   2.674  13.238 -0.4542 -0.1205  0.5682
  192MPD1    H6 2931   3.976   2.731  13.322 -0.0124  1.2372 -0.3854
  192MPD1    H7 2932   3.922   2.721  13.163 -0.2168  0.9445  1.0702
  193MPD1     C 2933   3.951   2.900  16.872  0.0936  0.0917  0.4477
  193MPD1    C1 2934   4.061   2.827  16.899 -0.3443  0.2713 -0.6011
  193MPD1    C2 2935   4.167   2.895  16.956 -0.3441 -0.2976 -0.2060
  193MPD1    C3 2936   4.164   3.027  16.989 -0.0204  0.4232  0.7014
  193MPD1    C4 2937   4.051   3.100  16.959  0.2394  0.2071  0.2881
  193MPD1    C5 2938   3.943   3.037  16.900 -0.6887  0.3311  0.2778
  193MPD1     H 2939   4.255   2.839  16.987 -0.7963 -0.6065  0.5262
  193MPD1    H1 2940   4.035   3.198  17.001 -0.3202  1.0525 -1.8798
  193MPD1    H2 2941   3.862   2.853  16.832 -0.2920  1.2011 -0.0061
  193MPD1    H3 2942   3.849   3.086  16.879 -1.5156 -0.2951  2.4998
  193MPD1     N 2943   4.277   3.095  17.032  0.3402  0.3355  0.2021
  193MPD1    H5 2944   4.267   3.195  17.048  2.0150  0.6811 -0.8767
  193MPD1    N1 2945   4.052   2.688  16.903  0.6746 -0.1094  0.7912
  193MPD1    H6 2946   4.142   2.640  16.896  1.8870  2.1243  1.0426
  193MPD1    H7 2947   3.987   2.656  16.832  2.5551 -2.7579  0.2533
  194MPD1     C 2948   2.435   0.583  16.878  0.3203  1.1980  0.1633
  194MPD1    C1 2949   2.474   0.602  17.009 -0.0377 -0.1752  0.2247
  194MPD1    C2 2950   2.544   0.490  17.064  0.0855 -0.2417 -0.5364
  194MPD1    C3 2951   2.562   0.367  16.997 -0.1815 -0.6357  0.2333
  194MPD1    C4 2952   2.511   0.354  16.873 -0.2063  0.1358  1.0146
  194MPD1    C5 2953   2.450   0.462  16.815  0.4264 -0.8624 -0.4210
  194MPD1     H 2954   2.573   0.492  17.168 -0.5831  0.5915 -0.3698
  194MPD1    H1 2955   2.518   0.264  16.813  0.2638  0.1959  0.9812
  194MPD1    H2 2956   2.378   0.659  16.826 -1.5020  0.0348  0.4387
  194MPD1    H3 2957   2.415   0.451  16.713 -0.6596 -0.9375 -0.0429
  194MPD1     N 2958   2.635   0.254  17.050  0.1283  0.4098  0.5106
  194MPD1    H5 2959   2.671   0.180  16.990  2.5304  1.3374  0.8120
  194MPD1    N1 2960   2.481   0.729  17.064  0.4355  0.2323 -0.1129
  194MPD1    H6 2961   2.423   0.800  17.019 -2.1410 -1.5239  0.4536
  194MPD1    H7 2962   2.576   0.766  17.077  0.6172 -0.2013 -0.2086
  195MPD1     C 2963   4.083   2.126   0.298 -0.1780 -0.4490 -0.3643
  195MPD1    C1 2964   4.195   2.077   0.245  0.6271  0.1051  0.8074
  195MPD1    C2 2965   4.238   1.946   0.271 -0.3636 -0.2855 -0.3420
  195MPD1    C3 2966   4.169   1.873   0.368 -0.1567 -0.1795  0.4913
  195MPD1    C4 2967   4.054   1.926   0.428 -0.8782 -0.0645 -0.1017
  195MPD1    C5 2968   4.008   2.048   0.380 -0.0328  1.0395  0.1016
  195MPD1     H 2969   4.323   1.909   0.213  1.1639  2.1986  0.3178
  195MPD1    H1 2970   3.995   1.875   0.503  2.3592 -1.2131  1.6804
  195MPD1    H2 2971   4.057   2.227   0.268  2.2123  0.7136  1.5037
  195MPD1    H3 2972   3.921   2.096   0.422 -1.4497  0.3845 -2.1012
  195MPD1     N 2973   4.201   1.740   0.404 -1.2303 -0.4768  0.3516
  195MPD1    H5 2974   4.132   1.686   0.455  0.3290 -2.7986 -0.0071
  195MPD1    N1 2975   4.269   2.163   0.162 -0.5876 -0.2036 -0.4507
  195MPD1    H6 2976   4.214   2.237   0.118  0.4048  0.7423 -0.0883
  195MPD1    H7 2977   4.302   2.105   0.084  0.9105  1.1670 -0.8248
  196MPD1     C 2978   2.582   0.709  17.689 -0.0565 -0.0171  0.0939
  196MPD1    C1 2979   2.541   0.652   0.119  0.5559  0.6399  0.0044
  196MPD1    C2 2980   2.616   0.549   0.179  0.1759 -0.4646 -0.5323
  196MPD1    C3 2981   2.724   0.497   0.106  0.4858  0.2739 -0.4367
  196MPD1    C4 2982   2.759   0.550  17.681 -0.1164  0.5375 -0.5442
  196MPD1    C5 2983   2.683   0.651  17.623 -0.0012  0.2292  0.5725
  196MPD1     H 2984   2.591   0.523   0.281 -1.9217 -1.8425 -1.3830
  196MPD1    H1 2985   2.842   0.510  17.623 -0.1539  0.1381 -0.3164
  196MPD1    H2 2986   2.532   0.791  17.639 -1.7315 -0.9163  0.2725
  196MPD1    H3 2987   2.718   0.699  17.532 -0.1498  0.5625  0.6930
  196MPD1     N 2988   2.792   0.386   0.156 -0.3566 -0.3419 -0.6142
  196MPD1    H5 2989   2.887   0.376   0.122  0.1157 -2.2551  1.3242
  196MPD1    N1 2990   2.427   0.706   0.179 -0.2581 -0.0394  0.3395
  196MPD1    H6 2991   2.402   0.638   0.251 -2.5149 -1.6002 -1.9071
  196MPD1    H7 2992   2.452   0.794   0.223 -0.6022  0.0057  0.4484
  197MPD1     C 2993   3.198   3.969  17.451 -0.1337 -0.6508 -0.5565
  197MPD1    C1 2994   3.205   3.842  17.399 -0.3942 -0.4100 -0.2895
  197MPD1    C2 2995   3.179   3.825  17.265 -0.5225 -0.1940  0.7016
  197MPD1    C3 2996   3.136   3.937  17.188  0.1506 -0.2276 -0.1841
  197MPD1    C4 2997   3.129   4.061  17.250  0.0761  0.2624  0.0178
  197MPD1    C5 2998   3.157   4.076  17.379  0.1495 -0.4665  0.1977
  197MPD1     H 2999   3.202   3.726  17.227 -1.8797  0.6249 -2.2426
  197MPD1    H1 3000   3.111   4.150  17.191 -0.2325 -0.5460 -1.1262
  197MPD1    H2 3001   3.224   3.979  17.556 -1.3571 -1.7419 -0.1557
  197MPD1    H3 3002   3.155   4.172  17.429  2.3293 -0.6248  0.5925
  197MPD1     N 3003   3.116   3.931  17.048  0.7472  0.0942 -0.2415
  197MPD1    H5 3004   3.096   4.020  17.006  0.1219  0.0458 -0.0344
  197MPD1    N1 3005   3.263   3.743  17.481  0.4250 -0.8393  0.5077
  197MPD1    H6 3006   3.259   3.760  17.581  3.0339 -0.2435  0.5265
  197MPD1    H7 3007   3.221   3.651  17.465  3.6720 -2.1299 -0.8049
  198MPD1     C 3008   0.735   1.419  15.837  0.4043  0.3292 -0.1899
  198MPD1    C1 3009   0.835   1.390  15.749 -0.2311  0.1580 -0.6164
  198MPD1    C2 3010   0.920   1.495  15.713 -0.0703  0.5537 -0.1660
  198MPD1    C3 3011   0.920   1.620  15.770 -0.2340 -0.6869  0.4200
  198MPD1    C4 3012   0.825   1.638  15.864  0.2945 -0.3158 -0.0601
  198MPD1    C5 3013   0.728   1.543  15.894 -0.8367  0.1322 -0.1664
  198MPD1     H 3014   1.002   1.471  15.646  0.6805  0.6110  0.7400
  198MPD1    H1 3015   0.825   1.731  15.919  0.2148  1.4390 -3.0142
  198MPD1    H2 3016   0.663   1.347  15.873  0.1525  0.6137 -0.1342
  198MPD1    H3 3017   0.646   1.573  15.958 -0.5763  0.0218  0.2218
  198MPD1     N 3018   1.022   1.714  15.746  0.6515  0.0393  0.5060
  198MPD1    H5 3019   1.096   1.684  15.683  1.6840  0.8574  1.3264
  198MPD1    N1 3020   0.817   1.272  15.664 -0.3676 -0.3633  0.1503
  198MPD1    H6 3021   0.900   1.247  15.611 -0.7242  2.2283 -1.6175
  198MPD1    H7 3022   0.790   1.202  15.733  0.5161  0.1347  0.9971
  199MPD1     C 3023   3.720   2.595   9.799 -0.6127  0.5265 -0.2954
  199MPD1    C1 3024   3.655   2.717   9.780 -0.4028  0.2844 -0.8640
  199MPD1    C2 3025   3.518   2.721   9.806  0.5250 -0.4848 -0.1183
  199MPD1    C3 3026   3.463   2.610   9.869 -0.1784  0.1457  0.6005
  199MPD1    C4 3027   3.533   2.493   9.890  0.1748 -0.5263 -0.1223
  199MPD1    C5 3028   3.665   2.487   9.852  0.5057  0.4220 -0.0536
  199MPD1     H 3029   3.456   2.797   9.760  1.6935  0.9878  0.7305
  199MPD1    H1 3030   3.489   2.406   9.938 -1.3440  0.9811  1.2359
  199MPD1    H2 3031   3.819   2.578   9.759 -1.0319 -1.3998 -0.5013
  199MPD1    H3 3032   3.724   2.397   9.868 -1.6528 -0.5357  2.5144
  199MPD1     N 3033   3.325   2.611   9.906 -0.0553 -0.1116  0.2533
  199MPD1    H5 3034   3.296   2.518   9.937  0.1761  0.1268  1.1806
  199MPD1    N1 3035   3.724   2.806   9.693 -0.0533  0.7785  0.0916
  199MPD1    H6 3036   3.687   2.901   9.690  0.3508  0.8681 -1.9882
  199MPD1    H7 3037   3.821   2.804   9.723 -0.0595 -2.6389 -0.0687
  200MPD1     C 3038   1.309   2.756  15.308 -0.5750 -0.2624  0.5941
  200MPD1    C1 3039   1.300   2.686  15.193  0.1947 -0.0427  0.3936
  200MPD1    C2 3040   1.388   2.716  15.088  0.1859 -0.4743 -0.2540
  200MPD1    C3 3041   1.503   2.790  15.121 -0.6086  0.1826  0.0319
  200MPD1    C4 3042   1.516   2.847  15.243 -0.3805  0.1510 -0.0643
  200MPD1    C5 3043   1.420   2.827  15.339 -0.0065  0.0367 -0.2856
  200MPD1     H 3044   1.379   2.674  14.988 -2.5710  0.0355 -0.2116
  200MPD1    H1 3045   1.601   2.904  15.279 -0.2121 -0.8403  1.1239
  200MPD1    H2 3046   1.230   2.745  15.381 -0.2692 -0.3667  0.9069
  200MPD1    H3 3047   1.426   2.869  15.439 -0.6614  1.7074 -0.9445
  200MPD1     N 3048   1.595   2.815  15.017  0.3138 -0.9766  0.5516
  200MPD1    H5 3049   1.583   2.762  14.932  1.8542 -0.4599  0.0145
  200MPD1    N1 3050   1.186   2.611  15.163  0.0734 -0.1036 -0.7367
  200MPD1    H6 3051   1.162   2.550  15.241  1.5590 -0.2665 -0.4115
  200MPD1    H7 3052   1.213   2.552  15.085 -1.4337 -1.4201 -0.2589
  201MPD1     C 3053   3.699   1.584  13.640 -0.3649  0.2396  0.1472
  201MPD1    C1 3054   3.669   1.494  13.540  0.4209  0.2750  0.3486
  201MPD1    C2 3055   3.774   1.412  13.499 -0.1057  0.1984 -0.5194
  201MPD1    C3 3056   3.904   1.427  13.550 -0.7616  0.5446 -0.1618
  201MPD1    C4 3057   3.924   1.522  13.650  0.2891  0.1443 -0.1691
  201MPD1    C5 3058   3.822   1.593  13.700  0.0522  0.3536 -1.2362
  201MPD1     H 3059   3.766   1.339  13.420  0.2667  1.6282 -1.8921
  201MPD1    H1 3060   4.021   1.520  13.698  0.0653 -1.4669  0.2200
  201MPD1    H2 3061   3.625   1.653  13.680 -0.0794  0.5648  0.1217
  201MPD1    H3 3062   3.826   1.669  13.777  1.4048  1.1488 -2.1005
  201MPD1     N 3063   4.006   1.342  13.502  0.1598  0.4282  0.2561
  201MPD1    H5 3064   3.977   1.264  13.443 -2.0008  1.4233  0.0127
  201MPD1    N1 3065   3.538   1.468  13.509  0.2078  0.2848  0.4041
  201MPD1    H6 3066   3.520   1.460  13.409  1.1884  1.7425  0.1051
  201MPD1    H7 3067   3.492   1.554  13.537  0.2970  0.1354  1.0163
  202MPD1     C 3068   3.130   0.437   9.095 -0.0340 -1.0084 -0.1010
  202MPD1    C1 3069   3.247   0.367   9.100  0.2088 -0.0783  0.1908
  202MPD1    C2 3070   3.357   0.437   9.148  0.0575  0.0421  0.2794
  202MPD1    C3 3071   3.343   0.555   9.215 -0.3709  0.3624  0.4576
  202MPD1    C4 3072   3.218   0.613   9.221 -0.3957 -0.3236 -0.0414
  202MPD1    C5 3073   3.112   0.554   9.158 -1.0540  0.0199  0.1688
  202MPD1     H 3074   3.452   0.385   9.149  0.5972  0.9822 -0.8312
  202MPD1    H1 3075   3.204   0.708   9.270 -2.4725  0.1798 -1.6352
  202MPD1    H2 3076   3.048   0.410   9.029  1.4108 -1.6997 -1.6256
  202MPD1    H3 3077   3.013   0.597   9.166  0.1505  2.9759 -0.8725
  202MPD1     N 3078   3.445   0.613   9.290  0.0986  0.2957  0.1580
  202MPD1    H5 3079   3.418   0.688   9.353  0.2662  0.2766  0.2531
  202MPD1    N1 3080   3.262   0.263   9.000  0.5642  0.1453  0.6117
  202MPD1    H6 3081   3.181   0.203   8.986  0.5359  1.3432 -4.3768
  202MPD1    H7 3082   3.331   0.196   9.036  1.6494  1.4363  0.9378
  203MPD1     C 3083   2.409   2.282  12.039 -0.4012 -0.4448 -0.1306
  203MPD1    C1 3084   2.435   2.169  11.968 -0.0960 -0.4248 -0.2414
  203MPD1    C2 3085   2.536   2.085  12.019  0.0324  0.3232 -0.5916
  203MPD1    C3 3086   2.609   2.118  12.133 -0.4159 -0.2903  0.5613
  203MPD1    C4 3087   2.571   2.232  12.196 -0.1777 -0.0120 -0.4136
  203MPD1    C5 3088   2.474   2.313  12.151  0.1106 -0.0764  0.1627
  203MPD1     H 3089   2.567   1.997  11.964 -0.0375  1.1015 -1.8685
  203MPD1    H1 3090   2.621   2.259  12.288  1.7879  1.3202 -1.8570
  203MPD1    H2 3091   2.332   2.353  12.008  2.6982  2.2213 -1.7912
  203MPD1    H3 3092   2.439   2.402  12.201 -0.6992  1.8010 -3.7788
  203MPD1     N 3093   2.708   2.029  12.176 -0.4316  0.0749 -0.1582
  203MPD1    H5 3094   2.712   1.939  12.128 -1.0850 -0.1267  0.1679
  203MPD1    N1 3095   2.340   2.121  11.869 -0.2804  0.1309  0.2283
  203MPD1    H6 3096   2.287   2.191  11.818  0.3252 -1.0713 -2.0393
  203MPD1    H7 3097   2.388   2.062  11.801 -0.4052  0.4369 -0.1243
  204MPD1     C 3098   2.685   4.129  17.478  0.2749  0.0860  0.7263
  204MPD1    C1 3099   2.663   4.035  17.580  0.2315  0.6422 -0.2421
  204MPD1    C2 3100   2.607   3.915  17.539 -0.4174  0.3644  0.5278
  204MPD1    C3 3101   2.596   3.879  17.404  0.1510  0.8186 -0.0757
  204MPD1    C4 3102   2.635   3.969  17.307 -0.6669 -0.3290 -0.1618
  204MPD1    C5 3103   2.672   4.097  17.345  0.2048 -0.0743  0.0378
  204MPD1     H 3104   2.561   3.838  17.600 -0.6788 -1.0562 -1.4647
  204MPD1    H1 3105   2.635   3.948  17.201 -0.0403  2.2976 -0.6894
  204MPD1    H2 3106   2.723   4.230  17.493  1.3522 -0.6870  3.1875
  204MPD1    H3 3107   2.684   4.177  17.272  0.3206 -0.0896  0.0410
  204MPD1     N 3108   2.544   3.752  17.381 -0.6850 -0.1515 -0.2830
  204MPD1    H5 3109   2.526   3.690  17.459 -1.1229 -1.4305 -1.4109
  204MPD1    N1 3110   2.657   4.066   0.025  0.4628 -0.2103  0.0320
  204MPD1    H6 3111   2.668   3.982   0.082 -0.4044 -2.0987 -2.5869
  204MPD1    H7 3112   2.732   4.131   0.048  0.5774  0.0634 -1.1162
  205MPD1     C 3113   3.173   2.010  17.451 -0.2219 -0.4716 -0.7413
  205MPD1    C1 3114   3.089   2.071  17.365 -0.2561  0.6451  0.2857
  205MPD1    C2 3115   2.988   2.151  17.413  0.2713 -0.1506 -0.7789
  205MPD1    C3 3116   2.967   2.158  17.553  0.0399  0.5889 -0.1277
  205MPD1    C4 3117   3.054   2.086  17.634 -0.7594 -0.8596 -0.3031
  205MPD1    C5 3118   3.151   2.014  17.582  0.0373  0.2403  0.0131
  205MPD1     H 3119   2.921   2.204  17.347 -0.2805  0.9803  0.6931
  205MPD1    H1 3120   3.053   2.076   0.049  0.9348 -0.6717 -0.2614
  205MPD1    H2 3121   3.250   1.945  17.411  0.1597  1.1409 -2.6168
  205MPD1    H3 3122   3.214   1.964  17.655 -0.8195 -1.6756 -0.5657
  205MPD1     N 3123   2.877   2.246  17.612 -0.1592  0.7623  0.2464
  205MPD1    H5 3124   2.876   2.245   0.021  1.0627 -0.7435  0.2438
  205MPD1    N1 3125   3.113   2.062  17.228 -0.3301 -0.1120  0.2259
  205MPD1    H6 3126   3.142   1.970  17.195  0.6298  1.1179 -2.2798
  205MPD1    H7 3127   3.024   2.078  17.182 -1.0646 -0.9938  1.3457
  206MPD1     C 3128   3.018   0.131  16.337 -0.1757  0.0411  0.1974
  206MPD1    C1 3129   2.893   0.157  16.380 -0.5760 -0.3975 -0.3804
  206MPD1    C2 3130   2.790   0.162  16.290  0.6597 -0.5856 -0.0243
  206MPD1    C3 3131   2.814   0.179  16.156 -0.8417 -0.2999  0.2460
  206MPD1    C4 3132   2.937   0.163  16.114 -0.1158 -0.2339  0.4655
  206MPD1    C5 3133   3.039   0.139  16.201  0.4569 -0.2280  0.8237
  206MPD1     H 3134   2.692   0.175  16.333  1.0603  0.4871  0.5569
  206MPD1    H1 3135   2.970   0.188  16.013  0.4278  0.2936  0.7701
  206MPD1    H2 3136   3.111   0.132  16.394  0.0987  1.7328 -0.2696
  206MPD1    H3 3137   3.142   0.127  16.168  0.2506 -0.8977  0.4182
  206MPD1     N 3138   2.709   0.203  16.062  0.1997  0.3727  0.9596
  206MPD1    H5 3139   2.733   0.209  15.964  0.0768 -3.5961  0.6744
  206MPD1    N1 3140   2.871   0.154  16.516 -0.4584 -0.0407 -0.0443
  206MPD1    H6 3141   2.945   0.193  16.574 -1.3876  0.0961  1.0662
  206MPD1    H7 3142   2.779   0.190  16.543 -0.6001 -0.0404 -0.5291
  207MPD1     C 3143   0.110   2.837   9.740 -0.1586  0.3225  0.3064
  207MPD1    C1 3144   0.096   2.751   9.849  0.2623  0.1980 -0.5725
  207MPD1    C2 3145   0.211   2.726   9.920 -0.1333 -0.0416 -0.2735
  207MPD1    C3 3146   0.333   2.793   9.905 -0.0324 -0.0816 -0.5336
  207MPD1    C4 3147   0.344   2.880   9.801 -0.6787  0.4652  0.1934
  207MPD1    C5 3148   0.228   2.906   9.725 -0.2520  0.1055 -0.2199
  207MPD1     H 3149   0.203   2.645   9.991  0.7570 -0.7646 -0.9868
  207MPD1    H1 3150   0.433   2.933   9.770 -1.6622  0.6206 -2.3533
  207MPD1    H2 3151   0.032   2.846   9.666 -0.3320  1.9013  0.6824
  207MPD1    H3 3152   0.224   2.976   9.643 -1.6520 -0.2952 -0.4850
  207MPD1     N 3153   0.446   2.780   9.987  0.0859  0.6922  0.3960
  207MPD1    H5 3154   0.521   2.846   9.971  0.9701 -0.1464  1.0310
  207MPD1    N1 3155   4.713   2.658   9.858 -0.0274  0.2824 -0.0595
  207MPD1    H6 3156   4.698   2.640   9.957  1.3484  2.1011  0.4737
  207MPD1    H7 3157   4.629   2.701   9.820  0.0025  2.3600  2.2475
  208MPD1     C 3158   2.554   1.281   0.100 -0.4447 -0.3573  0.6170
  208MPD1    C1 3159   2.606   1.406   0.089 -0.4753 -0.2825  0.7420
  208MPD1    C2 3160   2.641   1.463   0.212 -0.9025  0.7140 -0.4306
  208MPD1    C3 3161   2.624   1.410   0.333 -0.4913 -0.8773  0.4082
  208MPD1    C4 3162   2.566   1.283   0.345 -0.1745 -0.3391 -0.1530
  208MPD1    C5 3163   2.541   1.218   0.228  0.0220 -0.0570 -0.0827
  208MPD1     H 3164   2.697   1.555   0.205 -0.0867 -0.0038 -3.2424
  208MPD1    H1 3165   2.567   1.222   0.435  1.4622 -0.8900 -0.5594
  208MPD1    H2 3166   2.535   1.217   0.015  3.5341  0.6685 -1.0526
  208MPD1    H3 3167   2.494   1.120   0.237  0.4065 -0.2068  0.2785
  208MPD1     N 3168   2.669   1.471   0.449  0.4396 -0.5688 -0.3351
  208MPD1    H5 3169   2.710   1.564   0.446 -1.1792  0.1091 -1.0859
  208MPD1    N1 3170   2.638   1.462  17.656 -0.0541  0.2235  0.7468
  208MPD1    H6 3171   2.631   1.564  17.661 -0.7464  0.2185 -0.1187
  208MPD1    H7 3172   2.589   1.424  17.575  2.3238 -0.5703 -0.3312
  209MPD1     C 3173   0.533   1.415  10.116  0.7311  0.0898 -0.4354
  209MPD1    C1 3174   0.478   1.519  10.192  0.4613 -0.3524  0.2193
  209MPD1    C2 3175   0.548   1.586  10.287 -0.0231  0.0433  0.2479
  209MPD1    C3 3176   0.672   1.545  10.332 -0.8782 -0.2449  0.2758
  209MPD1    C4 3177   0.724   1.431  10.268 -0.3482 -0.0451 -0.3475
  209MPD1    C5 3178   0.659   1.378  10.154  0.2535  0.1683  0.3425
  209MPD1     H 3179   0.509   1.679  10.327  0.2841  1.0478 -1.7806
  209MPD1    H1 3180   0.815   1.383  10.303 -1.3936  0.1376  2.6322
  209MPD1    H2 3181   0.487   1.365  10.032  1.5615 -0.6945 -0.4233
  209MPD1    H3 3182   0.705   1.292  10.106 -1.7026 -1.5552  1.6002
  209MPD1     N 3183   0.724   1.616  10.439  0.0838 -0.1262 -0.2294
  209MPD1    H5 3184   0.669   1.699  10.459  1.3073  0.3296  1.1803
  209MPD1    N1 3185   0.359   1.570  10.140 -0.5353  0.1125 -0.0185
  209MPD1    H6 3186   0.298   1.496  10.107  1.5661 -2.0980  1.0774
  209MPD1    H7 3187   0.298   1.621  10.203  1.0236 -0.3905  1.8932
  210MPD1     C 3188   1.428   1.401  11.163 -1.0615  0.1666  0.4820
  210MPD1    C1 3189   1.374   1.524  11.195 -0.5470  0.8120 -0.5942
  210MPD1    C2 3190   1.261   1.567  11.132 -0.1165 -0.6326  0.4046
  210MPD1    C3 3191   1.226   1.500  11.010  0.8216  0.2232 -0.0075
  210MPD1    C4 3192   1.284   1.380  10.981 -0.4744  0.3291  0.8702
  210MPD1    C5 3193   1.382   1.323  11.059 -0.3076  0.2621 -0.1480
  210MPD1     H 3194   1.223   1.665  11.160 -1.1927 -0.6168 -1.0933
  210MPD1    H1 3195   1.257   1.331  10.889 -1.2846  0.8636  0.8223
  210MPD1    H2 3196   1.504   1.350  11.222  1.3941  3.7979  0.4342
  210MPD1    H3 3197   1.430   1.228  11.037 -0.1586  0.1850  0.4920
  210MPD1     N 3198   1.132   1.553  10.919 -0.1079 -0.7381 -0.6000
  210MPD1    H5 3199   1.136   1.511  10.826 -2.1484 -2.3905  0.0330
  210MPD1    N1 3200   1.416   1.592  11.306  0.6850  0.1141 -0.0973
  210MPD1    H6 3201   1.517   1.589  11.319  0.4401 -1.8242  1.3640
  210MPD1    H7 3202   1.393   1.690  11.293 -0.8678 -0.4645 -1.7023
  211MPD1     C 3203   2.974   1.573  17.200 -0.8217 -0.5744  0.6388
  211MPD1    C1 3204   2.841   1.556  17.201  0.4393 -0.2456  0.3107
  211MPD1    C2 3205   2.758   1.656  17.153 -0.1157  0.5749 -0.1054
  211MPD1    C3 3206   2.806   1.783  17.122 -0.0314 -0.8389  0.9221
  211MPD1    C4 3207   2.945   1.801  17.123 -0.2404  0.1412 -0.5399
  211MPD1    C5 3208   3.024   1.702  17.175 -0.3444  0.3201  0.2615
  211MPD1     H 3209   2.654   1.632  17.136 -0.3418 -0.2279  2.3344
  211MPD1    H1 3210   2.987   1.897  17.092 -0.2842  0.2966 -0.1153
  211MPD1    H2 3211   3.042   1.491  17.222 -0.5768 -0.7002 -0.6113
  211MPD1    H3 3212   3.132   1.716  17.179  0.0781 -2.4132 -1.2419
  211MPD1     N 3213   2.710   1.881  17.074 -1.2263  0.4750  0.3310
  211MPD1    H5 3214   2.617   1.850  17.049 -1.3247 -1.0179  2.5913
  211MPD1    N1 3215   2.789   1.427  17.211  0.6463  0.3211  0.1899
  211MPD1    H6 3216   2.690   1.410  17.224  0.3842  1.3479 -0.4455
  211MPD1    H7 3217   2.847   1.385  17.283  1.5377  0.6312 -0.3463
  212MPD1     C 3218   1.816   0.339  16.268 -0.3119 -0.4410  0.0144
  212MPD1    C1 3219   1.785   0.404  16.387 -0.3468  0.3079  0.2341
  212MPD1    C2 3220   1.773   0.331  16.504 -0.3167 -0.3591 -0.0656
  212MPD1    C3 3221   1.775   0.191  16.509 -0.4688  0.3347  0.0274
  212MPD1    C4 3222   1.809   0.131  16.389 -0.0060  0.1869  0.5758
  212MPD1    C5 3223   1.834   0.206  16.278 -0.2756  0.2618  0.0872
  212MPD1     H 3224   1.761   0.379  16.601  0.4857  1.9780 -1.1183
  212MPD1    H1 3225   1.831   0.025  16.377  0.4327  0.3066  0.3588
  212MPD1    H2 3226   1.819   0.381  16.168  0.2548 -1.3900 -0.3698
  212MPD1    H3 3227   1.839   0.153  16.184  0.9051 -0.5023  0.5808
  212MPD1     N 3228   1.760   0.108  16.626 -0.3739  0.4833 -0.1455
  212MPD1    H5 3229   1.752   0.010  16.601 -0.5883  0.6864 -0.8755
  212MPD1    N1 3230   1.755   0.539  16.390 -0.0268 -0.2545  0.7552
  212MPD1    H6 3231   1.749   0.569  16.292 -3.1403 -0.5003  0.8831
  212MPD1    H7 3232   1.674   0.559  16.448  0.6486  1.3495  1.1594
  213MPD1     C 3233   0.014   1.242  16.337  0.0934 -0.3850  0.0848
  213MPD1    C1 3234   4.633   1.182  16.273  0.3884 -0.4971  0.5899
  213MPD1    C2 3235   4.649   1.177  16.135 -0.5866  0.3925 -0.3296
  213MPD1    C3 3236   0.013   1.258  16.066  0.9740 -0.2327 -0.0867
  213MPD1    C4 3237   0.096   1.346  16.135 -0.1464  0.5976  0.0138
  213MPD1    C5 3238   0.098   1.327  16.273  0.1360 -0.5816  0.0344
  213MPD1     H 3239   4.585   1.117  16.071 -0.8819  2.0887 -1.6137
  213MPD1    H1 3240   0.158   1.420  16.086 -2.4054  3.4492  1.4709
  213MPD1    H2 3241   0.021   1.244  16.445  1.7042  2.2352 -0.0773
  213MPD1    H3 3242   0.167   1.383  16.335  1.4684 -0.8025 -1.2585
  213MPD1     N 3243   0.008   1.247  15.929  0.6547  0.5506  0.0330
  213MPD1    H5 3244   4.669   1.174  15.895  0.9535  1.0029 -1.5147
  213MPD1    N1 3245   4.569   1.073  16.336 -0.0873  0.2452 -0.4832
  213MPD1    H6 3246   4.476   1.061  16.297  0.0791  3.0800 -1.7444
  213MPD1    H7 3247   4.546   1.110  16.429 -0.9792 -0.8725 -0.2586
  214MPD1     C 3248   4.232   0.829  15.173  0.5591 -0.2751  0.6552
  214MPD1    C1 3249   4.214   0.846  15.307 -0.1535  0.1399 -0.2880
  214MPD1    C2 3250   4.301   0.919  15.377 -0.4222  0.2853 -0.3269
  214MPD1    C3 3251   4.403   0.993  15.312  0.6464  0.1181  0.5652
  214MPD1    C4 3252   4.408   0.985  15.174 -0.3325  0.6410 -0.2451
  214MPD1    C5 3253   4.323   0.908  15.110 -0.0657  0.1883  0.1821
  214MPD1     H 3254   4.278   0.935  15.482 -2.5510 -1.6404 -0.5059
  214MPD1    H1 3255   4.462   1.055  15.112  0.8612  0.5668  0.6992
  214MPD1    H2 3256   4.163   0.777  15.108 -1.2758  1.8917  0.8543
  214MPD1    H3 3257   4.340   0.887  15.005  0.9006  1.0212  0.1716
  214MPD1     N 3258   4.498   1.080  15.366  0.0051  0.2150  0.5889
  214MPD1    H5 3259   4.565   1.120  15.301 -1.4736 -1.1637 -1.8007
  214MPD1    N1 3260   4.099   0.794  15.368 -0.0981  0.0580 -0.3532
  214MPD1    H6 3261   4.067   0.719  15.308 -0.9869 -0.2220  0.4674
  214MPD1    H7 3262   4.106   0.752  15.461  1.8617 -0.7797 -0.8981
  215MPD1     C 3263   1.131   0.821  11.301  0.0637 -0.2524 -0.1747
  215MPD1    C1 3264   1.063   0.855  11.410 -0.5718  0.0275 -0.0961
  215MPD1    C2 3265   0.998   0.976  11.413  0.7559  0.4409 -0.5740
  215MPD1    C3 3266   1.014   1.067  11.312 -0.0555 -0.1568 -0.0738
  215MPD1    C4 3267   1.099   1.031  11.205 -0.1365  0.2037 -0.2856
  215MPD1    C5 3268   1.154   0.913  11.207 -0.7847  0.0900 -0.6582
  215MPD1     H 3269   0.935   1.005  11.497  0.4852 -1.7703 -0.0141
  215MPD1    H1 3270   1.127   1.089  11.117 -1.2001 -0.7966 -1.2867
  215MPD1    H2 3271   1.163   0.720  11.277  0.8864 -0.7844  3.0902
  215MPD1    H3 3272   1.208   0.877  11.120 -2.6901  0.4758 -2.0158
  215MPD1     N 3273   0.949   1.189  11.316  0.2530 -0.2063 -0.2253
  215MPD1    H5 3274   0.897   1.221  11.397 -1.6873 -0.6939 -1.2984
  215MPD1    N1 3275   1.032   0.759  11.504 -0.5976 -0.3133  0.0315
  215MPD1    H6 3276   1.015   0.794  11.598 -0.9955  0.7141 -0.4254
  215MPD1    H7 3277   1.111   0.694  11.500 -1.5668 -1.4194 -1.0490
  216MPD1     C 3278   2.036   4.677  16.697 -0.2989 -0.1054  0.2091
  216MPD1    C1 3279   2.019   4.546  16.656  0.5472 -0.1525 -0.1299
  216MPD1    C2 3280   2.006   4.446  16.750  0.4068  0.1045 -0.0790
  216MPD1    C3 3281   2.003   4.476  16.889 -0.1317  0.3487 -0.0590
  216MPD1    C4 3282   2.001   4.608  16.929 -0.2994  0.4087  0.3676
  216MPD1    C5 3283   2.016   4.702  16.828 -0.4555  0.4997  0.3090
  216MPD1     H 3284   2.005   4.343  16.715 -0.2353  0.2269 -0.4473
  216MPD1    H1 3285   1.980   4.650  17.026 -0.4193  1.2631 -0.0284
  216MPD1    H2 3286   2.051   0.036  16.627 -1.1222  0.5094  0.7588
  216MPD1    H3 3287   2.008   0.084  16.853  2.1718  0.6541  0.5186
  216MPD1     N 3288   1.992   4.368  16.977 -0.3312 -0.1288  0.7810
  216MPD1    H5 3289   1.998   4.278  16.931 -0.5509  1.8590 -3.0977
  216MPD1    N1 3290   2.002   4.524  16.519 -0.0391 -0.3198  0.0300
  216MPD1    H6 3291   1.996   4.424  16.500  0.8457 -0.4846  0.6372
  216MPD1    H7 3292   2.064   4.578  16.459  0.6054  0.8155  1.7393
  217MPD1     C 3293   2.876   1.764   9.398  0.1577  0.3889 -0.6394
  217MPD1    C1 3294   2.770   1.787   9.482 -0.5142  0.3849 -0.4294
  217MPD1    C2 3295   2.679   1.684   9.510  0.2003 -0.5142  0.0118
  217MPD1    C3 3296   2.717   1.554   9.467 -0.0182  0.2542  0.0032
  217MPD1    C4 3297   2.831   1.535   9.394  0.1535  0.2900  0.2480
  217MPD1    C5 3298   2.915   1.640   9.361 -0.9532  0.0629 -0.2238
  217MPD1     H 3299   2.588   1.706   9.565  1.0107  0.6558  0.8924
  217MPD1    H1 3300   2.848   1.438   9.351  1.7609  0.7359 -0.1228
  217MPD1    H2 3301   2.944   1.844   9.371  0.5256 -0.2088 -1.4537
  217MPD1    H3 3302   3.002   1.626   9.299 -0.2042 -0.2909  0.9083
  217MPD1     N 3303   2.640   1.447   9.498  0.3959 -0.1208  0.5702
  217MPD1    H5 3304   2.675   1.358   9.463  0.6129  0.1948 -0.0074
  217MPD1    N1 3305   2.736   1.921   9.512 -0.0832 -0.2799 -0.5236
  217MPD1    H6 3306   2.689   1.946   9.598  2.9347  1.3103  0.6584
  217MPD1    H7 3307   2.827   1.965   9.513 -1.4583  2.5612 -0.6339
  218MPD1     C 3308   3.926   1.435  12.542 -0.5086 -1.0696  0.0676
  218MPD1    C1 3309   3.974   1.504  12.652  0.6253  0.1430  0.1805
  218MPD1    C2 3310   4.077   1.454  12.721 -0.0575  0.2383  0.6036
  218MPD1    C3 3311   4.105   1.316  12.707  0.6717 -0.3139  0.1769
  218MPD1    C4 3312   4.046   1.241  12.608 -0.5979  0.5502  0.2185
  218MPD1    C5 3313   3.967   1.308  12.518 -0.2685  0.3340 -0.1971
  218MPD1     H 3314   4.127   1.518  12.793 -0.2348 -0.4112  1.3009
  218MPD1    H1 3315   4.074   1.140  12.580 -0.4556  0.5935  0.2046
  218MPD1    H2 3316   3.856   1.480  12.473 -1.4892 -2.7697 -0.0421
  218MPD1    H3 3317   3.928   1.245  12.439 -0.4169 -2.9537  2.4761
  218MPD1     N 3318   4.194   1.259  12.804  0.4680 -0.6337 -0.6992
  218MPD1    H5 3319   4.255   1.317  12.861  0.4420  0.2415 -1.5524
  218MPD1    N1 3320   3.950   1.639  12.660  0.3706 -0.9168 -0.0068
  218MPD1    H6 3321   3.961   1.677  12.754  0.2723 -0.5471 -0.1458
  218MPD1    H7 3322   3.852   1.650  12.636  0.5442  0.2203 -0.1770
  219MPD1     C 3323   0.015   1.575  13.510  0.0938  0.3240  0.0531
  219MPD1    C1 3324   4.607   1.594  13.474 -0.5469 -0.0169  0.2140
  219MPD1    C2 3325   4.538   1.492  13.411 -0.0351  0.3869 -0.2994
  219MPD1    C3 3326   4.605   1.369  13.373 -0.4886  0.4736 -0.6681
  219MPD1    C4 3327   0.014   1.355  13.419  0.1105  0.4719  0.2058
  219MPD1    C5 3328   0.077   1.455  13.486 -0.7755 -0.0951  0.1194
  219MPD1     H 3329   4.436   1.513  13.380 -0.9953 -1.8029  1.3469
  219MPD1    H1 3330   0.067   1.263  13.397  1.9708  2.1246 -2.2128
  219MPD1    H2 3331   0.077   1.652  13.556  1.8378 -1.9140  1.4135
  219MPD1    H3 3332   0.181   1.449  13.517 -0.2382  2.0517 -1.2750
  219MPD1     N 3333   4.564   1.276  13.273 -0.1229 -0.3030  0.2034
  219MPD1    H5 3334   4.638   1.215  13.240 -0.2905 -0.6534  0.4783
  219MPD1    N1 3335   4.554   1.726  13.486 -0.2693  0.2101 -0.0458
  219MPD1    H6 3336   4.453   1.735  13.494 -0.1577 -0.2161  1.7693
  219MPD1    H7 3337   4.602   1.780  13.558  0.9504  0.4988 -1.0708
  220MPD1     C 3338   0.871   0.834  10.147 -0.2634 -0.2379  0.7304
  220MPD1    C1 3339   0.884   0.913  10.255  0.2362  0.5400  0.2050
  220MPD1    C2 3340   0.789   1.015  10.277 -0.0674 -0.0190  0.4216
  220MPD1    C3 3341   0.663   1.000  10.216 -0.6776 -0.6015  0.3933
  220MPD1    C4 3342   0.657   0.904  10.119  0.0059  0.4197 -0.6045
  220MPD1    C5 3343   0.759   0.825  10.079 -0.1677  0.3659 -0.2455
  220MPD1     H 3344   0.812   1.091  10.351  1.5833  1.2491 -1.4028
  220MPD1    H1 3345   0.564   0.886  10.067  0.2087  0.3551 -0.9468
  220MPD1    H2 3346   0.950   0.763  10.126  0.1115  0.7685 -1.1880
  220MPD1    H3 3347   0.737   0.758   9.997 -0.2000 -1.8210  1.5425
  220MPD1     N 3348   0.556   1.089  10.245 -0.3571 -0.6561  0.4723
  220MPD1    H5 3349   0.566   1.148  10.327  2.4528 -1.3953  0.6888
  220MPD1    N1 3350   1.010   0.915  10.320  0.5143 -0.7056 -0.1293
  220MPD1    H6 3351   0.978   0.938  10.414  0.4865 -0.0404 -0.3003
  220MPD1    H7 3352   1.042   0.819  10.317 -1.4366 -1.3197 -1.1663
  221MPD1     C 3353   1.822   1.839  17.239 -0.6102  0.0990  0.2659
  221MPD1    C1 3354   1.793   1.742  17.145  0.1045  0.1075 -0.4340
  221MPD1    C2 3355   1.906   1.676  17.096  0.6488  0.8188 -0.2347
  221MPD1    C3 3356   2.034   1.702  17.131 -0.0687 -0.7214 -0.4726
  221MPD1    C4 3357   2.063   1.801  17.228 -0.1028  0.0257  0.9363
  221MPD1    C5 3358   1.955   1.874  17.278 -0.1677  0.2569 -0.2334
  221MPD1     H 3359   1.888   1.599  17.023 -2.9973  1.7940 -0.3375
  221MPD1    H1 3360   2.167   1.823  17.252 -0.3446  1.2843  0.8135
  221MPD1    H2 3361   1.745   1.886  17.298  1.3210  0.6247  2.3765
  221MPD1    H3 3362   1.980   1.945  17.356 -0.0819  1.3663 -1.2693
  221MPD1     N 3363   2.142   1.635  17.069 -0.6993  0.0148 -0.5652
  221MPD1    H5 3364   2.232   1.671  17.100 -0.6451 -2.0492  1.6073
  221MPD1    N1 3365   1.663   1.695  17.115  0.1484  0.1317  0.2498
  221MPD1    H6 3366   1.589   1.762  17.135 -0.4825 -0.3324 -0.5562
  221MPD1    H7 3367   1.631   1.627  17.183  0.1209  1.0583  1.1680
  222MPD1     C 3368   2.274   0.132  16.313  0.0751  0.4313 -0.5205
  222MPD1    C1 3369   2.290   0.102  16.443 -0.1127 -0.6980 -0.0574
  222MPD1    C2 3370   2.240   0.189  16.531 -0.2766 -0.0006  0.3684
  222MPD1    C3 3371   2.161   0.292  16.494  0.0037  0.1323 -0.2203
  222MPD1    C4 3372   2.134   0.314  16.364  0.7063  0.1001 -0.4638
  222MPD1    C5 3373   2.186   0.228  16.270  0.0888  0.5557 -0.2657
  222MPD1     H 3374   2.276   0.172  16.632 -1.1005 -0.8331  0.5202
  222MPD1    H1 3375   2.058   0.388  16.345  1.1366 -0.1910 -3.2074
  222MPD1    H2 3376   2.310   0.070  16.232 -0.0193 -2.0535  1.3406
  222MPD1    H3 3377   2.179   0.251  16.165 -1.8554  0.4287 -0.1689
  222MPD1     N 3378   2.101   0.383  16.581  0.2417  0.2026  0.1150
  222MPD1    H5 3379   2.062   0.466  16.537 -1.2452 -0.1130  0.8498
  222MPD1    N1 3380   2.363   4.717  16.491 -1.0814  0.2454 -0.0635
  222MPD1    H6 3381   2.355   4.635  16.431  0.7150  0.6747 -0.8856
  222MPD1    H7 3382   2.343   4.691  16.588  0.9825  0.2622  0.3668
  223MPD1     C 3383   1.425   1.050  16.959 -0.3490 -0.6218 -0.9325
  223MPD1    C1 3384   1.550   1.098  16.986  0.0391  0.6004 -0.2294
  223MPD1    C2 3385   1.659   1.025  16.939  1.0376  0.1379 -0.3793
  223MPD1    C3 3386   1.640   0.908  16.871  0.1616  0.0192 -0.9496
  223MPD1    C4 3387   1.514   0.865  16.834 -0.1074  0.0114  0.1451
  223MPD1    C5 3388   1.408   0.934  16.883 -0.2584 -0.2152 -0.2639
  223MPD1     H 3389   1.761   1.051  16.966  0.1456  1.7479  1.4487
  223MPD1    H1 3390   1.489   0.769  16.791 -3.0239  1.3536 -1.1531
  223MPD1    H2 3391   1.337   1.112  16.973  0.0099 -0.5529  1.0039
  223MPD1    H3 3392   1.312   0.893  16.855 -1.7128  1.1145  2.8049
  223MPD1     N 3393   1.764   0.840  16.849 -0.2216  0.0869  0.3708
  223MPD1    H5 3394   1.852   0.875  16.885 -0.0839  1.7563 -1.6004
  223MPD1    N1 3395   1.562   1.226  17.051 -0.0875  0.2030 -0.0499
  223MPD1    H6 3396   1.506   1.245  17.133 -1.6181  1.4721 -1.3711
  223MPD1    H7 3397   1.659   1.250  17.070 -0.5528  0.9739  1.3399
  224MPD1     C 3398   4.082   1.805   9.845 -0.2094  0.0370  0.2285
  224MPD1    C1 3399   4.088   1.673   9.892  0.2098 -0.5050  0.2993
  224MPD1    C2 3400   3.963   1.612   9.912  0.7278 -0.0819 -0.1067
  224MPD1    C3 3401   3.840   1.680   9.897 -0.0885 -0.3877  0.1948
  224MPD1    C4 3402   3.846   1.810   9.854  0.1646 -0.5700  0.3248
  224MPD1    C5 3403   3.963   1.875   9.831  0.1374  0.8850 -0.1633
  224MPD1     H 3404   3.958   1.516   9.963 -0.5926 -0.4568 -0.9570
  224MPD1    H1 3405   3.751   1.863   9.850  0.9138  0.9114  2.0866
  224MPD1    H2 3406   4.180   1.850   9.837 -0.8459  1.4475  0.3301
  224MPD1    H3 3407   3.971   1.981   9.809  0.9471  0.9432  0.4205
  224MPD1     N 3408   3.721   1.612   9.920  0.3059 -0.1852 -0.2818
  224MPD1    H5 3409   3.639   1.671   9.926  1.1752  0.9789  0.2244
  224MPD1    N1 3410   4.207   1.611   9.942  0.8421  0.0903 -0.5719
  224MPD1    H6 3411   4.209   1.510   9.954 -0.2581  0.3892  2.0364
  224MPD1    H7 3412   4.281   1.634   9.875  0.9746  0.2826 -0.3597
  225MPD1     C 3413   4.104   2.219  13.039  0.1250  0.2438 -0.1780
  225MPD1    C1 3414   4.197   2.290  12.973  0.0360 -0.3679 -0.0299
  225MPD1    C2 3415   4.193   2.300  12.831  0.0857  0.0291  0.2602
  225MPD1    C3 3416   4.096   2.236  12.765 -0.3693  0.1238 -0.8292
  225MPD1    C4 3417   4.014   2.150  12.835 -0.2031 -0.5260 -0.1103
  225MPD1    C5 3418   4.008   2.147  12.971  0.6888  0.3420 -0.2646
  225MPD1     H 3419   4.271   2.353  12.778 -1.6387  0.5401 -1.7249
  225MPD1    H1 3420   3.932   2.094  12.792 -0.2213  1.2760 -2.4202
  225MPD1    H2 3421   4.109   2.211  13.147  0.4672  1.5884 -0.1018
  225MPD1    H3 3422   3.945   2.078  13.026  2.3118 -0.8856  0.0206
  225MPD1     N 3423   4.075   2.238  12.620 -0.0935 -0.4458  0.1633
  225MPD1    H5 3424   4.013   2.168  12.582 -0.9848 -0.5389  1.7679
  225MPD1    N1 3425   4.312   2.335  13.041  0.4308 -0.2827 -0.2645
  225MPD1    H6 3426   4.291   2.362  13.137 -0.1601 -0.4018 -0.3557
  225MPD1    H7 3427   4.359   2.414  12.999 -1.2807  1.3569  0.9106
  226MPD1     C 3428   2.100   2.241   9.793 -0.2755 -0.0975 -0.0591
  226MPD1    C1 3429   2.115   2.270   9.661 -0.2182  0.0699 -0.9603
  226MPD1    C2 3430   2.211   2.367   9.630 -0.3638  0.2207 -0.1219
  226MPD1    C3 3431   2.301   2.403   9.719 -0.7853  0.3019 -0.4296
  226MPD1    C4 3432   2.285   2.377   9.856  0.1645 -0.0622  0.1349
  226MPD1    C5 3433   2.180   2.291   9.891  0.2287 -0.0527 -0.0161
  226MPD1     H 3434   2.217   2.409   9.530 -1.4033  0.4087 -0.1009
  226MPD1    H1 3435   2.354   2.410   9.932 -0.7007  1.0153  0.4534
  226MPD1    H2 3436   2.020   2.178   9.831 -1.8565  1.9727  0.0127
  226MPD1    H3 3437   2.155   2.271   9.995  1.2548  1.1323  0.4603
  226MPD1     N 3438   2.399   2.490   9.669  0.6437 -0.2943 -0.3298
  226MPD1    H5 3439   2.392   2.525   9.574  4.1982 -1.2101 -0.9265
  226MPD1    N1 3440   2.024   2.233   9.566  0.4143  0.1249 -0.0223
  226MPD1    H6 3441   1.986   2.141   9.588  2.6063 -1.2119 -1.8125
  226MPD1    H7 3442   2.062   2.231   9.471 -0.0563 -0.7647 -0.1928
  227MPD1     C 3443   2.608   3.210   9.045  1.1815 -0.1196  0.1888
  227MPD1    C1 3444   2.734   3.212   9.101 -0.5722  0.6433  0.2832
  227MPD1    C2 3445   2.748   3.132   9.217 -0.0007 -0.3426  0.2995
  227MPD1    C3 3446   2.635   3.066   9.274 -0.3691  1.0076 -0.2205
  227MPD1    C4 3447   2.515   3.081   9.215 -0.3945  0.4328 -0.4353
  227MPD1    C5 3448   2.499   3.145   9.093  0.4345  0.0064 -0.3191
  227MPD1     H 3449   2.843   3.123   9.267 -1.3036 -1.4681  2.5968
  227MPD1    H1 3450   2.429   3.035   9.263  0.4382 -1.6283 -0.9065
  227MPD1    H2 3451   2.599   3.259   8.948 -2.4800 -0.3071  0.4449
  227MPD1    H3 3452   2.404   3.151   9.041 -0.3248 -0.1750  1.0473
  227MPD1     N 3453   2.658   2.971   9.379 -0.2718 -0.2959  0.1686
  227MPD1    H5 3454   2.756   2.951   9.398 -0.0363  0.8510  0.1601
  227MPD1    N1 3455   2.839   3.275   9.035  0.1999  0.1927 -0.6376
  227MPD1    H6 3456   2.807   3.336   8.960  1.3648 -1.8724 -2.8203
  227MPD1    H7 3457   2.897   3.329   9.098 -2.1725  0.4529  1.2924
  228MPD1     C 3458   2.276   4.346  12.683  0.1525 -0.3337 -0.0760
  228MPD1    C1 3459   2.219   4.460  12.628 -0.3519 -0.3593  0.3972
  228MPD1    C2 3460   2.108   4.508  12.684  0.2877  0.1100 -0.3926
  228MPD1    C3 3461   2.038   4.437  12.774  0.1793  0.4613  0.7081
  228MPD1    C4 3462   2.089   4.316  12.817 -0.5768  0.1673  0.0679
  228MPD1    C5 3463   2.204   4.269  12.761 -0.5957  0.5091 -0.0401
  228MPD1     H 3464   2.068   4.607  12.665  0.4645  0.0485 -1.0826
  228MPD1    H1 3465   2.034   4.255  12.888  0.3388 -1.0396 -0.2720
  228MPD1    H2 3466   2.371   4.311  12.645 -0.5607 -2.2820 -0.0642
  228MPD1    H3 3467   2.233   4.167  12.786  2.0745  0.9146 -1.5728
  228MPD1     N 3468   1.915   4.499  12.820 -0.5601 -0.0051 -0.2086
  228MPD1    H5 3469   1.896   4.592  12.784 -0.2344 -0.4819 -1.6115
  228MPD1    N1 3470   2.290   4.531  12.527 -0.3830  0.1553  0.1280
  228MPD1    H6 3471   2.221   4.575  12.466  0.2533  2.4443  1.0580
  228MPD1    H7 3472   2.347   4.469  12.470  0.8394  2.0573 -0.7100
  229MPD1     C 3473   0.528   4.701  15.358  0.4603  0.8405 -0.3885
  229MPD1    C1 3474   0.446   4.592  15.347  0.3912 -0.6271 -0.4034
  229MPD1    C2 3475   0.497   4.471  15.309 -0.0864  0.9402 -1.1160
  229MPD1    C3 3476   0.633   4.445  15.287  0.2100  0.4407  0.1151
  229MPD1    C4 3477   0.712   4.560  15.292 -0.0548  0.0942  0.8418
  229MPD1    C5 3478   0.659   4.677  15.333 -0.2878  0.6106 -0.3487
  229MPD1     H 3479   0.425   4.391  15.320  0.2991  0.8460  0.6928
  229MPD1    H1 3480   0.813   4.559  15.253 -0.4215 -1.2905 -0.0569
  229MPD1    H2 3481   0.505   0.073  15.403  0.7565  0.5721  0.3270
  229MPD1    H3 3482   0.724   0.040  15.348  1.5170 -1.1751  2.0447
  229MPD1     N 3483   0.683   4.320  15.252 -0.0266 -0.7477 -0.2859
  229MPD1    H5 3484   0.781   4.324  15.230 -0.1253  1.7658 -0.2051
  229MPD1    N1 3485   0.310   4.603  15.388  0.3171  0.1549 -0.5620
  229MPD1    H6 3486   0.272   4.684  15.338  0.5170 -0.0424 -1.0276
  229MPD1    H7 3487   0.248   4.522  15.387  0.8486 -0.2299 -1.7284
  230MPD1     C 3488   0.780   3.279  15.517 -0.9566 -0.4465 -0.1568
  230MPD1    C1 3489   0.902   3.345  15.528 -0.0993  0.3390  0.1690
  230MPD1    C2 3490   0.909   3.464  15.454  0.6901 -0.2565  0.2274
  230MPD1    C3 3491   0.792   3.526  15.402 -0.5224 -0.5734  0.0238
  230MPD1    C4 3492   0.672   3.457  15.411  0.3235 -0.6056 -0.9323
  230MPD1    C5 3493   0.667   3.339  15.473 -0.3440 -0.0556  1.0127
  230MPD1     H 3494   1.005   3.513  15.445 -0.7348  2.5460  0.3854
  230MPD1    H1 3495   0.578   3.495  15.372 -0.9941 -0.5711  2.2579
  230MPD1    H2 3496   0.759   3.180  15.557  1.2277 -0.4711  0.9431
  230MPD1    H3 3497   0.573   3.285  15.467 -0.0622 -0.7890  3.3999
  230MPD1     N 3498   0.804   3.648  15.338 -0.5703  0.5937 -0.1130
  230MPD1    H5 3499   0.900   3.672  15.314  0.2697 -0.6181  2.0477
  230MPD1    N1 3500   1.017   3.280  15.559 -0.0963  0.4516  0.5669
  230MPD1    H6 3501   1.089   3.346  15.586 -0.2421 -0.4204  3.0617
  230MPD1    H7 3502   0.997   3.216  15.636 -0.9285  0.7374  0.5934
  231MPD1     C 3503   3.740   0.910  15.893  0.5606  0.0482  0.4153
  231MPD1    C1 3504   3.755   0.842  15.771 -0.1177  0.2285  0.9527
  231MPD1    C2 3505   3.847   0.895  15.681 -0.6338  0.4422 -0.4314
  231MPD1    C3 3506   3.921   1.008  15.703  0.1218 -0.5300 -0.4074
  231MPD1    C4 3507   3.907   1.072  15.822 -0.7269  1.0134 -0.0494
  231MPD1    C5 3508   3.814   1.021  15.913  0.7254  0.2680  0.3379
  231MPD1     H 3509   3.859   0.852  15.582 -2.3195 -1.8171  0.3489
  231MPD1    H1 3510   3.970   1.154  15.853 -3.0413  2.9212 -0.3993
  231MPD1    H2 3511   3.660   0.888  15.963  1.5718 -1.9113  0.9358
  231MPD1    H3 3512   3.808   1.073  16.008 -1.5828 -1.2690  1.0225
  231MPD1     N 3513   4.010   1.051  15.601 -0.0427  0.0727 -1.1148
  231MPD1    H5 3514   3.999   1.007  15.511 -1.1821 -0.9581 -0.4732
  231MPD1    N1 3515   3.664   0.743  15.732 -0.6736  0.1458 -0.2972
  231MPD1    H6 3516   3.620   0.702  15.814  3.2212 -1.0601  1.1890
  231MPD1    H7 3517   3.712   0.677  15.672  3.0723  2.0632  0.6038
  232MPD1     C 3518   1.276   2.774   0.295 -0.3735  0.0963 -0.2499
  232MPD1    C1 3519   1.158   2.713   0.287  0.6267  0.4131 -0.3672
  232MPD1    C2 3520   1.050   2.793   0.252  0.0986  0.1894  1.5094
  232MPD1    C3 3521   1.067   2.922   0.214  0.0333  0.3361 -0.4419
  232MPD1    C4 3522   1.199   2.968   0.204 -0.1907 -0.4827  0.3706
  232MPD1    C5 3523   1.302   2.897   0.249  0.2925  0.2292  0.4700
  232MPD1     H 3524   0.947   2.759   0.256  0.8318 -1.9696  2.2954
  232MPD1    H1 3525   1.212   3.071   0.176  0.4700 -0.4533  0.7785
  232MPD1    H2 3526   1.358   2.714   0.334 -0.0256  0.8615  0.1805
  232MPD1    H3 3527   1.404   2.935   0.251  1.0974 -2.0193  1.5495
  232MPD1     N 3528   0.954   3.007   0.189 -0.1742 -0.3429  0.5364
  232MPD1    H5 3529   0.863   2.969   0.211  0.0572 -1.8187 -1.0444
  232MPD1    N1 3530   1.140   2.591   0.360  0.4026 -0.6316 -0.2823
  232MPD1    H6 3531   1.062   2.543   0.318  0.1394 -0.2963 -0.1768
  232MPD1    H7 3532   1.218   2.526   0.354 -0.0942 -1.0669 -1.7384
  233MPD1     C 3533   1.315   2.122   1.267 -0.2374  0.4184 -0.1832
  233MPD1    C1 3534   1.384   2.129   1.389  0.1043  0.0108 -0.2792
  233MPD1    C2 3535   1.489   2.041   1.418 -0.0138  0.8439 -0.2738
  233MPD1    C3 3536   1.512   1.938   1.326 -0.3399 -0.6577  0.3636
  233MPD1    C4 3537   1.440   1.934   1.206  0.4022  0.0297  0.7182
  233MPD1    C5 3538   1.336   2.018   1.178  0.4057 -0.3717  0.0412
  233MPD1     H 3539   1.546   2.043   1.510  0.6401  0.6148 -0.6733
  233MPD1    H1 3540   1.448   1.848   1.140  0.3278  1.1626 -0.7653
  233MPD1    H2 3541   1.229   2.187   1.254  1.1951  1.9726 -1.9196
  233MPD1    H3 3542   1.275   2.001   1.090  2.2200  1.2618 -1.5169
  233MPD1     N 3543   1.597   1.830   1.345  0.2498 -0.3605 -0.3696
  233MPD1    H5 3544   1.589   1.752   1.280 -0.8505  0.5794 -1.3637
  233MPD1    N1 3545   1.345   2.228   1.481 -0.3451  0.0705 -0.7026
  233MPD1    H6 3546   1.427   2.263   1.529  0.3749 -1.5909 -0.7104
  233MPD1    H7 3547   1.311   2.312   1.434 -0.9630  0.4229  0.3749
  234MPD1     C 3548   3.422   4.509   9.112 -0.9077 -0.2873  0.6404
  234MPD1    C1 3549   3.507   4.565   9.206 -1.0062  0.4744 -0.4397
  234MPD1    C2 3550   3.451   4.657   9.286  0.7932 -0.0109 -0.0527
  234MPD1    C3 3551   3.320   4.697   9.270  0.6105 -0.2966  0.5786
  234MPD1    C4 3552   3.240   4.640   9.180  0.4727  0.4850  0.2074
  234MPD1    C5 3553   3.298   4.549   9.096 -0.3816 -0.1227 -0.4338
  234MPD1     H 3554   3.516   4.713   9.352 -2.3040  0.7027  2.4633
  234MPD1    H1 3555   3.139   4.678   9.166  0.1180  0.2277  2.1033
  234MPD1    H2 3556   3.447   4.427   9.046 -0.4789 -2.1922  3.1486
  234MPD1    H3 3557   3.245   4.510   9.010  1.7487 -1.9580 -0.9141
  234MPD1     N 3558   3.283   0.079   9.351  0.1661  0.5872  0.2376
  234MPD1    H5 3559   3.356   0.122   9.406  2.3569 -1.8976 -0.6983
  234MPD1    N1 3560   3.641   4.521   9.220 -1.0480  0.0811  0.0060
  234MPD1    H6 3561   3.685   4.489   9.134 -1.5766  2.1547 -1.0596
  234MPD1    H7 3562   3.705   4.584   9.268  1.1268 -1.9744 -0.2431
  235MPD1     C 3563   4.530   2.498  10.108 -0.4653 -0.1136 -0.6964
  235MPD1    C1 3564   4.479   2.616  10.069 -0.4036 -0.2945 -0.4234
  235MPD1    C2 3565   4.544   2.735  10.098 -0.3563 -0.3105 -0.3302
  235MPD1    C3 3566   4.666   2.727  10.166  0.8573 -0.1165  0.2677
  235MPD1    C4 3567   0.001   2.603  10.184  0.7665  0.9730 -0.1156
  235MPD1    C5 3568   4.656   2.492  10.155 -0.6768  0.3123  0.7820
  235MPD1     H 3569   4.504   2.831  10.069 -0.6421 -0.8784 -1.8072
  235MPD1    H1 3570   0.098   2.591  10.230  0.9279 -1.2233 -1.0112
  235MPD1    H2 3571   4.478   2.405  10.089 -0.6820  0.2186 -1.7149
  235MPD1    H3 3572   4.701   2.397  10.182 -0.0734 -0.0048 -1.3283
  235MPD1     N 3573   0.028   2.841  10.168  0.0628 -0.2859  0.7110
  235MPD1    H5 3574   4.715   2.925  10.124 -0.3005  0.4262  2.3424
  235MPD1    N1 3575   4.354   2.633  10.012 -0.3453 -0.0180  0.0367
  235MPD1    H6 3576   4.315   2.725  10.031  1.0494  0.3191  1.2928
  235MPD1    H7 3577   4.289   2.564  10.048  0.2580 -1.8199 -2.3712
  236MPD1     C 3578   3.934   4.366  10.163 -0.2723  0.4181  0.1985
  236MPD1    C1 3579   3.905   4.235  10.181 -0.6160  0.3923  0.0489
  236MPD1    C2 3580   4.011   4.145  10.197  0.8384  0.1868  0.0039
  236MPD1    C3 3581   4.140   4.197  10.204 -0.3384  0.1994  0.5738
  236MPD1    C4 3582   4.162   4.334  10.189  0.0041 -0.2244 -0.1898
  236MPD1    C5 3583   4.059   4.418  10.168  0.3941 -0.4850 -0.0391
  236MPD1     H 3584   3.987   4.045  10.233  3.1505 -1.3147 -2.6153
  236MPD1    H1 3585   4.254   4.389  10.199 -0.0716  0.1890 -1.7193
  236MPD1    H2 3586   3.861   4.440  10.134  1.3787  1.9460 -0.0467
  236MPD1    H3 3587   4.066   4.526  10.156  3.1324 -0.4118  2.3380
  236MPD1     N 3588   4.259   4.124  10.235  0.4893  0.5397  0.6865
  236MPD1    H5 3589   4.340   4.185  10.241  1.1045 -0.0475 -1.5990
  236MPD1    N1 3590   3.772   4.193  10.158 -1.0872  0.4067  0.0908
  236MPD1    H6 3591   3.751   4.094  10.163 -1.5750  0.5141  0.1543
  236MPD1    H7 3592   3.706   4.260  10.198 -1.0479 -0.1075  1.0092
  237MPD1     C 3593   4.295   2.763  15.452  0.6303 -0.5328 -0.1184
  237MPD1    C1 3594   4.187   2.736  15.539  0.2806  0.1402  1.0940
  237MPD1    C2 3595   4.113   2.626  15.527  0.1911  0.0663  0.0993
  237MPD1    C3 3596   4.142   2.531  15.429 -0.0495 -0.3472 -0.2086
  237MPD1    C4 3597   4.249   2.554  15.345  0.0857  0.3451  0.0817
  237MPD1    C5 3598   4.323   2.670  15.359 -0.6059  0.6875 -0.1352
  237MPD1     H 3599   4.023   2.615  15.586 -0.3915 -0.0683 -0.8282
  237MPD1    H1 3600   4.271   2.479  15.270  0.5689  0.2895  0.2788
  237MPD1    H2 3601   4.348   2.856  15.439 -3.3764  1.1973 -4.1127
  237MPD1    H3 3602   4.412   2.678  15.298 -1.6136 -0.9760 -1.8329
  237MPD1     N 3603   4.064   2.417  15.408 -0.0310 -0.2390 -0.1345
  237MPD1    H5 3604   4.097   2.354  15.335 -0.0605  0.5911 -0.8649
  237MPD1    N1 3605   4.136   2.850  15.598  0.1811 -0.1254 -0.7366
  237MPD1    H6 3606   4.080   2.821  15.678  1.2292 -0.4606 -0.1192
  237MPD1    H7 3607   4.202   2.922  15.627 -1.5630  1.3342 -0.3788
  238MPD1     C 3608   0.927   2.116  15.399 -0.3973 -0.3986 -0.0131
  238MPD1    C1 3609   0.806   2.055  15.439 -0.1608  0.2709  1.0743
  238MPD1    C2 3610   0.793   1.917  15.424  0.7220  0.0635 -0.0068
  238MPD1    C3 3611   0.888   1.853  15.344  0.0494 -0.5155  0.1407
  238MPD1    C4 3612   1.004   1.919  15.299  0.2450 -0.4324 -1.0895
  238MPD1    C5 3613   1.023   2.052  15.325  0.3414 -0.2805  0.4347
  238MPD1     H 3614   0.696   1.874  15.446  0.6411  0.6187  0.7177
  238MPD1    H1 3615   1.077   1.856  15.249  0.3364 -1.1907 -0.0098
  238MPD1    H2 3616   0.943   2.221  15.419  0.4467 -0.2630 -1.4134
  238MPD1    H3 3617   1.111   2.103  15.287  0.8128 -0.5981  1.0985
  238MPD1     N 3618   0.875   1.711  15.319 -0.2159  0.5628  0.3157
  238MPD1    H5 3619   0.939   1.665  15.256  1.0294 -0.1203  2.0815
  238MPD1    N1 3620   0.715   2.130  15.518 -0.6060  0.8662  0.7254
  238MPD1    H6 3621   0.721   2.231  15.504  0.2379  0.8067  0.6428
  238MPD1    H7 3622   0.621   2.095  15.502 -0.5257 -0.1141  2.3476
  239MPD1     C 3623   1.639   1.872  15.036  0.4093 -0.5679  0.1238
  239MPD1    C1 3624   1.545   1.963  15.053 -0.3008 -0.4469  0.0811
  239MPD1    C2 3625   1.466   2.001  14.945  0.3003  0.0872 -0.1644
  239MPD1    C3 3626   1.492   1.959  14.814  0.0255  0.4574 -0.3706
  239MPD1    C4 3627   1.590   1.862  14.804 -0.2558  0.4232 -0.4740
  239MPD1    C5 3628   1.658   1.813  14.915 -0.0272  0.4368 -0.0527
  239MPD1     H 3629   1.391   2.077  14.967  1.6296  0.9770  1.3166
  239MPD1    H1 3630   1.630   1.829  14.709  0.7875  2.0955 -0.6263
  239MPD1    H2 3631   1.714   1.841  15.108  0.1559 -0.0296  0.6210
  239MPD1    H3 3632   1.727   1.730  14.905  2.8573  2.5898  2.1045
  239MPD1     N 3633   1.428   2.019  14.693 -0.3379 -1.1273  0.0038
  239MPD1    H5 3634   1.451   1.997  14.596 -0.3462 -0.2819 -0.1900
  239MPD1    N1 3635   1.515   2.010  15.176  0.6851 -0.5051  0.0087
  239MPD1    H6 3636   1.451   2.089  15.181  0.5372 -0.5364 -1.3074
  239MPD1    H7 3637   1.599   2.028  15.231 -0.6745 -0.9256  2.2128
  240MPD1     C 3638   0.722   0.968  13.808  0.6457 -0.2968 -0.2442
  240MPD1    C1 3639   0.588   1.018  13.814 -0.0977 -0.1324 -0.6598
  240MPD1    C2 3640   0.579   1.118  13.907  0.1475  0.1167 -0.9084
  240MPD1    C3 3641   0.683   1.169  13.982  0.1473 -0.1030  0.4471
  240MPD1    C4 3642   0.809   1.122  13.956  0.6104 -0.4808 -0.6265
  240MPD1    C5 3643   0.826   1.006  13.885  0.1278 -0.5489  0.0360
  240MPD1     H 3644   0.479   1.160  13.917  0.4706  0.4529  0.9726
  240MPD1    H1 3645   0.897   1.160  14.008 -0.2257 -1.5599  1.6014
  240MPD1    H2 3646   0.748   0.895  13.732 -1.8104 -0.7370 -0.6568
  240MPD1    H3 3647   0.927   0.974  13.861  1.0566  3.0611 -0.8631
  240MPD1     N 3648   0.652   1.280  14.074  0.3823 -0.2899 -0.2310
  240MPD1    H5 3649   0.560   1.322  14.070  0.3446 -0.3913 -0.4844
  240MPD1    N1 3650   0.503   0.984  13.710 -0.1103 -0.2717 -0.0967
  240MPD1    H6 3651   0.404   0.987  13.733 -0.2852 -1.0831 -0.7587
  240MPD1    H7 3652   0.526   0.896  13.664 -0.7638 -0.2519 -0.4538
  241MPD1     C 3653   1.048   1.858  14.948 -0.1091 -0.7711 -0.2520
  241MPD1    C1 3654   1.111   1.797  14.842  0.5199 -0.6931 -0.5691
  241MPD1    C2 3655   1.031   1.727  14.750  0.3489  0.4853 -0.1462
  241MPD1    C3 3656   0.893   1.723  14.751 -0.1228 -0.5178  0.0119
  241MPD1    C4 3657   0.829   1.787  14.859  0.7167  0.4866 -0.2556
  241MPD1    C5 3658   0.905   1.846  14.959  0.0637 -1.4478 -0.6521
  241MPD1     H 3659   1.080   1.670  14.672  1.1300 -1.4926  1.7654
  241MPD1    H1 3660   0.722   1.786  14.874  0.7708 -0.7583  0.0536
  241MPD1    H2 3661   1.108   1.897  15.029  0.7332  0.0369 -1.2752
  241MPD1    H3 3662   0.855   1.874  15.051  0.4520 -0.8938 -0.6060
  241MPD1     N 3663   0.815   1.645  14.654 -0.2231 -0.7719 -0.7615
  241MPD1    H5 3664   0.717   1.630  14.672  0.1017 -0.7273  1.0332
  241MPD1    N1 3665   1.246   1.767  14.840  0.3381 -1.0218  0.0984
  241MPD1    H6 3666   1.307   1.822  14.900  1.4502  0.0165 -1.9976
  241MPD1    H7 3667   1.285   1.758  14.746  0.3419  0.6723 -0.0593
  242MPD1     C 3668   0.218   0.499  15.650  0.5968  0.6515 -1.1708
  242MPD1    C1 3669   0.171   0.376  15.621 -0.1137  0.3062  0.5733
  242MPD1    C2 3670   0.218   0.303  15.509 -0.2504  0.0730 -0.6350
  242MPD1    C3 3671   0.291   0.369  15.409 -0.0391 -0.0026  0.4030
  242MPD1    C4 3672   0.335   0.491  15.443  0.1670 -0.0406  0.0234
  242MPD1    C5 3673   0.310   0.549  15.557 -0.7637  0.0017  0.2441
  242MPD1     H 3674   0.186   0.201  15.490 -1.2201  0.3828 -0.6950
  242MPD1    H1 3675   0.404   0.533  15.372 -0.1344 -0.1983 -0.3660
  242MPD1    H2 3676   0.200   0.549  15.744  0.1511 -5.1772  1.8227
  242MPD1    H3 3677   0.363   0.643  15.567 -0.9006  0.0457  0.5524
  242MPD1     N 3678   0.332   0.309  15.287  0.2770  0.8128 -0.2276
  242MPD1    H5 3679   0.394   0.369  15.234  0.4382  0.5378 -0.3477
  242MPD1    N1 3680   0.112   0.310  15.730 -0.2144  0.0761 -0.4698
  242MPD1    H6 3681   0.061   0.375  15.790  1.0398  1.7312 -1.2229
  242MPD1    H7 3682   0.064   0.222  15.709 -0.4853  0.2768 -0.6800
  243MPD1     C 3683   2.479   4.656  17.352  0.3269 -0.0245  0.5405
  243MPD1    C1 3684   2.508   4.536  17.416  0.2915 -0.0036 -0.0371
  243MPD1    C2 3685   2.483   4.423  17.347 -0.5003 -0.2709 -0.1008
  243MPD1    C3 3686   2.426   4.428  17.222  0.8704 -0.0740 -0.2138
  243MPD1    C4 3687   2.392   4.547  17.157  0.3448 -0.2387 -0.0923
  243MPD1    C5 3688   2.408   4.662  17.235 -0.3066  0.6932 -0.0530
  243MPD1     H 3689   2.496   4.324  17.389 -2.3283 -0.8458 -0.9102
  243MPD1    H1 3690   2.342   4.547  17.061  1.4739 -1.3156 -0.6633
  243MPD1    H2 3691   2.515   0.024  17.399 -2.1117  0.2700  1.8213
  243MPD1    H3 3692   2.388   0.039  17.198  2.0664  0.9421 -0.6607
  243MPD1     N 3693   2.394   4.304  17.162 -0.7648 -0.6004  0.1823
  243MPD1    H5 3694   2.399   4.226  17.226  0.3344 -0.3141  0.4363
  243MPD1    N1 3695   2.576   4.539  17.539  0.7523 -0.7489 -0.4687
  243MPD1    H6 3696   2.548   4.616  17.601  2.1471 -0.9494  0.4215
  243MPD1    H7 3697   2.560   4.452  17.589 -0.9904 -0.4683 -0.5298
  244MPD1     C 3698   2.025   3.735  17.650  0.0007  0.1765 -0.4065
  244MPD1    C1 3699   2.143   3.806  17.665 -0.1605 -0.7745 -0.2749
  244MPD1    C2 3700   2.211   3.851  17.553  0.3769 -0.6910 -0.7875
  244MPD1    C3 3701   2.161   3.829  17.422 -0.0577 -0.0167  0.3716
  244MPD1    C4 3702   2.048   3.755  17.405  0.2536 -0.2011 -1.0344
  244MPD1    C5 3703   1.988   3.710  17.520 -0.3755  0.6794 -0.4090
  244MPD1     H 3704   2.309   3.898  17.560 -0.2491  0.1719  2.1468
  244MPD1    H1 3705   2.001   3.736  17.309 -2.3031 -0.7776  0.3420
  244MPD1    H2 3706   1.968   3.700   0.042 -1.2151  0.9100 -0.9132
  244MPD1    H3 3707   1.892   3.660  17.517 -0.3626  0.6185  0.2674
  244MPD1     N 3708   2.221   3.893  17.315  0.5286  0.3749  0.2592
  244MPD1    H5 3709   2.281   3.973  17.330  0.2118  0.7101 -0.2672
  244MPD1    N1 3710   2.198   3.807   0.098 -0.0931 -0.5177  0.0038
  244MPD1    H6 3711   2.124   3.806   0.167 -0.5253 -0.6014 -0.4617
  244MPD1    H7 3712   2.257   3.890   0.108  1.6256 -1.8678  1.0143
  245MPD1     C 3713   4.619   3.729  13.068 -0.6984  0.3326 -0.0672
  245MPD1    C1 3714   4.545   3.736  13.191  0.1956 -0.3007 -0.3396
  245MPD1    C2 3715   4.570   3.838  13.276  0.4535  0.5907 -0.1543
  245MPD1    C3 3716   4.675   3.923  13.253 -0.3249  0.6464  0.3252
  245MPD1    C4 3717   0.024   3.917  13.131 -0.1886 -0.1438 -0.3764
  245MPD1    C5 3718   0.001   3.813  13.043 -0.7397  0.4521 -0.5448
  245MPD1     H 3719   4.505   3.854  13.361 -2.5501 -0.8330 -2.2066
  245MPD1    H1 3720   0.098   3.991  13.102  0.0283 -0.0336  0.4632
  245MPD1    H2 3721   4.601   3.652  12.995 -0.1453 -0.7663  0.9432
  245MPD1    H3 3722   0.062   3.814  12.953 -0.5933  1.1842 -0.4415
  245MPD1     N 3723   4.697   4.025  13.345  0.4965  0.0333  0.8902
  245MPD1    H5 3724   4.618   4.043  13.407 -0.5803 -2.0315  0.1219
  245MPD1    N1 3725   4.424   3.667  13.207 -0.3085  0.1051 -0.5304
  245MPD1    H6 3726   4.428   3.575  13.164 -1.5194 -0.1286 -0.1503
  245MPD1    H7 3727   4.396   3.653  13.303 -0.0640  1.5631 -0.2498
  246MPD1     C 3728   1.115   0.484  10.037 -0.1582  0.5850  0.8881
  246MPD1    C1 3729   1.077   0.588   9.951 -0.0278 -0.0014  0.1379
  246MPD1    C2 3730   0.954   0.581   9.887 -0.5105 -0.7023  0.1000
  246MPD1    C3 3731   0.864   0.481   9.912 -0.1821  0.2477 -0.2460
  246MPD1    C4 3732   0.898   0.387  10.009 -0.5550  0.0323 -0.4350
  246MPD1    C5 3733   1.026   0.381  10.061 -0.0796 -0.5091 -0.0874
  246MPD1     H 3734   0.920   0.655   9.815  0.9853 -0.7874 -0.6910
  246MPD1    H1 3735   0.829   0.306  10.031 -0.7921 -0.4202 -2.8614
  246MPD1    H2 3736   1.212   0.484  10.086 -0.5862 -0.8884  1.7451
  246MPD1    H3 3737   1.038   0.315  10.147  2.0163 -0.6779 -0.5062
  246MPD1     N 3738   0.734   0.481   9.848 -0.1101  0.1750 -0.4150
  246MPD1    H5 3739   0.728   0.537   9.764  0.0691 -0.4891 -0.8648
  246MPD1    N1 3740   1.176   0.687   9.921 -0.0519 -0.0507 -0.5992
  246MPD1    H6 3741   1.121   0.768   9.892 -1.3903 -0.6552  0.2031
  246MPD1    H7 3742   1.228   0.701  10.008 -0.2334 -1.1162 -0.3232
  247MPD1     C 3743   3.349   3.025  15.144  0.4271  0.4768  0.2399
  247MPD1    C1 3744   3.262   3.102  15.214  0.2978  0.9883 -0.3120
  247MPD1    C2 3745   3.269   3.101  15.355  0.4001 -0.7175  0.2487
  247MPD1    C3 3746   3.383   3.043  15.409 -0.0649 -0.6783 -0.0545
  247MPD1    C4 3747   3.478   2.975  15.335  0.0776  0.3291  0.0799
  247MPD1    C5 3748   3.458   2.957  15.203 -0.0332  0.0267 -0.0916
  247MPD1     H 3749   3.199   3.147  15.423  0.5938  0.2556 -0.2122
  247MPD1    H1 3750   3.570   2.933  15.373 -0.6703 -1.4527 -0.0864
  247MPD1    H2 3751   3.348   3.012  15.037  0.9901 -0.8241  0.3881
  247MPD1    H3 3752   3.538   2.907  15.151 -0.1760  0.5240 -0.7901
  247MPD1     N 3753   3.411   3.070  15.548 -0.0502 -0.4530  0.3039
  247MPD1    H5 3754   3.499   3.033  15.582  0.3834 -0.5257 -0.9291
  247MPD1    N1 3755   3.152   3.154  15.142 -0.1201 -0.0230  0.6090
  247MPD1    H6 3756   3.102   3.219  15.203 -0.2926  0.5226 -0.1125
  247MPD1    H7 3757   3.188   3.217  15.071 -0.8512 -0.0074  0.2560
  248MPD1     C 3758   4.356   2.865   0.255  0.1523 -0.0437  0.3683
  248MPD1    C1 3759   4.391   2.986   0.308 -0.5375  0.4344 -0.7264
  248MPD1    C2 3760   4.314   3.038   0.409 -0.3727  0.3174 -0.1431
  248MPD1    C3 3761   4.189   2.977   0.440  0.0443 -0.6398 -0.5906
  248MPD1    C4 3762   4.163   2.849   0.394  0.3787 -0.0079 -0.8694
  248MPD1    C5 3763   4.241   2.804   0.294  0.2284 -1.4834  0.4177
  248MPD1     H 3764   4.338   3.128   0.464  0.7437  1.5834 -2.7237
  248MPD1    H1 3765   4.085   2.782   0.430 -0.1516  0.5315 -1.0086
  248MPD1    H2 3766   4.419   2.814   0.182  0.2226  1.7674 -0.8401
  248MPD1    H3 3767   4.220   2.709   0.246 -0.9214 -1.2457  0.4590
  248MPD1     N 3768   4.094   3.033   0.523 -0.2267 -0.1268 -0.1973
  248MPD1    H5 3769   4.105   3.132   0.542  2.6721 -0.6240  0.8212
  248MPD1    N1 3770   4.512   3.053   0.272  0.1330 -0.5706  0.0704
  248MPD1    H6 3771   4.538   3.022   0.179  1.0639 -1.1922  0.5346
  248MPD1    H7 3772   4.509   3.155   0.273 -0.0505 -0.5737 -0.2525
  249MPD1     C 3773   0.729   1.823  10.110 -0.3314  0.4730  0.3068
  249MPD1    C1 3774   0.792   1.740  10.012 -0.1308  0.3305  0.1963
  249MPD1    C2 3775   0.911   1.781   9.951 -0.4040 -0.1453 -0.2735
  249MPD1    C3 3776   0.977   1.891  10.006 -0.4055  1.1718 -0.0838
  249MPD1    C4 3777   0.921   1.961  10.114 -0.4329  0.1076 -0.5633
  249MPD1    C5 3778   0.798   1.930  10.154 -0.2376 -0.7719 -0.3311
  249MPD1     H 3779   0.944   1.735   9.859  0.9376  1.3848 -0.5610
  249MPD1    H1 3780   0.974   2.039  10.168 -2.1205  1.1451 -0.4131
  249MPD1    H2 3781   0.626   1.809  10.140 -0.1853 -2.7637 -0.6426
  249MPD1    H3 3782   0.749   1.990  10.229 -1.1193 -1.2711 -0.5087
  249MPD1     N 3783   1.104   1.911   9.954  0.2756 -0.4988 -0.4803
  249MPD1    H5 3784   1.139   1.845   9.885 -1.1192 -0.1360 -1.5268
  249MPD1    N1 3785   0.717   1.631   9.959  0.1545  0.2593 -0.3400
  249MPD1    H6 3786   0.671   1.589  10.039  0.9039  0.9898  0.4731
  249MPD1    H7 3787   0.774   1.559   9.915  1.5625 -0.5437  2.8169
  250MPD2     C 3788   2.119   2.221  13.392 -0.4227  0.1485  0.2150
  250MPD2    C1 3789   1.993   2.230  13.334  0.4564 -0.2737 -0.1680
  250MPD2    C2 3790   1.917   2.117  13.300  0.3573  0.7712  0.6104
  250MPD2    C3 3791   1.980   1.991  13.305  0.2045  0.0970  0.6612
  250MPD2    C4 3792   2.111   1.986  13.346  0.6433  0.8615 -0.3056
  250MPD2    C5 3793   2.169   2.093  13.400 -0.6914 -0.9096  0.8334
  250MPD2     H 3794   1.822   2.127  13.250 -0.8112 -2.0754  2.2451
  250MPD2    H1 3795   2.180   1.903  13.335 -0.0485 -0.3139  4.1633
  250MPD2    H2 3796   2.179   2.303  13.430  1.5250 -2.1657  2.0863
  250MPD2    H3 3797   2.270   2.077  13.435  0.0601  2.2430  0.0759
  250MPD2     N 3798   1.923   1.880  13.234 -0.0594  1.1516  0.4113
  250MPD2    H5 3799   1.852   1.909  13.167  0.1712  0.2945 -0.2052
  250MPD2    N1 3800   1.960   2.360  13.278  0.1491  0.1069 -0.1139
  250MPD2    H7 3801   2.029   2.433  13.285  1.6355 -1.3150  0.1536
  251TMC3    C1 3802   1.861   2.507  13.133 -0.1950 -0.4998  0.5175
  251TMC3    C2 3803   1.750   2.580  13.097 -0.0113 -0.3712 -0.4845
  251TMC3    C3 3804   1.777   2.694  13.026  0.3105 -0.7780 -0.9782
  251TMC3    C4 3805   1.985   2.530  13.074 -0.6385  0.3038  0.2222
  251TMC3    C5 3806   1.999   2.639  12.993 -0.2336  0.0015 -0.1081
  251TMC3    C6 3807   1.905   2.729  12.977  0.2780  0.6988 -0.2644
  251TMC3     C 3808   1.843   2.394  13.216 -0.0497  0.5977  0.0338
  251TMC3     O 3809   1.734   2.330  13.224  0.1781 -0.0970 -0.3760
  251TMC3     H 3810   1.655   2.568  13.148 -0.3268  0.1755 -0.9400
  251TMC3    H1 3811   2.065   2.460  13.093  1.7265  2.4345 -1.8837
  251TMC3    H2 3812   1.933   2.826  12.938  0.2584  0.9017  0.2265
  251TMC3    C7 3813   2.128   2.668  12.927  0.8648 -0.6425 -0.0142
  251TMC3    C8 3814   1.689   2.806  13.044 -0.1591 -0.0968 -0.6801
  251TMC3    O1 3815   2.225   2.646  12.994 -0.2782  0.1574  0.5992
  251TMC3    O2 3816   1.738   2.913  13.074  0.4106  0.1469  0.4433
  252TMC3    C1 3817   2.286   3.393   9.378 -0.5707  0.5984 -0.6378
  252TMC3    C2 3818   2.419   3.422   9.348 -0.4056  0.5034  0.1519
  252TMC3    C3 3819   2.514   3.374   9.438 -0.9334 -0.1535  0.0015
  252TMC3    C4 3820   2.245   3.319   9.484 -0.1204  0.4109  0.1300
  252TMC3    C5 3821   2.350   3.265   9.560 -0.2560  0.5230 -0.1276
  252TMC3    C6 3822   2.482   3.288   9.541 -0.0412  1.2748  0.3047
  252TMC3     C 3823   2.202   3.366   9.264 -0.8633 -0.3972 -0.1636
  252TMC3     O 3824   2.115   3.285   9.281 -0.1653 -0.8831  1.0068
  252TMC3     H 3825   2.452   3.477   9.261 -1.3886 -0.0452 -0.5727
  252TMC3    H1 3826   2.143   3.283   9.498 -0.0463 -0.1461 -0.7516
  252TMC3    H2 3827   2.562   3.237   9.594 -0.0173  0.8652 -0.1231
  252TMC3    C7 3828   2.313   3.166   9.654  0.0381 -0.1830 -0.6944
  252TMC3    C8 3829   2.651   3.418   9.417 -0.4429  0.6394 -0.9168
  252TMC3    O1 3830   2.199   3.126   9.644  0.3343 -0.2425  0.1342
  252TMC3    O2 3831   2.669   3.476   9.312 -0.3162  0.1836  0.2738
  253MPD2     C 3832   3.645   2.626  15.195  0.0014  0.2709 -0.8292
  253MPD2    C1 3833   3.524   2.568  15.194  0.2555 -0.5652 -0.4860
  253MPD2    C2 3834   3.471   2.506  15.303  0.0389  0.4207 -0.4631
  253MPD2    C3 3835   3.539   2.492  15.421  0.6389  0.0732  0.4449
  253MPD2    C4 3836   3.665   2.556  15.431 -0.5031 -0.4556 -0.9707
  253MPD2    C5 3837   3.715   2.620  15.318  0.4389 -0.7257 -0.4723
  253MPD2     H 3838   3.382   2.445  15.294  0.7748 -0.4168 -2.1183
  253MPD2    H1 3839   3.730   2.547  15.517 -0.2114  0.2658 -1.1122
  253MPD2    H2 3840   3.695   2.667  15.109  0.7090  2.2934  0.5557
  253MPD2    H3 3841   3.813   2.666  15.321 -0.2269  0.4719  3.0067
  253MPD2     N 3842   3.488   2.427  15.533 -0.2052  0.0670 -0.9001
  253MPD2    H5 3843   3.543   2.432  15.618  0.5734  0.7174 -1.4438
  253MPD2    N1 3844   3.445   2.584  15.077 -0.5791  0.1920  0.2429
  253MPD2    H7 3845   3.353   2.540  15.073 -0.3249 -0.2393 -0.7379
  254TMC3    C1 3846   3.320   2.366  15.697 -0.3829  0.2512 -0.2038
  254TMC3    C2 3847   3.187   2.388  15.738 -0.4593 -0.3217  0.3084
  254TMC3    C3 3848   3.146   2.357  15.863  0.2951  0.2983  0.6256
  254TMC3    C4 3849   3.414   2.329  15.790 -0.4460  0.2436  0.8838
  254TMC3    C5 3850   3.370   2.303  15.921 -0.8130 -0.1711  0.4661
  254TMC3    C6 3851   3.236   2.305  15.953 -0.5313 -0.3184  0.2279
  254TMC3     C 3852   3.355   2.400  15.557 -0.0387  0.3859 -0.7053
  254TMC3     O 3853   3.256   2.402  15.485  0.0182 -0.4810 -0.2472
  254TMC3     H 3854   3.106   2.411  15.669  0.9379  0.9589 -0.9106
  254TMC3    H1 3855   3.514   2.296  15.763 -0.7125  1.1979 -1.2770
  254TMC3    H2 3856   3.200   2.288  16.054  1.1159 -1.6985  0.5826
  254TMC3    C7 3857   3.455   2.265  16.031 -0.1027  0.4424 -0.0554
  254TMC3    C8 3858   3.023   2.400  15.922 -0.6330 -0.3896  0.0788
  254TMC3    O1 3859   3.405   2.224  16.133  0.6149 -0.2061  0.1681
  254TMC3    O2 3860   3.015   2.376  16.038  0.0076 -0.1749  0.3508
  255MPD2     C 3861   1.658   4.403  10.814 -0.3582 -1.1979  0.2651
  255MPD2    C1 3862   1.774   4.477  10.829  0.0336 -0.3417  0.4106
  255MPD2    C2 3863   1.878   4.437  10.749 -0.2953 -0.6417 -0.3770
  255MPD2    C3 3864   1.861   4.344  10.648 -0.0981  0.6717 -0.0118
  255MPD2    C4 3865   1.736   4.275  10.638  0.3136  0.1670  0.1016
  255MPD2    C5 3866   1.646   4.294  10.735 -0.0276  0.2633  0.4664
  255MPD2     H 3867   1.975   4.484  10.765 -0.6232 -0.0830 -0.0516
  255MPD2    H1 3868   1.726   4.195  10.566  0.8811  1.4876 -1.4575
  255MPD2    H2 3869   1.569   4.417  10.873 -0.0319  0.2639  0.4115
  255MPD2    H3 3870   1.554   4.236  10.731  2.1230 -3.0425 -0.5398
  255MPD2     N 3871   1.979   4.321  10.565 -0.3835 -0.0423 -0.1431
  255MPD2    H5 3872   2.053   4.389  10.578  0.0014 -0.3852 -0.5439
  255MPD2    N1 3873   1.770   4.574  10.935  0.2819 -0.1752  0.3380
  255MPD2    H7 3874   1.678   4.610  10.962  0.0440 -0.8663  0.4426
  256TMC3    C1 3875   1.858   0.035  11.069 -0.2879  0.1637  0.1574
  256TMC3    C2 3876   1.974   0.104  11.090  0.0110 -0.1743  0.3227
  256TMC3    C3 3877   1.960   0.238  11.121 -0.2094 -0.5911  0.6354
  256TMC3    C4 3878   1.733   0.086  11.094 -0.2377 -0.4793  0.9428
  256TMC3    C5 3879   1.728   0.224  11.108 -0.4782  0.1003 -0.0548
  256TMC3    C6 3880   1.839   0.296  11.136 -0.1425  0.5012  0.2841
  256TMC3     C 3881   1.881   4.643  10.982 -0.2515 -0.0858  0.1134
  256TMC3     O 3882   1.998   4.615  10.950  0.2933 -0.3642 -0.1753
  256TMC3     H 3883   2.072   0.062  11.068 -0.5689 -2.1132  1.3724
  256TMC3    H1 3884   1.640   0.036  11.073  1.0572 -2.4450 -0.1724
  256TMC3    H2 3885   1.821   0.399  11.166 -3.1561  0.0686  0.0089
  256TMC3    C7 3886   1.639   0.276  11.008  0.0470 -0.0059 -0.1071
  256TMC3    C8 3887   2.043   0.326  11.047  0.3230  0.1309  0.1193
  256TMC3    O1 3888   1.544   0.224  10.959 -0.4665 -0.1548 -0.5977
  256TMC3    O2 3889   2.049   0.437  11.097  0.1094 -0.1822 -0.8304
  257MPD2     C 3890   0.681   2.118  13.360  0.6582 -0.0576  0.4943
  257MPD2    C1 3891   0.760   2.104  13.248 -0.6282  0.1880  0.6113
  257MPD2    C2 3892   0.891   2.049  13.263  0.2910 -0.1369  0.0957
  257MPD2    C3 3893   0.932   1.996  13.382  0.3919  0.1687 -0.1124
  257MPD2    C4 3894   0.846   1.995  13.487  0.2421  0.3012  0.1505
  257MPD2    C5 3895   0.722   2.055  13.475 -0.6306 -0.9601 -0.3831
  257MPD2     H 3896   0.964   2.060  13.184  0.0778 -0.1088 -0.0990
  257MPD2    H1 3897   0.869   1.945  13.581  2.6021  0.8419 -0.1472
  257MPD2    H2 3898   0.582   2.160  13.356  1.0478  0.7814 -0.4059
  257MPD2    H3 3899   0.657   2.066  13.561 -0.3529  0.3544 -0.3462
  257MPD2     N 3900   1.064   1.941  13.389  0.1874 -0.3811  0.5598
  257MPD2    H5 3901   1.109   1.933  13.298 -0.8637 -0.2326  0.0233
  257MPD2    N1 3902   0.719   2.154  13.122  0.5407 -0.1848  0.4527
  257MPD2    H7 3903   0.779   2.144  13.041  0.4935  0.9021  0.2750
  258TMC3    C1 3904   1.248   1.830  13.510  0.0082  0.3751 -0.0277
  258TMC3    C2 3905   1.275   1.760  13.395  0.0540 -1.0149  0.1446
  258TMC3    C3 3906   1.382   1.671  13.405  0.6812  0.0370 -0.0115
  258TMC3    C4 3907   1.305   1.803  13.632  0.5574  0.0914 -0.3332
  258TMC3    C5 3908   1.405   1.710  13.639 -0.4190  0.2857  0.1710
  258TMC3    C6 3909   1.441   1.640  13.523  0.2484  0.5607 -0.4328
  258TMC3     C 3910   1.129   1.922  13.506 -0.2785  0.6091  0.0768
  258TMC3     O 3911   1.106   1.972  13.617 -0.4138  0.3430 -0.0382
  258TMC3     H 3912   1.205   1.761  13.313  0.8224  1.8868 -0.4797
  258TMC3    H1 3913   1.273   1.852  13.724  1.8723  0.3868 -0.0431
  258TMC3    H2 3914   1.499   1.551  13.546 -2.4255 -0.2891  3.0510
  258TMC3    C7 3915   1.436   1.648  13.769  0.5645  0.4709 -0.2901
  258TMC3    C8 3916   1.421   1.598  13.280  0.4744  0.2416 -0.3357
  258TMC3    O1 3917   1.345   1.655  13.852  0.1981  0.4805  0.6746
  258TMC3    O2 3918   1.360   1.633  13.178  0.7312  0.3451 -0.3030
  259MPD2     C 3919   0.009   4.563   0.984  0.9985  0.5840  0.6298
  259MPD2    C1 3920   0.007   4.426   0.977 -0.0067  0.4302  0.0415
  259MPD2    C2 3921   0.066   4.367   0.871  0.2423  0.5220 -0.4741
  259MPD2    C3 3922   0.125   4.451   0.774 -0.1972  0.6102  0.9417
  259MPD2    C4 3923   0.134   4.586   0.790  0.5408  0.0682  0.2557
  259MPD2    C5 3924   0.072   4.636   0.897 -0.2529  0.0350 -0.1127
  259MPD2     H 3925   0.057   4.266   0.832 -4.0327  1.0908 -0.9119
  259MPD2    H1 3926   0.191   4.661   0.737 -1.7856  1.2925 -0.4936
  259MPD2    H2 3927   4.679   4.613   1.065 -0.8584  1.0624 -0.8575
  259MPD2    H3 3928   0.075   0.019   0.919  1.1353 -0.1616  0.6887
  259MPD2     N 3929   0.185   4.395   0.655 -0.7631  0.4839  0.3056
  259MPD2    H5 3930   0.195   4.294   0.653 -2.7468  0.3440 -1.8463
  259MPD2    N1 3931   4.645   4.365   1.069 -0.2312 -0.3743  0.0797
  259MPD2    H7 3932   4.586   4.427   1.123  2.5050  0.4971  2.0333
  260TMC3    C1 3933   0.302   4.390   0.454  0.1432  0.1869  0.4618
  260TMC3    C2 3934   0.364   4.277   0.497 -0.0858 -0.8243 -0.1492
  260TMC3    C3 3935   0.384   4.179   0.411  0.2653  0.4917  0.4000
  260TMC3    C4 3936   0.251   4.407   0.329 -0.6632 -0.7517  0.1357
  260TMC3    C5 3937   0.277   4.301   0.246 -0.0840  0.2481  0.2184
  260TMC3    C6 3938   0.341   4.187   0.286  0.1027 -0.0625  0.3842
  260TMC3     C 3939   0.226   4.469   0.545  0.9002 -0.4860  0.1399
  260TMC3     O 3940   0.196   4.582   0.512  0.4933 -0.8841  0.0333
  260TMC3     H 3941   0.397   4.277   0.600 -1.6582  1.2270  0.3783
  260TMC3    H1 3942   0.205   4.499   0.294  0.2081 -0.8087 -1.1659
  260TMC3    H2 3943   0.381   4.113   0.218  0.6951 -0.1762  0.8551
  260TMC3    C7 3944   0.252   4.311   0.100  0.0070  0.0818 -0.2452
  260TMC3    C8 3945   0.495   4.086   0.443 -0.4177  0.2057 -0.3300
  260TMC3    O1 3946   0.279   4.419   0.053  0.0428 -0.0900 -0.7885
  260TMC3    O2 3947   0.566   4.130   0.532 -0.3172  0.3012 -0.4286
  261MPD2     C 3948   1.564   1.900  12.657 -0.2174 -0.2485 -1.0286
  261MPD2    C1 3949   1.700   1.894  12.642 -0.0862  0.1745 -0.0382
  261MPD2    C2 3950   1.766   1.969  12.547 -0.4955 -0.3962 -0.1969
  261MPD2    C3 3951   1.684   2.029  12.448  0.1852 -0.1046 -0.3242
  261MPD2    C4 3952   1.548   2.027  12.460  0.6569  0.3650  0.7241
  261MPD2    C5 3953   1.490   1.966  12.560 -0.3897 -0.9933  0.5923
  261MPD2     H 3954   1.873   1.984  12.554 -0.4519 -0.9136  0.2521
  261MPD2    H1 3955   1.477   2.074  12.393 -0.1141  0.7559  1.8052
  261MPD2    H2 3956   1.499   1.857  12.733  0.7555 -0.0986 -0.1135
  261MPD2    H3 3957   1.382   1.970  12.570 -0.2286 -0.0774  2.0841
  261MPD2     N 3958   1.745   2.118  12.351 -0.7735 -0.3587  0.0095
  261MPD2    H5 3959   1.845   2.102  12.347 -0.4573  1.7069 -0.4077
  261MPD2    N1 3960   1.787   1.820  12.732 -0.3338 -0.1161 -0.5636
  261MPD2    H7 3961   1.888   1.830  12.729 -0.2344 -1.3243 -1.1142
  262TMC3    C1 3962   1.756   2.250  12.167 -0.5598  0.1222  0.5144
  262TMC3    C2 3963   1.718   2.373  12.125  0.3002 -0.2298 -0.1409
  262TMC3    C3 3964   1.759   2.419  12.000  0.5568 -0.3809  0.3370
  262TMC3    C4 3965   1.829   2.179  12.082 -0.5526 -0.0964 -0.6264
  262TMC3    C5 3966   1.867   2.222  11.956  0.8185  0.2932 -0.0317
  262TMC3    C6 3967   1.827   2.342  11.913 -0.4396  0.9435  0.6844
  262TMC3     C 3968   1.667   2.176  12.256 -0.3712  0.0382  0.3264
  262TMC3     O 3969   1.562   2.234  12.263  0.1426  0.1568  0.1415
  262TMC3     H 3970   1.669   2.440  12.195  0.7895 -1.3961  1.3029
  262TMC3    H1 3971   1.840   2.074  12.104  2.3737  0.4795  0.5964
  262TMC3    H2 3972   1.829   2.381  11.812  2.3048 -0.1831  0.2992
  262TMC3    C7 3973   1.944   2.138  11.875 -0.2115  0.3635  0.0482
  262TMC3    C8 3974   1.713   2.548  11.948  0.2436 -0.2293  0.0677
  262TMC3    O1 3975   1.982   2.037  11.936 -0.1864  0.2672 -0.3569
  262TMC3    O2 3976   1.782   2.599  11.861  0.3435  0.0601 -0.2815
  263MPD2     C 3977   2.893   0.985  11.247 -0.1270  0.2041  0.7076
  263MPD2    C1 3978   2.988   1.078  11.224 -0.1150  0.7164  0.2317
  263MPD2    C2 3979   2.996   1.114  11.092  0.0863  0.1749 -0.9502
  263MPD2    C3 3980   2.916   1.060  10.991  0.6634  0.1697 -0.7344
  263MPD2    C4 3981   2.828   0.959  11.010  0.2778  0.2673 -0.5214
  263MPD2    C5 3982   2.822   0.924  11.147  0.1848 -0.1761  0.7580
  263MPD2     H 3983   3.073   1.179  11.052  2.3106 -0.8635  1.6578
  263MPD2    H1 3984   2.769   0.909  10.935  0.0241  0.1221 -0.2242
  263MPD2    H2 3985   2.870   0.954  11.348 -1.2249  0.5612  0.5649
  263MPD2    H3 3986   2.755   0.844  11.173  0.7929 -0.9077  0.0538
  263MPD2     N 3987   2.932   1.134  10.867 -0.5263 -0.3063 -0.3447
  263MPD2    H5 3988   2.969   1.227  10.876 -0.6532 -0.4444  1.6918
  263MPD2    N1 3989   3.075   1.131  11.325  0.2674 -0.1557  0.2027
  263MPD2    H7 3990   3.047   1.113  11.421 -1.1223 -2.2460 -0.5895
  264TMC3    C1 3991   2.965   1.170  10.637  0.4789  0.4610  0.6013
  264TMC3    C2 3992   2.946   1.308  10.639  0.8373  0.4040  0.4926
  264TMC3    C3 3993   2.984   1.380  10.532 -0.3121  0.9386  0.7276
  264TMC3    C4 3994   3.031   1.108  10.535  0.1179 -0.1986  0.3478
  264TMC3    C5 3995   3.071   1.186  10.428  0.1054  0.3937 -0.6571
  264TMC3    C6 3996   3.043   1.325  10.426 -0.1686  0.2088 -0.4097
  264TMC3     C 3997   2.916   1.083  10.746 -0.3618  0.2515  0.4997
  264TMC3     O 3998   2.913   0.964  10.718  0.3163  0.3381 -0.0392
  264TMC3     H 3999   2.898   1.360  10.720 -0.7136  0.3441 -0.3890
  264TMC3    H1 4000   3.061   1.005  10.547 -0.1995 -0.1099  1.8320
  264TMC3    H2 4001   3.081   1.382  10.342 -0.7779  0.8727 -0.2403
  264TMC3    C7 4002   3.207   1.148  10.386 -0.6806  0.8094  0.3369
  264TMC3    C8 4003   3.056   1.495  10.581 -0.1995 -0.2672 -0.2728
  264TMC3    O1 4004   3.223   1.029  10.357 -0.6995  0.1868 -0.0096
  264TMC3    O2 4005   3.175   1.520  10.543 -0.2630  0.1555 -0.6483
  265MPD2     C 4006   4.522   2.186  15.365 -0.5275  0.6172 -0.1889
  265MPD2    C1 4007   4.605   2.279  15.423  0.5633 -0.0858 -0.0505
  265MPD2    C2 4008   0.004   2.305  15.356  0.5636  0.7134 -0.0842
  265MPD2    C3 4009   0.057   2.216  15.267 -0.4863 -0.0430 -0.2109
  265MPD2    C4 4010   4.692   2.131  15.202 -0.4422 -0.1376  0.0373
  265MPD2    C5 4011   4.565   2.116  15.257 -0.1981 -0.0421 -0.3286
  265MPD2     H 4012   0.072   2.384  15.385  1.1541  0.9082 -1.9943
  265MPD2    H1 4013   4.713   2.072  15.114 -2.4725 -1.2560  0.2956
  265MPD2    H2 4014   4.421   2.178  15.404  0.3401  0.6398  2.0153
  265MPD2    H3 4015   4.503   2.047  15.201 -1.4386 -0.0503  1.0534
  265MPD2     N 4016   0.191   2.211  15.226  0.0295  0.4523  0.3152
  265MPD2    H5 4017   0.214   2.136  15.162 -1.8600 -0.6549  0.9164
  265MPD2    N1 4018   4.566   2.368  15.528 -0.4421  0.8386  0.2251
  265MPD2    H7 4019   4.633   2.441  15.549  0.6372 -0.4421  1.2141
  266TMC3    C1 4020   4.430   2.464  15.693 -0.5230  0.0865 -0.4992
  266TMC3    C2 4021   4.372   2.427  15.815 -0.0112  0.3787  0.8330
  266TMC3    C3 4022   4.374   2.527  15.915 -0.4856 -0.5682 -0.1233
  266TMC3    C4 4023   4.493   2.584  15.674  0.7340  0.6955 -0.5246
  266TMC3    C5 4024   4.501   2.672  15.783 -0.2794 -0.4419  0.2308
  266TMC3    C6 4025   4.444   2.641  15.903 -0.3658 -0.1675  0.1225
  266TMC3     C 4026   4.448   2.354  15.604 -0.0649  0.5390  0.6178
  266TMC3     O 4027   4.369   2.265  15.621 -0.6189  0.0089 -0.5522
  266TMC3     H 4028   4.303   2.344  15.824  0.5334 -0.0651  0.8499
  266TMC3    H1 4029   4.541   2.614  15.582 -3.3079  2.0593 -2.2107
  266TMC3    H2 4030   4.430   2.715  15.981 -0.0207 -1.8481  1.7726
  266TMC3    C7 4031   4.572   2.794  15.760 -0.0795  0.3048  0.2325
  266TMC3    C8 4032   4.340   2.479  16.049  1.4607  0.7849 -0.0376
  266TMC3    O1 4033   4.582   2.845  15.648  1.0863 -0.0775  0.7529
  266TMC3    O2 4034   4.317   2.359  16.057  0.1187 -0.1226 -0.3555
  267MPD2     C 4035   1.997   4.052   0.350 -0.3111  0.7837  0.2947
  267MPD2    C1 4036   2.097   4.092   0.270 -0.7037  0.1804 -0.0457
  267MPD2    C2 4037   2.071   4.113   0.135 -0.2019  0.5793  0.0407
  267MPD2    C3 4038   1.944   4.105   0.080 -0.1209 -0.6362  0.5467
  267MPD2    C4 4039   1.844   4.053   0.163  0.0187 -0.3252 -0.4869
  267MPD2    C5 4040   1.869   4.039   0.299  0.3035 -0.3251 -0.0045
  267MPD2     H 4041   2.150   4.141   0.066  0.5641 -3.3078 -0.6861
  267MPD2    H1 4042   1.752   4.016   0.121 -0.1156 -2.1061  1.3840
  267MPD2    H2 4043   2.013   4.020   0.452  2.6683 -0.3481 -0.5381
  267MPD2    H3 4044   1.793   3.992   0.360  1.0332 -0.1785  1.0195
  267MPD2     N 4045   1.908   4.132  17.641  0.3862  0.3697 -0.3707
  267MPD2    H5 4046   1.812   4.112  17.614  0.1422 -0.1184  0.8141
  267MPD2    N1 4047   2.224   4.099   0.322  0.0603 -0.1321 -0.1396
  267MPD2    H7 4048   2.227   4.080   0.422  2.0693  1.7027  0.1573
  268TMC3    C1 4049   2.453   4.129   0.342  0.0030  0.2010 -0.2489
  268TMC3    C2 4050   2.548   4.219   0.326 -0.9213  0.7285 -0.2673
  268TMC3    C3 4051   2.662   4.182   0.392  0.2718  0.1279 -0.7324
  268TMC3    C4 4052   2.463   4.006   0.402  0.2180  0.0700 -0.8063
  268TMC3    C5 4053   2.580   3.979   0.464  0.3792 -0.3508 -0.5687
  268TMC3    C6 4054   2.683   4.066   0.452 -0.4093  1.1142 -0.6604
  268TMC3     C 4055   2.341   4.146   0.260 -0.0008  0.0936 -0.3672
  268TMC3     O 4056   2.364   4.215   0.163 -0.0100  0.2243 -1.0140
  268TMC3     H 4057   2.533   4.320   0.291  2.6083  0.9321 -1.2089
  268TMC3    H1 4058   2.389   3.927   0.388 -1.6626  1.6099  0.4867
  268TMC3    H2 4059   2.780   4.029   0.485 -0.0237  2.7497  0.0020
  268TMC3    C7 4060   2.602   3.852   0.524  0.1305  0.9413 -0.3842
  268TMC3    C8 4061   2.785   4.258   0.362  0.4275 -0.1811 -0.0457
  268TMC3    O1 4062   2.678   3.840   0.620  0.0812 -0.3690  0.2706
  268TMC3    O2 4063   2.872   4.248   0.444 -0.0832 -0.2930  0.3462
  269MPD2     C 4064   2.485   2.636  15.591 -0.3824  0.6859 -0.5466
  269MPD2    C1 4065   2.366   2.690  15.638  0.3036  0.0312  0.2244
  269MPD2    C2 4066   2.342   2.824  15.610  0.1815  0.2126  0.3320
  269MPD2    C3 4067   2.422   2.895  15.523 -0.1822 -0.0047  0.5274
  269MPD2    C4 4068   2.536   2.834  15.476 -0.2291  0.2966  0.9548
  269MPD2    C5 4069   2.570   2.708  15.509 -0.4460 -0.0366 -1.0128
  269MPD2     H 4070   2.250   2.868  15.647  0.7357  1.6968 -0.0603
  269MPD2    H1 4071   2.604   2.878  15.405 -1.0250  1.9705  1.2384
  269MPD2    H2 4072   2.519   2.535  15.606 -0.8738  0.3498 -1.7336
  269MPD2    H3 4073   2.657   2.668  15.458  0.7924  1.3553 -0.0028
  269MPD2     N 4074   2.389   3.026  15.496 -0.0969  0.6315  0.2785
  269MPD2    H5 4075   2.315   3.062  15.555  1.2816 -0.2605  2.5504
  269MPD2    N1 4076   2.292   2.610  15.733  0.5169 -0.2272  0.7534
  269MPD2    H7 4077   2.335   2.519  15.746  3.1435  1.6496  5.0785
  270TMC3    C1 4078   2.111   2.544  15.869 -0.5223 -0.4535 -0.3281
  270TMC3    C2 4079   1.984   2.543  15.830  0.4351  0.4281  0.5687
  270TMC3    C3 4080   1.927   2.417  15.816 -0.6407 -0.1281 -0.3120
  270TMC3    C4 4081   2.184   2.433  15.894 -0.0201 -0.0043 -0.1652
  270TMC3    C5 4082   2.123   2.309  15.889  0.1868 -0.5117 -0.1427
  270TMC3    C6 4083   1.994   2.301  15.848 -0.0417  0.0305  0.4784
  270TMC3     C 4084   2.181   2.655  15.807 -0.1152  0.0570 -0.1380
  270TMC3     O 4085   2.120   2.757  15.790  0.0902  0.1952 -0.2710
  270TMC3     H 4086   1.923   2.629  15.805  0.7034  0.1034 -1.1736
  270TMC3    H1 4087   2.291   2.437  15.916 -0.8636  0.5679  3.8106
  270TMC3    H2 4088   1.966   2.211  15.795  1.7490 -0.2670  0.0256
  270TMC3    C7 4089   2.211   2.195  15.859  0.3008 -0.6296 -0.5008
  270TMC3    C8 4090   1.838   2.416  15.698  0.2865 -0.5323 -0.7283
  270TMC3    O1 4091   2.326   2.215  15.832  0.0551  0.5171  0.0141
  270TMC3    O2 4092   1.728   2.461  15.706 -0.1901 -0.3445  0.3488
  271MPD2     C 4093   1.624   2.355  13.897  0.0032 -0.2912  0.1273
  271MPD2    C1 4094   1.586   2.379  14.024  0.0598  0.4855 -0.6538
  271MPD2    C2 4095   1.481   2.468  14.050 -0.5172 -0.1400 -0.1121
  271MPD2    C3 4096   1.428   2.550  13.950  0.2444 -0.8931  0.0074
  271MPD2    C4 4097   1.484   2.531  13.826 -0.7180 -0.2233  0.7335
  271MPD2    C5 4098   1.573   2.431  13.795 -0.4462  0.0975  0.1215
  271MPD2     H 4099   1.457   2.460  14.155 -1.9474 -0.3327 -0.4570
  271MPD2    H1 4100   1.442   2.585  13.742  1.2357 -1.3367 -0.9506
  271MPD2    H2 4101   1.700   2.283  13.869  2.3581  1.9610  0.7058
  271MPD2    H3 4102   1.606   2.416  13.693 -2.0418 -1.9806 -0.0836
  271MPD2     N 4103   1.328   2.642  13.970  0.4332  0.0019 -0.7156
  271MPD2    H5 4104   1.298   2.683  13.882  0.8720  0.5298 -0.6224
  271MPD2    N1 4105   1.640   2.313  14.137 -0.1836 -0.0279  0.7543
  271MPD2    H7 4106   1.639   2.365  14.225 -1.5666 -0.5747  1.0658
  272TMC3    C1 4107   1.786   2.170  14.256 -0.6542  0.3272  0.1038
  272TMC3    C2 4108   1.914   2.118  14.255 -0.0485 -0.3133  0.1564
  272TMC3    C3 4109   1.976   2.105  14.381  0.4497  0.5934  0.1018
  272TMC3    C4 4110   1.722   2.208  14.373 -0.9664  0.5773 -0.4626
  272TMC3    C5 4111   1.791   2.193  14.486  0.3858 -0.4908  0.5584
  272TMC3    C6 4112   1.913   2.135  14.499 -0.5751  0.0073 -0.0268
  272TMC3     C 4113   1.734   2.211  14.132  0.3144 -0.7520  0.2131
  272TMC3     O 4114   1.792   2.155  14.040 -0.3046 -0.4373  0.1609
  272TMC3     H 4115   1.973   2.112  14.164 -0.8663 -1.1477 -0.3132
  272TMC3    H1 4116   1.622   2.250  14.378 -0.5856  1.2539  1.2864
  272TMC3    H2 4117   1.953   2.112  14.597 -0.5563 -3.5530 -0.8759
  272TMC3    C7 4118   1.721   2.239  14.609  0.1622  1.3033  0.4417
  272TMC3    C8 4119   2.092   2.024  14.371 -0.2267 -0.2025  0.2176
  272TMC3    O1 4120   1.600   2.251  14.586 -0.1786  0.2479 -0.5192
  272TMC3    O2 4121   2.151   2.023  14.259  0.5889  0.0875  0.1835
  273MPD2     C 4122   3.656   0.009  12.273  0.3214 -0.8021 -0.1739
  273MPD2    C1 4123   3.749   0.090  12.225 -0.9817 -0.5503 -0.2055
  273MPD2    C2 4124   3.740   0.137  12.097  0.2340  0.3238  0.3220
  273MPD2    C3 4125   3.637   0.104  12.015 -0.0884  0.1197  0.1133
  273MPD2    C4 4126   3.531   0.030  12.065  0.1684  0.2570  0.4259
  273MPD2    C5 4127   3.543   4.704  12.195  0.3761  0.1519 -0.5570
  273MPD2     H 4128   3.822   0.194  12.055  0.6547  0.4665  1.3370
  273MPD2    H1 4129   3.449   4.722  12.001 -0.5815 -0.8268  1.8983
  273MPD2    H2 4130   3.659   4.689  12.372  0.4753  1.9371  0.9810
  273MPD2    H3 4131   3.471   4.637  12.239 -0.6204  0.5555 -1.5473
  273MPD2     N 4132   3.623   0.136  11.872 -0.4013 -0.1247 -0.5282
  273MPD2    H5 4133   3.541   0.103  11.822 -0.5800  0.4886 -0.6420
  273MPD2    N1 4134   3.852   0.120  12.316 -0.2325  0.0558  0.3923
  273MPD2    H7 4135   3.841   0.083  12.410  1.0269  2.6422  1.5702
  274TMC3    C1 4136   3.668   0.243  11.667 -0.0975 -0.7759  0.3970
  274TMC3    C2 4137   3.551   0.191  11.614  0.2389 -0.5942 -0.5068
  274TMC3    C3 4138   3.483   0.261  11.512  0.1383  0.3994 -0.1803
  274TMC3    C4 4139   3.711   0.368  11.621  0.5497  0.1973  0.1188
  274TMC3    C5 4140   3.643   0.434  11.529  0.1069  0.0280  0.5272
  274TMC3    C6 4141   3.534   0.381  11.464 -0.2796 -0.5118 -0.2476
  274TMC3     C 4142   3.702   0.224  11.803 -0.4911 -0.3381  1.4254
  274TMC3     O 4143   3.792   0.287  11.855 -0.0568 -0.2950  0.0500
  274TMC3     H 4144   3.500   0.106  11.658  1.0463 -0.7416  0.1516
  274TMC3    H1 4145   3.811   0.398  11.653  0.3926  0.4863  0.3347
  274TMC3    H2 4146   3.475   0.450  11.404  0.3494 -1.5632 -2.0808
  274TMC3    C7 4147   3.670   0.578  11.530 -0.4697  0.3769 -0.0130
  274TMC3    C8 4148   3.347   0.231  11.468 -0.1834  0.1229 -0.3243
  274TMC3    O1 4149   3.617   0.646  11.444 -0.0880 -0.1710  0.2834
  274TMC3    O2 4150   3.300   0.317  11.394  0.0128  0.1063  0.0436
  275MPD2     C 4151   3.482   2.877  14.414  0.1543 -0.0024  0.0728
  275MPD2    C1 4152   3.376   2.963  14.386 -0.2238  0.3634 -1.0945
  275MPD2    C2 4153   3.251   2.915  14.409  0.3098 -0.5866 -0.2581
  275MPD2    C3 4154   3.224   2.784  14.458 -0.8421 -0.1970 -0.3889
  275MPD2    C4 4155   3.334   2.700  14.477 -0.2095 -0.0322  0.3405
  275MPD2    C5 4156   3.459   2.749  14.456 -0.7869 -0.0817 -0.1152
  275MPD2     H 4157   3.179   2.994  14.392  1.2030 -0.1448 -1.9138
  275MPD2    H1 4158   3.316   2.595  14.497 -0.5919  0.1944  1.1967
  275MPD2    H2 4159   3.584   2.913  14.409  0.3056  0.1639  4.1364
  275MPD2    H3 4160   3.540   2.677  14.468 -1.3168 -0.8844 -1.3897
  275MPD2     N 4161   3.094   2.738  14.481  0.7354 -0.7719  0.3476
  275MPD2    H5 4162   3.076   2.641  14.502 -0.9989 -0.3427  0.8427
  275MPD2    N1 4163   3.389   3.099  14.345  0.0099 -0.4150 -0.2680
  275MPD2    H7 4164   3.306   3.157  14.350 -0.5076 -1.2435  0.6538
  276TMC3    C1 4165   3.489   3.303  14.301  0.2061  0.0020  0.0198
  276TMC3    C2 4166   3.356   3.330  14.303 -0.3467 -0.0097  0.5270
  276TMC3    C3 4167   3.309   3.405  14.406 -0.6979  0.4059  0.1515
  276TMC3    C4 4168   3.568   3.363  14.397  0.8280 -0.3163 -0.1199
  276TMC3    C5 4169   3.522   3.438  14.499  0.8174  0.5705  0.3643
  276TMC3    C6 4170   3.388   3.472  14.501 -0.1593  0.6586 -0.0791
  276TMC3     C 4171   3.506   3.159  14.301  0.0811 -0.7810  0.2545
  276TMC3     O 4172   3.616   3.106  14.295  0.2625 -0.3078 -0.5853
  276TMC3     H 4173   3.289   3.285  14.230 -1.1792  1.2119  0.5330
  276TMC3    H1 4174   3.670   3.327  14.391 -0.0663 -2.9743  0.5283
  276TMC3    H2 4175   3.346   3.530  14.582  0.2973  0.7025  0.1235
  276TMC3    C7 4176   3.599   3.501  14.598  0.0354  0.0305  0.0442
  276TMC3    C8 4177   3.185   3.350  14.465  0.7360  0.1133  0.4301
  276TMC3    O1 4178   3.550   3.553  14.699  0.2736 -0.0399 -0.4739
  276TMC3    O2 4179   3.168   3.238  14.424  0.1923  0.0947 -0.1586
  277MPD2     C 4180   0.616   2.264  13.835  0.0659  0.1197 -0.0174
  277MPD2    C1 4181   0.510   2.205  13.758  0.5900  0.4405  0.4917
  277MPD2    C2 4182   0.489   2.069  13.779  0.4725 -0.0126  0.0389
  277MPD2    C3 4183   0.555   1.997  13.887  0.0706  0.1508  0.1376
  277MPD2    C4 4184   0.651   2.064  13.964  0.2502  0.1648  0.0223
  277MPD2    C5 4185   0.671   2.206  13.941  0.9746  0.1897  0.0636
  277MPD2     H 4186   0.413   2.010  13.728 -0.3592  3.3264 -2.5356
  277MPD2    H1 4187   0.703   2.020  14.048 -1.0218 -0.0402  0.7011
  277MPD2    H2 4188   0.646   2.368  13.823  2.2255 -0.4055  0.8746
  277MPD2    H3 4189   0.744   2.256  14.004  3.1012 -1.8746 -0.7471
  277MPD2     N 4190   0.497   1.881  13.934 -0.3010  0.1356  0.7969
  277MPD2    H5 4191   0.406   1.863  13.893  0.5379  2.0735 -1.8896
  277MPD2    N1 4192   0.448   2.281  13.653  0.2091 -0.0370  0.9241
  277MPD2    H7 4193   0.472   2.379  13.644  0.3186 -0.1883 -0.5241
  278TMC3    C1 4194   0.409   1.732  14.083 -0.6711  0.1816  0.0378
  278TMC3    C2 4195   0.401   1.596  14.074  0.2130  0.7184  0.6239
  278TMC3    C3 4196   0.279   1.531  14.087  0.4639  0.0702 -0.2710
  278TMC3    C4 4197   0.294   1.811  14.085  0.5495 -0.1448  0.1384
  278TMC3    C5 4198   0.176   1.745  14.092 -0.1163 -0.6519  0.0256
  278TMC3    C6 4199   0.162   1.605  14.088 -0.0027 -0.2773 -0.1132
  278TMC3     C 4200   0.532   1.796  14.031  0.1739 -0.4889 -0.3508
  278TMC3     O 4201   0.640   1.768  14.084 -0.0812 -0.0862  0.1000
  278TMC3     H 4202   0.492   1.537  14.068 -0.4158 -0.1209 -0.6520
  278TMC3    H1 4203   0.300   1.917  14.106  1.1368  0.1655 -1.5718
  278TMC3    H2 4204   0.073   1.563  14.134 -0.5688  0.7332 -0.2953
  278TMC3    C7 4205   0.068   1.823  14.151 -0.8389  0.2901  0.1854
  278TMC3    C8 4206   0.272   1.400  14.031  0.0680 -0.1235 -0.0247
  278TMC3    O1 4207   0.091   1.943  14.179  0.0970  0.4094 -0.3403
  278TMC3    O2 4208   0.381   1.341  14.036 -0.5510  0.6749 -0.2062
  279MPD2     C 4209   3.894   2.537   0.388  0.2653 -0.4470  0.0388
  279MPD2    C1 4210   3.779   2.611   0.376  0.0591  0.6351  0.2942
  279MPD2    C2 4211   3.765   2.686   0.259 -0.0115  0.1957 -0.5775
  279MPD2    C3 4212   3.853   2.673   0.155  0.4368 -0.0224  0.6573
  279MPD2    C4 4213   3.948   2.578   0.170 -0.0971  0.3312  0.1833
  279MPD2    C5 4214   3.975   2.506   0.281 -0.9332 -0.1114 -0.3559
  279MPD2     H 4215   3.682   2.755   0.247  1.9466  2.3529 -1.7631
  279MPD2    H1 4216   4.027   2.566   0.096 -0.7538  2.7254 -0.9045
  279MPD2    H2 4217   3.911   2.484   0.480 -0.1970 -2.8136 -1.2305
  279MPD2    H3 4218   4.062   2.446   0.301  1.1329  2.5129 -1.5065
  279MPD2     N 4219   3.859   2.752   0.040  0.1703  0.4013 -0.0725
  279MPD2    H5 4220   3.928   2.726  17.663 -0.4059 -1.5412  0.0949
  279MPD2    N1 4221   3.694   2.624   0.492  0.0408  0.1442 -0.0894
  279MPD2    H7 4222   3.745   2.597   0.576 -1.5829  1.6569  1.4080
  280TMC3    C1 4223   3.522   2.729   0.616  0.6684  0.1898  1.1091
  280TMC3    C2 4224   3.612   2.747   0.724 -0.0255 -0.0331 -0.5810
  280TMC3    C3 4225   3.555   2.795   0.839 -0.5094 -0.0914 -0.4227
  280TMC3    C4 4226   3.401   2.792   0.618  0.0579  0.1336  0.4047
  280TMC3    C5 4227   3.352   2.845   0.732 -0.0140 -0.0594  0.2320
  280TMC3    C6 4228   3.430   2.840   0.845  0.1161 -1.2324  0.0729
  280TMC3     C 4229   3.572   2.680   0.490 -0.2101  0.4087  0.1983
  280TMC3     O 4230   3.499   2.695   0.388  0.6088  0.3795  0.0924
  280TMC3     H 4231   3.717   2.724   0.716  0.1727  1.1623 -1.4440
  280TMC3    H1 4232   3.348   2.793   0.524  0.4723 -0.8553  0.1609
  280TMC3    H2 4233   3.389   2.869   0.941  0.6479  0.5137 -0.2305
  280TMC3    C7 4234   3.224   2.900   0.746 -0.4724  0.3443  0.2452
  280TMC3    C8 4235   3.621   2.774   0.967 -0.0568  0.0044 -0.0946
  280TMC3    O1 4236   3.209   2.971   0.843 -0.3329  0.0279  0.2374
  280TMC3    O2 4237   3.574   2.828   1.070 -0.2245 -0.2225 -0.1647
  281TMC3    C1 4238   2.879   2.817  13.014 -0.4298 -0.8927  0.2192
  281TMC3    C2 4239   2.803   2.889  12.926  0.4168 -0.9718  0.6632
  281TMC3    C3 4240   2.756   2.835  12.811  0.3567  0.4036  0.1128
  281TMC3    C4 4241   2.915   2.691  12.988  0.5945  0.0536  0.4142
  281TMC3    C5 4242   2.881   2.635  12.867 -0.0670 -0.4748  0.1389
  281TMC3    C6 4243   2.809   2.710  12.773  0.1728 -0.7210 -0.0132
  281TMC3     C 4244   2.882   2.860  13.155 -0.9117  0.0512 -0.4910
  281TMC3     O 4245   2.776   2.885  13.215  0.3083  0.4770 -0.2725
  281TMC3     H 4246   2.770   2.988  12.956  0.7682 -0.3087 -1.1559
  281TMC3    H1 4247   2.955   2.631  13.069 -0.3100  1.2545  1.7715
  281TMC3    H2 4248   2.758   2.653  12.696  0.1964 -1.9409  0.8841
  281TMC3    C7 4249   2.930   2.501  12.822 -0.1001 -0.7746  0.8724
  281TMC3    C8 4250   2.611   2.850  12.807  0.3084  0.2591 -0.1355
  281TMC3    O1 4251   2.929   2.472  12.701 -0.5649 -0.3702  0.9591
  281TMC3    O2 4252   2.559   2.839  12.920 -0.4122 -0.1153 -0.1126
  282MPD2     C 4253   4.662   4.084  15.132 -0.6779  0.1321 -0.6630
  282MPD2    C1 4254   4.528   4.083  15.156 -0.1663  0.6125 -0.0265
  282MPD2    C2 4255   4.450   4.033  15.058  0.0473  0.4447 -0.5718
  282MPD2    C3 4256   4.489   3.991  14.930 -0.0135  0.3162  0.1795
  282MPD2    C4 4257   4.630   3.995  14.916  0.4046  0.0180 -0.6631
  282MPD2    C5 4258   4.710   4.046  15.009 -0.6474  0.2271  0.0540
  282MPD2     H 4259   4.345   4.047  15.084  0.3497  3.1081 -0.6930
  282MPD2    H1 4260   4.668   3.957  14.822 -1.5250 -2.2870 -0.5128
  282MPD2    H2 4261   0.019   4.122  15.195 -0.8111  1.1708 -1.1236
  282MPD2    H3 4262   0.095   4.048  15.002 -0.7030  1.1883 -0.4662
  282MPD2     N 4263   4.391   3.955  14.835  0.7248 -0.0689  0.0056
  282MPD2    H5 4264   4.293   3.970  14.860  1.2819  0.7477  1.6785
  282MPD2    N1 4265   4.471   4.144  15.271  0.9433 -0.4873 -0.1932
  282MPD2    H7 4266   4.373   4.120  15.286  1.1292 -1.2639 -0.2163
  283TMC3    C1 4267   4.465   4.248  15.478  0.4656  0.4163  0.6316
  283TMC3    C2 4268   4.480   4.363  15.546  0.3708  0.6152 -0.5007
  283TMC3    C3 4269   4.424   4.374  15.671 -0.2328  0.4552 -0.5945
  283TMC3    C4 4270   4.402   4.141  15.541 -0.4382  0.4173 -0.2609
  283TMC3    C5 4271   4.347   4.157  15.665  0.0351 -1.6771 -0.2554
  283TMC3    C6 4272   4.340   4.275  15.722 -0.4489  0.2520 -0.3328
  283TMC3     C 4273   4.533   4.231  15.355  0.5973  0.1877 -0.2780
  283TMC3     O 4274   4.643   4.288  15.343  0.5855 -0.2869  0.1530
  283TMC3     H 4275   4.528   4.448  15.499 -0.8344  2.3317  1.3705
  283TMC3    H1 4276   4.400   4.042  15.496  0.2421  0.1583  0.2716
  283TMC3    H2 4277   4.284   4.290  15.814  0.2867 -1.8284  0.4412
  283TMC3    C7 4278   4.278   4.037  15.718  0.0947  0.3035  0.5780
  283TMC3    C8 4279   4.420   4.499  15.743  0.0969 -0.8523 -0.1232
  283TMC3    O1 4280   4.245   3.946  15.640  0.2325  1.0731  0.4432
  283TMC3    O2 4281   4.398   4.495  15.865  0.3846  0.2647 -0.1001
  284MPD2     C 4282   2.596   2.566  11.529  0.8861  0.6457 -0.1227
  284MPD2    C1 4283   2.731   2.548  11.538 -0.1960 -0.6549 -0.0035
  284MPD2    C2 4284   2.768   2.459  11.636  0.0407  0.0496  0.0030
  284MPD2    C3 4285   2.680   2.407  11.732 -0.3827  0.2265  0.2250
  284MPD2    C4 4286   2.548   2.430  11.709 -0.0098  0.3420  0.7098
  284MPD2    C5 4287   2.502   2.511  11.608 -0.0814 -0.3221  1.1508
  284MPD2     H 4288   2.873   2.431  11.632 -0.4055 -1.6449  0.1322
  284MPD2    H1 4289   2.470   2.382  11.767 -0.4651 -1.5583 -1.4788
  284MPD2    H2 4290   2.546   2.629  11.457  0.1740 -0.1272 -0.3002
  284MPD2    H3 4291   2.397   2.531  11.598  0.2733 -0.4771 -2.7374
  284MPD2     N 4292   2.719   2.340  11.849 -0.1177 -0.1287  0.1390
  284MPD2    H5 4293   2.653   2.332  11.926 -1.2521 -0.9797 -0.9186
  284MPD2    N1 4294   2.827   2.610  11.462  0.0487  0.8135  0.1145
  284MPD2    H7 4295   2.925   2.587  11.476 -1.3680 -3.5642  2.6285
  285TMC3    C1 4296   2.938   2.766  11.335 -0.0087 -0.4580 -0.2375
  285TMC3    C2 4297   3.046   2.677  11.319 -0.3724  0.1816 -0.1349
  285TMC3    C3 4298   3.171   2.731  11.312  0.0668 -0.0475 -0.0836
  285TMC3    C4 4299   2.950   2.901  11.353  0.1914  0.1431 -1.0481
  285TMC3    C5 4300   3.078   2.950  11.368 -0.5532 -0.8212 -0.4368
  285TMC3    C6 4301   3.186   2.871  11.331  0.3653 -0.1609 -0.2715
  285TMC3     C 4302   2.810   2.699  11.366  0.3585 -0.2946  0.2071
  285TMC3     O 4303   2.705   2.763  11.348 -0.0630  0.4780 -0.1288
  285TMC3     H 4304   3.030   2.570  11.315  1.8256 -0.2014  1.6423
  285TMC3    H1 4305   2.858   2.952  11.379  0.4529  0.3239 -0.4628
  285TMC3    H2 4306   3.274   2.922  11.294  0.7551  1.0114  2.2970
  285TMC3    C7 4307   3.092   3.064  11.463 -0.6264 -0.3477  0.1901
  285TMC3    C8 4308   3.263   2.655  11.230  0.0399  0.1401 -0.9532
  285TMC3    O1 4309   2.986   3.110  11.502  0.2406 -0.5038  0.1503
  285TMC3    O2 4310   3.215   2.573  11.161 -0.3382 -0.5019  0.1640
  286MPD2     C 4311   3.307   1.499   1.779 -0.3878  0.1011  0.1286
  286MPD2    C1 4312   3.244   1.545   1.671  0.5101 -0.3250 -0.0826
  286MPD2    C2 4313   3.262   1.481   1.550 -0.4189 -0.0898  0.1596
  286MPD2    C3 4314   3.343   1.374   1.531 -0.0925  0.2173  0.0649
  286MPD2    C4 4315   3.411   1.332   1.642 -0.3030  0.6140 -0.3473
  286MPD2    C5 4316   3.400   1.399   1.758 -0.5011  0.3503  0.7427
  286MPD2     H 4317   3.200   1.513   1.467 -1.0139 -1.5035  0.0729
  286MPD2    H1 4318   3.474   1.244   1.635 -1.6469 -0.0541 -3.7033
  286MPD2    H2 4319   3.296   1.543   1.878 -0.8756  0.5979 -0.1472
  286MPD2    H3 4320   3.448   1.347   1.840 -2.5187 -0.6400  1.3023
  286MPD2     N 4321   3.354   1.295   1.421  0.7133 -0.4068  0.0030
  286MPD2    H5 4322   3.408   1.210   1.430  1.5091  0.0473 -0.5135
  286MPD2    N1 4323   3.164   1.660   1.672 -0.4154  0.5059 -0.1139
  286MPD2    H7 4324   3.148   1.697   1.579 -0.9393 -0.8446 -0.5636
  287TMC3    C1 4325   3.302   1.213   1.203 -0.5359  0.5079  0.5390
  287TMC3    C2 4326   3.228   1.243   1.089  0.0394  0.2815  0.5680
  287TMC3    C3 4327   3.249   1.161   0.983 -0.5135  0.8672  0.2720
  287TMC3    C4 4328   3.381   1.109   1.223  0.0228 -0.5122 -0.2577
  287TMC3    C5 4329   3.380   1.008   1.121 -0.4719 -0.5815 -0.2961
  287TMC3    C6 4330   3.322   1.040   1.004  0.4962  0.3005 -0.0933
  287TMC3     C 4331   3.286   1.312   1.304 -0.1456 -0.2880 -0.0665
  287TMC3     O 4332   3.232   1.412   1.268  1.1915  0.3011 -0.2201
  287TMC3     H 4333   3.175   1.337   1.076  0.3451  0.2449 -0.9786
  287TMC3    H1 4334   3.456   1.108   1.302 -1.0585 -0.9378  0.7744
  287TMC3    H2 4335   3.325   0.960   0.930 -1.5155  1.1184 -1.0737
  287TMC3    C7 4336   3.493   0.913   1.122  0.5518 -0.3822 -0.0446
  287TMC3    C8 4337   3.197   1.178   0.850  0.3235  0.8734  0.5236
  287TMC3    O1 4338   3.585   0.934   1.205  0.2728  0.3683  0.1319
  287TMC3    O2 4339   3.198   1.079   0.775 -0.0647 -0.3196  0.4506
  288TMC3    C1 4340   0.155   1.773  14.513  0.2684 -0.7154 -0.1648
  288TMC3    C2 4341   0.112   1.838  14.630 -0.0421  0.2244 -0.0203
  288TMC3    C3 4342   4.722   1.788  14.689 -0.6983 -0.6003  0.3931
  288TMC3    C4 4343   0.090   1.662  14.466 -0.3860  0.0997 -0.2912
  288TMC3    C5 4344   4.692   1.625  14.521  0.2272 -0.9306  0.1136
  288TMC3    C6 4345   4.643   1.688  14.631 -0.1329 -0.1555  0.2635
  288TMC3     C 4346   0.284   1.807  14.464 -0.5139  0.1260 -0.4414
  288TMC3     O 4347   0.344   1.711  14.421  0.4242  0.2696 -0.2378
  288TMC3     H 4348   0.173   1.909  14.684  1.2131 -0.1862 -0.8767
  288TMC3    H1 4349   0.127   1.625  14.372 -1.7052 -1.3154 -0.2448
  288TMC3    H2 4350   4.549   1.663  14.679 -1.5867  0.8422 -2.0506
  288TMC3    C7 4351   4.614   1.522  14.455 -0.5329 -0.5033  0.8558
  288TMC3    C8 4352   4.712   1.830  14.827  0.5874  0.0375  0.4911
  288TMC3    O1 4353   4.498   1.513  14.493 -0.6009  0.2779 -0.3545
  288TMC3    O2 4354   0.091   1.871  14.882  0.3162  0.4665 -0.4022
  289MPD2     C 4355   0.244   1.552  14.776  0.5497 -0.7135 -0.3610
  289MPD2    C1 4356   0.267   1.460  14.680 -0.0221  0.4076  0.4464
  289MPD2    C2 4357   0.167   1.373  14.649  0.6591  0.7100 -0.2759
  289MPD2    C3 4358   0.047   1.365  14.721 -0.0915 -0.0426  0.9298
  289MPD2    C4 4359   0.035   1.437  14.836 -0.1671 -0.3248  0.0787
  289MPD2    C5 4360   0.141   1.525  14.857 -0.7083 -0.7353  0.1328
  289MPD2     H 4361   0.180   1.305  14.565  0.9726 -1.1115  1.2343
  289MPD2    H1 4362   4.678   1.429  14.909  0.8635  0.3546  1.2877
  289MPD2    H2 4363   0.316   1.626  14.806 -0.8979  0.7331 -0.4713
  289MPD2    H3 4364   0.123   1.586  14.944  0.2729  0.3278 -0.4159
  289MPD2     N 4365   4.666   1.280  14.674 -0.6045 -0.4431  0.3656
  289MPD2    H5 4366   4.577   1.296  14.719 -1.5926  1.1328 -2.1642
  289MPD2    N1 4367   0.386   1.470  14.605  0.8094 -0.3924  0.0784
  289MPD2    H7 4368   0.454   1.538  14.638  1.1026  0.5253 -2.4166
  290TMC3    C1 4369   4.541   1.122  14.543  0.3093  0.0318  0.3913
  290TMC3    C2 4370   4.437   1.211  14.535  0.0483  0.5853 -0.5353
  290TMC3    C3 4371   4.335   1.188  14.444 -0.0424 -0.1027  0.1825
  290TMC3    C4 4372   4.540   1.015  14.458 -0.3338  0.0857  0.3471
  290TMC3    C5 4373   4.437   1.001  14.373  0.2149  0.9876 -0.1678
  290TMC3    C6 4374   4.328   1.081  14.364 -0.2520 -0.1875  0.9836
  290TMC3     C 4375   4.669   1.173  14.583  0.3931  0.3086 -0.9947
  290TMC3     O 4376   0.047   1.117  14.545  0.9114 -0.1314  0.7709
  290TMC3     H 4377   4.426   1.292  14.607  0.3141 -1.6312  1.9777
  290TMC3    H1 4378   4.624   0.948  14.443  1.0946  1.6157  1.5022
  290TMC3    H2 4379   4.265   1.080  14.276 -0.0530  0.9898  0.8287
  290TMC3    C7 4380   4.444   0.889  14.274 -0.1260  0.6364 -0.3495
  290TMC3    C8 4381   4.221   1.283  14.437 -0.3649  0.6038  0.3830
  290TMC3    O1 4382   4.385   0.907  14.171  0.7985 -0.2654 -0.3532
  290TMC3    O2 4383   4.115   1.228  14.410  0.3432  0.3518 -0.6421
  291MPD2     C 4384   3.579   1.228   0.231 -0.0277 -0.0184  0.6338
  291MPD2    C1 4385   3.666   1.127   0.273  0.2365 -0.0477  0.2792
  291MPD2    C2 4386   3.794   1.162   0.308 -0.3154 -0.4261 -0.3308
  291MPD2    C3 4387   3.827   1.295   0.324 -0.4775  0.0794  0.3123
  291MPD2    C4 4388   3.739   1.392   0.295 -0.0448  1.2130  0.2541
  291MPD2    C5 4389   3.615   1.364   0.248 -0.3672  0.0171  0.1355
  291MPD2     H 4390   3.864   1.085   0.336 -0.3863 -0.9713 -1.6542
  291MPD2    H1 4391   3.758   1.494   0.324  1.1460  1.9841 -3.3041
  291MPD2    H2 4392   3.479   1.202   0.197 -1.0140 -0.5395  3.9472
  291MPD2    H3 4393   3.552   1.448   0.225 -0.2903  0.5274  1.7891
  291MPD2     N 4394   3.955   1.343   0.358  0.5076  0.3430  0.2109
  291MPD2    H5 4395   3.959   1.443   0.375  2.1594  0.4141 -0.5442
  291MPD2    N1 4396   3.629   0.995   0.265  0.0043 -0.4679  0.0429
  291MPD2    H7 4397   3.701   0.931   0.296 -0.1506 -1.0350 -0.7625
  292TMC3    C1 4398   3.514   0.797   0.205  0.1467 -0.4371 -0.3815
  292TMC3    C2 4399   3.613   0.728   0.278 -0.6206 -0.5355  0.0669
  292TMC3    C3 4400   3.614   0.594   0.258 -0.0963  0.4793  0.0831
  292TMC3    C4 4401   3.424   0.734   0.124  0.1199 -0.9732  0.3008
  292TMC3    C5 4402   3.425   0.595   0.123  0.7385 -0.3601  0.1482
  292TMC3    C6 4403   3.515   0.526   0.196  0.0484  0.1063 -0.5629
  292TMC3     C 4404   3.507   0.943   0.218  0.3242  0.5484  0.4591
  292TMC3     O 4405   3.404   0.997   0.194 -0.4934  0.2066 -0.4654
  292TMC3     H 4406   3.675   0.766   0.359  1.7210 -0.0591 -1.9237
  292TMC3    H1 4407   3.346   0.802   0.092 -0.2840 -0.8632  1.5072
  292TMC3    H2 4408   3.497   0.419   0.200 -0.7792  0.1825 -2.2706
  292TMC3    C7 4409   3.363   0.522   0.013 -0.4842 -0.2438 -0.2744
  292TMC3    C8 4410   3.740   0.532   0.294  0.1305  0.3221  0.6908
  292TMC3    O1 4411   3.407   0.410  17.691 -0.0091 -0.2975  0.4131
  292TMC3    O2 4412   3.830   0.597   0.346 -0.2031  0.8134 -0.0383
  293MPD2     C 4413   1.152   2.228  12.626  0.8116  0.6634  0.0850
  293MPD2    C1 4414   1.054   2.209  12.720 -0.2196  0.0656 -0.1581
  293MPD2    C2 4415   1.076   2.245  12.852 -0.5031 -0.5842 -0.0648
  293MPD2    C3 4416   1.194   2.307  12.875 -0.2004  0.2471  0.0946
  293MPD2    C4 4417   1.297   2.325  12.781  0.3401  0.7137 -0.0780
  293MPD2    C5 4418   1.270   2.286  12.651  0.5296 -0.6241 -0.2751
  293MPD2     H 4419   1.010   2.216  12.932 -1.1285 -0.8210 -0.6625
  293MPD2    H1 4420   1.393   2.367  12.809 -0.1161  1.9926 -0.4409
  293MPD2    H2 4421   1.134   2.181  12.529 -0.3263 -0.5381  0.8727
  293MPD2    H3 4422   1.347   2.305  12.576  0.5025 -0.5403 -0.2817
  293MPD2     N 4423   1.221   2.342  13.009 -0.4050 -0.3421 -0.0518
  293MPD2    H5 4424   1.146   2.337  13.077 -0.1410 -1.8221  0.1192
  293MPD2    N1 4425   0.932   2.159  12.675 -0.9356  0.0715  0.3489
  293MPD2    H7 4426   0.926   2.147  12.575 -0.0380 -0.4822  0.3578
  294TMC3    C1 4427   0.746   2.019  12.675 -0.8253  0.6647 -0.3103
  294TMC3    C2 4428   0.659   1.942  12.740  0.1134  0.4775  0.9033
  294TMC3    C3 4429   0.581   1.854  12.670  0.1434 -0.6431  0.5728
  294TMC3    C4 4430   0.748   2.017  12.538  0.3687 -0.8186 -0.3622
  294TMC3    C5 4431   0.677   1.917  12.472 -0.2193 -0.0383  0.1505
  294TMC3    C6 4432   0.585   1.843  12.538 -0.0401  0.3728 -0.8613
  294TMC3     C 4433   0.840   2.095  12.754  0.6072  0.5095  0.9703
  294TMC3     O 4434   0.840   2.076  12.877  0.8593 -0.3615 -0.3193
  294TMC3     H 4435   0.653   1.953  12.848 -1.7710 -0.8584  0.9171
  294TMC3    H1 4436   0.822   2.080  12.490  0.2313 -0.4833 -0.1327
  294TMC3    H2 4437   0.516   1.784  12.479 -1.2773  1.5716 -0.6116
  294TMC3    C7 4438   0.751   1.853  12.363  0.0821 -0.5359  0.4109
  294TMC3    C8 4439   0.526   1.745  12.740  0.1853  0.1132 -0.2163
  294TMC3    O1 4440   0.755   1.730  12.383 -0.4737 -0.5520 -0.0041
  294TMC3    O2 4441   0.489   1.770  12.855  0.4220  0.1249 -0.2392
  295MPD2     C 4442   1.954   0.627   0.607 -0.1664  0.2602 -0.1008
  295MPD2    C1 4443   1.915   0.758   0.569 -0.3669 -0.0575  0.1039
  295MPD2    C2 4444   1.822   0.831   0.640 -0.6219  0.0473  0.4447
  295MPD2    C3 4445   1.781   0.781   0.761  0.1504  0.2362 -0.9315
  295MPD2    C4 4446   1.815   0.651   0.791  0.2453  0.0791 -0.1878
  295MPD2    C5 4447   1.889   0.570   0.710  0.8751 -0.6357 -0.6779
  295MPD2     H 4448   1.803   0.933   0.609  0.4432  0.1759  0.2331
  295MPD2    H1 4449   1.784   0.596   0.880  2.1130  0.0381  0.4410
  295MPD2    H2 4450   2.016   0.558   0.550  1.0334  1.0753  0.2031
  295MPD2    H3 4451   1.902   0.465   0.730  1.5971 -0.9769 -2.8900
  295MPD2     N 4452   1.715   0.856   0.858 -0.1212 -0.6213  0.3746
  295MPD2    H5 4453   1.715   0.808   0.947  1.0040  1.0107  1.2507
  295MPD2    N1 4454   1.975   0.830   0.461 -0.0733  0.9984 -0.1458
  295MPD2    H7 4455   1.944   0.924   0.437  2.6188  1.0223 -3.4686
  296TMC3    C1 4456   1.629   1.036   0.981  0.4962 -0.3190  0.2131
  296TMC3    C2 4457   1.549   1.145   0.987  0.3365 -0.0150  0.0875
  296TMC3    C3 4458   1.483   1.175   1.103 -0.9587  0.6558  0.0957
  296TMC3    C4 4459   1.654   0.957   1.095  0.3784  0.1308 -0.4783
  296TMC3    C5 4460   1.596   1.000   1.208 -0.1679  0.5473 -0.4515
  296TMC3    C6 4461   1.501   1.103   1.218  0.0453  0.1821 -0.4380
  296TMC3     C 4462   1.659   0.983   0.850  0.2951 -0.2266 -0.3230
  296TMC3     O 4463   1.623   1.050   0.754  0.0939  0.2940  0.0262
  296TMC3     H 4464   1.536   1.206   0.898 -2.7649  1.0940  1.2916
  296TMC3    H1 4465   1.728   0.877   1.089  2.1163  1.6376  0.8199
  296TMC3    H2 4466   1.449   1.130   1.310 -1.3650 -2.3862 -0.4864
  296TMC3    C7 4467   1.606   0.908   1.314 -0.8814 -0.1348  0.0651
  296TMC3    C8 4468   1.415   1.304   1.109 -0.2730  0.1760 -0.4425
  296TMC3    O1 4469   1.702   0.832   1.313  0.3754  0.4780 -0.4892
  296TMC3    O2 4470   1.379   1.349   1.002 -0.4360  0.3059  0.2492
  297MPD2     C 4471   3.675   2.883  16.519 -0.3999  0.2976 -0.3132
  297MPD2    C1 4472   3.582   2.975  16.480  0.0639 -0.2541  0.6579
  297MPD2    C2 4473   3.628   3.102  16.460 -0.2953 -0.1598 -0.5919
  297MPD2    C3 4474   3.762   3.130  16.487 -0.5286  0.5343 -0.4206
  297MPD2    C4 4475   3.845   3.038  16.544  0.2731  0.0747 -0.0341
  297MPD2    C5 4476   3.798   2.915  16.563 -0.4221 -0.1430  0.1942
  297MPD2     H 4477   3.569   3.184  16.422  0.0843  1.2601  1.8655
  297MPD2    H1 4478   3.944   3.064  16.579  0.9192 -0.4120 -1.4774
  297MPD2    H2 4479   3.656   2.777  16.532 -1.7044  0.7407  1.5444
  297MPD2    H3 4480   3.870   2.850  16.611  5.2254  3.8931 -2.7534
  297MPD2     N 4481   3.820   3.252  16.449 -0.5948 -0.2816 -0.0330
  297MPD2    H5 4482   3.754   3.324  16.421  2.3242  1.6997 -1.9344
  297MPD2    N1 4483   3.446   2.948  16.445 -0.2393  0.2090  0.2036
  297MPD2    H7 4484   3.390   3.027  16.414 -0.5699 -0.7309 -1.5611
  298TMC3    C1 4485   3.254   2.839  16.375  0.1383 -0.2686  0.2185
  298TMC3    C2 4486   3.231   2.770  16.260 -0.6648  0.1995 -0.2281
  298TMC3    C3 4487   3.113   2.784  16.194 -0.0833 -0.2176  0.2946
  298TMC3    C4 4488   3.163   2.928  16.423 -0.4566  0.6869 -0.0454
  298TMC3    C5 4489   3.048   2.939  16.350  0.3664  0.4033  0.2418
  298TMC3    C6 4490   3.018   2.864  16.240 -0.8508  0.4919  0.0665
  298TMC3     C 4491   3.383   2.829  16.441 -0.8174 -0.2560 -0.4162
  298TMC3     O 4492   3.429   2.715  16.438 -0.1681 -0.2848  0.4539
  298TMC3     H 4493   3.308   2.709  16.214 -1.2175  1.0797 -2.3549
  298TMC3    H1 4494   3.185   2.988  16.510  0.4471 -1.2703  1.0999
  298TMC3    H2 4495   2.916   2.860  16.204 -0.9079 -1.4929  0.4813
  298TMC3    C7 4496   2.946   3.031  16.393  0.4575 -0.0712  0.2166
  298TMC3    C8 4497   3.110   2.763  16.042 -0.5246  0.3595 -0.5691
  298TMC3    O1 4498   2.940   3.063  16.509 -0.3584  0.1606 -0.0294
  298TMC3    O2 4499   3.005   2.801  15.994 -0.5976 -0.4660 -0.2728
  299MPD2     C 4500   0.299   2.384  10.394 -0.0212  0.2271 -0.2009
  299MPD2    C1 4501   0.192   2.370  10.475  0.4006 -0.5053  0.5390
  299MPD2    C2 4502   0.095   2.281  10.438  1.0675 -0.1686  0.4687
  299MPD2    C3 4503   0.110   2.201  10.328 -0.4410 -0.1010 -0.1778
  299MPD2    C4 4504   0.228   2.209  10.255  0.2433  0.2179  0.0159
  299MPD2    C5 4505   0.312   2.313  10.281  0.5117 -0.4558 -0.2692
  299MPD2     H 4506   0.006   2.265  10.498  0.1100 -2.0197 -1.4711
  299MPD2    H1 4507   0.255   2.148  10.169  0.5487 -0.6343  0.7094
  299MPD2    H2 4508   0.379   2.455  10.415 -0.8285  0.9598  0.3928
  299MPD2    H3 4509   0.397   2.335  10.217 -1.0917  1.4387 -1.7360
  299MPD2     N 4510   0.009   2.111  10.294 -0.4178 -0.2703 -0.1210
  299MPD2    H5 4511   4.655   2.107  10.360 -0.7912  1.2287 -0.4503
  299MPD2    N1 4512   0.189   2.451  10.590 -0.2786  0.7417  0.0446
  299MPD2    H7 4513   0.273   2.507  10.599  0.3071  0.0534 -1.2111
  300TMC3    C1 4514   4.572   2.001  10.176  1.2826 -0.8349 -0.2763
  300TMC3    C2 4515   4.469   2.061  10.103  0.2600 -0.5172 -0.0915
  300TMC3    C3 4516   4.341   2.054  10.154 -0.1204  0.1746 -0.1155
  300TMC3    C4 4517   4.547   1.930  10.289  0.2453  0.4912 -0.2044
  300TMC3    C5 4518   4.413   1.927  10.333 -0.2411  0.1631  0.3716
  300TMC3    C6 4519   4.309   1.989  10.263 -0.1493 -0.0711 -0.2722
  300TMC3     C 4520   4.708   2.057  10.172 -0.0640  0.1589 -0.1519
  300TMC3     O 4521   0.039   2.086  10.061 -0.2617 -0.1101  0.7806
  300TMC3     H 4522   4.489   2.087   9.999 -1.2750 -2.2187 -0.8061
  300TMC3    H1 4523   4.630   1.880  10.337  2.2824  1.9943 -2.1903
  300TMC3    H2 4524   4.207   1.989  10.300  0.0816  1.3998  0.3469
  300TMC3    C7 4525   4.377   1.835  10.442  0.4402 -0.5495  0.0422
  300TMC3    C8 4526   4.246   2.148  10.093 -0.1982 -0.3230  0.2350
  300TMC3    O1 4527   4.443   1.732  10.467  0.4094 -0.4910 -0.6319
  300TMC3    O2 4528   4.247   2.147   9.971  0.0129 -0.2840  0.1107
  301MPD2     C 4529   1.161   4.577   2.257  0.2156  0.1866 -0.4062
  301MPD2    C1 4530   1.073   4.530   2.169 -0.0385 -0.1260  0.4348
  301MPD2    C2 4531   1.080   4.400   2.129  0.7586 -0.0990 -0.0811
  301MPD2    C3 4532   1.166   4.309   2.189  0.5036  0.1088 -0.0336
  301MPD2    C4 4533   1.261   4.356   2.278  0.4548  0.9745 -0.1942
  301MPD2    C5 4534   1.252   4.486   2.317 -0.9584 -0.2424 -0.3170
  301MPD2     H 4535   1.014   4.379   2.046 -0.4156 -2.6920  1.5051
  301MPD2    H1 4536   1.339   4.297   2.325 -1.0225  0.2589  1.3478
  301MPD2    H2 4537   1.177   4.677   2.296 -1.6622  1.3187 -2.5536
  301MPD2    H3 4538   1.334   4.522   2.377  0.0585 -1.9937 -0.6496
  301MPD2     N 4539   1.190   4.177   2.139  0.4112 -0.0014  0.1273
  301MPD2    H5 4540   1.277   4.134   2.169  0.1560 -0.3987  0.2923
  301MPD2    N1 4541   0.981   4.609   2.099  0.1694 -0.9621  0.0065
  301MPD2    H7 4542   0.916   4.562   2.036 -0.6951  1.1805 -0.6941
  302TMC3    C1 4543   1.128   3.971   2.017 -0.4341  0.0023 -0.6514
  302TMC3    C2 4544   1.240   3.905   2.050 -0.3214 -0.1584  0.6532
  302TMC3    C3 4545   1.248   3.777   2.007  0.2536 -0.4310  0.3275
  302TMC3    C4 4546   1.029   3.918   1.940  0.5985 -0.4174  0.8123
  302TMC3    C5 4547   1.046   3.798   1.886 -0.4306 -0.3126  0.3331
  302TMC3    C6 4548   1.154   3.721   1.924 -0.3253  0.6464  0.1984
  302TMC3     C 4549   1.099   4.110   2.064 -1.4153  0.1524  0.3164
  302TMC3     O 4550   0.988   4.151   2.035  0.0416 -0.1493 -0.6172
  302TMC3     H 4551   1.325   3.954   2.095 -0.4910  1.1824 -0.5012
  302TMC3    H1 4552   0.943   3.980   1.917  0.0331 -1.0758  1.1711
  302TMC3    H2 4553   1.169   3.621   1.884  1.1302  1.9006 -2.3179
  302TMC3    C7 4554   0.922   3.734   1.841  0.4065 -0.1897 -0.5377
  302TMC3    C8 4555   1.366   3.712   2.043  0.3124 -0.6258  0.4128
  302TMC3    O1 4556   0.917   3.615   1.868  0.3528  0.0338  0.2051
  302TMC3    O2 4557   1.405   3.627   1.963  0.3485  0.2628 -0.0983
  303MPD2     C 4558   1.985   2.285  10.682  0.4473  0.7777  0.1160
  303MPD2    C1 4559   1.917   2.167  10.664  0.3536 -0.7655 -0.6900
  303MPD2    C2 4560   1.916   2.111  10.531 -0.6834 -0.0289  0.1714
  303MPD2    C3 4561   1.988   2.163  10.429 -0.4380 -0.5750  0.1942
  303MPD2    C4 4562   2.061   2.272  10.457  0.3206 -0.1490  0.4013
  303MPD2    C5 4563   2.059   2.336  10.582  0.4047 -0.0570  0.2634
  303MPD2     H 4564   1.876   2.012  10.513 -3.3390  1.0180  0.2939
  303MPD2    H1 4565   2.138   2.301  10.386 -0.1141 -0.4199 -0.1834
  303MPD2    H2 4566   1.983   2.341  10.774  0.5851 -0.9638  1.1689
  303MPD2    H3 4567   2.123   2.423  10.588 -1.3107  1.1712  0.5381
  303MPD2     N 4568   2.021   2.101  10.308  0.2200  0.4237 -0.4634
  303MPD2    H5 4569   2.080   2.151  10.241  1.5232 -2.4158 -1.4685
  303MPD2    N1 4570   1.850   2.110  10.772  0.9326  0.2215  0.3414
  303MPD2    H7 4571   1.841   2.159  10.860 -1.4208  0.1752  0.1311
  304TMC3    C1 4572   1.728   1.954  10.900  0.5294 -0.4581  0.2927
  304TMC3    C2 4573   1.620   2.035  10.910 -0.0654  0.1407 -0.5735
  304TMC3    C3 4574   1.499   1.969  10.939  0.2401  0.1970  0.2255
  304TMC3    C4 4575   1.724   1.821  10.936 -0.5170  0.6449  0.2594
  304TMC3    C5 4576   1.609   1.761  10.977  0.5310 -0.0847  0.4998
  304TMC3    C6 4577   1.495   1.840  10.979 -0.3601 -0.0557 -0.2642
  304TMC3     C 4578   1.811   1.980  10.786  0.3941 -0.8233  0.6253
  304TMC3     O 4579   1.832   1.884  10.715 -0.9091  0.3195 -0.5253
  304TMC3     H 4580   1.618   2.132  10.861 -2.0583  0.3766 -0.0087
  304TMC3    H1 4581   1.809   1.762  10.905 -1.4343  0.0288 -1.0726
  304TMC3    H2 4582   1.404   1.789  11.007  0.8067 -1.4587  0.9446
  304TMC3    C7 4583   1.580   1.631  10.921  0.3296 -0.5532  0.2944
  304TMC3    C8 4584   1.399   1.995  10.840 -0.0156  0.6586  0.7507
  304TMC3    O1 4585   1.480   1.644  10.853  0.1893  0.0993 -0.2220
  304TMC3    O2 4586   1.397   2.110  10.798  0.6268  0.3732 -0.4135
  305MPD2     C 4587   0.546   4.058  13.881  0.1122  0.4324  0.4943
  305MPD2    C1 4588   0.416   4.037  13.895  0.1539 -0.2669 -1.2494
  305MPD2    C2 4589   0.332   3.982  13.798  0.9778 -0.1761  0.3992
  305MPD2    C3 4590   0.401   3.945  13.682  0.4878  0.2357 -0.3218
  305MPD2    C4 4591   0.538   3.972  13.669  0.5076  0.1003 -0.4338
  305MPD2    C5 4592   0.616   4.035  13.762  0.2649  0.1475  0.7341
  305MPD2     H 4593   0.227   3.955  13.810  0.6423  1.3602  0.8955
  305MPD2    H1 4594   0.584   3.959  13.572  1.9229 -0.7011  0.3411
  305MPD2    H2 4595   0.607   4.089  13.965  2.2952 -2.8763  0.1634
  305MPD2    H3 4596   0.722   4.056  13.752  0.0527  0.9606  0.1342
  305MPD2     N 4597   0.334   3.890  13.570  0.1244 -0.2424  0.0047
  305MPD2    H5 4598   0.385   3.885  13.482 -3.3400 -0.0179 -2.0261
  305MPD2    N1 4599   0.374   4.059  14.032 -0.4789  0.3548 -0.1418
  305MPD2    H7 4600   0.442   4.076  14.106  0.2941 -0.8200 -0.5820
  306TMC3    C1 4601   0.229   4.089  14.220 -0.0440  0.4926  0.3371
  306TMC3    C2 4602   0.314   4.010  14.299  0.6421 -0.1688  0.3128
  306TMC3    C3 4603   0.274   3.983  14.427  0.8590 -0.0407 -0.6516
  306TMC3    C4 4604   0.110   4.134  14.270 -0.2661  0.0306 -0.1635
  306TMC3    C5 4605   0.078   4.100  14.397  0.0320  0.5711 -0.9287
  306TMC3    C6 4606   0.154   4.025  14.484 -0.3346 -0.2832 -0.3126
  306TMC3     C 4607   0.244   4.083  14.074  0.0738  0.0880 -0.4046
  306TMC3     O 4608   0.141   4.097  14.010  0.0857  0.4968 -0.6610
  306TMC3     H 4609   0.402   3.958  14.263 -0.1283 -0.7254 -0.7870
  306TMC3    H1 4610   0.045   4.192  14.205  2.5983  2.2314 -1.0951
  306TMC3    H2 4611   0.116   4.001  14.582 -2.0780  1.1866 -0.6229
  306TMC3    C7 4612   4.695   4.188  14.466  0.2100 -0.3189  0.6814
  306TMC3    C8 4613   0.360   3.900  14.506 -0.4051  0.1857 -0.3910
  306TMC3    O1 4614   4.587   4.200  14.410  0.5155 -0.5287  0.4174
  306TMC3    O2 4615   0.479   3.895  14.470  0.2680 -0.1595  0.1307
  307MPD2     C 4616   2.968   1.802   1.230 -0.1003  0.6304 -0.1065
  307MPD2    C1 4617   2.928   1.923   1.175  0.5973  0.1977 -0.6533
  307MPD2    C2 4618   2.831   1.999   1.240 -0.3010  0.5839  0.1922
  307MPD2    C3 4619   2.768   1.954   1.355  0.4343  0.1229 -0.6223
  307MPD2    C4 4620   2.817   1.831   1.405  0.6085  0.3842  0.2636
  307MPD2    C5 4621   2.919   1.753   1.348 -0.3106  0.6466 -0.5854
  307MPD2     H 4622   2.784   2.087   1.196 -0.8296  0.5109  0.6232
  307MPD2    H1 4623   2.776   1.787   1.495  0.5405 -2.3472 -1.1047
  307MPD2    H2 4624   3.037   1.732   1.183 -0.6797  0.3318 -0.5172
  307MPD2    H3 4625   2.953   1.659   1.389  1.0393  0.7689 -1.4223
  307MPD2     N 4626   2.648   2.018   1.406 -0.1006  0.1120  0.2979
  307MPD2    H5 4627   2.624   2.109   1.370  0.3763  0.9635  2.1516
  307MPD2    N1 4628   2.967   1.970   1.046  0.3512 -0.2262  0.4727
  307MPD2    H7 4629   2.937   2.066   1.033 -1.4240 -1.0468 -1.5374
  308TMC3    C1 4630   2.211   2.024   1.403  0.4728  0.2721 -0.2015
  308TMC3    C2 4631   2.208   2.161   1.388  0.3168  0.3133 -0.4855
  308TMC3    C3 4632   2.323   2.232   1.425 -0.3766 -0.3291 -0.4974
  308TMC3    C4 4633   2.320   1.962   1.446  0.3752 -0.0245  0.0090
  308TMC3    C5 4634   2.429   2.033   1.496  0.1474 -0.7600 -0.5858
  308TMC3    C6 4635   2.434   2.166   1.470  0.3872 -1.0023 -0.0920
  308TMC3     C 4636   2.119   1.935   1.325 -1.0364  0.3315  0.4651
  308TMC3     O 4637   2.138   1.815   1.332 -0.4789  0.8792  0.3815
  308TMC3     H 4638   2.121   2.218   1.359  0.2195 -0.7664 -2.3317
  308TMC3    H1 4639   2.317   1.856   1.469 -1.6432 -0.0579 -0.4550
  308TMC3    H2 4640   2.523   2.216   1.506 -2.1852  1.2886  3.1120
  308TMC3    C7 4641   2.553   1.956   1.481 -0.3223  0.6688  0.5851
  308TMC3    C8 4642   2.349   2.370   1.382  0.4582  0.0323 -0.0303
  308TMC3    O1 4643   2.534   1.839   1.512  0.2524 -0.2425  0.4725
  308TMC3    O2 4644   2.433   2.428   1.449  0.3961  0.5440 -0.2380
  309MPD2     C 4645   1.903   3.167  17.393  0.5033 -0.0640  0.0559
  309MPD2    C1 4646   1.835   3.088  17.299 -0.6028 -0.3107  0.1918
  309MPD2    C2 4647   1.716   3.031  17.333  0.4708 -0.5673 -0.2653
  309MPD2    C3 4648   1.659   3.057  17.455  0.0962  0.9206 -0.1230
  309MPD2    C4 4649   1.724   3.135  17.544  0.6344  0.5080  0.0110
  309MPD2    C5 4650   1.844   3.197  17.510  0.2218  1.2618 -0.2039
  309MPD2     H 4651   1.663   2.964  17.266 -0.7450  1.0778 -0.9391
  309MPD2    H1 4652   1.678   3.170  17.636  2.1029 -0.5927  1.1640
  309MPD2    H2 4653   2.004   3.206  17.385  1.8940 -3.4521  1.0712
  309MPD2    H3 4654   1.888   3.257  17.589 -0.2009  0.1320  0.9013
  309MPD2     N 4655   1.543   2.992  17.502 -0.0764 -0.6280  0.2748
  309MPD2    H5 4656   1.512   3.029  17.592 -3.5521  1.7088 -1.8778
  309MPD2    N1 4657   1.882   3.064  17.167 -0.0052 -0.2471  0.1248
  309MPD2    H7 4658   1.825   3.001  17.111  2.8958 -1.2417 -1.7287
  310TMC3    C1 4659   2.034   3.029  16.995 -0.7678 -0.0776  0.3668
  310TMC3    C2 4660   1.947   3.055  16.893 -0.5786 -0.2464  1.0297
  310TMC3    C3 4661   1.997   3.033  16.765  0.0838 -0.5129  0.3001
  310TMC3    C4 4662   2.166   2.996  16.976  0.1102  0.0068 -0.1975
  310TMC3    C5 4663   2.206   2.977  16.847 -0.2352 -0.0040  0.1898
  310TMC3    C6 4664   2.121   2.988  16.744  0.6969  0.4743 -0.6510
  310TMC3     C 4665   2.008   3.079  17.125 -0.1026  0.2255  0.0960
  310TMC3     O 4666   2.103   3.116  17.195 -0.4686 -0.0274 -0.5691
  310TMC3     H 4667   1.844   3.084  16.908 -0.7934 -1.3344  1.6049
  310TMC3    H1 4668   2.233   2.967  17.055 -1.3872  0.6736  1.3234
  310TMC3    H2 4669   2.149   2.956  16.644 -0.1274  0.6696 -0.9527
  310TMC3    C7 4670   2.326   2.891  16.819 -0.2498 -0.5904 -0.0549
  310TMC3    C8 4671   1.929   3.100  16.656  0.4838  0.3870 -0.3178
  310TMC3    O1 4672   2.338   2.827  16.719  0.4465 -0.2475  0.4222
  310TMC3    O2 4673   1.811   3.125  16.674 -0.1833  0.5825  0.0653
  311MPD2     C 4674   4.059   3.407  13.056 -0.6527 -0.0439 -0.2958
  311MPD2    C1 4675   4.034   3.522  12.980  0.1262 -0.9137 -0.2030
  311MPD2    C2 4676   3.899   3.573  12.962 -0.0793  0.4200 -0.1739
  311MPD2    C3 4677   3.796   3.490  13.009 -0.7962  0.3747  0.2548
  311MPD2    C4 4678   3.824   3.379  13.090  0.3974  0.1989  0.7321
  311MPD2    C5 4679   3.955   3.344  13.114  0.2294 -0.0391  0.4633
  311MPD2     H 4680   3.879   3.655  12.895 -1.3935  0.6485  0.4894
  311MPD2    H1 4681   3.751   3.314  13.136  0.7473 -0.3821  0.4637
  311MPD2    H2 4682   4.152   3.356  13.031 -0.4908  0.7281 -1.2688
  311MPD2    H3 4683   3.970   3.252  13.170  0.2645 -0.2763  0.0656
  311MPD2     N 4684   3.660   3.523  12.982  0.3274  0.0887  0.4617
  311MPD2    H5 4685   3.646   3.610  12.932 -0.3424 -0.4065 -0.1931
  311MPD2    N1 4686   4.140   3.588  12.913 -0.0068  0.3448 -0.2139
  311MPD2    H7 4687   4.120   3.674  12.862 -1.6686 -1.0011 -1.8384
  312TMC3    C1 4688   3.421   3.525  12.989  0.4881 -0.0082 -0.2445
  312TMC3    C2 4689   3.305   3.450  12.966 -0.0359 -0.6052 -0.5305
  312TMC3    C3 4690   3.187   3.512  12.986 -0.2864  0.4337 -0.1978
  312TMC3    C4 4691   3.422   3.658  13.015 -0.2065  0.3053 -0.3028
  312TMC3    C5 4692   3.297   3.715  13.029  0.5149 -0.3864 -0.3518
  312TMC3    C6 4693   3.182   3.648  13.015  0.0079  0.6800 -0.3431
  312TMC3     C 4694   3.547   3.455  13.019 -0.4871 -0.0450  0.0285
  312TMC3     O 4695   3.537   3.340  13.045  0.1371  0.1353 -0.7885
  312TMC3     H 4696   3.300   3.349  12.928 -2.3298 -1.0776  0.9770
  312TMC3    H1 4697   3.510   3.717  13.038  0.0655 -0.2611  0.0973
  312TMC3    H2 4698   3.093   3.691  13.059 -0.5562 -0.6379 -0.1940
  312TMC3    C7 4699   3.287   3.833  13.116 -0.7789 -0.5909  0.1686
  312TMC3    C8 4700   3.069   3.450  12.927 -0.1391 -0.6512 -0.6383
  312TMC3    O1 4701   3.365   3.827  13.207 -0.0731  0.2268  0.2063
  312TMC3    O2 4702   3.069   3.331  12.902 -0.4601  0.0122 -0.4534
  313MPD2     C 4703   3.658   3.150  11.017 -0.8117  0.3871 -1.0441
  313MPD2    C1 4704   3.523   3.115  10.993  0.7701  0.3275  0.0813
  313MPD2    C2 4705   3.498   3.025  10.893 -0.3101  0.0156 -0.2382
  313MPD2    C3 4706   3.596   2.973  10.818  0.2728 -0.2006 -0.0361
  313MPD2    C4 4707   3.735   3.015  10.844 -0.0750  0.7507  0.8747
  313MPD2    C5 4708   3.763   3.100  10.944 -0.5382  0.6486  0.0222
  313MPD2     H 4709   3.397   2.989  10.879 -0.1736 -0.4582  0.0099
  313MPD2    H1 4710   3.822   2.984  10.787 -0.5454 -0.8749  1.0669
  313MPD2    H2 4711   3.686   3.234  11.080  0.4695  0.6295 -1.9435
  313MPD2    H3 4712   3.856   3.155  10.955 -0.2632  0.9080 -3.4444
  313MPD2     N 4713   3.568   2.874  10.726 -0.3564 -0.1047  0.2021
  313MPD2    H5 4714   3.470   2.848  10.728 -0.2873 -0.3998 -0.1416
  313MPD2    N1 4715   3.415   3.174  11.062  0.0375  0.5954  0.4901
  313MPD2    H7 4716   3.319   3.158  11.037 -0.1766  1.1190  0.9667
  314TMC3    C1 4717   3.303   3.312  11.210 -0.2133  0.4957  0.4648
  314TMC3    C2 4718   3.296   3.362  11.337 -0.2485 -0.3395 -0.0826
  314TMC3    C3 4719   3.202   3.469  11.357 -0.3310  0.6041  0.0554
  314TMC3    C4 4720   3.216   3.339  11.112 -0.0392 -0.1013 -0.0298
  314TMC3    C5 4721   3.114   3.428  11.140 -0.2522  1.0620 -0.6328
  314TMC3    C6 4722   3.099   3.476  11.266  0.1698  0.1487  0.1362
  314TMC3     C 4723   3.424   3.245  11.176 -0.0930 -0.3200 -0.1493
  314TMC3     O 4724   3.516   3.264  11.252  0.5058  0.4448  0.2986
  314TMC3     H 4725   3.378   3.336  11.404 -0.9451 -1.2934  0.3905
  314TMC3    H1 4726   3.220   3.300  11.011 -0.0802 -2.0119  0.6975
  314TMC3    H2 4727   3.028   3.557  11.280  3.3173  2.6377  1.7277
  314TMC3    C7 4728   3.020   3.469  11.034 -0.1280 -0.2906 -0.5329
  314TMC3    C8 4729   3.270   3.593  11.395 -0.7728 -0.1869  0.0165
  314TMC3    O1 4730   2.909   3.500  11.078 -0.1062 -0.3144  0.7974
  314TMC3    O2 4731   3.217   3.702  11.380  0.0900  0.2704 -0.5545
  315MPD2     C 4732   3.133   2.473  17.414  0.2394 -0.3118 -0.2120
  315MPD2    C1 4733   3.143   2.500  17.551 -0.1671  1.4313  0.0253
  315MPD2    C2 4734   3.054   2.582  17.617 -0.0312  0.0721 -0.1731
  315MPD2    C3 4735   2.978   2.661  17.540  0.0289 -0.7737 -0.4978
  315MPD2    C4 4736   2.975   2.651  17.405  1.0093 -0.2584  0.2375
  315MPD2    C5 4737   3.051   2.556  17.349 -0.1237  0.0281  0.3798
  315MPD2     H 4738   3.059   2.592   0.031  0.0928  2.1767 -0.3802
  315MPD2    H1 4739   2.911   2.709  17.340  2.9960  0.7907 -0.7999
  315MPD2    H2 4740   3.188   2.399  17.357 -0.2025 -0.6258 -0.2241
  315MPD2    H3 4741   3.035   2.538  17.244  1.2601  0.3245  0.1204
  315MPD2     N 4742   2.898   2.760  17.606  0.2525 -0.9086 -0.0224
  315MPD2    H5 4743   2.903   2.758   0.014 -0.6468 -1.1266  0.0186
  315MPD2    N1 4744   3.222   2.420  17.638  1.0915  0.0623 -0.2749
  315MPD2    H7 4745   3.213   2.433   0.044 -0.0994 -0.6987 -0.2934
  316TMC3    C1 4746   2.760   2.948  17.639 -0.0742 -0.0308  0.3093
  316TMC3    C2 4747   2.722   2.911   0.079 -0.6611 -0.7876  0.0703
  316TMC3    C3 4748   2.661   3.003   0.155 -0.8709 -0.1286 -0.1640
  316TMC3    C4 4749   2.730   3.073  17.598 -0.4754 -0.0293  0.2784
  316TMC3    C5 4750   2.648   3.160  17.674 -0.1476  0.7383  0.1447
  316TMC3    C6 4751   2.626   3.128   0.109  1.1769 -0.9665  0.1992
  316TMC3     C 4752   2.829   2.859  17.541 -0.2940 -0.2732 -0.2038
  316TMC3     O 4753   2.826   2.897  17.425 -0.5255  0.2257 -0.0259
  316TMC3     H 4754   2.765   2.824   0.128  1.3646 -0.8557 -1.7991
  316TMC3    H1 4755   2.762   3.095  17.497 -0.9735 -0.3757  0.0418
  316TMC3    H2 4756   2.575   3.196   0.176 -1.4169 -1.0798 -1.7144
  316TMC3    C7 4757   2.673   3.297  17.648 -0.2909 -0.2133 -0.1649
  316TMC3    C8 4758   2.664   2.989   0.297 -0.3447 -0.1762  0.3248
  316TMC3    O1 4759   2.646   3.376   0.044  0.3336  0.0567  0.0869
  316TMC3    O2 4760   2.567   3.037   0.357  0.0483 -0.1914 -0.4237
  317MPD2     C 4761   0.929   4.600  12.796  0.4523  0.2805 -0.4413
  317MPD2    C1 4762   0.921   0.013  12.845 -0.7231  0.2445 -0.5855
  317MPD2    C2 4763   0.914   0.026  12.981 -0.8160  0.1587 -0.5496
  317MPD2    C3 4764   0.923   4.639  13.070 -0.3178 -0.2647 -0.6736
  317MPD2    C4 4765   0.940   4.519  13.018 -0.1674 -0.1065 -0.3094
  317MPD2    C5 4766   0.932   4.497  12.888 -0.0165  0.2735 -0.2963
  317MPD2     H 4767   0.912   0.124  13.026 -1.7607  0.6310 -1.6252
  317MPD2    H1 4768   0.941   4.425  13.071  1.8720 -0.2654 -0.6162
  317MPD2    H2 4769   0.949   4.583  12.691 -0.9390 -1.0403 -0.4904
  317MPD2    H3 4770   0.941   4.396  12.849 -0.0923  0.7088 -1.4355
  317MPD2     N 4771   0.907   4.668  13.208  0.9297  0.1644  0.2097
  317MPD2    H5 4772   0.871   0.033  13.242  0.1390 -0.5469  1.2410
  317MPD2    N1 4773   0.928   0.116  12.751  0.4233 -0.0729 -0.2190
  317MPD2    H7 4774   0.938   0.095  12.652 -1.0654  0.0893 -0.3985
  318TMC3    C1 4775   0.939   4.665  13.442  0.0256 -0.8572 -0.1098
  318TMC3    C2 4776   0.817   4.716  13.472  0.8792 -0.2310  0.0653
  318TMC3    C3 4777   0.800   0.108  13.546  0.3076 -0.3176 -0.2681
  318TMC3    C4 4778   1.053   4.722  13.491 -0.3040  0.4572  0.0994
  318TMC3    C5 4779   1.038   0.114  13.569  0.6112 -0.3123  0.1366
  318TMC3    C6 4780   0.912   0.166  13.602  0.6801 -0.6160  0.5021
  318TMC3     C 4781   0.959   4.591  13.314 -0.1169 -0.2903  0.4393
  318TMC3     O 4782   1.031   4.491  13.304 -0.0970  0.4743 -0.0660
  318TMC3     H 4783   0.738   4.661  13.422  1.0490 -2.0514  1.7949
  318TMC3    H1 4784   1.146   4.682  13.453 -0.8426 -0.7340  0.0358
  318TMC3    H2 4785   0.897   0.251  13.667 -0.7979  1.0347 -2.0083
  318TMC3    C7 4786   1.157   0.177  13.614  0.7740  0.9100  0.1713
  318TMC3    C8 4787   0.660   0.160  13.579  0.3293  0.1100  0.2803
  318TMC3    O1 4788   1.255   0.104  13.616  0.9108 -0.0972 -0.0215
  318TMC3    O2 4789   0.664   0.232  13.681  0.1777  0.6504 -0.4808
  319MPD2     C 4790   1.599   2.694  16.625 -0.1946 -0.0416 -0.0032
  319MPD2    C1 4791   1.544   2.648  16.738  0.1151  0.2803 -0.2902
  319MPD2    C2 4792   1.409   2.623  16.751  0.8555 -0.1622  0.1680
  319MPD2    C3 4793   1.325   2.643  16.634  0.5588 -0.0608 -0.7052
  319MPD2    C4 4794   1.389   2.681  16.519  0.1977 -0.1046  0.0264
  319MPD2    C5 4795   1.522   2.707  16.513  0.4420 -0.5768  0.6258
  319MPD2     H 4796   1.358   2.600  16.844  2.8692  0.1168  1.3398
  319MPD2    H1 4797   1.334   2.694  16.427  2.6896  0.7246 -1.3496
  319MPD2    H2 4798   1.703   2.722  16.615 -0.6280  2.0260  1.2087
  319MPD2    H3 4799   1.571   2.733  16.420 -0.0494 -0.1842  0.4727
  319MPD2     N 4800   1.182   2.620  16.631 -0.3381 -0.0115 -0.6511
  319MPD2    H5 4801   1.135   2.637  16.543 -1.6022 -0.2276 -0.0038
  319MPD2    N1 4802   1.619   2.639  16.858 -0.3719  0.3289 -0.3297
  319MPD2    H7 4803   1.558   2.620  16.937 -0.5810  1.3888 -0.2370
  320TMC3    C1 4804   0.965   2.591  16.689  0.4513  0.0634  0.3324
  320TMC3    C2 4805   0.927   2.656  16.575  0.8524 -0.4210 -0.5629
  320TMC3    C3 4806   0.794   2.648  16.541 -0.4656  0.7358  0.6996
  320TMC3    C4 4807   0.875   2.518  16.772  0.4079  0.1997 -0.2220
  320TMC3    C5 4808   0.742   2.518  16.736 -1.0214 -0.2030 -0.6418
  320TMC3    C6 4809   0.708   2.573  16.617 -0.2152  0.0037 -0.2529
  320TMC3     C 4810   1.104   2.588  16.734 -0.1364  0.5130  0.4945
  320TMC3     O 4811   1.131   2.543  16.847 -0.0380  0.3960  0.5343
  320TMC3     H 4812   0.992   2.723  16.521 -0.8751 -0.8232 -3.1542
  320TMC3    H1 4813   0.924   2.461  16.851 -1.1031 -1.2702 -0.3582
  320TMC3    H2 4814   0.603   2.590  16.602  0.7200  4.8901 -1.2518
  320TMC3    C7 4815   0.678   2.389  16.771  0.2104  0.4354 -0.6676
  320TMC3    C8 4816   0.739   2.752  16.463 -0.4988  0.1423 -0.0904
  320TMC3    O1 4817   0.603   2.348  16.681 -0.3743  0.2512 -0.4140
  320TMC3    O2 4818   0.815   2.852  16.449 -0.3217  0.0285 -0.0669
  321TMC3    C1 4819   1.803   2.637  17.007 -0.0966 -0.1498 -0.1708
  321TMC3    C2 4820   1.722   2.624  17.119  0.0329  0.2994 -0.6992
  321TMC3    C3 4821   1.779   2.655  17.241  0.1722  0.3708 -0.6331
  321TMC3    C4 4822   1.934   2.683  17.016 -0.1540  0.2556  0.3653
  321TMC3    C5 4823   1.979   2.718  17.132  0.0165 -0.0740 -0.0234
  321TMC3    C6 4824   1.905   2.708  17.249  0.3871  0.3568  0.3188
  321TMC3     C 4825   1.755   2.630  16.869  0.3600  0.4579  0.2361
  321TMC3     O 4826   1.835   2.627  16.780  0.0656 -0.0710  0.1437
  321TMC3     H 4827   1.620   2.591  17.101 -0.0905  0.3036  0.0091
  321TMC3    H1 4828   1.997   2.676  16.928  0.6884  0.2861  0.9698
  321TMC3    H2 4829   1.943   2.733  17.348 -1.1967 -0.2513  1.0622
  321TMC3    C7 4830   2.119   2.669  17.142 -1.0752 -0.5311 -0.0099
  321TMC3    C8 4831   1.735   2.597  17.368  0.5137 -0.1991 -0.5314
  321TMC3    O1 4832   2.190   2.642  17.044  1.0974 -0.3097  0.1543
  321TMC3    O2 4833   1.797   2.612  17.474  0.4890  0.0443 -0.8030
  322MPD2     C 4834   4.210   3.065  13.964  0.4828 -0.2174 -0.1198
  322MPD2    C1 4835   4.287   3.046  14.078  0.2083  0.3458 -0.6732
  322MPD2    C2 4836   4.355   2.932  14.101  0.4922  0.5307  0.4886
  322MPD2    C3 4837   4.372   2.841  13.993 -0.3600 -0.1045  0.0305
  322MPD2    C4 4838   4.296   2.866  13.879  0.4679  0.2290  0.1697
  322MPD2    C5 4839   4.209   2.965  13.871 -0.1477  0.3491 -0.1793
  322MPD2     H 4840   4.411   2.906  14.190  0.8826  1.5367  0.5349
  322MPD2    H1 4841   4.306   2.790  13.802  3.1466 -0.3294  1.0657
  322MPD2    H2 4842   4.165   3.163  13.948  0.9768  0.0150 -0.0652
  322MPD2    H3 4843   4.149   2.977  13.781 -1.7491 -0.9330  0.7228
  322MPD2     N 4844   4.463   2.728  14.001  0.6015  0.6326  0.0470
  322MPD2    H5 4845   4.520   2.716  14.084  1.3884  0.8242 -0.4591
  322MPD2    N1 4846   4.295   3.161  14.173 -0.4546  0.3098  0.2816
  322MPD2    H7 4847   4.259   3.250  14.140 -0.3857 -0.3445 -1.5992
  323TMC3    C1 4848   4.359   3.263  14.369 -0.3147  0.1252  0.0878
  323TMC3    C2 4849   4.382   3.382  14.308 -0.7380  0.8135 -0.3986
  323TMC3    C3 4850   4.407   3.491  14.385 -0.3205 -0.0103 -0.5508
  323TMC3    C4 4851   4.357   3.245  14.501  0.4170 -0.4665 -0.0829
  323TMC3    C5 4852   4.378   3.349  14.585  0.0739  0.4677  0.6509
  323TMC3    C6 4853   4.387   3.471  14.522  0.0070 -0.4215 -0.1720
  323TMC3     C 4854   4.343   3.145  14.301 -0.0741  0.3497  0.1303
  323TMC3     O 4855   4.361   3.045  14.366  0.1953  0.1471 -0.1440
  323TMC3     H 4856   4.398   3.387  14.201  3.4495 -0.1777  0.1994
  323TMC3    H1 4857   4.360   3.150  14.553  2.6703 -1.4982 -2.0895
  323TMC3    H2 4858   4.401   3.554  14.589  1.2254 -0.0606 -0.8662
  323TMC3    C7 4859   4.465   3.329  14.700  0.6352 -0.9378  0.1136
  323TMC3    C8 4860   4.535   3.568  14.366  0.1028 -0.4094  0.0268
  323TMC3    O1 4861   4.448   3.232  14.773  0.0739  0.3487 -0.0569
  323TMC3    O2 4862   4.610   3.570  14.463  0.1001  0.2265 -0.2032
  324MPD2     C 4863   2.089   0.143  14.694  0.4336  0.1169 -0.1888
  324MPD2    C1 4864   2.055   0.266  14.640 -0.8843  0.3101  0.5712
  324MPD2    C2 4865   1.923   0.297  14.609  0.3393  0.7429 -0.3913
  324MPD2    C3 4866   1.829   0.198  14.633 -0.0991  0.0125  0.2978
  324MPD2    C4 4867   1.864   0.077  14.687 -0.6752 -0.6406 -0.4119
  324MPD2    C5 4868   1.996   0.052  14.718  0.1361  0.3871  0.3867
  324MPD2     H 4869   1.898   0.387  14.554 -0.3734 -0.0291 -1.3524
  324MPD2    H1 4870   1.793   4.722  14.712 -0.7518 -0.8731 -1.3570
  324MPD2    H2 4871   2.191   0.117  14.717  0.4693 -0.6314 -1.2038
  324MPD2    H3 4872   2.016   4.673  14.747 -1.5072 -0.3788 -1.2062
  324MPD2     N 4873   1.690   0.216  14.618  0.2737  0.1512  0.1122
  324MPD2    H5 4874   1.626   0.137  14.622  0.3594  0.1125  0.7481
  324MPD2    N1 4875   2.154   0.362  14.599 -0.7549  0.8790  0.0134
  324MPD2    H7 4876   2.121   0.427  14.529  0.2213  0.2862 -1.0141
  325TMC3    C1 4877   1.500   0.332  14.573 -0.1256  0.2374  0.5244
  325TMC3    C2 4878   1.443   0.222  14.522  0.4733  0.0160  0.8476
  325TMC3    C3 4879   1.318   0.228  14.460  0.2453 -0.2784 -0.0805
  325TMC3    C4 4880   1.422   0.450  14.573  0.2419 -0.0129  0.8089
  325TMC3    C5 4881   1.301   0.454  14.517 -0.3447  0.4944  0.0670
  325TMC3    C6 4882   1.243   0.349  14.458 -0.3720 -0.6387  0.6705
  325TMC3     C 4883   1.644   0.342  14.588 -0.6251  0.1699 -0.1549
  325TMC3     O 4884   1.691   0.451  14.595 -0.2850  0.2289 -0.2193
  325TMC3     H 4885   1.492   0.128  14.497 -1.6609 -0.9703  0.3984
  325TMC3    H1 4886   1.469   0.540  14.610 -1.2798  0.7766  0.8303
  325TMC3    H2 4887   1.157   0.354  14.392  0.0145 -0.3437  0.1915
  325TMC3    C7 4888   1.240   0.585  14.522  0.0687 -0.1563  0.2188
  325TMC3    C8 4889   1.266   0.108  14.398  0.0773 -0.5651 -0.1730
  325TMC3    O1 4890   1.316   0.684  14.536  0.1780  0.0070 -0.0245
  325TMC3    O2 4891   1.341   0.015  14.364  0.0869 -0.2930  0.2640
  326MPD2     C 4892   3.075   0.871  11.658  0.6665  0.4026  0.0367
  326MPD2    C1 4893   3.043   0.782  11.557 -0.7501 -0.4399 -0.6200
  326MPD2    C2 4894   3.140   0.723  11.479  0.2864  0.1787 -0.0836
  326MPD2    C3 4895   3.265   0.775  11.478  0.0620  0.2892  0.2375
  326MPD2    C4 4896   3.300   0.871  11.573  0.4911  0.5786 -0.3563
  326MPD2    C5 4897   3.201   0.919  11.655 -0.4185 -0.2757  0.3501
  326MPD2     H 4898   3.110   0.651  11.404 -0.6217  1.6072 -1.0927
  326MPD2    H1 4899   3.402   0.905  11.588  0.8936  0.2872 -2.4337
  326MPD2    H2 4900   3.001   0.922  11.719  0.3895 -0.9417  0.8286
  326MPD2    H3 4901   3.228   0.989  11.733 -1.2417  0.5297 -0.0936
  326MPD2     N 4902   3.369   0.732  11.389 -0.1446  0.0699  0.1432
  326MPD2    H5 4903   3.467   0.753  11.405 -0.0748 -0.7101  0.7176
  326MPD2    N1 4904   2.915   0.722  11.549  0.1468  0.1472 -0.5142
  326MPD2    H7 4905   2.907   0.650  11.478  2.2906  1.4012 -2.0415
  327TMC3    C1 4906   2.693   0.677  11.575  0.1482 -0.1310 -0.5991
  327TMC3    C2 4907   2.594   0.733  11.494 -0.2752  0.2293 -0.8886
  327TMC3    C3 4908   2.527   0.637  11.420 -0.5487  0.0959 -0.5759
  327TMC3    C4 4909   2.736   0.544  11.576  0.4174 -0.0722  0.5179
  327TMC3    C5 4910   2.665   0.459  11.502  0.4800  0.0494 -0.3393
  327TMC3    C6 4911   2.560   0.501  11.428  0.2021  0.2215  0.3043
  327TMC3     C 4912   2.801   0.765  11.615  0.3086 -0.4651 -0.4142
  327TMC3     O 4913   2.772   0.862  11.688 -0.0084 -0.3879 -0.4004
  327TMC3     H 4914   2.564   0.837  11.496  0.4113  0.4229 -0.6567
  327TMC3    H1 4915   2.811   0.512  11.648  0.2549 -0.3007  0.5883
  327TMC3    H2 4916   2.516   0.433  11.356  2.1147 -0.9958  0.2815
  327TMC3    C7 4917   2.709   0.319  11.497 -0.1363 -0.0324 -0.0396
  327TMC3    C8 4918   2.472   0.685  11.291 -0.1711  0.6142  0.0866
  327TMC3    O1 4919   2.638   0.237  11.550 -0.4884  0.5473 -0.3073
  327TMC3    O2 4920   2.484   0.805  11.271  0.3372  0.5762  0.1386
  328MPD2     C 4921   0.645   1.429  17.381  0.0464  0.7993  0.3765
  328MPD2    C1 4922   0.566   1.330  17.436  0.2606  0.0069  0.4940
  328MPD2    C2 4923   0.471   1.272  17.354  1.4919  0.1245  0.6808
  328MPD2    C3 4924   0.448   1.315  17.225  0.5873  0.3058 -0.6371
  328MPD2    C4 4925   0.519   1.428  17.178 -0.9327  0.4147  0.3002
  328MPD2    C5 4926   0.622   1.474  17.259 -0.7491 -0.1888  0.0068
  328MPD2     H 4927   0.409   1.191  17.391  0.8959  1.4179  2.4953
  328MPD2    H1 4928   0.516   1.446  17.071  0.6671  2.3068  0.5705
  328MPD2    H2 4929   0.710   1.484  17.448  1.7276  1.0206 -1.4407
  328MPD2    H3 4930   0.686   1.554  17.225 -1.0009 -0.4766 -1.1432
  328MPD2     N 4931   0.335   1.264  17.147 -0.2129 -0.9059 -0.1546
  328MPD2    H5 4932   0.325   1.302  17.053 -2.4866 -2.4019 -0.5099
  328MPD2    N1 4933   0.587   1.306  17.574 -0.1752 -0.3500  0.3742
  328MPD2    H7 4934   0.660   1.354  17.625 -0.8219 -0.5246  1.4721
  329TMC3    C1 4935   0.542   1.182   0.081 -0.3309 -0.5462 -0.0311
  329TMC3    C2 4936   0.443   1.140   0.166  0.2005 -0.1750  0.4360
  329TMC3    C3 4937   0.478   1.098   0.291  0.8194 -0.2190  0.2918
  329TMC3    C4 4938   0.668   1.194   0.117 -0.5677 -0.2509  0.2182
  329TMC3    C5 4939   0.698   1.148   0.246 -0.7995  0.6327  0.1544
  329TMC3    C6 4940   0.603   1.109   0.335 -0.3308  0.6371 -0.6769
  329TMC3     C 4941   0.495   1.232  17.644  0.0053  0.2809 -0.0298
  329TMC3     O 4942   0.382   1.195  17.609  0.2960 -0.0839  0.0890
  329TMC3     H 4943   0.338   1.136   0.137  0.2563  2.7805 -0.1783
  329TMC3    H1 4944   0.748   1.238   0.058 -0.1512 -2.4640 -0.8558
  329TMC3    H2 4945   0.645   1.089   0.434  1.0498 -0.3091 -1.4578
  329TMC3    C7 4946   0.822   1.199   0.303  0.1156 -0.2931  0.8485
  329TMC3    C8 4947   0.397   1.023   0.373 -0.4750  0.2599 -0.2956
  329TMC3    O1 4948   0.804   1.254   0.410 -0.1885 -0.4449  0.0703
  329TMC3    O2 4949   0.444   0.944   0.452  0.0434 -0.1645  0.1366
  330TMC3    C1 4950   3.882   4.357   9.474 -0.4046 -0.6054 -0.1619
  330TMC3    C2 4951   3.793   4.266   9.434 -0.1547  0.2651  0.3511
  330TMC3    C3 4952   3.837   4.153   9.370  0.3041  0.6837 -0.9143
  330TMC3    C4 4953   4.013   4.350   9.444  0.2288 -0.5853  0.1939
  330TMC3    C5 4954   4.056   4.244   9.372  0.7544  0.1691  0.0828
  330TMC3    C6 4955   3.964   4.148   9.332 -0.4427 -0.3171 -0.1530
  330TMC3     C 4956   3.836   4.474   9.551 -0.1299  0.4646 -0.3303
  330TMC3     O 4957   3.919   4.546   9.600  0.1134 -0.3900 -0.4142
  330TMC3     H 4958   3.687   4.277   9.453 -0.5525 -1.8069 -0.6634
  330TMC3    H1 4959   4.075   4.434   9.474  0.4653 -0.3372 -0.9770
  330TMC3    H2 4960   3.997   4.060   9.276  1.5168 -0.4494  1.1831
  330TMC3    C7 4961   4.195   4.235   9.349  0.0736 -0.3317  0.2428
  330TMC3    C8 4962   3.741   4.081   9.291  0.2799 -0.8220  0.5165
  330TMC3    O1 4963   4.260   4.336   9.332  0.1453  0.5445  0.1029
  330TMC3    O2 4964   3.775   4.041   9.182  0.1139  0.0922  0.3528
  331MPD2     C 4965   0.840   3.581  12.641  0.3098 -1.2040 -0.7234
  331MPD2    C1 4966   0.953   3.622  12.567  0.0027 -0.4474  0.4418
  331MPD2    C2 4967   0.983   3.541  12.460 -0.1013  0.3347  0.2221
  331MPD2    C3 4968   0.938   3.402  12.451 -0.1019 -0.0842  0.1962
  331MPD2    C4 4969   0.836   3.369  12.537 -0.4867  0.3210  0.0508
  331MPD2    C5 4970   0.782   3.455  12.625 -0.6595  0.2655  0.0840
  331MPD2     H 4971   1.065   3.573  12.397 -0.2228 -1.1956 -0.7168
  331MPD2    H1 4972   0.791   3.272  12.525 -0.8593  0.5004  0.0081
  331MPD2    H2 4973   0.799   3.648  12.716  1.9315 -2.6131  1.4286
  331MPD2    H3 4974   0.705   3.427  12.695  1.0921 -1.3479  1.3628
  331MPD2     N 4975   0.997   3.310  12.364 -0.2710  0.5739 -0.4487
  331MPD2    H5 4976   0.977   3.213  12.386  3.5803 -0.3568 -1.0337
  331MPD2    N1 4977   1.023   3.751  12.593 -0.1102 -0.0562 -0.2321
  331MPD2    H7 4978   0.978   3.824  12.648  1.3617 -1.7358  3.1851
  332TMC3    C1 4979   1.164   3.235  12.222 -0.1488 -0.3432  0.0071
  332TMC3    C2 4980   1.237   3.299  12.116 -0.1452  0.1992  0.9442
  332TMC3    C3 4981   1.372   3.302  12.129  0.1334 -0.2365 -0.0425
  332TMC3    C4 4982   1.225   3.170  12.328 -0.3722 -0.6315  0.5380
  332TMC3    C5 4983   1.358   3.158  12.322 -0.0349 -0.4059  0.0726
  332TMC3    C6 4984   1.429   3.229  12.231 -0.1614 -0.4861 -0.1540
  332TMC3     C 4985   1.081   3.344  12.263  0.7231  0.0032 -0.3145
  332TMC3     O 4986   1.096   3.458  12.217 -0.1262 -0.3529  0.2328
  332TMC3     H 4987   1.182   3.347  12.036 -1.2999  0.1554  1.7172
  332TMC3    H1 4988   1.167   3.140  12.414  1.3698 -0.4776  1.7720
  332TMC3    H2 4989   1.537   3.238  12.233 -0.2460  0.1385  1.7448
  332TMC3    C7 4990   1.423   3.112  12.446  0.2178  0.3802  0.6931
  332TMC3    C8 4991   1.464   3.383  12.037  0.3299  0.9354  0.0060
  332TMC3    O1 4992   1.347   3.070  12.529  0.5800  0.1368 -0.8834
  332TMC3    O2 4993   1.572   3.413  12.084 -0.6937 -0.3524 -0.1378
  333MPD2     C 4994   1.171   3.760  11.050  0.0352 -0.5175  0.1715
  333MPD2    C1 4995   1.298   3.712  11.032  0.6287  0.1744  0.2295
  333MPD2    C2 4996   1.337   3.608  11.112  1.1715 -0.0803 -0.3763
  333MPD2    C3 4997   1.257   3.549  11.206 -0.3074  0.0514 -0.9504
  333MPD2    C4 4998   1.128   3.600  11.223  0.2037  0.4552 -0.0284
  333MPD2    C5 4999   1.085   3.702  11.143  0.4971  0.4818  0.6019
  333MPD2     H 5000   1.441   3.576  11.110  0.8047 -1.3000 -0.1740
  333MPD2    H1 5001   1.060   3.559  11.296  0.9224 -1.8776 -0.6659
  333MPD2    H2 5002   1.132   3.843  10.991  0.7451 -0.7696 -0.6495
  333MPD2    H3 5003   0.983   3.739  11.151  1.4004  2.4387  3.1597
  333MPD2     N 5004   1.304   3.440  11.281  0.9831  0.3410 -0.0046
  333MPD2    H5 5005   1.390   3.395  11.250 -0.8671 -0.8494 -3.5074
  333MPD2    N1 5006   1.387   3.775  10.940 -0.3574 -0.1858  1.2920
  333MPD2    H7 5007   1.347   3.855  10.892  0.9044 -1.0825 -1.2363
  334TMC3    C1 5008   1.585   3.864  10.879  0.1935  0.5784  0.0630
  334TMC3    C2 5009   1.705   3.843  10.805  0.2230 -0.4052  0.9261
  334TMC3    C3 5010   1.804   3.930  10.805  0.0913 -0.5547  0.5773
  334TMC3    C4 5011   1.568   3.974  10.955 -0.3089 -0.2116 -0.3636
  334TMC3    C5 5012   1.677   4.057  10.960 -0.5377 -0.3261  0.2933
  334TMC3    C6 5013   1.789   4.044  10.883  0.4306  0.0877 -0.1613
  334TMC3     C 5014   1.521   3.749  10.924  0.4060 -0.5863 -0.3006
  334TMC3     O 5015   1.593   3.667  10.979  0.2182 -0.8574 -0.2709
  334TMC3     H 5016   1.731   3.748  10.760 -3.7038 -1.9934  1.9629
  334TMC3    H1 5017   1.486   3.976  11.027  0.1018 -0.7368  0.1159
  334TMC3    H2 5018   1.869   4.118  10.889 -0.7053  1.3198 -0.3076
  334TMC3    C7 5019   1.667   4.169  11.046  0.4099 -0.7860 -0.4670
  334TMC3    C8 5020   1.918   3.916  10.720 -0.2282 -0.2110  0.1926
  334TMC3    O1 5021   1.775   4.223  11.065 -0.6526 -0.3056 -0.7267
  334TMC3    O2 5022   1.891   3.872  10.609 -0.0061  0.0833 -0.8991
  335TMC3    C1 5023   1.015   1.380  17.526  0.1096  0.3048 -0.1946
  335TMC3    C2 5024   0.953   1.274  17.465 -0.0351  0.1431  0.2057
  335TMC3    C3 5025   1.026   1.207  17.374 -0.9254  0.0119 -0.0433
  335TMC3    C4 5026   1.148   1.413  17.500 -0.0841  0.2475 -0.0910
  335TMC3    C5 5027   1.220   1.343  17.399  0.5415  0.6406  0.2406
  335TMC3    C6 5028   1.155   1.240  17.337  0.0380  0.2499 -0.2042
  335TMC3     C 5029   0.952   1.450  17.633 -0.3931 -0.3982  0.0947
  335TMC3     O 5030   0.828   1.438  17.629 -0.2697  0.0825 -0.1849
  335TMC3     H 5031   0.850   1.248  17.486 -1.4582  3.3108 -3.0911
  335TMC3    H1 5032   1.193   1.506  17.533  0.4348 -0.6265  1.6748
  335TMC3    H2 5033   1.202   1.175  17.264 -1.4409 -1.2026  0.1497
  335TMC3    C7 5034   1.364   1.352  17.366 -0.4092 -1.3741  0.6138
  335TMC3    C8 5035   0.967   1.077  17.335  0.4131 -0.7932 -0.2401
  335TMC3    O1 5036   1.416   1.252  17.318  0.4112 -0.9869  0.4733
  335TMC3    O2 5037   0.871   1.034  17.398 -0.3439  0.0583  0.4602
  336MPD2     C 5038   0.712   3.951  16.479 -0.3014 -0.0630 -0.0473
  336MPD2    C1 5039   0.721   3.859  16.378  0.8465 -0.2203 -0.8343
  336MPD2    C2 5040   0.756   3.729  16.407 -0.2604 -0.2983  0.3430
  336MPD2    C3 5041   0.774   3.689  16.539  0.2434 -0.1647  0.4187
  336MPD2    C4 5042   0.756   3.781  16.645 -0.1037  0.6115  0.4747
  336MPD2    C5 5043   0.724   3.912  16.611 -0.2057 -0.3247 -0.8172
  336MPD2     H 5044   0.758   3.656  16.327 -2.3556 -1.1400  1.0545
  336MPD2    H1 5045   0.763   3.754  16.750  1.2645  2.0159  0.7405
  336MPD2    H2 5046   0.683   4.055  16.473 -2.3253 -0.5464  1.3209
  336MPD2    H3 5047   0.713   3.987  16.688  3.5144 -1.6084  0.9506
  336MPD2     N 5048   0.811   3.557  16.561 -0.6900 -0.2102  0.6870
  336MPD2    H5 5049   0.828   3.498  16.480  2.7235  0.9373  0.5549
  336MPD2    N1 5050   0.700   3.894  16.252 -0.6018  0.4820 -0.4358
  336MPD2    H7 5051   0.726   3.825  16.181 -1.4960 -1.3159  0.9825
  337TMC3    C1 5052   0.605   4.016  16.069  0.3382 -0.6009  0.0110
  337TMC3    C2 5053   0.490   4.076  16.026  0.1295  0.2306 -0.0639
  337TMC3    C3 5054   0.478   4.075  15.890 -0.4266 -0.4945 -0.0251
  337TMC3    C4 5055   0.702   3.967  15.991 -0.1703  0.2922  0.5787
  337TMC3    C5 5056   0.689   3.989  15.859 -0.4147  0.4498  0.3446
  337TMC3    C6 5057   0.568   4.027  15.804 -0.1239  0.1122 -0.1894
  337TMC3     C 5058   0.618   3.996  16.210  0.2171 -0.3354 -0.2032
  337TMC3     O 5059   0.544   4.067  16.279 -0.0533 -0.7241 -0.2525
  337TMC3     H 5060   0.410   4.111  16.090  0.4400 -0.5298  0.7350
  337TMC3    H1 5061   0.801   3.939  16.027  0.2195  0.9360  0.0210
  337TMC3    H2 5062   0.555   4.020  15.697 -3.3153 -0.9259  0.2667
  337TMC3    C7 5063   0.780   3.912  15.776  0.4767  0.1345  0.8823
  337TMC3    C8 5064   0.336   4.104  15.854 -0.7508 -0.3505 -0.2311
  337TMC3    O1 5065   0.857   3.837  15.833  0.4759  0.0748  0.1504
  337TMC3    O2 5066   0.266   4.181  15.921  0.1122 -0.1819  0.3379
  338MPD2     C 5067   0.959   2.452   1.055  0.2580  0.1621 -0.2519
  338MPD2    C1 5068   0.975   2.411   0.924 -0.5858 -0.3980  0.2462
  338MPD2    C2 5069   0.858   2.393   0.853 -0.1510  0.5146 -0.2507
  338MPD2    C3 5070   0.731   2.406   0.914  0.1032  0.5350  0.4819
  338MPD2    C4 5071   0.717   2.460   1.044  0.3242  0.6462 -0.5966
  338MPD2    C5 5072   0.838   2.486   1.110 -0.3399 -0.2702  0.2454
  338MPD2     H 5073   0.872   2.359   0.751  0.0038  0.2916 -0.1549
  338MPD2    H1 5074   0.624   2.492   1.090 -0.6412 -4.3957  0.9720
  338MPD2    H2 5075   1.046   2.472   1.116 -0.8518  3.4453  0.2068
  338MPD2    H3 5076   0.838   2.526   1.211  0.1666  0.4794 -0.0496
  338MPD2     N 5077   0.618   2.378   0.832  0.1363 -0.1015 -0.3583
  338MPD2    H5 5078   0.642   2.339   0.741 -1.1526  0.5167 -0.9616
  338MPD2    N1 5079   1.104   2.381   0.859  0.5158  0.0366 -0.3088
  338MPD2    H7 5080   1.105   2.353   0.761  4.8558  1.5860 -0.6827
  339TMC3    C1 5081   0.397   2.381   0.774  0.5319  0.3209  0.2170
  339TMC3    C2 5082   0.264   2.382   0.811 -0.5355 -0.6502  0.8026
  339TMC3    C3 5083   0.173   2.405   0.711 -0.1884  0.0189  0.8327
  339TMC3    C4 5084   0.436   2.399   0.639 -0.2606 -0.1455 -0.6109
  339TMC3    C5 5085   0.338   2.432   0.553  0.2856 -0.3541  0.2866
  339TMC3    C6 5086   0.204   2.443   0.583  0.3327 -0.0554 -0.2261
  339TMC3     C 5087   0.490   2.392   0.875  0.4821 -0.1358  0.8715
  339TMC3     O 5088   0.443   2.403   0.988  0.0852  0.3866 -0.2772
  339TMC3     H 5089   0.234   2.374   0.915  1.7939 -2.2092  1.3715
  339TMC3    H1 5090   0.539   2.396   0.604  0.0371 -0.0779  0.2425
  339TMC3    H2 5091   0.128   2.450   0.506  1.1427 -1.2573 -1.1480
  339TMC3    C7 5092   0.385   2.509   0.440  0.5057  0.2772  0.5628
  339TMC3    C8 5093   0.034   2.440   0.748 -0.7060  0.7562  0.6953
  339TMC3    O1 5094   0.495   2.560   0.457  0.0461  0.4264  0.7331
  339TMC3    O2 5095   4.707   2.543   0.700 -0.2896  0.0116  0.0009
  340MPD2     C 5096   1.735   0.496  10.564 -0.4656  0.2584  0.3379
  340MPD2    C1 5097   1.671   0.377  10.588  0.2191 -0.9224 -0.2445
  340MPD2    C2 5098   1.637   0.346  10.720 -0.1866 -0.3353  0.2698
  340MPD2    C3 5099   1.675   0.439  10.826  0.4909  0.3410  0.4565
  340MPD2    C4 5100   1.742   0.550  10.788  0.1337  0.0319  0.3094
  340MPD2    C5 5101   1.772   0.579  10.661 -0.2907 -0.6073 -0.2879
  340MPD2     H 5102   1.601   0.248  10.747 -1.2540 -0.4243 -1.4760
  340MPD2    H1 5103   1.774   0.620  10.864 -1.4366  1.3491 -0.2208
  340MPD2    H2 5104   1.785   0.510  10.469 -1.9028  0.4513 -0.3946
  340MPD2    H3 5105   1.824   0.671  10.639 -0.9966 -0.4135 -1.1697
  340MPD2     N 5106   1.689   0.398  10.958  0.6950  0.8527  0.3831
  340MPD2    H5 5107   1.753   0.454  11.013  0.8434  0.6300  0.4389
  340MPD2    N1 5108   1.648   0.295  10.469  0.0180  0.1990  0.6967
  340MPD2    H7 5109   1.688   0.334  10.384  0.5383 -1.0998  0.3527
  341TMC3    C1 5110   1.612   0.096  10.344  0.3327  0.4923  0.6733
  341TMC3    C2 5111   1.544   4.702  10.332 -0.2291  0.0565  0.3890
  341TMC3    C3 5112   1.537   4.644  10.212 -0.1187  1.0126  0.0026
  341TMC3    C4 5113   1.680   0.156  10.241  0.6079  0.2843 -0.0734
  341TMC3    C5 5114   1.681   0.083  10.122 -0.9999  0.3186 -0.3271
  341TMC3    C6 5115   1.599   4.692  10.105 -0.2492 -0.7881  0.4005
  341TMC3     C 5116   1.600   0.167  10.471  0.1751 -0.3417  0.3664
  341TMC3     O 5117   1.554   0.101  10.562  0.1387 -0.8674 -0.1326
  341TMC3     H 5118   1.482   4.663  10.412  0.1127  0.5242  0.8767
  341TMC3    H1 5119   1.740   0.246  10.249  0.4307  0.3367  0.6385
  341TMC3    H2 5120   1.606   4.639  10.010 -0.0151 -1.0877  0.5845
  341TMC3    C7 5121   1.756   0.120  10.007 -0.1876  0.5689 -0.1259
  341TMC3    C8 5122   1.463   4.520  10.188  0.5503 -0.0977  0.5745
  341TMC3    O1 5123   1.791   0.021   9.941  0.1295 -0.2369 -0.2921
  341TMC3    O2 5124   1.471   4.432  10.274 -0.5112  0.4306 -0.2967
  342MPD2     C 5125   3.445   4.062  16.742  0.1556 -0.6280  0.5041
  342MPD2    C1 5126   3.404   4.081  16.871  0.5035  0.1043  0.0190
  342MPD2    C2 5127   3.358   4.205  16.909  0.5621  0.4552 -0.1194
  342MPD2    C3 5128   3.356   4.314  16.823  0.2512 -0.8162  0.0671
  342MPD2    C4 5129   3.397   4.291  16.691 -0.1380  0.7524 -0.7541
  342MPD2    C5 5130   3.443   4.164  16.653  0.0736 -0.6368  0.3270
  342MPD2     H 5131   3.350   4.225  17.015 -0.3598 -2.2515  0.3310
  342MPD2    H1 5132   3.406   4.376  16.624 -1.3431  0.4486 -1.2835
  342MPD2    H2 5133   3.494   3.973  16.703  1.8011  0.7367 -0.5209
  342MPD2    H3 5134   3.480   4.150  16.552 -2.2052  2.9304 -0.9852
  342MPD2     N 5135   3.331   4.448  16.854  0.6233  0.6806  0.1934
  342MPD2    H5 5136   3.355   4.524  16.791  0.5283 -0.1712 -0.8802
  342MPD2    N1 5137   3.433   3.985  16.973 -0.3442 -0.6682  0.0208
  342MPD2    H7 5138   3.435   4.010  17.071  0.1871 -0.8749  0.0661
  343TMC3    C1 5139   3.530   3.788  17.064  0.1228 -0.2576  0.8854
  343TMC3    C2 5140   3.638   3.851  17.109 -0.0791 -0.6201  0.4253
  343TMC3    C3 5141   3.722   3.782  17.185 -0.1826 -0.1405  0.2467
  343TMC3    C4 5142   3.500   3.656  17.074 -0.6142 -1.2757 -0.6902
  343TMC3    C5 5143   3.592   3.593  17.152  0.8955 -0.0832 -0.2447
  343TMC3    C6 5144   3.706   3.652  17.216  1.4172 -0.6919 -0.0816
  343TMC3     C 5145   3.466   3.855  16.946  0.3841 -0.0789  0.5870
  343TMC3     O 5146   3.432   3.790  16.845  0.1516  0.0095  0.3614
  343TMC3     H 5147   3.667   3.953  17.088 -3.6413  0.8392  2.5855
  343TMC3    H1 5148   3.408   3.609  17.041 -0.9564 -0.5918 -0.6982
  343TMC3    H2 5149   3.772   3.606  17.288  0.1668  1.6795  2.5395
  343TMC3    C7 5150   3.549   3.469  17.211  0.9967  0.0797 -0.1016
  343TMC3    C8 5151   3.855   3.830  17.221  0.5533  0.6452  0.2471
  343TMC3    O1 5152   3.484   3.390  17.144  0.5189  0.2667 -0.5828
  343TMC3    O2 5153   3.872   3.953  17.237  0.5376  0.3144 -0.1515
  344MPD2     C 5154   0.580   2.976  10.964  0.1506 -0.3545 -0.0504
  344MPD2    C1 5155   0.464   2.983  10.887 -0.2190 -0.6752 -0.3050
  344MPD2    C2 5156   0.442   3.105  10.816  0.5939  0.0310  0.0838
  344MPD2    C3 5157   0.536   3.208  10.819 -0.1776 -0.5740 -0.5992
  344MPD2    C4 5158   0.654   3.190  10.896  0.9019 -0.0791  0.1532
  344MPD2    C5 5159   0.671   3.075  10.971  0.0978  0.4043  0.2352
  344MPD2     H 5160   0.343   3.129  10.779 -0.9316 -3.2984  2.1001
  344MPD2    H1 5161   0.738   3.259  10.893  0.5112  0.5369  3.1374
  344MPD2    H2 5162   0.597   2.891  11.030  1.2525 -0.4679 -0.4822
  344MPD2    H3 5163   0.768   3.074  11.018  0.5353 -0.2107 -0.6669
  344MPD2     N 5164   0.527   3.327  10.740  0.3338  0.1533  0.0201
  344MPD2    H5 5165   0.606   3.390  10.756 -1.3324  2.6119 -1.5787
  344MPD2    N1 5166   0.375   2.876  10.876 -0.6176  0.3003  0.2388
  344MPD2    H7 5167   0.291   2.895  10.822  0.7380  1.9630 -1.3122
  345TMC3    C1 5168   0.456   3.476  10.577 -0.1706  0.4612  0.4315
  345TMC3    C2 5169   0.570   3.545  10.615 -0.1441 -0.1411 -0.0601
  345TMC3    C3 5170   0.644   3.612  10.520  0.1480  0.3935 -0.2544
  345TMC3    C4 5171   0.411   3.469  10.442  1.3158 -0.0716 -0.0096
  345TMC3    C5 5172   0.478   3.549  10.352 -0.5455 -0.7780  0.1723
  345TMC3    C6 5173   0.596   3.613  10.390  0.4206  0.0136 -0.3631
  345TMC3     C 5174   0.421   3.360  10.657 -0.7299 -0.1072 -0.0493
  345TMC3     O 5175   0.318   3.295  10.636 -0.2800  0.3484  0.2194
  345TMC3     H 5176   0.592   3.548  10.721  0.1609 -2.0543 -0.0826
  345TMC3    H1 5177   0.314   3.426  10.419  1.8495 -0.6735 -1.1103
  345TMC3    H2 5178   0.659   3.663  10.316  0.4274  1.8359  0.8881
  345TMC3    C7 5179   0.420   3.599  10.226 -0.3313  0.1126  0.3668
  345TMC3    C8 5180   0.717   3.727  10.555  0.4384  0.3926 -0.4583
  345TMC3    O1 5181   0.495   3.662  10.151  0.2620 -0.1720  0.0425
  345TMC3    O2 5182   0.710   3.822  10.472 -0.4080  0.1683  0.0554
  346MPD2     C 5183   0.528   0.029  13.987  0.9985  0.0507 -1.0780
  346MPD2    C1 5184   0.627   0.119  14.037  0.1621 -0.9862  0.0539
  346MPD2    C2 5185   0.583   0.232  14.104 -0.2865 -0.1703  0.1542
  346MPD2    C3 5186   0.448   0.247  14.134  0.1139 -0.1853  0.0299
  346MPD2    C4 5187   0.352   0.158  14.083 -0.1690  0.1278  0.2565
  346MPD2    C5 5188   0.394   0.052  14.009  0.0299  0.5189  0.1294
  346MPD2     H 5189   0.648   0.313  14.134 -1.3722  0.8127 -0.1423
  346MPD2    H1 5190   0.245   0.164  14.101 -0.4150  0.9329 -1.4861
  346MPD2    H2 5191   0.549   4.667  13.922 -2.2775 -1.6490  0.0619
  346MPD2    H3 5192   0.315   4.708  13.975  0.2822 -0.2308  1.0348
  346MPD2     N 5193   0.411   0.358  14.207  0.0230 -0.3868 -0.3650
  346MPD2    H5 5194   0.494   0.415  14.222  1.4989 -2.3419 -1.1698
  346MPD2    N1 5195   0.763   0.119  14.012  0.8152 -0.5258  0.0455
  346MPD2    H7 5196   0.818   0.199  14.041  0.3806 -0.0858 -0.3464
  347TMC3    C1 5197   0.305   0.520  14.327  0.4305  0.0698 -0.5099
  347TMC3    C2 5198   0.432   0.572  14.329  0.7247 -0.7993 -0.0207
  347TMC3    C3 5199   0.457   0.659  14.433 -0.4987 -0.4417 -0.3434
  347TMC3    C4 5200   0.208   0.560  14.410  0.1076 -0.6312 -0.3486
  347TMC3    C5 5201   0.241   0.654  14.508  0.2607  0.0515 -0.4810
  347TMC3    C6 5202   0.369   0.699  14.524  0.0774  0.3487  0.3432
  347TMC3     C 5203   0.283   0.408  14.244 -0.6929  0.3104 -0.5400
  347TMC3     O 5204   0.173   0.348  14.234 -0.5517 -0.2157 -0.1603
  347TMC3     H 5205   0.496   0.570  14.242  0.8324  2.8656 -0.0404
  347TMC3    H1 5206   0.119   0.499  14.412 -0.2834 -0.0401  0.3784
  347TMC3    H2 5207   0.395   0.751  14.615  0.5934 -1.3947  1.1978
  347TMC3    C7 5208   0.133   0.682  14.604 -0.1766  0.5595  0.2128
  347TMC3    C8 5209   0.597   0.644  14.467 -0.0843  0.2566 -0.4060
  347TMC3    O1 5210   0.049   0.598  14.631  0.1181  0.0274  0.7186
  347TMC3    O2 5211   0.658   0.547  14.426  0.5058  0.3961 -0.2218
  348MPD2     C 5212   4.229   4.299  12.445 -0.1613  0.0669  0.1698
  348MPD2    C1 5213   4.145   4.270  12.339 -0.2910  0.0143 -0.0191
  348MPD2    C2 5214   4.107   4.364  12.247 -0.3560  0.2439 -0.2661
  348MPD2    C3 5215   4.138   4.498  12.264  0.1284  0.0599  0.0180
  348MPD2    C4 5216   4.222   4.535  12.368  0.7546 -0.5439  0.2101
  348MPD2    C5 5217   4.264   4.434  12.456 -0.5245 -0.0316 -0.1519
  348MPD2     H 5218   4.072   4.325  12.152  1.3443  2.4772 -1.7864
  348MPD2    H1 5219   4.251   4.639  12.379  1.6664 -0.4452 -3.2152
  348MPD2    H2 5220   4.268   4.223  12.512  2.4424  0.7503 -0.5720
  348MPD2    H3 5221   4.333   4.460  12.536  0.9754 -0.0223 -1.4463
  348MPD2     N 5222   4.083   4.590  12.172  0.3670  0.0236  0.3572
  348MPD2    H5 5223   4.129   4.680  12.164  1.4648 -0.6038 -0.3816
  348MPD2    N1 5224   4.095   4.135  12.317 -0.1637  0.5971  0.7510
  348MPD2    H7 5225   4.039   4.120  12.234  1.3983 -0.6845 -0.0606
  349TMC3    C1 5226   4.061   3.904  12.334 -0.3717  0.2835  0.4174
  349TMC3    C2 5227   4.117   3.790  12.368 -0.6584 -0.3243 -0.5155
  349TMC3    C3 5228   4.069   3.679  12.317  0.3835 -0.6108 -0.0425
  349TMC3    C4 5229   3.944   3.925  12.264 -0.6134  1.3832  0.4638
  349TMC3    C5 5230   3.893   3.807  12.224 -0.3333  0.1407  0.0492
  349TMC3    C6 5231   3.950   3.680  12.253  0.6122 -0.6000  0.4462
  349TMC3     C 5232   4.114   4.026  12.395  0.6934  0.1015 -0.5207
  349TMC3     O 5233   4.191   4.007  12.487  0.0795 -0.7502  0.0527
  349TMC3     H 5234   4.195   3.771  12.441 -0.2766  0.0734 -0.8179
  349TMC3    H1 5235   3.891   4.020  12.262 -2.2541  0.4905  1.7938
  349TMC3    H2 5236   3.905   3.591  12.211 -0.5249  1.2404 -2.2347
  349TMC3    C7 5237   3.782   3.818  12.127  0.0052  0.3325 -0.6658
  349TMC3    C8 5238   4.092   3.569  12.402 -0.0928  0.6533  0.8704
  349TMC3    O1 5239   3.710   3.723  12.119  0.5849 -0.4490 -0.1118
  349TMC3    O2 5240   3.997   3.526  12.468  0.1055  0.2262  0.3621
  350MPD2     C 5241   2.956   2.603  10.253 -0.8821 -0.2727  0.0132
  350MPD2    C1 5242   3.021   2.475  10.246 -0.5449  0.1293 -0.6745
  350MPD2    C2 5243   3.155   2.462  10.231 -0.4640 -0.3748  0.4983
  350MPD2    C3 5244   3.234   2.575  10.234  0.5376 -0.0990  0.3809
  350MPD2    C4 5245   3.177   2.696  10.246 -0.0488  0.4479 -0.1816
  350MPD2    C5 5246   3.040   2.712  10.248 -0.2533 -0.4302 -1.1742
  350MPD2     H 5247   3.210   2.368  10.231 -0.1610 -0.1911 -1.8945
  350MPD2    H1 5248   3.236   2.786  10.251 -2.1898  1.9254 -1.9555
  350MPD2    H2 5249   2.855   2.621  10.288 -0.4467  1.3548  0.4484
  350MPD2    H3 5250   2.988   2.807  10.243  1.7300  0.5342 -3.3439
  350MPD2     N 5251   3.375   2.553  10.230  0.0892 -0.0088 -0.3175
  350MPD2    H5 5252   3.399   2.454  10.231 -0.1153 -0.0982 -3.7996
  350MPD2    N1 5253   2.949   2.350  10.245  0.2040  0.1421  0.6437
  350MPD2    H7 5254   3.005   2.267  10.234  0.2079  0.4127 -1.3621
  351TMC3    C1 5255   2.777   2.190  10.299  0.1376  0.2168  0.3850
  351TMC3    C2 5256   2.847   2.084  10.252  0.1763  0.1029  0.2400
  351TMC3    C3 5257   2.790   1.957  10.254 -0.0911  0.0714  0.6112
  351TMC3    C4 5258   2.649   2.173  10.345 -0.2126 -0.8116 -0.4476
  351TMC3    C5 5259   2.605   2.052  10.371 -0.3368  0.1654 -0.3355
  351TMC3    C6 5260   2.673   1.936  10.329  0.3018 -0.4283 -0.2288
  351TMC3     C 5261   2.816   2.334  10.287 -0.1080  0.6394  0.3177
  351TMC3     O 5262   2.730   2.414  10.315 -0.1525 -0.5000 -0.4137
  351TMC3     H 5263   2.944   2.108  10.209  0.2793 -1.1878 -0.2289
  351TMC3    H1 5264   2.600   2.259  10.389 -0.3517  0.4396 -3.0353
  351TMC3    H2 5265   2.632   1.837  10.342 -0.8508  0.0078 -0.5029
  351TMC3    C7 5266   2.481   2.032  10.442  1.0075  0.1067  0.4551
  351TMC3    C8 5267   2.868   1.839  10.225 -0.3346 -0.2129 -0.0224
  351TMC3    O1 5268   2.408   2.134  10.438  0.1310 -0.0419 -0.3183
  351TMC3    O2 5269   2.990   1.860  10.221 -0.2847  0.0435 -0.5417
  352MPD2     C 5270   1.126   0.514   1.390  0.5211  0.7670 -0.5948
  352MPD2    C1 5271   1.001   0.556   1.423  0.2758 -0.1403  0.2082
  352MPD2    C2 5272   0.947   0.517   1.545 -0.1883  0.2882  0.1522
  352MPD2    C3 5273   1.019   0.418   1.628  0.9230  0.5122  0.4517
  352MPD2    C4 5274   1.153   0.396   1.596  0.4036 -0.9652 -0.1686
  352MPD2    C5 5275   1.202   0.442   1.475 -0.0997 -0.5405  0.6799
  352MPD2     H 5276   0.851   0.566   1.560  0.1991  1.6101 -1.6315
  352MPD2    H1 5277   1.210   0.331   1.661 -0.6803  0.1200  1.8813
  352MPD2    H2 5278   1.167   0.543   1.293  1.7814  0.2852 -0.2086
  352MPD2    H3 5279   1.307   0.427   1.452 -1.3245 -2.8108 -3.4365
  352MPD2     N 5280   0.961   0.344   1.730 -1.4246 -0.0518 -0.5388
  352MPD2    H5 5281   1.017   0.277   1.781 -4.1172 -1.3199  0.7311
  352MPD2    N1 5282   0.929   0.648   1.340 -0.1487 -0.0090  0.9399
  352MPD2    H7 5283   0.853   0.702   1.380 -0.3153  1.0764 -0.7921
  353TMC3    C1 5284   0.797   0.250   1.869  0.5223 -0.1102  0.5531
  353TMC3    C2 5285   0.896   0.201   1.952  0.0852  0.3672 -0.0411
  353TMC3    C3 5286   0.875   0.077   2.008 -0.7551 -0.0395 -0.1459
  353TMC3    C4 5287   0.677   0.182   1.851 -0.4544  0.5839  1.1377
  353TMC3    C5 5288   0.663   0.058   1.910  0.2814  0.6854  0.2851
  353TMC3    C6 5289   0.759   0.004   1.990 -0.0731  0.3369 -0.0785
  353TMC3     C 5290   0.827   0.348   1.767 -0.6161  0.1302 -0.4950
  353TMC3     O 5291   0.738   0.405   1.705  0.9667 -0.1447  0.2876
  353TMC3     H 5292   0.991   0.252   1.966  1.3146 -2.0137  0.2512
  353TMC3    H1 5293   0.601   0.220   1.784 -0.4730 -0.9351  0.3106
  353TMC3    H2 5294   0.739   4.629   2.033 -1.4857 -0.2682 -2.1519
  353TMC3    C7 5295   0.584   4.685   1.837 -0.1846  0.1950  0.1385
  353TMC3    C8 5296   0.975   0.027   2.101 -0.1865 -0.8415  0.8585
  353TMC3    O1 5297   0.639   4.585   1.796 -0.1909 -0.4614  0.1522
  353TMC3    O2 5298   1.064   0.102   2.132  0.6291  0.2366  0.5064
  354TMC3    C1 5299   3.176   1.317  13.385 -0.2914  0.6976  0.0094
  354TMC3    C2 5300   3.154   1.432  13.316 -0.1770  0.1337 -0.2952
  354TMC3    C3 5301   3.192   1.434  13.187  0.0984 -0.5594  0.1412
  354TMC3    C4 5302   3.227   1.198  13.327  0.2020  0.4358 -0.8554
  354TMC3    C5 5303   3.246   1.205  13.193  0.0973  0.7201  0.3084
  354TMC3    C6 5304   3.230   1.322  13.118  0.2545  0.2991  0.3561
  354TMC3     C 5305   3.120   1.311  13.519  0.0127  0.8873  0.3922
  354TMC3     O 5306   3.035   1.389  13.555  0.7847 -0.2024  0.2515
  354TMC3     H 5307   3.123   1.523  13.366  1.8404 -0.8626  2.7862
  354TMC3    H1 5308   3.219   1.106  13.382 -1.0663  0.6060 -0.7569
  354TMC3    H2 5309   3.248   1.317  13.011  0.3364  1.1306  0.3376
  354TMC3    C7 5310   3.204   1.081  13.128 -0.4029  0.5172 -0.8270
  354TMC3    C8 5311   3.155   1.540  13.093  0.3817  0.0524  0.2720
  354TMC3    O1 5312   3.121   1.018  13.188 -0.2110  0.5173 -0.1573
  354TMC3    O2 5313   3.217   1.553  12.989 -0.6669  0.5561 -0.4592
  355MPD2     C 5314   2.840   1.509  11.381 -0.4922 -0.5333 -0.1817
  355MPD2    C1 5315   2.943   1.485  11.284 -0.2841  1.2969  0.4014
  355MPD2    C2 5316   3.074   1.517  11.329 -0.0398  0.0374 -0.1390
  355MPD2    C3 5317   3.094   1.585  11.456 -0.4292 -0.5845  0.0269
  355MPD2    C4 5318   2.996   1.592  11.551  0.5647  0.6411 -0.5405
  355MPD2    C5 5319   2.872   1.549  11.507 -0.3885 -0.4289  0.2506
  355MPD2     H 5320   3.146   1.514  11.248 -0.0536 -0.9222 -0.1172
  355MPD2    H1 5321   3.008   1.631  11.651 -2.5019 -2.1089  0.9076
  355MPD2    H2 5322   2.741   1.494  11.342 -0.2375 -0.3329 -0.9003
  355MPD2    H3 5323   2.787   1.576  11.569  0.5182  2.5569  0.2050
  355MPD2     N 5324   3.226   1.622  11.496  0.0337 -0.3415  0.4725
  355MPD2    H5 5325   3.241   1.650  11.593 -0.5992 -1.7856  0.9884
  355MPD2    N1 5326   2.896   1.447  11.157  0.1143  0.3277  0.5423
  355MPD2    H7 5327   2.803   1.406  11.150 -0.5707  2.2441 -1.3552
  356TMC3    C1 5328   3.441   1.708  11.483 -0.1795  0.5654 -0.3832
  356TMC3    C2 5329   3.518   1.783  11.403 -0.5381  1.4107 -0.1930
  356TMC3    C3 5330   3.633   1.828  11.465  0.0503 -0.7982 -0.0387
  356TMC3    C4 5331   3.462   1.680  11.612  0.3634 -0.2970  0.7798
  356TMC3    C5 5332   3.578   1.721  11.672 -0.1290 -0.2193  0.5572
  356TMC3    C6 5333   3.666   1.797  11.595 -0.0569  0.8774 -0.0596
  356TMC3     C 5334   3.333   1.636  11.417 -0.0965  0.3479  0.6247
  356TMC3     O 5335   3.347   1.607  11.302  0.4731  0.3763 -0.3271
  356TMC3     H 5336   3.517   1.767  11.296  1.7982  1.5182 -0.2260
  356TMC3    H1 5337   3.401   1.610  11.669 -2.2647 -0.8656 -2.7535
  356TMC3    H2 5338   3.764   1.820  11.636 -0.5939 -0.3215  1.9195
  356TMC3    C7 5339   3.606   1.700  11.809  0.1717  0.1698  0.0026
  356TMC3    C8 5340   3.739   1.873  11.375 -0.3950  0.8999 -0.9472
  356TMC3    O1 5341   3.544   1.605  11.857 -0.6713 -0.3276  0.0857
  356TMC3    O2 5342   3.743   1.835  11.260  0.3628  0.2765 -0.5707
  357MPD2     C 5343   2.257   1.465   2.012  0.2930 -0.0487  0.1484
  357MPD2    C1 5344   2.323   1.475   1.886 -0.5473  0.6606 -0.5250
  357MPD2    C2 5345   2.252   1.499   1.771  0.2350  0.3405 -0.6624
  357MPD2    C3 5346   2.116   1.519   1.780  0.5236  0.1431 -0.0031
  357MPD2    C4 5347   2.052   1.518   1.906 -0.5067 -0.1128 -0.9823
  357MPD2    C5 5348   2.125   1.492   2.018 -0.7766  0.7692 -0.2159
  357MPD2     H 5349   2.300   1.527   1.678 -1.2294  2.6312 -0.7315
  357MPD2    H1 5350   1.947   1.541   1.915 -0.1770  0.4041  1.5404
  357MPD2    H2 5351   2.303   1.423   2.101 -2.0634 -0.7271  1.0379
  357MPD2    H3 5352   2.073   1.484   2.112  0.0287 -2.8242 -0.0929
  357MPD2     N 5353   2.032   1.563   1.672 -0.2521 -0.5603 -0.1904
  357MPD2    H5 5354   1.930   1.566   1.675 -0.1698  1.5591  0.2081
  357MPD2    N1 5355   2.461   1.461   1.872  0.4529  0.5641  0.1939
  357MPD2    H7 5356   2.497   1.475   1.779  1.1658 -0.4004  0.3199
  358TMC3    C1 5357   2.686   1.432   1.913  0.0627 -0.0757  0.7590
  358TMC3    C2 5358   2.699   1.473   1.781 -0.5952 -0.5128  0.1495
  358TMC3    C3 5359   2.818   1.436   1.730  0.0590 -0.2859  0.1350
  358TMC3    C4 5360   2.781   1.379   1.989 -0.1248 -0.2993 -0.3633
  358TMC3    C5 5361   2.907   1.383   1.937  0.4465 -0.2317 -0.8015
  358TMC3    C6 5362   2.918   1.377   1.799 -1.0288  0.6403  0.2076
  358TMC3     C 5363   2.551   1.423   1.964 -0.7061  0.0434  0.1561
  358TMC3     O 5364   2.537   1.382   2.079  0.1077 -0.5885  0.2670
  358TMC3     H 5365   2.628   1.534   1.727 -2.0712 -0.1155  2.5187
  358TMC3    H1 5366   2.763   1.362   2.095 -0.6613 -0.8392 -0.5438
  358TMC3    H2 5367   3.016   1.386   1.755 -0.6365 -0.1881  0.8977
  358TMC3    C7 5368   3.008   1.306   2.004  0.4800  0.5273  0.7230
  358TMC3    C8 5369   2.826   1.440   1.580  0.3033 -0.4185 -0.2830
  358TMC3    O1 5370   3.023   1.328   2.123  0.4378  0.2896 -0.3683
  358TMC3    O2 5371   2.744   1.500   1.517  0.2946  0.3328 -0.0783
  359MPD2     C 5372   3.585   0.426  12.896  0.1864 -0.2558 -1.0596
  359MPD2    C1 5373   3.595   0.342  12.786 -0.0542 -0.8251  0.3152
  359MPD2    C2 5374   3.492   0.266  12.746  0.0180  0.4270 -0.2367
  359MPD2    C3 5375   3.377   0.261  12.825  0.4066 -0.1717  0.0130
  359MPD2    C4 5376   3.369   0.346  12.934  0.2086  0.7047 -0.6347
  359MPD2    C5 5377   3.475   0.425  12.971  0.0957 -0.1688  1.0282
  359MPD2     H 5378   3.500   0.217  12.650 -1.2949 -0.4148  0.0804
  359MPD2    H1 5379   3.284   0.334  13.001 -0.0811  2.9671 -0.5801
  359MPD2    H2 5380   3.653   0.508  12.917  1.1309 -1.2553 -0.2226
  359MPD2    H3 5381   3.472   0.491  13.058  0.2862 -0.8023  1.5175
  359MPD2     N 5382   3.266   0.171  12.808 -0.1321 -0.0745  0.4518
  359MPD2    H5 5383   3.194   0.165  12.879 -0.1000  1.2964  0.5936
  359MPD2    N1 5384   3.713   0.347  12.703  0.0788 -0.2932 -0.3984
  359MPD2    H7 5385   3.703   0.288  12.621  1.7280 -1.2808  0.1139
  360TMC3    C1 5386   3.928   0.368  12.620 -0.1820  1.4630 -0.2807
  360TMC3    C2 5387   4.043   0.444  12.618 -0.2078 -0.4357 -0.6112
  360TMC3    C3 5388   4.124   0.430  12.508  0.1186  0.0231  0.2309
  360TMC3    C4 5389   3.902   0.282  12.514 -0.5471  0.4571 -0.4274
  360TMC3    C5 5390   3.996   0.259  12.414  0.0988  0.0563  0.7558
  360TMC3    C6 5391   4.111   0.329  12.415 -0.1424  0.1476 -0.7022
  360TMC3     C 5392   3.835   0.394  12.733  0.2791 -0.7346  0.1979
  360TMC3     O 5393   3.873   0.449  12.839  0.0812  0.0725 -0.4844
  360TMC3     H 5394   4.061   0.520  12.693  0.1158 -0.4879 -0.6337
  360TMC3    H1 5395   3.809   0.227  12.518  0.5001 -1.2417  0.1543
  360TMC3    H2 5396   4.184   0.313  12.336 -1.1897  2.4252 -2.1171
  360TMC3    C7 5397   3.961   0.190  12.291 -0.2052 -0.7262  0.1472
  360TMC3    C8 5398   4.216   0.544  12.484 -0.7074  0.9931 -0.3147
  360TMC3    O1 5399   4.012   0.231  12.186  0.5629 -0.4320  0.6346
  360TMC3    O2 5400   4.189   0.648  12.541  0.2839 -0.2572  0.4411
  361MPD2     C 5401   0.498   4.191  16.906  0.4468 -0.5954  0.9836
  361MPD2    C1 5402   0.525   4.268  17.013 -0.0467 -0.3489 -0.2009
  361MPD2    C2 5403   0.560   4.205  17.132  1.0591  0.2693 -0.0307
  361MPD2    C3 5404   0.579   4.064  17.137  0.3481  0.1053  0.4007
  361MPD2    C4 5405   0.540   3.990  17.025  0.1583  0.2811 -0.3296
  361MPD2    C5 5406   0.497   4.055  16.911 -0.0902  0.6469  0.8827
  361MPD2     H 5407   0.577   4.274  17.214  0.6478  0.3872 -0.0442
  361MPD2    H1 5408   0.543   3.881  17.025 -1.8472  0.2230 -2.9995
  361MPD2    H2 5409   0.470   4.230  16.808  1.4809  0.7296  1.2193
  361MPD2    H3 5410   0.455   3.999  16.828  0.2961  0.3617  0.8776
  361MPD2     N 5411   0.635   3.999  17.254 -0.0434  0.6195  0.7134
  361MPD2    H5 5412   0.650   3.898  17.251  2.2613  0.9514  0.9412
  361MPD2    N1 5413   0.506   4.412  17.007  0.6001  0.5082  0.0217
  361MPD2    H7 5414   0.520   4.457  17.097  0.6162  0.6420 -0.0466
  362TMC3    C1 5415   0.378   4.597  16.941 -0.6857 -0.0533 -0.3228
  362TMC3    C2 5416   0.372   4.647  17.070  1.5537  0.4169  0.1781
  362TMC3    C3 5417   0.278   0.022  17.094 -0.9166  0.2775  0.4345
  362TMC3    C4 5418   0.283   4.632  16.848 -0.1382 -0.1465  0.3286
  362TMC3    C5 5419   0.194   0.001  16.877  0.9730 -0.1116  0.1521
  362TMC3    C6 5420   0.184   0.061  17.002  0.3224 -0.9800 -0.5928
  362TMC3     C 5421   0.449   4.481  16.904  0.4930  0.1415 -0.2175
  362TMC3     O 5422   0.431   4.444  16.786 -0.0476  0.2345  0.1259
  362TMC3     H 5423   0.449   4.621  17.142 -0.1206 -1.8846  1.1155
  362TMC3    H1 5424   0.295   4.598  16.745  0.2780  0.0444  0.3112
  362TMC3    H2 5425   0.116   0.144  17.016  0.2327 -1.4558  1.7519
  362TMC3    C7 5426   0.096   0.044  16.783 -0.5200 -0.0579 -0.5958
  362TMC3    C8 5427   0.279   0.083  17.227 -0.2626  0.2015  0.5969
  362TMC3    O1 5428   0.065   0.163  16.788 -0.2687 -0.0080  0.1512
  362TMC3    O2 5429   0.373   0.068  17.303  0.4461 -0.3258  0.1657
  363TMC3    C1 5430   3.091   1.618   9.696 -0.2263  1.3007  0.3373
  363TMC3    C2 5431   3.218   1.573   9.654 -0.5211  0.3568  0.2169
  363TMC3    C3 5432   3.304   1.671   9.605 -0.0406 -0.8703  0.2260
  363TMC3    C4 5433   3.053   1.747   9.683 -0.2068 -0.4103 -0.7526
  363TMC3    C5 5434   3.146   1.844   9.640  0.1837 -0.5517  0.2782
  363TMC3    C6 5435   3.265   1.801   9.605 -0.3404  0.3818 -0.0122
  363TMC3     C 5436   2.997   1.512   9.728  0.1741  0.2166 -0.4107
  363TMC3     O 5437   3.037   1.399   9.714  0.4532 -0.6307 -0.1438
  363TMC3     H 5438   3.255   1.472   9.674  0.8048  0.9878  0.9593
  363TMC3    H1 5439   2.953   1.781   9.707 -0.2492 -2.8950  2.5642
  363TMC3    H2 5440   3.340   1.875   9.579  0.9449 -0.2400  1.9042
  363TMC3    C7 5441   3.117   1.983   9.625 -0.1589  0.8064 -0.0415
  363TMC3    C8 5442   3.441   1.645   9.573  0.6715  0.2146 -0.4942
  363TMC3    O1 5443   3.003   2.003   9.591 -0.0403 -0.2521  0.8380
  363TMC3    O2 5444   3.509   1.743   9.537  0.1560 -0.5109 -0.2504
  364MPD2     C 5445   2.510   0.548  10.797  0.4442 -0.2705 -0.3634
  364MPD2    C1 5446   2.516   0.667  10.858  0.7998 -0.4840 -0.6741
  364MPD2    C2 5447   2.496   0.678  10.990  0.4091 -0.8139  0.8354
  364MPD2    C3 5448   2.447   0.578  11.064  0.3339  0.1319 -0.3432
  364MPD2    C4 5449   2.425   0.459  11.004 -0.0008  0.1571 -0.0534
  364MPD2    C5 5450   2.466   0.444  10.873 -0.1285  0.7030  0.3518
  364MPD2     H 5451   2.538   0.761  11.046  0.3796 -0.3950  0.2403
  364MPD2    H1 5452   2.399   0.369  11.059  0.7257 -1.5748 -2.5196
  364MPD2    H2 5453   2.540   0.543  10.692  1.2685 -0.8385 -0.1004
  364MPD2    H3 5454   2.464   0.348  10.823 -4.5309  0.6631  0.5879
  364MPD2     N 5455   2.436   0.589  11.207  0.3980 -0.1792 -0.6640
  364MPD2    H5 5456   2.408   0.502  11.250  1.8773 -0.0068  0.6311
  364MPD2    N1 5457   2.537   0.787  10.782  0.3715  0.4997 -0.4881
  364MPD2    H7 5458   2.569   0.776  10.686 -0.0343 -0.8900 -0.4664
  365TMC3    C1 5459   2.548   1.022  10.734  1.0760  0.0034  0.1170
  365TMC3    C2 5460   2.541   0.993  10.599  0.1476 -0.0016  0.4096
  365TMC3    C3 5461   2.591   1.096  10.529  0.4358  0.1619  0.8457
  365TMC3    C4 5462   2.579   1.143  10.790  0.3882 -0.7394  0.5795
  365TMC3    C5 5463   2.611   1.243  10.706 -0.7190  0.2312  0.5441
  365TMC3    C6 5464   2.620   1.223  10.575  0.3379  0.4444 -0.6784
  365TMC3     C 5465   2.524   0.915  10.831  0.3232  1.3060  0.1939
  365TMC3     O 5466   2.475   0.956  10.935  0.2050 -0.4091  0.2675
  365TMC3     H 5467   2.485   0.908  10.562 -1.9378  1.1050  1.0338
  365TMC3    H1 5468   2.593   1.145  10.897 -1.1497  0.3518  0.7597
  365TMC3    H2 5469   2.649   1.300  10.504  0.7764  0.4455 -0.4982
  365TMC3    C7 5470   2.623   1.374  10.769  0.3460  0.3027 -0.4793
  365TMC3    C8 5471   2.602   1.087  10.389 -0.4812 -0.2216 -1.1942
  365TMC3    O1 5472   2.686   1.452  10.699 -0.4456  0.0122 -0.6250
  365TMC3    O2 5473   2.568   1.188  10.324 -0.9929 -0.0230 -0.1530
  366MPD2     C 5474   0.335   2.431  15.692  0.9315  0.3728 -0.3233
  366MPD2    C1 5475   0.411   2.506  15.780  0.3400  0.1498 -0.4718
  366MPD2    C2 5476   0.512   2.450  15.850 -0.1154 -0.4787 -0.2405
  366MPD2    C3 5477   0.544   2.319  15.833 -0.2617 -0.0430  0.6737
  366MPD2    C4 5478   0.470   2.246  15.737  0.2210 -0.6678  0.3781
  366MPD2    C5 5479   0.372   2.299  15.660  0.0604  0.8959  0.4492
  366MPD2     H 5480   0.579   2.516  15.903 -1.6655 -0.2028  1.3798
  366MPD2    H1 5481   0.499   2.144  15.713 -0.4479 -0.1952 -2.4947
  366MPD2    H2 5482   0.243   2.462  15.645 -0.5563 -2.5916  0.6295
  366MPD2    H3 5483   0.305   2.240  15.598  2.1000 -1.2507  0.2633
  366MPD2     N 5484   0.657   2.263  15.887 -0.7238  0.1254 -0.2470
  366MPD2    H5 5485   0.693   2.178  15.845  0.2613  0.7716 -0.6910
  366MPD2    N1 5486   0.397   2.650  15.774  0.3428 -0.1981 -0.2881
  366MPD2    H7 5487   0.465   2.703  15.828  1.0924 -1.8932  0.4173
  367TMC3    C1 5488   0.323   2.867  15.712 -0.1367  0.0351  0.3539
  367TMC3    C2 5489   0.437   2.923  15.770  0.4201  0.3104 -0.1664
  367TMC3    C3 5490   0.465   3.056  15.755  0.1069 -0.5872 -0.2262
  367TMC3    C4 5491   0.234   2.943  15.643  0.3727  0.1783  0.5408
  367TMC3    C5 5492   0.269   3.078  15.619  0.0104  0.2934  0.1553
  367TMC3    C6 5493   0.380   3.136  15.674 -0.7910 -0.5588  0.4092
  367TMC3     C 5494   0.309   2.723  15.698  0.0266  1.4747  0.1112
  367TMC3     O 5495   0.212   2.684  15.630 -0.2467 -0.5353 -0.1754
  367TMC3     H 5496   0.501   2.867  15.837  1.3671  0.4557 -0.9460
  367TMC3    H1 5497   0.146   2.891  15.606 -0.9902  2.0606  1.1496
  367TMC3    H2 5498   0.398   3.242  15.657 -1.4170 -1.0647 -3.4055
  367TMC3    C7 5499   0.179   3.158  15.539 -0.0354 -0.1570  0.4020
  367TMC3    C8 5500   0.590   3.100  15.821 -0.4201 -0.8584 -0.9368
  367TMC3    O1 5501   0.215   3.274  15.515  0.3898  0.4702  1.2184
  367TMC3    O2 5502   0.657   3.011  15.871  0.1108 -0.2333  0.1932
  368MPD2     C 5503   1.955   3.651  13.513  0.0535  0.2389 -0.0345
  368MPD2    C1 5504   1.926   3.667  13.380 -0.4172 -0.0969  0.1624
  368MPD2    C2 5505   2.013   3.743  13.308  0.0035  0.2828  0.1085
  368MPD2    C3 5506   2.129   3.794  13.369  0.4063 -0.3897 -0.3901
  368MPD2    C4 5507   2.151   3.772  13.499 -0.8036  0.8773 -0.1014
  368MPD2    C5 5508   2.066   3.694  13.579  0.0758 -0.6981 -0.1507
  368MPD2     H 5509   2.000   3.753  13.201 -1.2764  2.4089  0.4577
  368MPD2    H1 5510   2.236   3.823  13.545  0.0294  0.4811 -1.2103
  368MPD2    H2 5511   1.884   3.598  13.575 -0.8868  1.1043 -0.3766
  368MPD2    H3 5512   2.086   3.676  13.684  0.1308  1.9038  0.2876
  368MPD2     N 5513   2.233   3.861  13.297 -0.1079 -0.1478 -0.1697
  368MPD2    H5 5514   2.309   3.887  13.359  0.1981 -0.2876 -0.4925
  368MPD2    N1 5515   1.801   3.619  13.339 -0.4518 -0.0458  0.2851
  368MPD2    H7 5516   1.743   3.567  13.404  0.9595 -1.0142  0.7742
  369TMC3    C1 5517   1.598   3.607  13.209  0.7496  0.1273  0.5797
  369TMC3    C2 5518   1.541   3.651  13.094 -0.1213 -1.1764 -0.3001
  369TMC3    C3 5519   1.411   3.698  13.092 -1.9768  0.2306 -0.2090
  369TMC3    C4 5520   1.520   3.612  13.324 -0.4073 -0.5202 -0.1172
  369TMC3    C5 5521   1.392   3.668  13.318  0.1674 -0.4165  0.3630
  369TMC3    C6 5522   1.328   3.705  13.201 -0.3272 -0.2504  0.2599
  369TMC3     C 5523   1.745   3.633  13.222 -0.6358  0.7143 -0.3636
  369TMC3     O 5524   1.803   3.672  13.122  0.3540  0.1590 -0.3044
  369TMC3     H 5525   1.607   3.658  13.008  1.4572  0.4125  1.0275
  369TMC3    H1 5526   1.566   3.598  13.421 -0.6541 -0.4768  0.0039
  369TMC3    H2 5527   1.232   3.755  13.198 -1.0235 -1.5697  0.5070
  369TMC3    C7 5528   1.313   3.656  13.447  0.6821 -0.4835 -0.2223
  369TMC3    C8 5529   1.388   3.792  12.978  0.2797  0.2278 -0.4680
  369TMC3    O1 5530   1.372   3.668  13.551 -0.2565  0.0282 -0.8907
  369TMC3    O2 5531   1.490   3.823  12.920 -0.8769  0.5824 -0.3725
  370TMC3    C1 5532   1.092   0.389  16.256  0.0447  0.4453  0.7058
  370TMC3    C2 5533   0.995   0.339  16.339  0.1137 -0.1895 -0.2853
  370TMC3    C3 5534   0.960   0.206  16.347  0.8175  0.3276 -0.2932
  370TMC3    C4 5535   1.154   0.303  16.172  0.0660 -0.3585 -0.9945
  370TMC3    C5 5536   1.120   0.172  16.184  0.4443 -0.0564  0.5924
  370TMC3    C6 5537   1.029   0.120  16.267  0.8992  0.6326  0.1134
  370TMC3     C 5538   1.179   0.471  16.331 -0.1790  0.2170 -0.0846
  370TMC3     O 5539   1.158   0.469  16.453 -0.1258  0.4510 -0.6545
  370TMC3     H 5540   0.939   0.410  16.400 -2.3790 -1.5263 -1.0154
  370TMC3    H1 5541   1.234   0.343  16.112  0.1272 -1.3432 -1.5673
  370TMC3    H2 5542   1.002   0.015  16.263  0.5078  0.7068  0.6686
  370TMC3    C7 5543   1.142   0.097  16.058  0.2926  0.4787 -0.1433
  370TMC3    C8 5544   0.909   0.158  16.476  0.2335  0.6613  0.1467
  370TMC3    O1 5545   1.172   0.172  15.969 -0.1279  0.3338  0.3386
  370TMC3    O2 5546   0.915   0.035  16.481 -0.6454 -0.5866 -0.8480
  371TMC3    C1 5547   2.393   3.249  15.414 -0.4946  0.7268  0.1214
  371TMC3    C2 5548   2.292   3.281  15.500  0.0835 -0.8108  0.0990
  371TMC3    C3 5549   2.250   3.407  15.518  0.0704 -0.4290  0.9251
  371TMC3    C4 5550   2.449   3.348  15.338 -0.3164  0.0661 -1.1120
  371TMC3    C5 5551   2.419   3.475  15.373 -0.2280  0.9565 -0.2664
  371TMC3    C6 5552   2.318   3.513  15.461  0.0134 -0.4554  0.1794
  371TMC3     C 5553   2.451   3.110  15.406 -0.0773 -0.6117 -0.0136
  371TMC3     O 5554   2.536   3.089  15.322  0.2745 -0.0060  0.1611
  371TMC3     H 5555   2.235   3.201  15.545 -1.0316  0.3972  0.8295
  371TMC3    H1 5556   2.534   3.318  15.277 -0.6301 -0.5766 -1.2333
  371TMC3    H2 5557   2.270   3.610  15.468  0.6281 -0.3577  3.0054
  371TMC3    C7 5558   2.477   3.582  15.289 -0.1804  0.0912  0.2632
  371TMC3    C8 5559   2.105   3.420  15.532  0.6400  0.5336  0.3519
  371TMC3    O1 5560   2.401   3.674  15.285 -0.0766 -0.1735 -0.0919
  371TMC3    O2 5561   2.042   3.318  15.509  0.1455 -0.0610  0.1203
  372MPD2     C 5562   1.942   4.116  13.391 -0.2504 -0.6134 -0.7657
  372MPD2    C1 5563   2.043   4.163  13.464 -0.6097  0.2072  0.5574
  372MPD2    C2 5564   2.049   4.144  13.600  0.9142 -0.3794 -0.2270
  372MPD2    C3 5565   1.963   4.057  13.655 -0.4553 -0.4684  0.4156
  372MPD2    C4 5566   1.852   4.009  13.582  0.2576  0.2982 -0.0032
  372MPD2    C5 5567   1.845   4.035  13.448 -0.1494 -0.2716  0.4438
  372MPD2     H 5568   2.118   4.190  13.670 -0.1734  2.8185 -1.2552
  372MPD2    H1 5569   1.769   3.952  13.622  1.0693 -0.5653  0.4523
  372MPD2    H2 5570   1.926   4.141  13.287 -2.0299  1.1621 -0.0337
  372MPD2    H3 5571   1.761   4.000  13.389  0.7830  0.8098 -1.5309
  372MPD2     N 5572   1.984   4.024  13.796  0.1828 -0.3800 -0.1737
  372MPD2    H5 5573   2.063   4.066  13.843 -0.0522 -0.1651  0.0260
  372MPD2    N1 5574   2.148   4.239  13.409 -0.3443 -0.7556 -0.0389
  372MPD2    H7 5575   2.214   4.277  13.475 -1.3156 -0.2715  0.6438
  373TMC3    C1 5576   1.983   3.896  13.987  0.4405 -0.1891 -0.0185
  373TMC3    C2 5577   1.974   4.006  14.065  0.3889  0.4357  1.0861
  373TMC3    C3 5578   2.064   4.003  14.177  0.1832 -0.3614  0.1257
  373TMC3    C4 5579   2.056   3.783  14.010 -0.6501  0.0081  0.0358
  373TMC3    C5 5580   2.144   3.781  14.109  0.0394  0.1872  0.1876
  373TMC3    C6 5581   2.148   3.893  14.197  0.1404 -0.3210  0.1409
  373TMC3     C 5582   1.930   3.911  13.858  0.7418 -0.1608  0.7326
  373TMC3     O 5583   1.862   3.817  13.811 -0.0430  0.2003  0.3620
  373TMC3     H 5584   1.915   4.091  14.032 -2.1810 -2.5353 -1.9661
  373TMC3    H1 5585   2.054   3.699  13.942 -0.7996  1.1603 -1.3629
  373TMC3    H2 5586   2.218   3.895  14.280  0.5043  0.7558 -0.1883
  373TMC3    C7 5587   2.233   3.668  14.118  0.6099 -0.0896 -0.6671
  373TMC3    C8 5588   2.078   4.125  14.257  0.3708  0.4707 -0.8524
  373TMC3    O1 5589   2.191   3.568  14.066 -0.4303 -0.1319 -0.2059
  373TMC3    O2 5590   2.185   4.146  14.315 -0.5135 -0.2302  0.1360
  374TMC3    C1 5591   3.544   4.268   9.829  0.2029 -0.1509  0.2236
  374TMC3    C2 5592   3.601   4.359   9.918  0.9224 -0.1631  0.0148
  374TMC3    C3 5593   3.514   4.449   9.964 -0.2510 -0.3802 -0.2346
  374TMC3    C4 5594   3.415   4.274   9.787  0.6824  0.0606  0.5763
  374TMC3    C5 5595   3.329   4.359   9.850 -0.1020  0.5803  0.7622
  374TMC3    C6 5596   3.383   4.451   9.936  0.9032 -0.7079 -0.0275
  374TMC3     C 5597   3.637   4.170   9.761 -0.5316 -0.9016 -0.6064
  374TMC3     O 5598   3.604   4.141   9.646 -0.0476  0.0841  0.3760
  374TMC3     H 5599   3.708   4.367   9.934  0.5254  1.9422  1.6209
  374TMC3    H1 5600   3.369   4.182   9.753  1.6020  0.0740 -0.7123
  374TMC3    H2 5601   3.317   4.524   9.983 -1.3196 -2.2193 -0.8069
  374TMC3    C7 5602   3.189   4.333   9.855  0.3073  0.1619 -0.7485
  374TMC3    C8 5603   3.580   4.559  10.034  0.0929 -0.4545 -0.6630
  374TMC3    O1 5604   3.126   4.386   9.947  0.2081  0.0258  0.0789
  374TMC3    O2 5605   3.703   4.574  10.013 -0.4312 -0.0683  0.1892
  375MPD2     C 5606   2.750   1.165  17.474 -0.5722  0.0030  0.5140
  375MPD2    C1 5607   2.671   1.071  17.409 -0.2497 -0.2171 -0.3969
  375MPD2    C2 5608   2.739   0.959  17.340  0.2859  0.1170  0.3241
  375MPD2    C3 5609   2.878   0.966  17.323 -0.4998 -0.1169 -0.2717
  375MPD2    C4 5610   2.949   1.069  17.380  1.1074  0.0781 -0.3788
  375MPD2    C5 5611   2.885   1.165  17.459 -0.0197  0.1384  0.3867
  375MPD2     H 5612   2.671   0.886  17.297 -1.2029  2.2494 -0.9677
  375MPD2    H1 5613   3.057   1.070  17.365  1.2933 -0.6982  0.8928
  375MPD2    H2 5614   2.699   1.246  17.526  0.4871  1.1079 -0.1943
  375MPD2    H3 5615   2.942   1.240  17.512 -0.6020  0.2518  0.8511
  375MPD2     N 5616   2.949   0.878  17.232 -0.2877  0.5829  0.4716
  375MPD2    H5 5617   3.049   0.888  17.223 -0.0490 -1.2594  1.0830
  375MPD2    N1 5618   2.528   1.071  17.406 -0.8216 -0.2376 -0.6473
  375MPD2    H7 5619   2.483   0.986  17.372 -1.2054 -0.8498  1.4137
  376TMC3    C1 5620   2.972   0.727  17.045  0.2794  0.1888  0.1511
  376TMC3    C2 5621   3.086   0.683  17.094  0.0334 -0.2785  0.4300
  376TMC3    C3 5622   3.143   0.582  17.018  0.2771 -0.1619 -0.3041
  376TMC3    C4 5623   2.919   0.677  16.924 -0.1929  0.2452  0.6768
  376TMC3    C5 5624   2.974   0.570  16.867  0.3013  0.9062  0.0896
  376TMC3    C6 5625   3.083   0.515  16.916  0.6154 -0.7101  1.0791
  376TMC3     C 5626   2.885   0.808  17.129  0.0571 -0.2380  0.1551
  376TMC3     O 5627   2.773   0.823  17.079 -0.0685 -0.1738 -0.0354
  376TMC3     H 5628   3.132   0.711  17.188 -1.5770 -1.4872  1.5743
  376TMC3    H1 5629   2.822   0.708  16.887  0.7564  1.1370 -1.0673
  376TMC3    H2 5630   3.121   0.438  16.849 -1.3594 -0.2598 -0.5345
  376TMC3    C7 5631   2.952   0.540  16.730  0.1507  0.6528 -0.8759
  376TMC3    C8 5632   3.283   0.557  17.039  0.7677 -0.0253  0.2388
  376TMC3    O1 5633   2.972   0.427  16.687 -0.6386  0.6439 -0.4910
  376TMC3    O2 5634   3.335   0.628  17.125  0.2680 -0.1762 -0.2611
  377MPD2     C 5635   0.680   0.252  12.336 -0.0636 -0.2658 -0.1445
  377MPD2    C1 5636   0.759   0.134  12.345 -1.0496 -0.3417 -0.2744
  377MPD2    C2 5637   0.732   0.049  12.460 -0.2013  0.4256  0.1046
  377MPD2    C3 5638   0.636   0.090  12.550 -0.1665  0.1172 -0.8232
  377MPD2    C4 5639   0.576   0.212  12.539 -0.1620  0.2669  0.3325
  377MPD2    C5 5640   0.592   0.290  12.434 -0.1509  0.2477 -0.2140
  377MPD2     H 5641   0.784   4.677  12.469 -1.1678 -0.1674 -0.5684
  377MPD2    H1 5642   0.509   0.248  12.617 -1.0062  0.1164 -0.3262
  377MPD2    H2 5643   0.689   0.322  12.254 -1.2052 -1.5661 -1.3960
  377MPD2    H3 5644   0.532   0.381  12.432 -1.8243 -0.8017  1.6950
  377MPD2     N 5645   0.592   0.012  12.659 -0.4716 -0.0256  0.3879
  377MPD2    H5 5646   0.538   0.060  12.729 -0.0147 -2.2608  2.2722
  377MPD2    N1 5647   0.857   0.106  12.252 -0.1958  0.1255  0.9527
  377MPD2    H7 5648   0.863   0.174  12.177 -1.4775 -0.3576  0.4093
  378TMC3    C1 5649   1.024   4.713  11.915  0.1692  0.7134  0.9641
  378TMC3    C2 5650   0.965   0.014  12.033  0.9370 -0.1784 -0.6200
  378TMC3    C3 5651   1.037   0.001  12.145  0.2728 -0.2170 -1.0310
  378TMC3    C4 5652   1.158   4.684  11.912 -0.3193  0.1801  0.2021
  378TMC3    C5 5653   1.230   4.683  12.027  0.6840 -0.0519 -0.5090
  378TMC3    C6 5654   1.171   4.713  12.146 -0.6192 -0.2019 -0.3542
  378TMC3     C 5655   0.947   4.682  11.801 -0.1700 -0.5401  0.0718
  378TMC3     O 5656   0.828   4.694  11.813 -0.4477 -0.4301  0.0243
  378TMC3     H 5657   0.857   0.022  12.038  0.9284 -0.4736 -0.3243
  378TMC3    H1 5658   1.210   4.654  11.822 -0.0046  1.0250  0.1014
  378TMC3    H2 5659   1.220   0.007  12.241 -1.3108  2.3774 -0.4474
  378TMC3    C7 5660   1.362   0.021  12.023 -0.3018  0.2545 -0.1204
  378TMC3    C8 5661   0.962   0.017  12.273 -0.2012  0.2630  0.2222
  378TMC3    O1 5662   1.376   0.126  12.085  0.3153 -0.6205 -0.2037
  378TMC3    O2 5663   1.004   4.698  12.380  0.0935  0.8090 -0.4252
  379MPD2     C 5664   1.947   3.290  16.171 -0.2135  0.0707 -0.3220
  379MPD2    C1 5665   1.847   3.233  16.244 -0.3084 -0.0013 -0.3964
  379MPD2    C2 5666   1.868   3.190  16.374  0.0814 -0.4587  0.0075
  379MPD2    C3 5667   1.990   3.206  16.437 -0.3198 -0.7781  0.2583
  379MPD2    C4 5668   2.093   3.251  16.354  0.1448 -0.3956  0.1222
  379MPD2    C5 5669   2.071   3.296  16.228 -0.6460 -0.4639 -0.5573
  379MPD2     H 5670   1.787   3.139  16.426 -0.1651 -0.4175 -0.3352
  379MPD2    H1 5671   2.194   3.260  16.392 -0.1593  0.7086  0.6660
  379MPD2    H2 5672   1.949   3.315  16.065 -1.5494 -0.9921 -0.5884
  379MPD2    H3 5673   2.158   3.312  16.166 -0.5387 -0.3052 -0.3629
  379MPD2     N 5674   2.016   3.150  16.562 -0.0326  0.7919  0.1549
  379MPD2    H5 5675   2.114   3.155  16.589  0.3582  0.2594 -1.1448
  379MPD2    N1 5676   1.736   3.227  16.164 -0.1610  0.0265 -0.0752
  379MPD2    H7 5677   1.737   3.269  16.072 -0.2311 -0.3532 -0.2492
  380TMC3    C1 5678   1.517   3.161  16.097 -0.6316  0.0051 -0.3901
  380TMC3    C2 5679   1.556   3.085  15.989 -0.2943  0.4874  0.7877
  380TMC3    C3 5680   1.464   3.064  15.894 -0.4409 -0.5407  0.9372
  380TMC3    C4 5681   1.392   3.205  16.118 -0.3410  0.4120 -0.1686
  380TMC3    C5 5682   1.302   3.175  16.022 -0.1645  0.4148  0.1871
  380TMC3    C6 5683   1.336   3.101  15.911 -0.5668 -0.1251  0.7386
  380TMC3     C 5684   1.614   3.187  16.206 -0.3089 -0.2200 -0.3070
  380TMC3     O 5685   1.576   3.170  16.318  0.0680  0.1605 -0.2051
  380TMC3     H 5686   1.661   3.060  15.984 -0.8832 -2.0972  1.4412
  380TMC3    H1 5687   1.356   3.274  16.193 -0.0220 -0.3029  0.6376
  380TMC3    H2 5688   1.255   3.073  15.845 -0.4167 -2.9359  1.7438
  380TMC3    C7 5689   1.193   3.267  16.007  0.0456  0.0329 -0.4750
  380TMC3    C8 5690   1.509   3.035  15.757  0.2728 -0.2579  0.1513
  380TMC3    O1 5691   1.230   3.381  16.020 -0.7089  0.0096 -0.4595
  380TMC3    O2 5692   1.425   3.051  15.670  0.0864 -0.4934 -0.3302
  381TMC3    C1 5693   0.991   4.209  16.430  0.1748 -0.2414 -0.6164
  381TMC3    C2 5694   1.050   4.312  16.369  0.0679 -0.0467 -0.0337
  381TMC3    C3 5695   1.059   4.428  16.440  0.6742 -0.3424 -0.5181
  381TMC3    C4 5696   0.967   4.209  16.565  0.8106 -0.8308 -0.3463
  381TMC3    C5 5697   0.969   4.329  16.633 -0.5763  0.4236  0.3417
  381TMC3    C6 5698   1.018   4.445  16.573 -0.5759 -0.3489  0.3355
  381TMC3     C 5699   1.003   4.084  16.362  0.4525  0.5942 -0.0152
  381TMC3     O 5700   0.992   4.099  16.242  0.4342 -0.1374 -0.0078
  381TMC3     H 5701   1.093   4.312  16.269  0.7731  1.7491  0.2566
  381TMC3    H1 5702   0.907   4.130  16.607  0.8534 -1.2785 -1.1135
  381TMC3    H2 5703   1.019   4.531  16.638 -1.6187  1.7742 -2.4203
  381TMC3    C7 5704   0.932   4.317  16.771 -0.3165  0.5607  0.1719
  381TMC3    C8 5705   1.159   4.513  16.389  0.0761  0.1785 -0.2813
  381TMC3    O1 5706   0.947   4.207  16.832  0.0093  0.0617 -0.3878
  381TMC3    O2 5707   1.198   4.490  16.276  0.0655 -0.1381 -0.3587
  382MPD2     C 5708   0.301   2.176  17.042 -0.5384  0.6737 -0.4751
  382MPD2    C1 5709   0.322   2.170  17.182  0.0389  0.6158 -0.0234
  382MPD2    C2 5710   0.335   2.052  17.247 -0.1123  0.0181 -0.0374
  382MPD2    C3 5711   0.326   1.936  17.177  0.5105  0.1775  0.6127
  382MPD2    C4 5712   0.287   1.935  17.042  0.0451 -0.6257  0.3927
  382MPD2    C5 5713   0.281   2.059  16.977  0.2404  0.8322  0.0636
  382MPD2     H 5714   0.361   2.059  17.352  0.9583 -0.0406 -0.3030
  382MPD2    H1 5715   0.280   1.843  16.986 -0.1208 -1.4300  1.7487
  382MPD2    H2 5716   0.308   2.259  16.972  0.1622 -0.0144 -1.2133
  382MPD2    H3 5717   0.281   2.058  16.868  1.8480  0.6834  0.0639
  382MPD2     N 5718   0.335   1.807  17.243 -0.3272  0.3804 -0.2084
  382MPD2    H5 5719   0.309   1.726  17.188  1.5220 -1.4096  1.5440
  382MPD2    N1 5720   0.344   2.291  17.257 -0.4276 -0.5871  0.6042
  382MPD2    H7 5721   0.364   2.281  17.356 -1.0550 -2.7479  0.5164
  383TMC3    C1 5722   0.373   1.667  17.438  0.4195 -0.0979  0.1307
  383TMC3    C2 5723   0.269   1.590  17.400 -0.6625  0.2733 -0.2197
  383TMC3    C3 5724   0.217   1.497  17.482  0.2122 -0.5248  0.0029
  383TMC3    C4 5725   0.422   1.659  17.562 -0.2825  0.1917 -1.1108
  383TMC3    C5 5726   0.354   1.580  17.655  0.5511 -0.0660  0.0746
  383TMC3    C6 5727   0.258   1.492  17.612 -0.9169 -0.4803 -0.2828
  383TMC3     C 5728   0.389   1.790  17.368 -0.5031  0.0287  0.5895
  383TMC3     O 5729   0.450   1.874  17.429 -0.4483 -0.0085 -0.5143
  383TMC3     H 5730   0.232   1.609  17.300 -0.5532  1.6401 -0.0092
  383TMC3    H1 5731   0.507   1.720  17.587 -1.0322  1.2103 -1.0705
  383TMC3    H2 5732   0.221   1.409  17.671 -1.0933 -0.4605 -0.3646
  383TMC3    C7 5733   0.404   1.565   0.102 -0.0836 -0.7196  1.1105
  383TMC3    C8 5734   0.132   1.395  17.424 -0.1327 -0.2980 -0.1072
  383TMC3    O1 5735   0.504   1.627   0.134  0.1248 -0.0163 -0.4576
  383TMC3    O2 5736   0.061   1.437  17.333 -0.1445 -0.0632 -0.4981
  384MPD2     C 5737   1.917   2.665  12.178 -0.8331 -0.7404 -0.0945
  384MPD2    C1 5738   1.900   2.614  12.306  0.0518 -0.1309  0.3135
  384MPD2    C2 5739   1.982   2.510  12.354 -0.1210  0.3691 -0.1107
  384MPD2    C3 5740   2.085   2.458  12.272 -0.1539 -0.3405  0.0064
  384MPD2    C4 5741   2.099   2.522  12.154 -0.1896  0.0107 -0.1763
  384MPD2    C5 5742   2.022   2.625  12.103  0.4515 -1.3672 -0.3783
  384MPD2     H 5743   1.947   2.457  12.442  0.9831  2.2234  1.4347
  384MPD2    H1 5744   2.178   2.498  12.084  1.5089  2.2400  0.9784
  384MPD2    H2 5745   1.856   2.749  12.150  2.0062  1.3391 -0.0070
  384MPD2    H3 5746   2.042   2.668  12.006 -1.0788 -1.7800 -0.8713
  384MPD2     N 5747   2.173   2.350  12.316 -0.0435 -0.0018  0.5653
  384MPD2    H5 5748   2.246   2.310  12.258 -0.6044 -0.5802  0.2556
  384MPD2    N1 5749   1.795   2.660  12.389 -0.4878 -0.1290 -0.9328
  384MPD2    H7 5750   1.792   2.621  12.483 -0.8909  2.6056  0.1774
  385TMC3    C1 5751   2.290   2.226  12.477 -0.5468  0.5825  0.0903
  385TMC3    C2 5752   2.311   2.119  12.390  0.4021 -1.2392  0.0117
  385TMC3    C3 5753   2.307   1.989  12.439  0.6754 -0.4750 -0.0772
  385TMC3    C4 5754   2.267   2.195  12.611  0.0224  0.0567  0.3843
  385TMC3    C5 5755   2.252   2.065  12.657 -0.4252  0.2869  0.0410
  385TMC3    C6 5756   2.276   1.960  12.572 -0.0295 -0.6021 -0.4389
  385TMC3     C 5757   2.176   2.305  12.442  0.0800 -0.2350 -0.4797
  385TMC3     O 5758   2.095   2.316  12.530 -0.2375 -0.1866  0.0897
  385TMC3     H 5759   2.310   2.133  12.283 -0.6018 -2.1847 -0.1019
  385TMC3    H1 5760   2.264   2.277  12.682  2.6024  1.4521 -1.1203
  385TMC3    H2 5761   2.267   1.857  12.605  0.4326 -0.7955 -0.9123
  385TMC3    C7 5762   2.138   2.042  12.744 -0.3987  0.4916  0.3370
  385TMC3    C8 5763   2.392   1.893  12.383  0.4928 -0.2804 -0.0951
  385TMC3    O1 5764   2.101   1.926  12.764 -0.0005  0.5559 -0.8244
  385TMC3    O2 5765   2.483   1.848  12.457  0.2089 -0.1849 -0.5726
  386TMC3    C1 5766   2.714   4.304  12.025 -0.4978  0.6942 -0.2763
  386TMC3    C2 5767   2.713   4.404  11.936  0.1432 -0.5090 -0.2202
  386TMC3    C3 5768   2.609   4.497  11.955  0.3304 -0.3884  1.2286
  386TMC3    C4 5769   2.621   4.279  12.123  0.2534  0.3959 -0.0647
  386TMC3    C5 5770   2.523   4.384  12.132  0.7356 -0.1021 -0.2206
  386TMC3    C6 5771   2.510   4.488  12.047  0.0371  0.1203  0.1345
  386TMC3     C 5772   2.844   4.249  12.055 -0.2359 -0.1441  0.5088
  386TMC3     O 5773   2.932   4.329  12.031 -0.2344  0.1397 -0.0770
  386TMC3     H 5774   2.800   4.418  11.872 -0.4525 -3.9755 -1.7730
  386TMC3    H1 5775   2.643   4.213  12.206  0.1929 -4.1539 -3.6048
  386TMC3    H2 5776   2.437   4.567  12.061  0.8971  0.9042  0.1632
  386TMC3    C7 5777   2.401   4.342  12.208  0.7473 -0.1064  0.1842
  386TMC3    C8 5778   2.584   4.584  11.850 -0.7975 -0.2806 -1.2194
  386TMC3    O1 5779   2.305   4.417  12.202  0.2737 -0.1263  0.0028
  386TMC3    O2 5780   2.538   4.695  11.874  0.4720  0.4997 -0.1267
  387MPD2     C 5781   0.273   0.393  10.001 -0.5712 -0.0542 -0.0279
  387MPD2    C1 5782   0.346   0.320  10.101 -0.2047  0.1703 -0.0928
  387MPD2    C2 5783   0.337   0.182  10.108  0.0897  0.1045 -0.1110
  387MPD2    C3 5784   0.254   0.112  10.029 -0.6986  1.0285 -0.1703
  387MPD2    C4 5785   0.180   0.174   9.930  0.2677  0.0049  0.4702
  387MPD2    C5 5786   0.196   0.313   9.914  0.8867 -0.0069  0.2429
  387MPD2     H 5787   0.393   0.133  10.187 -2.1981 -2.1624  0.0917
  387MPD2    H1 5788   0.128   0.124   9.849  0.6037  2.4741 -1.2736
  387MPD2    H2 5789   0.278   0.501   9.995  3.0416 -0.2319 -0.1730
  387MPD2    H3 5790   0.142   0.369   9.838  1.5049  0.0481 -0.1552
  387MPD2     N 5791   0.263   4.694  10.041 -0.8151  0.2255 -0.5237
  387MPD2    H5 5792   0.315   4.668  10.125 -1.2652  0.1306 -0.2759
  387MPD2    N1 5793   0.441   0.382  10.183 -0.3098 -0.2552 -0.5194
  387MPD2    H7 5794   0.492   0.322  10.247  0.2754  1.2075  0.3766
  388TMC3    C1 5795   0.622   0.521  10.236  0.3799 -0.1988 -0.2139
  388TMC3    C2 5796   0.637   0.627  10.326 -0.2551  0.0969 -0.5232
  388TMC3    C3 5797   0.750   0.611  10.412  0.5472 -0.1611  1.0695
  388TMC3    C4 5798   0.699   0.406  10.240 -0.2297 -0.5444 -0.2214
  388TMC3    C5 5799   0.796   0.390  10.335  0.1919 -0.2135  0.0218
  388TMC3    C6 5800   0.832   0.496  10.415 -0.0092 -0.4990  0.1993
  388TMC3     C 5801   0.484   0.509  10.177 -0.2146 -0.1923 -1.0200
  388TMC3     O 5802   0.420   0.602  10.127  0.0612 -0.4104  0.3630
  388TMC3     H 5803   0.561   0.702  10.347  0.2271 -0.5586  3.5229
  388TMC3    H1 5804   0.675   0.325  10.172 -2.1393 -0.0494 -0.1333
  388TMC3    H2 5805   0.902   0.485  10.497  1.2220  0.4174 -0.7256
  388TMC3    C7 5806   0.855   0.260  10.355 -0.4980  0.0084  0.4074
  388TMC3    C8 5807   0.769   0.715  10.518  0.2091  0.0621  0.4873
  388TMC3    O1 5808   0.957   0.256  10.424 -0.0318 -0.7004 -0.2401
  388TMC3    O2 5809   0.678   0.763  10.581  0.3503  0.3420  0.1878
  389MPD2     C 5810   4.174   3.027  11.100  0.4644  0.3260 -0.1299
  389MPD2    C1 5811   4.117   2.921  11.043  0.1420 -0.6946 -0.3009
  389MPD2    C2 5812   4.035   2.834  11.115  0.2110  0.5629 -0.5196
  389MPD2    C3 5813   4.006   2.859  11.251  0.0633  0.6519 -0.3868
  389MPD2    C4 5814   4.056   2.977  11.308  0.5875  0.6654  0.3682
  389MPD2    C5 5815   4.143   3.054  11.228  0.4292 -0.2682  0.6648
  389MPD2     H 5816   3.984   2.757  11.059  1.1602 -0.2425 -0.2637
  389MPD2    H1 5817   4.037   2.998  11.412  1.3860  0.8197  0.4870
  389MPD2    H2 5818   4.250   3.076  11.040 -0.0006  0.4595 -0.6028
  389MPD2    H3 5819   4.187   3.145  11.267 -0.1078  0.5874 -0.7101
  389MPD2     N 5820   3.915   2.780  11.324 -0.5185  0.0848 -0.4713
  389MPD2    H5 5821   3.919   2.802  11.422 -1.9097 -3.5280  0.4017
  389MPD2    N1 5822   4.138   2.906  10.904 -0.6016 -0.8431 -0.8044
  389MPD2    H7 5823   4.195   2.981  10.867 -1.5760  0.7402  0.8852
  390TMC3    C1 5824   3.768   2.610  11.377  0.5708 -0.3711 -0.7823
  390TMC3    C2 5825   3.726   2.475  11.353  0.1660 -0.4687 -0.2886
  390TMC3    C3 5826   3.615   2.441  11.420  0.3228 -0.1944 -0.4061
  390TMC3    C4 5827   3.707   2.696  11.468  0.4195  0.2848 -0.2967
  390TMC3    C5 5828   3.608   2.642  11.545  0.1117 -0.0455  0.2147
  390TMC3    C6 5829   3.554   2.518  11.510  0.0216  0.4609 -0.1592
  390TMC3     C 5830   3.862   2.660  11.282  1.0968  0.2916 -0.9905
  390TMC3     O 5831   3.920   2.581  11.204 -0.1143 -0.7827 -0.2453
  390TMC3     H 5832   3.787   2.408  11.294  0.6100 -0.3389  0.0207
  390TMC3    H1 5833   3.738   2.799  11.483  0.7487  0.2496 -0.7251
  390TMC3    H2 5834   3.460   2.489  11.557 -0.6140  0.3524 -1.4981
  390TMC3    C7 5835   3.543   2.724  11.643 -0.1285 -0.5649 -0.3918
  390TMC3    C8 5836   3.562   2.312  11.385 -0.0611  0.0573 -0.0783
  390TMC3    O1 5837   3.560   2.845  11.632 -0.0559 -0.0823 -0.1878
  390TMC3    O2 5838   3.594   2.264  11.276 -0.5672  0.3197 -0.0373
  391MPD2     C 5839   3.491   4.439  11.611  0.3129 -0.4306  0.5565
  391MPD2    C1 5840   3.593   4.519  11.575  0.0468 -1.2246 -0.2759
  391MPD2    C2 5841   3.588   4.566  11.442  0.0726  0.3410 -0.4084
  391MPD2    C3 5842   3.489   4.539  11.353 -0.1238  0.1744  0.1050
  391MPD2    C4 5843   3.385   4.457  11.391 -0.3614 -0.0752 -0.4243
  391MPD2    C5 5844   3.387   4.404  11.526  0.7855  0.4144  0.1641
  391MPD2     H 5845   3.670   4.626  11.405 -0.5513  1.1631 -0.4562
  391MPD2    H1 5846   3.305   4.425  11.326 -1.0455 -0.1995  0.4676
  391MPD2    H2 5847   3.497   4.392  11.708  3.2807 -1.7767 -0.2775
  391MPD2    H3 5848   3.310   4.336  11.559  1.5001 -0.9576 -0.9915
  391MPD2     N 5849   3.492   4.600  11.229 -0.1411 -0.1328  0.1421
  391MPD2    H5 5850   3.574   4.655  11.204 -2.2011  1.9605 -2.0257
  391MPD2    N1 5851   3.685   4.556  11.677 -0.2787  0.3385  0.1716
  391MPD2    H7 5852   3.682   4.523  11.773  0.6539  3.3528  1.2385
  392TMC3    C1 5853   3.431   4.677  11.012 -0.1003  0.3159 -1.0809
  392TMC3    C2 5854   3.395   4.655  10.882 -0.1265  0.3559 -1.0345
  392TMC3    C3 5855   3.425   0.031  10.789 -0.0427  0.4399 -0.6102
  392TMC3    C4 5856   3.491   0.071  11.057  0.0719  0.3837 -0.5093
  392TMC3    C5 5857   3.516   0.161  10.958 -0.3326 -0.3680 -0.2286
  392TMC3    C6 5858   3.486   0.143  10.830 -0.0760  0.2607  0.0718
  392TMC3     C 5859   3.402   4.592  11.129 -0.6465 -0.5116  0.6319
  392TMC3     O 5860   3.308   4.512  11.114  0.1699  0.2089  0.4782
  392TMC3     H 5861   3.347   4.562  10.854 -0.3983  0.2922 -0.3509
  392TMC3    H1 5862   3.504   0.100  11.160  0.2935  0.7651 -0.6429
  392TMC3    H2 5863   3.482   0.233  10.770 -3.5414  1.1475  1.5864
  392TMC3    C7 5864   3.613   0.259  10.995 -0.1781  0.2880 -0.2170
  392TMC3    C8 5865   3.442   4.704  10.650 -0.8329  1.2072 -0.1264
  392TMC3    O1 5866   3.597   0.308  11.107  0.2292  0.3869 -0.1230
  392TMC3    O2 5867   3.379   4.603  10.609 -0.2153 -0.7227 -0.6229
  393TMC3    C1 5868   2.485   2.441  10.662  0.4977 -0.2627  0.5559
  393TMC3    C2 5869   2.379   2.384  10.731  0.5494 -0.3655  0.0588
  393TMC3    C3 5870   2.392   2.259  10.797  0.5391  0.5742  0.7415
  393TMC3    C4 5871   2.605   2.374  10.649  0.4288  0.5869  0.2138
  393TMC3    C5 5872   2.618   2.253  10.716  0.0269  0.4954 -0.0361
  393TMC3    C6 5873   2.516   2.192  10.782  0.7161  0.0719  0.5067
  393TMC3     C 5874   2.459   2.550  10.573  0.4276 -0.0299 -0.2687
  393TMC3     O 5875   2.343   2.587  10.555  0.4798  0.7891  0.3365
  393TMC3     H 5876   2.293   2.446  10.753  2.2321  0.7480  3.5674
  393TMC3    H1 5877   2.690   2.409  10.591 -0.6837  1.9012 -0.5938
  393TMC3    H2 5878   2.537   2.096  10.827 -1.0727 -0.0236  1.1503
  393TMC3    C7 5879   2.733   2.177  10.684 -0.6182 -0.2411 -0.1001
  393TMC3    C8 5880   2.289   2.216  10.885 -0.0890  0.1019 -0.3075
  393TMC3    O1 5881   2.719   2.055  10.682 -0.4488  0.0875 -0.2357
  393TMC3    O2 5882   2.202   2.298  10.923 -0.3278 -0.3829 -0.3297
  394TMC3    C1 5883   4.086   2.876  10.682  0.8180 -0.5200  0.5835
  394TMC3    C2 5884   4.050   2.794  10.582  0.3819 -0.6644  0.5458
  394TMC3    C3 5885   4.021   2.849  10.462  0.7533 -0.6598  0.3754
  394TMC3    C4 5886   4.131   3.003  10.654  0.5436 -0.4484  0.0559
  394TMC3    C5 5887   4.130   3.045  10.518  0.0976  0.3768  0.4749
  394TMC3    C6 5888   4.074   2.971  10.421  0.3383 -0.2312 -0.1873
  394TMC3     C 5889   4.073   2.828  10.814  0.3790 -0.0788  0.1955
  394TMC3     O 5890   4.010   2.723  10.826  0.3338  0.0495 -0.2925
  394TMC3     H 5891   4.010   2.696  10.604 -0.4980 -0.1657  1.1504
  394TMC3    H1 5892   4.162   3.070  10.733 -1.3042  1.6611 -1.0087
  394TMC3    H2 5893   4.075   3.000  10.316  0.9710  0.2788 -0.0383
  394TMC3    C7 5894   4.228   3.151  10.480 -0.0309  0.1978 -0.5511
  394TMC3    C8 5895   3.984   2.760  10.350 -0.2042 -0.3150 -0.2024
  394TMC3    O1 5896   4.201   3.202  10.370 -0.0364 -0.3863 -0.0814
  394TMC3    O2 5897   3.941   2.817  10.249 -0.2025 -0.5595 -0.5938
  395TMC3    C1 5898   3.796   0.222  15.242 -0.0651  0.6815  0.3375
  395TMC3    C2 5899   3.691   0.185  15.165  0.1360 -0.9239 -0.1472
  395TMC3    C3 5900   3.647   0.262  15.059  1.1338  0.1527 -1.3736
  395TMC3    C4 5901   3.862   0.339  15.216 -0.4554  0.1659  0.5100
  395TMC3    C5 5902   3.827   0.402  15.106  0.4560 -0.6096 -0.0023
  395TMC3    C6 5903   3.728   0.363  15.019  0.1249 -0.0951 -0.4307
  395TMC3     C 5904   3.792   0.186  15.380 -0.3472 -0.7302 -0.1445
  395TMC3     O 5905   3.849   0.258  15.459  0.5317  0.3622 -0.8403
  395TMC3     H 5906   3.629   0.097  15.175 -0.0252 -0.6515  1.3009
  395TMC3    H1 5907   3.936   0.373  15.288 -2.9805 -0.0413  3.2219
  395TMC3    H2 5908   3.704   0.420  14.930  0.4359 -0.1665 -0.5603
  395TMC3    C7 5909   3.870   0.535  15.104 -0.3964 -0.0408  0.0072
  395TMC3    C8 5910   3.564   0.198  14.972 -0.0743 -0.4825 -0.0060
  395TMC3    O1 5911   3.972   0.560  15.164  0.4885 -0.1207 -0.2514
  395TMC3    O2 5912   3.545   0.076  14.979 -0.2394  0.1188 -0.1487
  396MPD2     C 5913   3.458   1.572  17.262  0.2550  0.7519 -0.0556
  396MPD2    C1 5914   3.555   1.662  17.306 -0.3955 -0.5398  0.0516
  396MPD2    C2 5915   3.581   1.774  17.236  0.6158 -0.4363 -0.6558
  396MPD2    C3 5916   3.516   1.793  17.114  0.3378  0.1619 -0.2298
  396MPD2    C4 5917   3.416   1.707  17.070 -0.3796 -0.0177 -0.5130
  396MPD2    C5 5918   3.386   1.600  17.148 -0.4369 -0.1987  0.1502
  396MPD2     H 5919   3.660   1.841  17.266 -1.1306  1.0437  0.5997
  396MPD2    H1 5920   3.356   1.728  16.982 -0.0741  1.4754 -0.3727
  396MPD2    H2 5921   3.442   1.487  17.326 -1.3735  0.5354 -0.7551
  396MPD2    H3 5922   3.302   1.538  17.119  0.1057 -0.8431 -0.0410
  396MPD2     N 5923   3.572   1.900  17.043  0.0050  0.8979  0.0388
  396MPD2    H5 5924   3.644   1.957  17.086  0.9032 -0.5196  0.4495
  396MPD2    N1 5925   3.627   1.620  17.421 -0.3143  0.8161 -0.9369
  396MPD2    H7 5926   3.602   1.524  17.442  1.8663 -0.3805 -3.8060
  397TMC3    C1 5927   3.810   1.612  17.564 -0.1981 -0.3450  0.3437
  397TMC3    C2 5928   3.936   1.615  17.504 -0.0823 -0.2957  0.2836
  397TMC3    C3 5929   3.987   1.503  17.445  0.2574 -0.1997 -0.1020
  397TMC3    C4 5930   3.770   1.483  17.591  0.1900  0.2906 -0.0671
  397TMC3    C5 5931   3.843   1.371  17.572 -0.5797  0.5170  0.2995
  397TMC3    C6 5932   3.951   1.379  17.486 -0.1620 -0.1358  0.1465
  397TMC3     C 5933   3.722   1.695  17.490 -0.3699  0.0149  0.9072
  397TMC3     O 5934   3.744   1.813  17.483 -0.2933  0.2854  0.5657
  397TMC3     H 5935   3.957   1.718  17.477 -0.2540  0.2066  2.0663
  397TMC3    H1 5936   3.671   1.481  17.635  0.2233  0.3313  0.0087
  397TMC3    H2 5937   3.986   1.292  17.433  0.1744  0.3797 -0.4779
  397TMC3    C7 5938   3.790   1.239  17.570  0.2277  0.3967 -0.1972
  397TMC3    C8 5939   3.954   1.511  17.303  0.6761 -0.9085  0.2895
  397TMC3    O1 5940   3.863   1.149  17.534  0.4059  0.2627  0.0377
  397TMC3    O2 5941   3.909   1.409  17.254 -0.2688  0.0939  0.2372
  398MPD2     C 5942   1.691   2.193   0.298 -0.4441 -0.0694  0.1863
  398MPD2    C1 5943   1.783   2.160   0.397 -0.1569 -0.2923 -0.3586
  398MPD2    C2 5944   1.872   2.257   0.442 -0.0643  0.1505 -0.0534
  398MPD2    C3 5945   1.878   2.380   0.392 -0.0960  0.1101  0.0709
  398MPD2    C4 5946   1.786   2.415   0.303 -0.2442  0.0745  0.6230
  398MPD2    C5 5947   1.701   2.321   0.249  0.1289 -0.0601 -0.0315
  398MPD2     H 5948   1.939   2.237   0.524 -0.8834 -0.4159  0.4726
  398MPD2    H1 5949   1.773   2.520   0.279 -0.8899  0.0903  1.0451
  398MPD2    H2 5950   1.618   2.125   0.256 -0.6420 -1.0734  2.1795
  398MPD2    H3 5951   1.642   2.340   0.160  1.1298 -0.4626 -0.7766
  398MPD2     N 5952   1.970   2.473   0.448 -0.1735  0.2105 -0.2099
  398MPD2    H5 5953   2.036   2.437   0.516  0.3234  0.3320 -0.6283
  398MPD2    N1 5954   1.794   2.027   0.445 -0.1941  0.2566 -0.0501
  398MPD2    H7 5955   1.873   2.014   0.508 -1.0494 -1.2377  0.6956
  399TMC3    C1 5956   1.804   1.797   0.448  0.0411  0.0219 -0.0442
  399TMC3    C2 5957   1.873   1.804   0.568 -0.0944  0.1138  0.1971
  399TMC3    C3 5958   1.932   1.689   0.614  0.1823 -0.0380  0.2430
  399TMC3    C4 5959   1.806   1.680   0.371 -0.3492  0.3244 -0.3364
  399TMC3    C5 5960   1.863   1.569   0.423  0.1231 -0.7531  0.5376
  399TMC3    C6 5961   1.933   1.572   0.540  0.3343  0.4848  0.7653
  399TMC3     C 5962   1.739   1.914   0.383 -0.0966  0.3234  0.5908
  399TMC3     O 5963   1.650   1.905   0.300  0.3141  0.1796  0.1468
  399TMC3     H 5964   1.880   1.892   0.631 -0.6473  1.3831 -1.4856
  399TMC3    H1 5965   1.763   1.681   0.271 -0.8029 -0.3888 -0.1480
  399TMC3    H2 5966   1.988   1.483   0.569  1.0689  1.2504  1.7336
  399TMC3    C7 5967   1.830   1.436   0.366 -0.4345  0.1219 -0.3564
  399TMC3    C8 5968   2.027   1.711   0.724  0.4940 -0.4913 -0.3041
  399TMC3    O1 5969   1.837   1.347   0.447  0.2680  0.7411  0.5979
  399TMC3    O2 5970   2.048   1.824   0.762  0.5155 -0.0759 -0.5924
  400TMC3    C1 5971   0.133   1.145  17.108 -0.1482  0.8254 -0.5400
  400TMC3    C2 5972   0.069   1.025  17.122 -0.5132 -0.2503 -0.1855
  400TMC3    C3 5973   4.654   1.028  17.105 -0.4077  0.6158 -0.4955
  400TMC3    C4 5974   0.064   1.263  17.081  0.3101  0.0216  0.1107
  400TMC3    C5 5975   4.654   1.258  17.052  0.2099 -0.2699 -0.1125
  400TMC3    C6 5976   4.581   1.146  17.082 -0.2905 -0.1860  0.7547
  400TMC3     C 5977   0.257   1.161  17.187  0.6280  0.3743 -0.3039
  400TMC3     O 5978   0.286   1.069  17.262 -0.0781  0.0118 -0.3906
  400TMC3     H 5979   0.133   0.940  17.141 -0.3648  0.7486  3.6277
  400TMC3    H1 5980   0.118   1.355  17.060 -4.7330  2.8143 -0.6621
  400TMC3    H2 5981   4.475   1.149  17.062  0.3162  1.5392 -2.1698
  400TMC3    C7 5982   4.577   1.381  17.031  0.4513 -0.6610 -0.1063
  400TMC3    C8 5983   4.585   0.907  17.066 -0.0303  0.4968  0.4643
  400TMC3    O1 5984   4.465   1.360  16.982  0.4158 -0.5149  0.0282
  400TMC3    O2 5985   4.470   0.926  17.022 -0.0918  0.2208  0.0654
  401MPD2     C 5986   3.106   4.148   0.052  0.5922  0.0665  0.8373
  401MPD2    C1 5987   3.167   4.122   0.167  0.4265  1.4233  0.4364
  401MPD2    C2 5988   3.113   4.027   0.260  0.0204  0.2542 -0.5401
  401MPD2    C3 5989   3.016   3.938   0.213 -0.0177 -0.4036  0.2280
  401MPD2    C4 5990   2.956   3.964   0.091 -0.2604 -0.0352  0.0688
  401MPD2    C5 5991   2.998   4.075   0.019 -0.5187 -0.2013  0.6175
  401MPD2     H 5992   3.162   4.001   0.353 -0.4595  0.5901 -0.1949
  401MPD2    H1 5993   2.880   3.903   0.043 -1.3368 -0.1513  1.9398
  401MPD2    H2 5994   3.140   4.229  17.683  0.9681  0.0876  1.0708
  401MPD2    H3 5995   2.953   4.102  17.618 -0.3690  0.0913  0.6280
  401MPD2     N 5996   2.979   3.834   0.294  0.3087 -0.1155  0.3600
  401MPD2    H5 5997   3.025   3.823   0.384  0.3582  0.6802  0.4382
  401MPD2    N1 5998   3.285   4.187   0.210  0.3693 -0.7327 -0.4305
  401MPD2    H7 5999   3.309   4.165   0.306 -0.4564 -1.0804 -0.3073
  402TMC3    C1 6000   2.893   3.618   0.357 -0.2904  0.0668 -0.3409
  402TMC3    C2 6001   2.903   3.650   0.489 -0.0400 -0.3741 -0.2193
  402TMC3    C3 6002   2.911   3.544   0.573 -0.4805 -0.3014  0.5416
  402TMC3    C4 6003   2.891   3.489   0.314 -0.6487  0.7231  0.1875
  402TMC3    C5 6004   2.908   3.387   0.402 -0.4823  0.2400  0.1978
  402TMC3    C6 6005   2.922   3.408   0.539 -0.1741  0.7398  0.3994
  402TMC3     C 6006   2.905   3.721   0.253  0.7361 -0.7821  0.1047
  402TMC3     O 6007   2.846   3.692   0.147 -0.1829 -0.1155 -0.0533
  402TMC3     H 6008   2.898   3.754   0.519  2.1850 -0.5295  0.6990
  402TMC3    H1 6009   2.882   3.460   0.210 -2.8737 -0.6924  0.7779
  402TMC3    H2 6010   2.909   3.330   0.613  0.3192  1.2842  1.0763
  402TMC3    C7 6011   2.996   3.292   0.349 -0.1838 -0.0296 -0.4095
  402TMC3    C8 6012   2.916   3.570   0.713  0.2828  0.3522 -0.2522
  402TMC3    O1 6013   2.958   3.250   0.242 -0.2910 -0.0708 -0.0762
  402TMC3    O2 6014   2.969   3.484   0.785  0.5066  0.2329 -0.2973
  403MPD2     C 6015   1.304   2.905  13.714 -1.2168  0.6285  0.2766
  403MPD2    C1 6016   1.395   2.841  13.639 -0.6410  0.1500  0.1770
  403MPD2    C2 6017   1.529   2.863  13.666 -0.1286 -0.0945 -0.2727
  403MPD2    C3 6018   1.570   2.949  13.762  0.6291 -0.2666 -0.2280
  403MPD2    C4 6019   1.472   3.019  13.833  0.0968  0.4193  1.4586
  403MPD2    C5 6020   1.344   2.987  13.815  0.1569 -0.4306 -0.3164
  403MPD2     H 6021   1.602   2.806  13.610 -0.1836 -1.8151  1.3760
  403MPD2    H1 6022   1.493   3.083  13.919 -1.5613  2.8143  0.0931
  403MPD2    H2 6023   1.200   2.887  13.687 -0.5539  0.1126 -1.9444
  403MPD2    H3 6024   1.266   3.035  13.873 -1.3914  0.9669 -3.5607
  403MPD2     N 6025   1.705   2.970  13.796 -0.0410  0.5461 -0.1306
  403MPD2    H5 6026   1.771   2.902  13.758 -1.0557  0.1329 -1.1710
  403MPD2    N1 6027   1.346   2.747  13.537 -0.3128 -0.4032  0.1099
  403MPD2    H7 6028   1.251   2.713  13.531 -0.7644  1.0015 -0.6381
  404TMC3    C1 6029   1.356   2.574  13.382 -0.3512 -0.0346  1.3489
  404TMC3    C2 6030   1.336   2.472  13.466 -0.4405  0.2772 -1.0304
  404TMC3    C3 6031   1.308   2.353  13.407 -0.3775 -0.3381  0.4167
  404TMC3    C4 6032   1.352   2.558  13.246 -0.4830 -0.2371  0.1446
  404TMC3    C5 6033   1.326   2.438  13.196 -0.3477 -0.5479  0.2377
  404TMC3    C6 6034   1.295   2.328  13.268 -0.4890  0.2684  0.1336
  404TMC3     C 6035   1.419   2.694  13.435  0.7841  0.5002  0.4942
  404TMC3     O 6036   1.536   2.725  13.399  0.3258  0.3319 -0.2292
  404TMC3     H 6037   1.338   2.489  13.573 -0.8136  0.1900 -1.0087
  404TMC3    H1 6038   1.368   2.647  13.187 -1.6212 -0.3008 -0.2640
  404TMC3    H2 6039   1.283   2.227  13.231 -1.2837  0.5997 -0.5255
  404TMC3    C7 6040   1.336   2.412  13.055 -1.4363 -0.1762  0.0098
  404TMC3    C8 6041   1.351   2.237  13.490  0.2776 -0.2513 -0.8646
  404TMC3    O1 6042   1.399   2.498  12.994  0.4227  0.6568  0.5845
  404TMC3    O2 6043   1.410   2.147  13.433 -0.0800 -0.6411  0.2893
  405MPD2     C 6044   1.995   3.448  14.845 -0.0632  0.4974 -0.2331
  405MPD2    C1 6045   1.966   3.344  14.763  0.2965  0.1554 -0.0408
  405MPD2    C2 6046   1.928   3.380  14.630  0.0360 -0.5618 -0.3621
  405MPD2    C3 6047   1.933   3.506  14.577 -0.7645 -0.3120  0.3411
  405MPD2    C4 6048   1.963   3.603  14.664 -0.0702 -0.1492 -0.0615
  405MPD2    C5 6049   1.991   3.574  14.793  0.4262 -0.1625 -0.3878
  405MPD2     H 6050   1.890   3.300  14.568 -0.0808 -0.4180 -0.4747
  405MPD2    H1 6051   1.950   3.709  14.646 -2.0924 -0.6363 -1.3898
  405MPD2    H2 6052   2.015   3.434  14.951 -0.4243 -0.5825 -0.3078
  405MPD2    H3 6053   2.020   3.657  14.857  1.7712  0.0548 -1.2780
  405MPD2     N 6054   1.902   3.528  14.442  0.3591  0.2579  0.1189
  405MPD2    H5 6055   1.869   3.443  14.397 -0.8231  1.0354 -0.4721
  405MPD2    N1 6056   1.977   3.207  14.809 -0.0524 -0.4800  0.1970
  405MPD2    H7 6057   1.968   3.194  14.910  1.5054 -1.3337  0.2322
  406TMC3    C1 6058   1.629   3.717  14.168 -0.5135 -0.0143  0.2348
  406TMC3    C2 6059   1.600   3.587  14.128  0.2698  0.0784 -0.4028
  406TMC3    C3 6060   1.695   3.493  14.141 -0.0397  0.0147 -0.3236
  406TMC3    C4 6061   1.748   3.743  14.229 -0.1578 -0.0170  0.7246
  406TMC3    C5 6062   1.831   3.640  14.258  0.0647  0.6397  0.3998
  406TMC3    C6 6063   1.813   3.515  14.201  0.0178 -0.6058 -0.4016
  406TMC3     C 6064   1.519   3.800  14.203 -0.8283 -0.1271  0.4268
  406TMC3     O 6065   1.551   3.913  14.223 -0.6964  0.2343 -0.0671
  406TMC3     H 6066   1.495   3.574  14.106  0.0696  3.1889 -1.3188
  406TMC3    H1 6067   1.759   3.835  14.283 -0.4429  0.2414  0.3469
  406TMC3    H2 6068   1.895   3.444  14.193 -1.1433 -1.7631 -2.0853
  406TMC3    C7 6069   1.902   3.656  14.384  0.3143 -0.4563  0.5950
  406TMC3    C8 6070   1.647   3.360  14.128  0.9212  0.2477 -0.0959
  406TMC3    O1 6071   1.941   3.760  14.433  0.1786  0.0930 -0.6035
  406TMC3    O2 6072   1.542   3.350  14.069  0.6006  0.0961 -0.3838
  407MPD2     C 6073   4.306   4.207   9.719 -0.1305  0.8397 -0.4426
  407MPD2    C1 6074   4.411   4.291   9.727 -0.3919 -0.0529 -0.6654
  407MPD2    C2 6075   4.396   4.421   9.773 -0.1229 -0.0800 -0.2539
  407MPD2    C3 6076   4.270   4.454   9.829 -0.7221 -0.1243  0.0081
  407MPD2    C4 6077   4.164   4.370   9.813  0.0341 -0.5809 -0.1595
  407MPD2    C5 6078   4.185   4.243   9.775 -0.3656  0.8581  0.6368
  407MPD2     H 6079   4.482   4.485   9.780  0.8997 -1.6338  1.4233
  407MPD2    H1 6080   4.063   4.391   9.847  0.6569 -0.7495  1.8371
  407MPD2    H2 6081   4.320   4.110   9.674 -1.1282  0.3684  0.2780
  407MPD2    H3 6082   4.106   4.170   9.758 -0.2146  0.4040  1.8290
  407MPD2     N 6083   4.244   4.574   9.901 -0.5134 -0.6570 -0.4086
  407MPD2    H5 6084   4.152   4.615   9.909 -0.1332 -0.3225  2.1965
  407MPD2    N1 6085   4.533   4.258   9.669  0.2000  0.1036  0.9722
  407MPD2    H7 6086   4.607   4.328   9.675 -0.6850  1.0229  1.1392
  408TMC3    C1 6087   4.701   4.166   9.545  0.0840 -0.3719 -0.4234
  408TMC3    C2 6088   0.067   4.074   9.587 -0.8173  0.2149  0.0163
  408TMC3    C3 6089   0.199   4.115   9.565  0.5735  0.2812 -0.3896
  408TMC3    C4 6090   4.723   4.282   9.475 -0.3661 -0.1416 -0.7632
  408TMC3    C5 6091   0.135   4.308   9.458 -0.2856  0.2323  0.6528
  408TMC3    C6 6092   0.231   4.219   9.482 -0.2478  0.0881  0.2770
  408TMC3     C 6093   4.571   4.146   9.607 -0.1462 -0.3853 -0.3313
  408TMC3     O 6094   4.539   4.030   9.639 -0.0555  0.1555 -0.6366
  408TMC3     H 6095   0.040   4.001   9.662  0.6569  0.0111  0.3585
  408TMC3    H1 6096   4.640   4.347   9.451  0.0289  0.0861 -1.5214
  408TMC3    H2 6097   0.335   4.225   9.453 -0.5629  1.1173 -0.6242
  408TMC3    C7 6098   0.185   4.433   9.414 -0.7353 -0.0827  0.1841
  408TMC3    C8 6099   0.305   4.062   9.652  0.1188  0.5524  0.1264
  408TMC3    O1 6100   0.300   4.460   9.450 -0.5010 -0.4415  0.3291
  408TMC3    O2 6101   0.287   3.955   9.713  0.3439  0.1960  0.1138
  409MPD2     C 6102   3.793   0.387  17.397 -0.9163  0.1161 -0.5814
  409MPD2    C1 6103   3.921   0.428  17.434 -0.6517  0.3089  1.0044
  409MPD2    C2 6104   3.970   0.557  17.417 -0.4594 -0.1719 -0.2830
  409MPD2    C3 6105   3.882   0.648  17.355 -0.4036  0.3916 -0.4802
  409MPD2    C4 6106   3.759   0.604  17.315 -0.5667 -0.3735  0.5038
  409MPD2    C5 6107   3.711   0.478  17.343  0.2366 -0.4905  0.0019
  409MPD2     H 6108   4.066   0.586  17.458 -1.1536 -0.2273  1.3432
  409MPD2    H1 6109   3.691   0.662  17.254 -1.5814 -0.1649  1.8298
  409MPD2    H2 6110   3.751   0.290  17.420  0.4039 -0.3054  0.0173
  409MPD2    H3 6111   3.614   0.438  17.319  0.1220 -0.2097  0.0011
  409MPD2     N 6112   3.910   0.783  17.341 -0.3194 -0.6822 -0.0330
  409MPD2    H5 6113   3.854   0.850  17.290  2.3074  0.8548 -0.9207
  409MPD2    N1 6114   4.005   0.337  17.495 -0.3135 -0.0008 -0.0462
  409MPD2    H7 6115   4.102   0.359  17.514  0.4019  0.4974 -4.3424
  410TMC3    C1 6116   4.045   0.978  17.341  0.8588 -0.1526  0.9981
  410TMC3    C2 6117   4.157   1.039  17.385 -0.3986  0.7546  0.3100
  410TMC3    C3 6118   4.202   1.145  17.315 -0.5901 -0.3041 -0.0510
  410TMC3    C4 6119   3.974   1.016  17.226  0.6732  0.4067 -0.2788
  410TMC3    C5 6120   4.031   1.126  17.161  0.5277  0.9162  0.9295
  410TMC3    C6 6121   4.139   1.197  17.210  0.4676  0.2780  0.3724
  410TMC3     C 6122   4.023   0.842  17.393  0.1819 -0.3873  0.2745
  410TMC3     O 6123   4.113   0.799  17.461  0.1063  0.2823 -0.2211
  410TMC3     H 6124   4.189   1.021  17.487  0.3368 -1.5149 -0.3239
  410TMC3    H1 6125   3.897   0.960  17.175  0.8808  0.0090 -0.1565
  410TMC3    H2 6126   4.196   1.269  17.151  0.6138  0.0235  0.2040
  410TMC3    C7 6127   3.972   1.161  17.035  0.6208  0.0439 -0.1870
  410TMC3    C8 6128   4.340   1.191  17.348 -0.4434 -0.3146 -0.1514
  410TMC3    O1 6129   3.909   1.073  16.981  0.2731 -0.1322  0.1183
  410TMC3    O2 6130   4.390   1.294  17.310 -0.5994  0.4011 -0.1385
  411MPD2     C 6131   4.353   1.272  14.893  0.5677  0.2554  0.5770
  411MPD2    C1 6132   4.225   1.243  14.863  0.3300 -0.1532  0.5107
  411MPD2    C2 6133   4.187   1.117  14.811  0.7059 -0.1807  1.0738
  411MPD2    C3 6134   4.286   1.017  14.800  0.0106  1.0572 -0.1316
  411MPD2    C4 6135   4.421   1.046  14.827 -0.4068 -0.1609 -0.2182
  411MPD2    C5 6136   4.444   1.169  14.887  0.8009 -0.0304 -0.0701
  411MPD2     H 6137   4.084   1.087  14.792  0.9137  1.3659 -2.4686
  411MPD2    H1 6138   4.502   0.974  14.828  0.0140  0.3362  1.1216
  411MPD2    H2 6139   4.390   1.364  14.935  0.0389  0.2895  0.9551
  411MPD2    H3 6140   4.542   1.192  14.929 -0.5127 -0.1427  3.0539
  411MPD2     N 6141   4.261   0.883  14.769 -0.1560 -0.8168  0.2480
  411MPD2    H5 6142   4.341   0.823  14.750 -0.7148 -1.0580 -1.3663
  411MPD2    N1 6143   4.120   1.334  14.871 -0.5521 -0.0683  0.5702
  411MPD2    H7 6144   4.033   1.301  14.829 -0.1629  1.1502 -1.2048
  412TMC3    C1 6145   4.155   0.683  14.719 -0.1523 -0.0942 -0.5519
  412TMC3    C2 6146   4.046   0.615  14.760  0.4075 -0.3290  0.4560
  412TMC3    C3 6147   4.015   0.490  14.715 -0.2608 -0.2736  0.4607
  412TMC3    C4 6148   4.233   0.637  14.618  0.0258  0.3713 -0.4753
  412TMC3    C5 6149   4.209   0.509  14.581 -0.0400  0.5296 -1.0232
  412TMC3    C6 6150   4.110   0.429  14.636 -0.3805  0.1219 -0.1232
  412TMC3     C 6151   4.139   0.833  14.729  0.5443  0.9443  0.2396
  412TMC3     O 6152   4.025   0.872  14.733  0.2951  0.3191  0.2593
  412TMC3     H 6153   3.972   0.667  14.819  1.7782  0.7969  1.1648
  412TMC3    H1 6154   4.295   0.704  14.560  3.0128 -1.1587  0.9445
  412TMC3    H2 6155   4.091   0.329  14.600  0.9590  0.6840 -2.3548
  412TMC3    C7 6156   4.201   0.504  14.439 -0.3788 -1.3096 -0.5891
  412TMC3    C8 6157   3.889   0.463  14.651 -0.0132  0.1551 -0.2355
  412TMC3    O1 6158   4.176   0.614  14.389  0.2320 -0.0340  0.3251
  412TMC3    O2 6159   3.832   0.562  14.607  0.4101  0.3388  0.3031
  413MPD2     C 6160   0.934   0.259  15.130  0.1173 -0.5483  0.1279
  413MPD2    C1 6161   0.873   0.164  15.059  0.4431 -0.0674 -0.5115
  413MPD2    C2 6162   0.945   0.048  15.026 -0.8049  1.1091  0.3186
  413MPD2    C3 6163   1.074   0.033  15.076 -0.0853  0.7258 -0.1133
  413MPD2    C4 6164   1.135   0.136  15.144  0.9855  0.4035  0.1110
  413MPD2    C5 6165   1.062   0.248  15.170 -0.1487  0.0876  0.1837
  413MPD2     H 6166   0.891   4.689  14.981  0.7375  1.4775 -2.2321
  413MPD2    H1 6167   1.235   0.129  15.186  0.8872  2.2760  0.6716
  413MPD2    H2 6168   0.876   0.348  15.152  1.7828  1.0045 -1.7609
  413MPD2    H3 6169   1.105   0.338  15.214  1.8619 -0.5290 -0.5427
  413MPD2     N 6170   1.143   4.627  15.058  0.4965  0.0160 -0.0775
  413MPD2    H5 6171   1.092   4.570  14.992 -0.2901 -1.7826  2.0721
  413MPD2    N1 6172   0.742   0.189  15.026  0.3560 -0.4557  0.0427
  413MPD2    H7 6173   0.709   0.280  15.056  1.4813 -0.3075  0.8593
  414TMC3    C1 6174   1.314   4.464  15.065 -0.7228  0.2511 -0.6150
  414TMC3    C2 6175   1.349   4.371  15.163 -0.5712  0.0037  0.8308
  414TMC3    C3 6176   1.354   4.240  15.130 -0.1522 -0.1677  0.0441
  414TMC3    C4 6177   1.291   4.425  14.935 -0.5354 -0.2955 -0.3640
  414TMC3    C5 6178   1.298   4.287  14.902  0.6337 -0.1465  0.0126
  414TMC3    C6 6179   1.335   4.196  15.002 -0.1626 -0.4005  0.7431
  414TMC3     C 6180   1.261   4.590  15.121 -0.1840 -0.8921  0.2070
  414TMC3     O 6181   1.309   4.644  15.221 -0.6751  0.2092 -0.3587
  414TMC3     H 6182   1.365   4.397  15.267 -3.4203  3.0201  0.5005
  414TMC3    H1 6183   1.263   4.498  14.860 -0.6438 -0.9830 -0.9983
  414TMC3    H2 6184   1.346   4.091  14.980  1.2275  0.0253 -0.5377
  414TMC3    C7 6185   1.366   4.263  14.780  0.8495  0.2026  0.1714
  414TMC3    C8 6186   1.468   4.166  15.161 -0.6304  0.0751 -0.1202
  414TMC3    O1 6187   1.356   4.337  14.681  0.3068  0.0494 -0.0521
  414TMC3    O2 6188   1.550   4.163  15.069 -0.2474  0.1686 -0.2789
  415TMC3    C1 6189   1.994   1.961  10.124 -0.3443  0.8673 -0.1444
  415TMC3    C2 6190   2.122   1.977  10.090  0.1849  0.2864 -0.1787
  415TMC3    C3 6191   2.163   1.941   9.962 -0.8174 -0.2884 -0.6472
  415TMC3    C4 6192   1.901   1.914  10.045 -0.3553 -0.6826 -0.1825
  415TMC3    C5 6193   1.944   1.881   9.916 -0.4190  0.0584 -0.3853
  415TMC3    C6 6194   2.074   1.881   9.877  0.7290 -0.1029 -0.1444
  415TMC3     C 6195   1.956   1.993  10.260 -0.8419 -0.3646 -0.5438
  415TMC3     O 6196   1.858   1.929  10.297 -0.0260 -0.1918 -0.2412
  415TMC3     H 6197   2.197   2.004  10.164  1.6460 -1.6924 -0.9457
  415TMC3    H1 6198   1.797   1.923  10.075 -0.3687  0.0045 -0.4441
  415TMC3    H2 6199   2.097   1.859   9.773 -1.1553  1.5991 -0.9187
  415TMC3    C7 6200   1.863   1.782   9.849  0.0400 -0.1574 -0.5412
  415TMC3    C8 6201   2.308   1.922   9.944 -0.8456 -0.2036 -0.2047
  415TMC3    O1 6202   1.890   1.753   9.733  0.2006 -0.3537  0.0646
  415TMC3    O2 6203   2.338   1.814   9.896 -0.0546 -0.4039  0.0934
  416MPD2     C 6204   3.761   1.015  11.787  0.8420 -0.6415 -0.9395
  416MPD2    C1 6205   3.702   0.998  11.667 -0.1457 -0.2551 -0.4535
  416MPD2    C2 6206   3.694   0.868  11.610  0.1017  0.4711  0.3416
  416MPD2    C3 6207   3.758   0.763  11.680  0.2960  0.2023 -1.0534
  416MPD2    C4 6208   3.803   0.779  11.806  0.7893 -0.0858  0.2136
  416MPD2    C5 6209   3.819   0.909  11.853 -0.0169  0.0902 -0.5072
  416MPD2     H 6210   3.657   0.852  11.510 -0.8842 -0.4313  0.8480
  416MPD2    H1 6211   3.870   0.706  11.850  0.6207 -0.1855  0.3031
  416MPD2    H2 6212   3.777   1.107  11.842 -1.4064 -1.6162  1.3252
  416MPD2    H3 6213   3.864   0.932  11.948  0.0000 -0.1774 -0.4520
  416MPD2     N 6214   3.736   0.627  11.640 -0.5755 -0.1261 -0.2466
  416MPD2    H5 6215   3.765   0.556  11.707 -0.5511  1.1578  1.1103
  416MPD2    N1 6216   3.639   1.112  11.621 -0.3913 -0.1892 -0.2498
  416MPD2    H7 6217   3.656   1.197  11.673 -2.0430  0.1042 -0.1923
  417TMC3    C1 6218   3.479   1.233  11.507  0.1578  1.5290  0.0254
  417TMC3    C2 6219   3.420   1.256  11.634 -0.4686  0.3249  0.0882
  417TMC3    C3 6220   3.284   1.275  11.648 -0.6597 -0.3503 -0.1409
  417TMC3    C4 6221   3.394   1.243  11.403  0.3397 -0.5059  0.5609
  417TMC3    C5 6222   3.259   1.259  11.417  0.3180 -0.3946  0.0329
  417TMC3    C6 6223   3.199   1.270  11.539  0.2829 -0.4682 -0.0044
  417TMC3     C 6224   3.572   1.119  11.502 -0.1660  0.1014 -0.4169
  417TMC3     O 6225   3.558   1.031  11.417 -0.1015 -0.5990 -0.5708
  417TMC3     H 6226   3.481   1.280  11.720  1.9292 -1.7465 -1.0554
  417TMC3    H1 6227   3.431   1.212  11.306  1.9821 -0.2839  1.1139
  417TMC3    H2 6228   3.093   1.293  11.538 -0.0885 -2.0733  2.1872
  417TMC3    C7 6229   3.182   1.220  11.299 -0.8258 -0.0721  0.2181
  417TMC3    C8 6230   3.221   1.318  11.776 -0.1408  0.1624  0.2722
  417TMC3    O1 6231   3.225   1.261  11.191  0.1231  0.1347  0.3076
  417TMC3    O2 6232   3.109   1.368  11.772 -0.2188 -0.0537 -0.5415
  418TMC3    C1 6233   2.319   2.699   0.483  0.2926 -0.6174 -0.2660
  418TMC3    C2 6234   2.208   2.685   0.411  1.3444 -0.0649 -0.2327
  418TMC3    C3 6235   2.092   2.673   0.484  0.4884 -0.8096  0.0162
  418TMC3    C4 6236   2.328   2.693   0.622 -0.1231 -0.8054 -0.0450
  418TMC3    C5 6237   2.211   2.679   0.683  0.3858  0.1337  0.8557
  418TMC3    C6 6238   2.094   2.647   0.613 -0.0647  0.0937  0.6138
  418TMC3     C 6239   2.444   2.666   0.405  0.4800 -0.1791 -0.5328
  418TMC3     O 6240   2.432   2.685   0.282 -0.0149  0.2574 -0.2233
  418TMC3     H 6241   2.205   2.690   0.303  0.6395 -1.9591 -0.2897
  418TMC3    H1 6242   2.418   2.706   0.682 -0.4450  1.8280 -0.1527
  418TMC3    H2 6243   1.996   2.626   0.654  0.0185 -2.4381 -0.5317
  418TMC3    C7 6244   2.213   2.629   0.815 -0.0996 -0.6830  0.6600
  418TMC3    C8 6245   1.985   2.601   0.406  0.6083 -0.0270 -0.3889
  418TMC3    O1 6246   2.148   2.525   0.831  0.4007 -0.0922 -0.7327
  418TMC3    O2 6247   1.941   2.661   0.313  0.5251  0.9161 -0.0542
  419MPD2     C 6248   1.015   0.630  12.999 -0.0821 -0.4437 -0.2478
  419MPD2    C1 6249   0.903   0.696  12.962 -0.3520  0.6718 -0.2604
  419MPD2    C2 6250   0.785   0.675  13.039  0.0328  0.6961 -0.1780
  419MPD2    C3 6251   0.781   0.588  13.147 -0.2498 -0.1612  0.1543
  419MPD2    C4 6252   0.894   0.521  13.185  0.0514 -0.3559 -0.9031
  419MPD2    C5 6253   1.009   0.563  13.117  0.0947  0.0829 -0.1387
  419MPD2     H 6254   0.697   0.729  13.005 -1.0227 -0.6623  0.4354
  419MPD2    H1 6255   0.909   0.463  13.275 -1.2714 -0.3734 -0.7045
  419MPD2    H2 6256   1.110   0.641  12.948 -0.6243 -1.8486 -1.5813
  419MPD2    H3 6257   1.103   0.515  13.142 -0.6902 -2.1338 -1.4751
  419MPD2     N 6258   0.657   0.560  13.212  0.4076 -0.3587 -0.4208
  419MPD2    H5 6259   0.575   0.610  13.179 -1.8266 -2.0053  2.5391
  419MPD2    N1 6260   0.903   0.786  12.845 -0.2359 -0.6814 -0.4458
  419MPD2    H7 6261   0.814   0.832  12.828  0.9060  1.0883 -1.6714
  420TMC3    C1 6262   0.511   0.462  13.369 -0.3492 -0.3784  0.5571
  420TMC3    C2 6263   0.401   0.453  13.291 -0.7944  0.6240 -0.5340
  420TMC3    C3 6264   0.281   0.467  13.358  0.0250  0.0963  0.2165
  420TMC3    C4 6265   0.501   0.476  13.504  0.1309  0.0407 -0.2314
  420TMC3    C5 6266   0.383   0.495  13.572 -0.0176  0.0777  0.3431
  420TMC3    C6 6267   0.272   0.502  13.491 -0.2051  0.1010 -0.0153
  420TMC3     C 6268   0.644   0.470  13.317 -0.6307 -0.5018 -0.0326
  420TMC3     O 6269   0.731   0.410  13.384  0.3711  0.0784  0.6647
  420TMC3     H 6270   0.404   0.430  13.185  0.6357 -1.7194  0.0107
  420TMC3    H1 6271   0.595   0.471  13.558 -0.2772 -0.0325  0.4752
  420TMC3    H2 6272   0.180   0.531  13.540 -0.1932 -0.1174  0.1376
  420TMC3    C7 6273   0.399   0.577  13.691 -0.2580 -0.6839 -0.0686
  420TMC3    C8 6274   0.156   0.492  13.277 -0.0274 -0.0639  0.4332
  420TMC3    O1 6275   0.508   0.630  13.702  0.3871  0.3868 -0.1065
  420TMC3    O2 6276   0.079   0.564  13.336 -0.1053  0.0809 -0.3125
  421TMC3    C1 6277   1.894   3.070  13.929  0.4864 -0.3235 -0.7558
  421TMC3    C2 6278   1.935   3.176  14.004 -0.3624 -0.1855  0.1458
  421TMC3    C3 6279   2.063   3.176  14.057 -0.2599  0.1640 -0.6552
  421TMC3    C4 6280   1.974   2.963  13.896 -0.4712  0.0528 -0.1078
  421TMC3    C5 6281   2.100   2.967  13.940 -0.7909 -0.2138 -0.2420
  421TMC3    C6 6282   2.144   3.070  14.015  0.3751 -0.7180  0.8287
  421TMC3     C 6283   1.758   3.078  13.877  0.8711 -1.0288  0.2512
  421TMC3     O 6284   1.700   3.184  13.904 -0.1342 -0.0276 -0.6629
  421TMC3     H 6285   1.876   3.265  14.020  0.0473  0.0302  0.4857
  421TMC3    H1 6286   1.932   2.888  13.831  0.1307  1.4733 -2.1252
  421TMC3    H2 6287   2.236   3.053  14.071  1.0715 -1.3154 -0.5003
  421TMC3    C7 6288   2.199   2.853  13.908  0.0393  0.0533 -0.3092
  421TMC3    C8 6289   2.092   3.236  14.184 -0.0400 -0.3248 -0.5560
  421TMC3    O1 6290   2.315   2.887  13.903 -0.3994  0.3276 -0.2036
  421TMC3    O2 6291   1.998   3.253  14.259 -0.4486  0.0606  0.4966
  422TMC3    C1 6292   4.540   3.707  12.701 -0.0285 -0.0540 -0.3051
  422TMC3    C2 6293   4.520   3.840  12.729  0.0995 -0.3570  0.5774
  422TMC3    C3 6294   4.435   3.875  12.829  1.0816 -0.1300 -0.0015
  422TMC3    C4 6295   4.451   3.613  12.756 -0.5665 -0.1594 -0.3236
  422TMC3    C5 6296   4.351   3.650  12.848 -0.2472 -0.2138 -0.6535
  422TMC3    C6 6297   4.344   3.782  12.886  0.4239 -0.1843  0.4673
  422TMC3     C 6298   4.593   3.662  12.574  0.6797  1.1294 -0.0185
  422TMC3     O 6299   4.572   3.734  12.475 -0.1063 -0.2267 -0.1431
  422TMC3     H 6300   4.592   3.907  12.684  0.9510 -0.9757  1.0220
  422TMC3    H1 6301   4.452   3.510  12.723 -0.3244 -0.9741  2.2298
  422TMC3    H2 6302   4.258   3.827  12.934  1.0765  2.8328 -1.1804
  422TMC3    C7 6303   4.272   3.545  12.908  0.0306  0.4102 -0.3359
  422TMC3    C8 6304   4.442   4.002  12.874  0.1231  0.1422  0.0447
  422TMC3    O1 6305   4.329   3.440  12.942 -0.2934  0.5887 -0.2205
  422TMC3    O2 6306   4.474   4.089  12.790  1.1450  0.0693 -0.3008
  423MPD2     C 6307   0.972   0.881   0.489 -0.3493 -0.4133 -0.2419
  423MPD2    C1 6308   0.934   0.762   0.559 -0.4601 -0.0063 -0.4863
  423MPD2    C2 6309   0.917   0.648   0.491  0.0549  0.0477  0.5406
  423MPD2    C3 6310   0.954   0.634   0.357  0.9125  0.2607 -0.5395
  423MPD2    C4 6311   1.009   0.742   0.297  0.2426  0.2207 -0.8075
  423MPD2    C5 6312   1.013   0.864   0.363  0.4273 -1.2200  0.0905
  423MPD2     H 6313   0.870   0.563   0.540 -2.1417  0.6676 -0.4803
  423MPD2    H1 6314   1.055   0.720   0.201  0.8386  0.3896 -0.5581
  423MPD2    H2 6315   0.982   0.977   0.538 -1.9016  0.7465 -2.2194
  423MPD2    H3 6316   1.059   0.954   0.325  0.6104 -1.2430  0.2630
  423MPD2     N 6317   0.947   0.513   0.283 -1.1313 -0.7613 -0.2486
  423MPD2    H5 6318   0.980   0.514   0.188 -0.2600 -2.1069  0.0404
  423MPD2    N1 6319   0.898   0.767   0.698  0.2076  0.4092  0.5687
  423MPD2    H7 6320   0.873   0.682   0.748  2.3160 -1.4162 -1.4216
  424TMC3    C1 6321   0.838   0.851   0.921 -0.0257 -0.6618  0.1281
  424TMC3    C2 6322   0.864   0.740   0.991 -0.0000  0.2035 -0.4163
  424TMC3    C3 6323   0.851   0.737   1.132 -0.1713  0.3743  0.2792
  424TMC3    C4 6324   0.792   0.965   0.984  0.0055 -0.0805 -0.7529
  424TMC3    C5 6325   0.755   0.946   1.117 -0.5312 -0.5464  0.3634
  424TMC3    C6 6326   0.792   0.839   1.196  0.4164  0.1516 -0.3214
  424TMC3     C 6327   0.895   0.874   0.784  0.6301 -0.6785  0.3934
  424TMC3     O 6328   0.942   0.985   0.757 -0.0471  0.2785 -0.3577
  424TMC3     H 6329   0.897   0.655   0.933  0.3501  0.8028 -1.1024
  424TMC3    H1 6330   0.761   1.044   0.917  0.5181  1.4276  0.8072
  424TMC3    H2 6331   0.746   0.823   1.293  2.7138  1.5495  1.0126
  424TMC3    C7 6332   0.662   1.054   1.169  0.5637  0.5384 -0.6051
  424TMC3    C8 6333   0.938   0.649   1.205 -0.5268  0.4161 -0.1293
  424TMC3    O1 6334   0.664   1.157   1.102 -0.0635 -0.1949 -0.1985
  424TMC3    O2 6335   1.001   0.567   1.134 -0.2808 -0.3281  0.2941
  425MPD2     C 6336   4.107   4.595  17.184 -0.6102  0.0360  0.2540
  425MPD2    C1 6337   4.060   4.514  17.085  0.1711  0.2581  0.1688
  425MPD2    C2 6338   3.926   4.541  17.044  0.4421  0.4194  0.7300
  425MPD2    C3 6339   3.844   4.640  17.097  0.3422  0.1068 -0.8727
  425MPD2    C4 6340   3.913   4.723  17.181 -0.7775 -1.3985 -0.1013
  425MPD2    C5 6341   4.043   4.703  17.224 -0.5235  0.1815  0.3426
  425MPD2     H 6342   3.871   4.486  16.968  0.5121  1.8534 -0.3673
  425MPD2    H1 6343   3.877   0.090  17.229 -0.3552 -0.4216 -1.6494
  425MPD2    H2 6344   4.200   4.575  17.236 -0.8419 -0.3729  0.5092
  425MPD2    H3 6345   4.082   0.044  17.302  1.0464 -0.5935  0.1750
  425MPD2     N 6346   3.708   4.668  17.053 -0.0221  0.2599 -0.0971
  425MPD2    H5 6347   3.685   4.611  16.973  0.9358  0.1820 -0.3201
  425MPD2    N1 6348   4.128   4.396  17.051 -0.7134  0.2747 -0.2210
  425MPD2    H7 6349   4.215   4.372  17.097 -0.5262 -0.6990 -1.0930
  426TMC3    C1 6350   4.167   4.182  16.978  0.0822 -0.1183  0.0057
  426TMC3    C2 6351   4.111   4.065  16.936 -0.3610 -0.9263  0.3877
  426TMC3    C3 6352   4.201   3.971  16.907  0.2234  0.1863  0.3938
  426TMC3    C4 6353   4.300   4.209  16.976  0.2531  0.4695 -0.1573
  426TMC3    C5 6354   4.383   4.104  16.966 -0.3471  0.0030 -0.4465
  426TMC3    C6 6355   4.336   3.984  16.928 -0.6124 -0.5164  0.1132
  426TMC3     C 6356   4.069   4.286  16.998 -0.1630  0.1173  0.4034
  426TMC3     O 6357   3.949   4.268  16.965  0.2203  0.3457  0.4350
  426TMC3     H 6358   4.005   4.045  16.924 -0.4869  0.4646 -0.8329
  426TMC3    H1 6359   4.333   4.311  16.986 -1.0983  0.9390 -0.4765
  426TMC3    H2 6360   4.405   3.904  16.906 -0.0443 -0.6970  2.5208
  426TMC3    C7 6361   4.523   4.109  16.999 -0.6958  0.4544 -0.9906
  426TMC3    C8 6362   4.163   3.848  16.845  0.6841 -0.3133 -0.6500
  426TMC3    O1 6363   4.600   4.016  16.969  0.2027  0.1043 -0.1112
  426TMC3    O2 6364   4.253   3.789  16.792  0.2344 -0.0671  0.3734
  427MPD2     C 6365   3.144   1.358  15.038  0.3007 -0.2404  0.4865
  427MPD2    C1 6366   3.082   1.351  15.157 -1.0024 -0.1405 -0.1068
  427MPD2    C2 6367   2.947   1.382  15.155  0.6133  0.5141 -0.3057
  427MPD2    C3 6368   2.880   1.393  15.037  0.5048 -0.4740  0.1193
  427MPD2    C4 6369   2.940   1.368  14.917  1.0306  0.4041 -0.3337
  427MPD2    C5 6370   3.084   1.364  14.913 -0.1643  0.6466  1.0535
  427MPD2     H 6371   2.909   1.410  15.253 -0.1440  0.8354 -0.6949
  427MPD2    H1 6372   2.872   1.346  14.835  2.3639 -2.3888 -0.7046
  427MPD2    H2 6373   3.252   1.343  15.038  0.6514  2.1080 -1.9830
  427MPD2    H3 6374   3.145   1.365  14.823  1.3515  0.6889  2.0704
  427MPD2     N 6375   2.749   1.425  15.030  0.2173  0.2761 -0.0538
  427MPD2    H5 6376   2.711   1.450  14.939 -1.0515 -3.5939 -0.6308
  427MPD2    N1 6377   3.140   1.340  15.282  0.4634  0.4836 -0.2219
  427MPD2    H7 6378   3.078   1.340  15.363 -1.7151  0.0576 -1.8876
  428TMC3    C1 6379   3.314   1.289  15.438  0.5267  0.2092  0.4938
  428TMC3    C2 6380   3.224   1.229  15.522  0.3259 -0.5680  0.2572
  428TMC3    C3 6381   3.263   1.185  15.647 -0.1626 -0.3064 -0.1579
  428TMC3    C4 6382   3.442   1.307  15.469 -0.2322  0.2372  0.2613
  428TMC3    C5 6383   3.486   1.266  15.596  0.8526  0.2747  1.0268
  428TMC3    C6 6384   3.394   1.210  15.682 -0.4949 -0.9671  0.5228
  428TMC3     C 6385   3.272   1.312  15.301  0.2481  0.0569  0.3666
  428TMC3     O 6386   3.363   1.293  15.221 -0.0435  0.1696 -0.1730
  428TMC3     H 6387   3.122   1.201  15.500  0.8153 -1.5940 -0.6916
  428TMC3    H1 6388   3.505   1.348  15.391 -1.9999  3.1700  0.3742
  428TMC3    H2 6389   3.419   1.192  15.786  3.5980 -0.2032 -0.3283
  428TMC3    C7 6390   3.617   1.313  15.651 -0.0162 -0.5736  0.5089
  428TMC3    C8 6391   3.177   1.112  15.736 -0.3510 -0.1449 -0.1409
  428TMC3    O1 6392   3.624   1.343  15.769 -0.0220  0.3171  0.2396
  428TMC3    O2 6393   3.058   1.129  15.728  0.9853  0.1504 -0.0202
  429MPD2     C 6394   4.159   1.758  17.681 -0.6039  0.2237 -0.5875
  429MPD2    C1 6395   4.288   1.719  17.662  0.2887 -0.2093 -0.0264
  429MPD2    C2 6396   4.376   1.816  17.624  0.1066  0.1208 -0.5949
  429MPD2    C3 6397   4.343   1.946  17.604 -0.0575 -0.7685 -0.1939
  429MPD2    C4 6398   4.209   1.982  17.614  0.3277 -0.8775 -0.9657
  429MPD2    C5 6399   4.118   1.887  17.644 -0.3148  0.0985  0.1039
  429MPD2     H 6400   4.477   1.779  17.610  0.2336 -0.1700  1.1324
  429MPD2    H1 6401   4.159   2.076  17.592 -1.8148 -1.3044  2.0545
  429MPD2    H2 6402   4.089   1.677   0.004  2.9210 -2.7280 -0.0741
  429MPD2    H3 6403   4.013   1.914  17.646 -0.3591 -0.0719  0.1225
  429MPD2     N 6404   4.438   2.028  17.551  0.4647 -0.1303 -0.7109
  429MPD2    H5 6405   4.524   1.984  17.517  1.9220  0.8914  1.6616
  429MPD2    N1 6406   4.326   1.583  17.664 -0.2334 -0.2664  0.0878
  429MPD2    H7 6407   4.411   1.563  17.612 -0.6372 -0.6588 -0.4130
  430TMC3    C1 6408   4.558   2.216  17.468 -0.0762 -0.0072  0.3794
  430TMC3    C2 6409   4.529   2.302  17.369  0.6417 -0.0459  1.0147
  430TMC3    C3 6410   4.603   2.291  17.252 -0.0912 -0.5699  0.2205
  430TMC3    C4 6411   4.661   2.120  17.458  0.6113 -0.5443  0.6246
  430TMC3    C5 6412   0.014   2.105  17.342  0.2596  0.1334 -0.0666
  430TMC3    C6 6413   4.710   2.203  17.245 -0.6494 -0.2144 -0.1782
  430TMC3     C 6414   4.433   2.169  17.531  0.0636  0.2440 -1.1435
  430TMC3     O 6415   4.337   2.246  17.522 -0.7397 -0.0538 -0.1328
  430TMC3     H 6416   4.458   2.384  17.378  0.7765  0.1218  0.5425
  430TMC3    H1 6417   4.683   2.047  17.536  1.5815 -2.9930 -1.9057
  430TMC3    H2 6418   0.044   2.195  17.154 -1.6681  0.6441 -0.8910
  430TMC3    C7 6419   0.016   1.969  17.298  0.0038 -0.0212 -0.0165
  430TMC3    C8 6420   4.523   2.283  17.126 -0.4019  0.2825  0.1000
  430TMC3    O1 6421   0.030   1.876  17.377  0.2446  0.0385 -0.2577
  430TMC3    O2 6422   4.578   2.218  17.035  0.0176 -0.5591 -0.4783
  431MPD2     C 6423   0.477   1.471  12.833 -0.4727  0.7703 -0.3244
  431MPD2    C1 6424   0.555   1.506  12.719  1.2441 -0.0800 -0.4602
  431MPD2    C2 6425   0.626   1.408  12.657 -0.1126 -0.9145 -0.6143
  431MPD2    C3 6426   0.627   1.280  12.705  0.0086  0.6484  0.2742
  431MPD2    C4 6427   0.548   1.247  12.811  0.4032  0.6734  0.4561
  431MPD2    C5 6428   0.476   1.339  12.885  0.4537  0.6064  0.6832
  431MPD2     H 6429   0.693   1.441  12.578  1.1619  0.3359  0.9917
  431MPD2    H1 6430   0.541   1.145  12.847  3.6326  0.2899 -0.0535
  431MPD2    H2 6431   0.422   1.540  12.895 -1.5588 -0.8175  0.4842
  431MPD2    H3 6432   0.424   1.311  12.976  0.1444 -1.5250 -0.1417
  431MPD2     N 6433   0.716   1.180  12.657 -0.0568 -1.0395  0.0598
  431MPD2    H5 6434   0.706   1.088  12.698 -1.2463 -2.0468 -2.4637
  431MPD2    N1 6435   0.562   1.634  12.671  0.4086  0.1181  0.0251
  431MPD2    H7 6436   0.607   1.648  12.581 -1.1301  1.8795 -0.4770
  432TMC3    C1 6437   0.915   1.090  12.566 -0.0891  0.4894 -0.1302
  432TMC3    C2 6438   0.990   1.080  12.449  0.7551 -0.7669  0.0882
  432TMC3    C3 6439   1.058   0.964  12.431  0.1134  0.0219  0.1379
  432TMC3    C4 6440   0.914   0.990  12.666 -0.1373  0.2210 -0.1730
  432TMC3    C5 6441   0.991   0.883  12.642  0.2138 -0.1945 -0.3247
  432TMC3    C6 6442   1.061   0.859  12.522 -0.2260  0.4318 -0.5537
  432TMC3     C 6443   0.823   1.206  12.574  0.6652 -0.5203 -0.0910
  432TMC3     O 6444   0.838   1.300  12.491 -0.0258  0.0526  0.6552
  432TMC3     H 6445   0.995   1.158  12.374  0.2504 -1.8827 -1.1067
  432TMC3    H1 6446   0.861   1.010  12.758  0.2142 -1.9230  0.4808
  432TMC3    H2 6447   1.131   0.777  12.511 -2.3315 -1.1759 -2.2134
  432TMC3    C7 6448   1.011   0.792  12.756  0.1588 -0.4971  0.5910
  432TMC3    C8 6449   1.148   0.950  12.313  0.6544 -0.1473 -0.0004
  432TMC3    O1 6450   1.092   0.705  12.740 -0.5618 -0.3668 -0.4310
  432TMC3    O2 6451   1.170   0.833  12.286  0.4907  0.4989 -0.5510
  433MPD2     C 6452   4.289   0.584  10.962 -0.8597  0.1631  0.6331
  433MPD2    C1 6453   4.224   0.469  11.006 -0.3711 -0.2158 -0.1375
  433MPD2    C2 6454   4.223   0.453  11.150 -0.5100 -0.1206 -0.0396
  433MPD2    C3 6455   4.286   0.536  11.233 -0.0276  0.1955  0.1547
  433MPD2    C4 6456   4.335   0.651  11.181 -0.0037 -0.0637  0.1379
  433MPD2    C5 6457   4.336   0.680  11.046  0.5929  0.2188 -0.8632
  433MPD2     H 6458   4.176   0.360  11.181 -1.8722  0.2161 -1.0945
  433MPD2    H1 6459   4.398   0.721  11.234 -2.2479  0.6629  1.8239
  433MPD2    H2 6460   4.308   0.596  10.856  1.9983 -2.7449  0.8002
  433MPD2    H3 6461   4.374   0.775  11.010 -1.2896  1.8240  1.3601
  433MPD2     N 6462   4.319   0.493  11.359  0.5079 -0.2806  0.0302
  433MPD2    H5 6463   4.291   0.397  11.379 -1.5579  0.3685  0.2132
  433MPD2    N1 6464   4.194   0.374  10.903 -0.2092 -0.0127 -0.1371
  433MPD2    H7 6465   4.222   0.393  10.807 -2.6007 -1.2838 -1.0801
  434TMC3    C1 6466   4.186   0.153  10.824 -0.5321  0.3942 -0.8232
  434TMC3    C2 6467   4.235   0.032  10.871  0.4318  0.0487 -0.3688
  434TMC3    C3 6468   4.299   4.674  10.778 -0.1189  0.4023  0.1446
  434TMC3    C4 6469   4.182   0.196  10.692  0.1729  0.4768  0.6208
  434TMC3    C5 6470   4.220   0.094  10.612 -0.0745 -0.1597 -0.4353
  434TMC3    C6 6471   4.300   4.705  10.648 -0.3955  0.7675  0.1384
  434TMC3     C 6472   4.152   0.243  10.929 -0.2907 -0.1938  0.4929
  434TMC3     O 6473   4.126   0.200  11.038 -0.0632  0.2514  0.2680
  434TMC3     H 6474   4.244   0.013  10.978  2.3191  1.1594 -0.3400
  434TMC3    H1 6475   4.123   0.282  10.663  1.7510  1.1424 -0.6126
  434TMC3    H2 6476   4.361   4.651  10.577  0.8593 -0.3338  2.0509
  434TMC3    C7 6477   4.098   0.033  10.552  0.8306 -0.1801  0.1899
  434TMC3    C8 6478   4.354   4.549  10.830 -0.0319  0.4733 -0.1956
  434TMC3    O1 6479   3.994   0.100  10.527 -0.1016  0.2274  0.4129
  434TMC3    O2 6480   4.300   4.514  10.936  0.8444 -0.3748 -0.0155
  435MPD2     C 6481   1.296   0.291  15.493 -0.1063  0.8302  0.1008
  435MPD2    C1 6482   1.269   0.272  15.627 -0.1084  0.0399  0.3909
  435MPD2    C2 6483   1.364   0.200  15.708 -0.1767 -0.7042 -0.0688
  435MPD2    C3 6484   1.474   0.145  15.650  0.3831 -0.2404  0.3224
  435MPD2    C4 6485   1.490   0.155  15.514  0.6228 -0.1544 -0.2358
  435MPD2    C5 6486   1.406   0.232  15.440  0.9167 -0.4478 -0.2793
  435MPD2     H 6487   1.347   0.200  15.815 -1.2608  0.3421 -0.2402
  435MPD2    H1 6488   1.567   0.102  15.460  0.7843  0.3621 -0.5075
  435MPD2    H2 6489   1.235   0.350  15.425 -1.1619  1.0725  1.2537
  435MPD2    H3 6490   1.435   0.260  15.340 -2.1559  2.5783 -0.3075
  435MPD2     N 6491   1.558   0.083  15.738 -0.6219  0.1086  0.5799
  435MPD2    H5 6492   1.536   0.086  15.837  0.7947 -1.4982  0.9384
  435MPD2    N1 6493   1.151   0.309  15.699 -0.6203 -0.1074 -0.7117
  435MPD2    H7 6494   1.143   0.287  15.798  2.2413 -2.9877 -1.1149
  436TMC3    C1 6495   0.893   0.547  15.933 -0.2418  0.6765  0.5010
  436TMC3    C2 6496   0.935   0.527  15.802 -0.2071 -0.4059 -0.5256
  436TMC3    C3 6497   0.947   0.400  15.751  0.3366 -0.0607 -0.0068
  436TMC3    C4 6498   0.851   0.432  16.007 -0.2248 -0.1508 -0.1842
  436TMC3    C5 6499   0.868   0.307  15.956 -0.1136 -0.4752 -0.0276
  436TMC3    C6 6500   0.918   0.287  15.827 -0.0153 -0.1396 -0.3470
  436TMC3     C 6501   0.931   0.667  15.997  0.2202  0.3769 -0.2115
  436TMC3     O 6502   0.982   0.756  15.929  0.0086 -0.1715  0.4024
  436TMC3     H 6503   0.985   0.608  15.750 -0.4210 -0.7782 -1.3054
  436TMC3    H1 6504   0.809   0.438  16.107  0.8846  1.0385  0.2032
  436TMC3    H2 6505   0.938   0.191  15.780 -1.1439  0.5548 -2.2609
  436TMC3    C7 6506   0.807   0.193  16.025  0.6178  0.2137  0.0860
  436TMC3    C8 6507   1.047   0.384  15.648 -0.0244  0.0682  0.2592
  436TMC3    O1 6508   0.746   0.229  16.124  0.3861  0.2205  0.3559
  436TMC3    O2 6509   1.036   0.446  15.544 -0.0471 -0.0420 -0.1955
  437TMC3    C1 6510   4.205   2.799  12.419  0.3468  0.2528  0.2016
  437TMC3    C2 6511   4.163   2.782  12.550  0.6057 -0.2213 -0.2442
  437TMC3    C3 6512   4.256   2.720  12.630  0.1985 -0.3101  0.1952
  437TMC3    C4 6513   4.313   2.742  12.363  0.1271 -0.9616  0.9304
  437TMC3    C5 6514   4.398   2.673  12.452 -0.0031  0.4089 -0.0125
  437TMC3    C6 6515   4.374   2.667  12.585 -0.5953 -0.2124 -0.6343
  437TMC3     C 6516   4.123   2.889  12.335  0.7768 -0.2222  1.2445
  437TMC3     O 6517   4.070   2.980  12.401 -0.7520  0.0249  0.0487
  437TMC3     H 6518   4.064   2.815  12.579  1.3658  1.3070  0.6198
  437TMC3    H1 6519   4.348   2.752  12.261  0.7421  0.1255  1.2526
  437TMC3    H2 6520   4.428   2.612  12.660  0.8417  1.9313 -0.0941
  437TMC3    C7 6521   4.507   2.596  12.393  0.2833 -0.7336  0.6652
  437TMC3    C8 6522   4.197   2.678  12.757  0.1661 -0.1711  0.5331
  437TMC3    O1 6523   4.519   2.603  12.276 -0.2483  0.0933 -0.1108
  437TMC3    O2 6524   4.077   2.643  12.763 -0.8246 -0.4907  0.4233
  438MPD2     C 6525   2.487   3.228  16.536  1.1285 -0.4228  0.0450
  438MPD2    C1 6526   2.528   3.145  16.638  0.2961 -0.4600 -0.5922
  438MPD2    C2 6527   2.510   3.189  16.765 -0.0601 -0.2471 -0.6571
  438MPD2    C3 6528   2.458   3.314  16.789 -0.7905 -0.3252  0.4514
  438MPD2    C4 6529   2.424   3.400  16.690  0.0187 -0.1535 -0.3675
  438MPD2    C5 6530   2.439   3.354  16.563  0.3121 -0.0726  1.2872
  438MPD2     H 6531   2.549   3.129  16.847  0.1902  1.0775  0.2025
  438MPD2    H1 6532   2.392   3.500  16.715 -2.9562 -0.7921 -1.6201
  438MPD2    H2 6533   2.497   3.209  16.430 -1.9049 -0.4231 -0.2208
  438MPD2    H3 6534   2.411   3.416  16.478  2.2271  0.8545  1.3304
  438MPD2     N 6535   2.436   3.364  16.919 -0.6260  0.3354 -0.5806
  438MPD2    H5 6536   2.378   3.447  16.924  0.3520  1.0061 -0.2678
  438MPD2    N1 6537   2.578   3.015  16.619 -0.6616 -0.3746 -0.3127
  438MPD2    H7 6538   2.614   2.960  16.697  1.8563  0.7291 -0.7010
  439TMC3    C1 6539   2.628   2.811  16.530  0.0776 -0.0240  0.4712
  439TMC3    C2 6540   2.595   2.730  16.419  0.0893 -0.4802 -0.4414
  439TMC3    C3 6541   2.659   2.607  16.415  0.3722  0.0721 -0.3986
  439TMC3    C4 6542   2.725   2.785  16.622  0.8792 -0.5071  0.5843
  439TMC3    C5 6543   2.773   2.654  16.621 -0.4073 -0.0726  0.1688
  439TMC3    C6 6544   2.739   2.567  16.522  0.4198 -0.1168  0.3738
  439TMC3     C 6545   2.587   2.950  16.505 -0.0295 -0.1577  0.2356
  439TMC3     O 6546   2.552   2.987  16.393 -0.1246 -0.2022  0.6726
  439TMC3     H 6547   2.536   2.778  16.342 -1.6115 -0.2584  0.9920
  439TMC3    H1 6548   2.743   2.856  16.702 -0.0867 -0.5927  0.8725
  439TMC3    H2 6549   2.791   2.473  16.511 -1.8611 -1.2112 -0.9376
  439TMC3    C7 6550   2.872   2.612  16.724  0.5252  0.3116  0.6649
  439TMC3    C8 6551   2.699   2.562  16.287  0.1151 -0.5912  0.0971
  439TMC3    O1 6552   2.934   2.706  16.775 -0.0528 -0.3637  0.3465
  439TMC3    O2 6553   2.803   2.494  16.288 -0.0669  0.1228 -0.0948
  440MPD2     C 6554   1.192   3.944  14.825  0.5521  1.1424  0.5255
  440MPD2    C1 6555   1.170   3.873  14.939  0.2633  0.1391  0.0379
  440MPD2    C2 6556   1.257   3.769  14.968  0.8529  0.1416 -0.6953
  440MPD2    C3 6557   1.363   3.735  14.884 -0.9032 -0.5301  0.7088
  440MPD2    C4 6558   1.379   3.799  14.767 -0.0259 -0.0729  0.1677
  440MPD2    C5 6559   1.293   3.906  14.735 -0.7665  0.0466 -0.1586
  440MPD2     H 6560   1.240   3.722  15.065  0.5967 -0.7987 -1.1954
  440MPD2    H1 6561   1.459   3.773  14.698  1.7387  1.7796  1.5128
  440MPD2    H2 6562   1.125   4.019  14.786  1.5243  1.5059 -0.4659
  440MPD2    H3 6563   1.315   3.963  14.646  3.5187  1.7192  1.9331
  440MPD2     N 6564   1.453   3.630  14.914 -0.2834 -0.6489 -0.3229
  440MPD2    H5 6565   1.521   3.619  14.840  0.4959  1.0368  0.1506
  440MPD2    N1 6566   1.068   3.896  15.027 -0.2785 -0.3599 -0.4267
  440MPD2    H7 6567   1.046   3.832  15.102  0.5699  0.6811  0.7085
  441TMC3    C1 6568   1.572   3.470  15.028 -0.9133 -0.5863 -0.0046
  441TMC3    C2 6569   1.684   3.554  15.037  0.2832 -0.6299 -0.9600
  441TMC3    C3 6570   1.787   3.521  15.118 -0.1983  0.3919  0.0971
  441TMC3    C4 6571   1.564   3.367  15.112 -0.2741  0.0823  0.3247
  441TMC3    C5 6572   1.665   3.335  15.192  1.3784  0.3986  0.4170
  441TMC3    C6 6573   1.778   3.410  15.199 -0.2840  0.7727 -0.4259
  441TMC3     C 6574   1.450   3.547  15.017  0.2911  0.4717 -0.2226
  441TMC3     O 6575   1.374   3.544  15.111 -0.1707 -0.1286 -0.1085
  441TMC3     H 6576   1.696   3.636  14.967 -2.0633  0.5431 -0.0144
  441TMC3    H1 6577   1.468   3.317  15.121 -0.5680  0.7014  0.7083
  441TMC3    H2 6578   1.852   3.405  15.278  0.3901  1.2065 -1.0326
  441TMC3    C7 6579   1.645   3.234  15.294  0.8028  0.2903 -0.4433
  441TMC3    C8 6580   1.836   3.634  15.187  0.6487 -1.3204  0.5172
  441TMC3    O1 6581   1.529   3.219  15.330  0.1881 -0.3422  0.3960
  441TMC3    O2 6582   1.930   3.625  15.265 -0.2133  0.5140 -0.3247
  442MPD2     C 6583   3.885   4.274  16.526  0.2153  0.4108  0.1221
  442MPD2    C1 6584   3.790   4.192  16.467 -0.1470  0.3653 -0.1021
  442MPD2    C2 6585   3.816   4.054  16.461  0.4391  0.4630 -0.0376
  442MPD2    C3 6586   3.928   4.000  16.526  0.1749  0.2779  0.0076
  442MPD2    C4 6587   4.019   4.085  16.586 -0.2937 -0.4666  0.2065
  442MPD2    C5 6588   3.994   4.219  16.591 -0.3902  0.7872 -0.7336
  442MPD2     H 6589   3.750   3.992  16.402  0.0792 -0.4197  1.2917
  442MPD2    H1 6590   4.112   4.048  16.629 -1.0039 -3.0388 -0.4372
  442MPD2    H2 6591   3.892   4.381  16.516 -1.3365  0.4368 -0.6592
  442MPD2    H3 6592   4.064   4.287  16.638  0.2153  0.5814 -1.3341
  442MPD2     N 6593   3.974   3.867  16.509 -0.8104 -0.6312 -0.0871
  442MPD2    H5 6594   4.062   3.846  16.555 -1.3171 -1.0090  0.7066
  442MPD2    N1 6595   3.677   4.242  16.393 -0.4820 -0.1910 -0.4432
  442MPD2    H7 6596   3.628   4.177  16.333 -0.4581  1.5181 -2.2970
  443TMC3    C1 6597   3.538   4.406  16.291 -0.2700  0.0923  0.2733
  443TMC3    C2 6598   3.539   4.348  16.171 -0.7229 -0.5887 -0.8792
  443TMC3    C3 6599   3.444   4.383  16.079 -0.1698  0.3555  0.2147
  443TMC3    C4 6600   3.459   4.512  16.321  0.1851 -0.1653  0.2496
  443TMC3    C5 6601   3.359   4.541  16.230  0.0780 -0.1876  0.0456
  443TMC3    C6 6602   3.353   4.484  16.109 -0.3957 -0.2329 -0.3106
  443TMC3     C 6603   3.640   4.375  16.393  0.0942  0.0060 -0.4283
  443TMC3     O 6604   3.681   4.471  16.459  0.4402  0.5871  0.2468
  443TMC3     H 6605   3.611   4.271  16.145  1.0063  0.7322  0.0221
  443TMC3    H1 6606   3.465   4.542  16.425 -1.0878 -0.2203  0.3395
  443TMC3    H2 6607   3.285   4.512  16.029  0.1286 -2.6349 -1.6086
  443TMC3    C7 6608   3.228   4.530  16.298  0.2865  0.5089 -0.2232
  443TMC3    C8 6609   3.447   4.319  15.957 -0.2435 -0.1070  0.0373
  443TMC3    O1 6610   3.162   4.448  16.239 -0.5083  0.4264 -0.6135
  443TMC3    O2 6611   3.551   4.271  15.921  0.4057 -0.0474 -0.3126
  444MPD2     C 6612   4.148   3.857  17.266 -0.9303 -0.0082 -0.0576
  444MPD2    C1 6613   4.087   3.746  17.207 -0.0472 -0.5482 -0.1682
  444MPD2    C2 6614   4.165   3.638  17.165 -0.5729  0.0886 -0.1404
  444MPD2    C3 6615   4.303   3.648  17.163  0.0070 -0.1583  0.2629
  444MPD2    C4 6616   4.367   3.756  17.221  0.4161  0.4572  0.1988
  444MPD2    C5 6617   4.287   3.856  17.274 -0.3892  0.1196 -0.0176
  444MPD2     H 6618   4.117   3.552  17.120  1.2975 -1.6606  1.1983
  444MPD2    H1 6619   4.475   3.772  17.218  0.5700 -0.3904  1.2579
  444MPD2    H2 6620   4.101   3.946  17.305  0.6919 -0.5915  3.2419
  444MPD2    H3 6621   4.342   3.942  17.309 -0.5829  0.6182 -0.9217
  444MPD2     N 6622   4.375   3.533  17.110 -0.1090  0.0084 -0.0050
  444MPD2    H5 6623   4.316   3.467  17.061 -0.6244  0.9897 -0.7118
  444MPD2    N1 6624   3.947   3.727  17.200  0.3925 -0.3712  0.2447
  444MPD2    H7 6625   3.915   3.641  17.158 -1.4076  0.3269  0.1942
  445TMC3    C1 6626   4.546   3.378  17.065 -0.1269  0.0049 -0.2212
  445TMC3    C2 6627   4.456   3.282  17.090  0.2712 -0.1732  0.2320
  445TMC3    C3 6628   4.502   3.148  17.096 -0.1441 -0.2650 -0.2843
  445TMC3    C4 6629   4.680   3.355  17.047 -0.0237  0.0205 -0.2895
  445TMC3    C5 6630   4.715   3.223  17.042  0.1582 -0.0966  0.0263
  445TMC3    C6 6631   4.628   3.119  17.071  0.6112  0.1235  0.2767
  445TMC3     C 6632   4.506   3.516  17.091  0.6196 -0.1705 -0.5327
  445TMC3     O 6633   4.590   3.598  17.117  0.3046 -1.0634  0.0305
  445TMC3     H 6634   4.355   3.309  17.120  0.7452  1.2550  0.5496
  445TMC3    H1 6635   0.018   3.441  17.022  1.6490 -0.9613  0.4937
  445TMC3    H2 6636   4.645   3.012  17.063  0.3887  0.1464 -0.4588
  445TMC3    C7 6637   0.132   3.193  16.994  0.2718 -0.8034 -0.5565
  445TMC3    C8 6638   4.404   3.046  17.075  0.1344 -0.8981 -0.0432
  445TMC3    O1 6639   0.186   3.287  16.943 -0.7649 -0.2850  0.3754
  445TMC3    O2 6640   4.439   2.931  17.090  0.0054  0.2774 -0.0042
  446MPD2     C 6641   4.132   4.529  11.451  0.1479  0.2287 -0.2016
  446MPD2    C1 6642   4.122   4.478  11.329  0.1851 -0.6895 -0.1915
  446MPD2    C2 6643   4.222   4.492  11.238  0.8533  0.9480  0.5275
  446MPD2    C3 6644   4.339   4.547  11.276  0.1770  0.2680 -0.2823
  446MPD2    C4 6645   4.354   4.588  11.405  0.0021  0.3799  0.7910
  446MPD2    C5 6646   4.255   4.579  11.496 -0.1675 -0.1251  0.2346
  446MPD2     H 6647   4.210   4.451  11.138  3.2904  2.0922 -0.2398
  446MPD2    H1 6648   4.447   4.627  11.446  0.8876 -1.1909  0.2770
  446MPD2    H2 6649   4.059   4.521  11.531  0.7779 -1.0333  0.2488
  446MPD2    H3 6650   4.262   4.622  11.596  1.2212  0.4852 -0.1174
  446MPD2     N 6651   4.436   4.558  11.183  0.1195  0.0579  0.3535
  446MPD2    H5 6652   4.404   4.558  11.087 -0.6192  0.3572  0.5976
  446MPD2    N1 6653   4.001   4.417  11.290 -0.4962  0.0251  0.4256
  446MPD2    H7 6654   3.983   4.399  11.192 -1.2231 -1.0076  0.7547
  447TMC3    C1 6655   4.658   4.583  11.102 -0.2312 -0.1078 -0.6420
  447TMC3    C2 6656   4.625   4.660  10.996  0.5117 -0.4271  0.3562
  447TMC3    C3 6657   0.003   4.685  10.908  0.3437 -0.4066  0.5079
  447TMC3    C4 6658   0.062   4.524  11.112 -0.1152 -0.1365 -0.1684
  447TMC3    C5 6659   0.156   4.538  11.011 -0.7378 -0.4855 -0.0629
  447TMC3    C6 6660   0.125   4.624  10.911  0.1240  0.3835 -0.0837
  447TMC3     C 6661   4.570   4.560  11.211  0.2127  0.9140 -0.0600
  447TMC3     O 6662   4.633   4.551  11.316 -0.1434 -1.2895  0.4699
  447TMC3     H 6663   4.532   4.715  11.007  1.1706  0.3948  1.7963
  447TMC3    H1 6664   0.080   4.452  11.191  1.4164  0.9874  0.4917
  447TMC3    H2 6665   0.203   4.650  10.840 -0.7865 -0.7534 -1.4868
  447TMC3    C7 6666   0.295   4.506  11.032  0.7904 -0.6525  0.8879
  447TMC3    C8 6667   4.694   0.043  10.793  0.0797  0.3948 -0.1265
  447TMC3    O1 6668   0.374   4.587  10.986 -0.0279 -0.2168 -0.2249
  447TMC3    O2 6669   4.577   0.057  10.776 -0.3695 -0.0815 -0.0914
  448TMC3    C1 6670   2.767   0.120  17.196  0.6457 -0.9818 -0.0063
  448TMC3    C2 6671   2.729   0.003  17.127 -0.2191 -0.1504  0.3483
  448TMC3    C3 6672   2.783   4.610  17.166  0.4091  0.2389 -0.1480
  448TMC3    C4 6673   2.834   0.109  17.314 -0.3485 -0.6133 -0.0321
  448TMC3    C5 6674   2.877   4.711  17.359  0.4177  0.1261 -0.3115
  448TMC3    C6 6675   2.860   4.598  17.283  0.0730 -0.0901  0.2103
  448TMC3     C 6676   2.689   0.237  17.175 -0.4249 -0.4286 -1.2280
  448TMC3     O 6677   2.663   0.306  17.277 -0.1895  0.4063  0.7663
  448TMC3     H 6678   2.668   0.013  17.037 -0.0048 -0.2671  0.1912
  448TMC3    H1 6679   2.858   0.198  17.369 -2.0568 -0.7864  1.0035
  448TMC3    H2 6680   2.902   4.501  17.310  0.9751  0.5305  1.0352
  448TMC3    C7 6681   2.946   4.687  17.481  0.0327  0.3602 -0.6296
  448TMC3    C8 6682   2.771   4.489  17.080  0.0387  0.1622 -0.4040
  448TMC3    O1 6683   3.036   0.036  17.519 -0.2476 -0.9269 -0.2520
  448TMC3    O2 6684   2.830   4.392  17.119  0.3948 -0.0628  0.4658
  449MPD2     C 6685   4.176   2.364  14.389 -0.5586 -0.3767 -0.5251
  449MPD2    C1 6686   4.069   2.363  14.301  0.5306  0.4252  0.1040
  449MPD2    C2 6687   3.954   2.300  14.341  0.0123  0.2879 -0.5068
  449MPD2    C3 6688   3.940   2.235  14.462  0.2162 -0.8173 -0.0035
  449MPD2    C4 6689   4.049   2.238  14.551 -0.7144 -0.1952  0.4005
  449MPD2    C5 6690   4.160   2.312  14.517  0.1991 -0.2393 -0.0046
  449MPD2     H 6691   3.867   2.289  14.276 -1.2063 -0.8386  1.3160
  449MPD2    H1 6692   4.050   2.196  14.651  1.5111 -1.2263 -0.0442
  449MPD2    H2 6693   4.272   2.399  14.354 -0.7165 -0.4700 -1.0526
  449MPD2    H3 6694   4.247   2.310  14.582  1.2612  0.8915 -1.3844
  449MPD2     N 6695   3.817   2.176  14.478  0.5529 -0.5770 -0.3597
  449MPD2    H5 6696   3.759   2.187  14.396 -1.4351  1.1903  1.2810
  449MPD2    N1 6697   4.065   2.425  14.175 -0.3536 -0.3278 -0.0804
  449MPD2    H7 6698   3.975   2.437  14.131 -1.5584 -0.2404  2.3717
  450TMC3    C1 6699   4.114   2.601  14.035 -0.7015 -0.2614  0.4678
  450TMC3    C2 6700   4.170   2.567  13.921 -0.0113 -0.6046 -0.4985
  450TMC3    C3 6701   4.087   2.564  13.812 -0.0462  0.9270  0.4911
  450TMC3    C4 6702   3.981   2.640  14.038 -0.5798  0.5379  1.0278
  450TMC3    C5 6703   3.894   2.631  13.933 -0.2849 -0.8652  0.0143
  450TMC3    C6 6704   3.953   2.600  13.816 -0.2567  0.1133  0.3622
  450TMC3     C 6705   4.163   2.513  14.142  0.5641  0.7044 -0.3849
  450TMC3     O 6706   4.278   2.478  14.155  0.0473  0.5345  0.4159
  450TMC3     H 6707   4.261   2.509  13.932 -2.1631 -3.1522  4.0453
  450TMC3    H1 6708   3.938   2.654  14.137 -0.5210 -0.3109  1.1685
  450TMC3    H2 6709   3.902   2.598  13.720 -0.6159  1.9240  0.5304
  450TMC3    C7 6710   3.798   2.541  13.972  0.0386  0.0804  0.4198
  450TMC3    C8 6711   4.124   2.480  13.696 -0.0815  0.0834  0.6901
  450TMC3    O1 6712   3.828   2.422  13.985 -0.2612  0.2280  0.4565
  450TMC3    O2 6713   4.033   2.446  13.616 -0.0870 -1.0092 -0.6087
  451MPD2     C 6714   0.315   1.774   1.095  0.5374 -0.3476  0.0693
  451MPD2    C1 6715   0.337   1.648   1.045  0.1244 -0.5565  0.1343
  451MPD2    C2 6716   0.461   1.593   1.063 -0.0980  0.0352  0.9556
  451MPD2    C3 6717   0.552   1.649   1.151 -0.0630 -0.1017 -0.2645
  451MPD2    C4 6718   0.524   1.771   1.206  0.0340  0.4130 -1.1038
  451MPD2    C5 6719   0.402   1.830   1.179 -0.4466  0.0673 -0.0030
  451MPD2     H 6720   0.476   1.495   1.020  1.4465  0.7397 -0.1250
  451MPD2    H1 6721   0.593   1.817   1.275  0.7408  1.6591 -2.6433
  451MPD2    H2 6722   0.225   1.830   1.072  0.7907  0.5421  1.2645
  451MPD2    H3 6723   0.377   1.931   1.209  1.1371  0.2142  0.8686
  451MPD2     N 6724   0.683   1.595   1.176 -0.6017  0.3187  0.4653
  451MPD2    H5 6725   0.739   1.640   1.247  1.3864  1.2315 -1.6581
  451MPD2    N1 6726   0.229   1.590   0.965  0.7738  0.6244  0.3090
  451MPD2    H7 6727   0.144   1.646   0.972  0.4932  0.1952  0.3975
  452TMC3    C1 6728   0.858   1.432   1.177  0.1560  0.8842 -0.3876
  452TMC3    C2 6729   0.903   1.458   1.308  0.5403  0.0505 -0.4631
  452TMC3    C3 6730   1.001   1.380   1.364  0.0773 -0.1533 -1.8877
  452TMC3    C4 6731   0.919   1.341   1.102  0.4964  0.1278  0.3009
  452TMC3    C5 6732   1.012   1.259   1.164 -0.2383  0.9562  0.4674
  452TMC3    C6 6733   1.050   1.278   1.294  0.2080 -0.2710  0.0695
  452TMC3     C 6734   0.734   1.488   1.114 -0.2485  0.5575 -0.3964
  452TMC3     O 6735   0.703   1.427   1.015  0.2187 -0.2173 -0.2425
  452TMC3     H 6736   0.837   1.510   1.377  1.3836  1.5633 -0.7960
  452TMC3    H1 6737   0.904   1.309   1.000  0.8321  0.3294  0.1896
  452TMC3    H2 6738   1.142   1.231   1.330  0.6896 -0.1763 -1.0348
  452TMC3    C7 6739   1.089   1.159   1.089  0.1664 -0.0813  0.1041
  452TMC3    C8 6740   1.043   1.381   1.503  0.6417  0.2883  0.6012
  452TMC3    O1 6741   1.106   1.183   0.967  0.2435  0.1919  0.0120
  452TMC3    O2 6742   1.108   1.290   1.547 -0.5174 -0.2772 -0.0650
  453TMC3    C1 6743   1.852   3.373  11.803 -0.0049 -1.0284 -0.0126
  453TMC3    C2 6744   1.772   3.272  11.831  0.3914 -0.0396  0.4528
  453TMC3    C3 6745   1.692   3.229  11.732 -0.9019 -0.1158 -0.0324
  453TMC3    C4 6746   1.856   3.435  11.680 -0.5114  0.6210  0.4613
  453TMC3    C5 6747   1.769   3.386  11.583  0.1297 -0.1589  0.1626
  453TMC3    C6 6748   1.684   3.282  11.609 -0.2563  1.2863  0.1430
  453TMC3     C 6749   1.938   3.427  11.906 -0.5510  0.0657  0.1627
  453TMC3     O 6750   2.038   3.487  11.875 -1.0680 -0.3880 -0.0679
  453TMC3     H 6751   1.792   3.221  11.925  1.3446 -0.7731 -0.1451
  453TMC3    H1 6752   1.916   3.525  11.676  0.9810 -0.3078  1.8119
  453TMC3    H2 6753   1.610   3.244  11.539  0.6525  1.3369 -0.8483
  453TMC3    C7 6754   1.788   3.424  11.446  0.6585  0.0491  0.5778
  453TMC3    C8 6755   1.581   3.149  11.767  0.5266 -0.0136  0.1006
  453TMC3    O1 6756   1.759   3.336  11.363 -0.3067  0.3303 -0.2906
  453TMC3    O2 6757   1.477   3.158  11.703  0.4472 -0.2381 -0.2846
  454MPD2     C 6758   0.407   3.028  16.580 -0.5634  0.3862  0.3820
  454MPD2    C1 6759   0.341   3.147  16.584  0.3979 -0.4877  0.1044
  454MPD2    C2 6760   0.212   3.151  16.615  0.0719 -0.3217  0.3711
  454MPD2    C3 6761   0.142   3.031  16.637 -0.1946  0.4519  0.0490
  454MPD2    C4 6762   0.209   2.913  16.632  0.3844 -0.2655  0.0874
  454MPD2    C5 6763   0.339   2.911  16.600  0.0515  0.3044 -0.0339
  454MPD2     H 6764   0.164   3.249  16.621  1.6520  0.4186  0.9064
  454MPD2    H1 6765   0.149   2.822  16.638 -1.2035  0.8929  1.9786
  454MPD2    H2 6766   0.515   3.026  16.568 -0.5882 -0.3527  0.2789
  454MPD2    H3 6767   0.387   2.814  16.599  0.6036  0.5825 -0.2770
  454MPD2     N 6768   0.011   3.024  16.670  0.5582  0.1341 -0.4896
  454MPD2    H5 6769   4.703   2.932  16.699 -0.0323 -0.1379 -1.9639
  454MPD2    N1 6770   0.399   3.273  16.559 -0.4715  0.1371 -0.3082
  454MPD2    H7 6771   0.338   3.353  16.571  0.4056  0.7418  0.1278
  455TMC3    C1 6772   4.510   3.099  16.704 -0.0572 -0.3860 -0.0154
  455TMC3    C2 6773   4.441   3.217  16.736 -0.3119  0.4692  0.0382
  455TMC3    C3 6774   4.307   3.212  16.720  0.4306  0.5972 -0.0211
  455TMC3    C4 6775   4.448   2.983  16.675 -0.2901 -0.0742 -0.1220
  455TMC3    C5 6776   4.316   2.990  16.653 -1.4588  0.0962 -0.0614
  455TMC3    C6 6777   4.243   3.105  16.678 -0.6701 -0.6520  0.4537
  455TMC3     C 6778   4.647   3.130  16.671  0.4008  0.2437 -0.2404
  455TMC3     O 6779   4.655   3.235  16.610  0.3428 -0.0303  0.1611
  455TMC3     H 6780   4.488   3.313  16.754  2.3221 -0.3049 -2.6521
  455TMC3    H1 6781   4.506   2.903  16.630  1.1455  0.4179  0.8213
  455TMC3    H2 6782   4.135   3.100  16.672 -0.7551  0.1641  1.4224
  455TMC3    C7 6783   4.272   2.904  16.545  0.5404 -0.3594  0.2081
  455TMC3    C8 6784   4.232   3.333  16.763  0.4656  0.9083 -0.1009
  455TMC3    O1 6785   4.220   2.947  16.447 -0.2074  0.7312  0.1467
  455TMC3    O2 6786   4.301   3.406  16.833 -0.3526 -0.2741 -0.2850
  456MPD2     C 6787   2.736   3.271  16.197  0.2291 -0.2575 -0.7223
  456MPD2    C1 6788   2.817   3.225  16.302 -0.3314 -0.6830  0.1029
  456MPD2    C2 6789   2.816   3.300  16.418 -0.5100 -0.1044 -0.5611
  456MPD2    C3 6790   2.748   3.419  16.430 -0.0559 -0.7603  0.3752
  456MPD2    C4 6791   2.681   3.473  16.316  0.3105 -0.6695  0.5898
  456MPD2    C5 6792   2.673   3.394  16.200 -0.4933 -0.0649 -0.2343
  456MPD2     H 6793   2.868   3.274  16.510 -0.2495 -1.0771 -0.9885
  456MPD2    H1 6794   2.629   3.568  16.314  2.6449  0.5267 -3.4293
  456MPD2    H2 6795   2.725   3.218  16.104  0.8207  0.7634 -1.3683
  456MPD2    H3 6796   2.613   3.432  16.118 -0.6842  0.7151  0.2727
  456MPD2     N 6797   2.755   3.487  16.558 -0.2810 -0.7600 -0.2962
  456MPD2    H5 6798   2.803   3.427  16.624 -1.8344 -0.0906  1.4580
  456MPD2    N1 6799   2.886   3.101  16.289  0.2957 -0.1453 -0.7045
  456MPD2    H7 6800   2.897   3.060  16.197 -0.5255  1.9337 -1.7269
  457TMC3    C1 6801   2.766   3.671  16.701 -0.2102 -0.2514  1.0079
  457TMC3    C2 6802   2.751   3.806  16.718  0.3937 -0.4039  0.1682
  457TMC3    C3 6803   2.754   3.851  16.848 -0.4010 -0.2262 -0.5344
  457TMC3    C4 6804   2.775   3.577  16.808 -0.5961 -0.4368  0.0960
  457TMC3    C5 6805   2.781   3.631  16.934  0.2162  0.9474 -0.0159
  457TMC3    C6 6806   2.770   3.770  16.951  0.7713  0.3647 -0.0519
  457TMC3     C 6807   2.751   3.623  16.565 -0.5839  0.2912 -0.0829
  457TMC3     O 6808   2.741   3.700  16.473 -0.5919  0.2112  0.0778
  457TMC3     H 6809   2.753   3.875  16.634 -2.2874 -2.0364 -1.2210
  457TMC3    H1 6810   2.772   3.469  16.809  2.2280 -0.5812 -3.3589
  457TMC3    H2 6811   2.727   3.813  17.041  0.3714  0.5095 -0.3130
  457TMC3    C7 6812   2.787   3.548  17.048  0.0929 -0.2244 -0.4463
  457TMC3    C8 6813   2.743   3.989  16.874  0.4123  0.0580 -0.2170
  457TMC3    O1 6814   2.732   3.440  17.054 -0.4054  0.5701  0.7339
  457TMC3    O2 6815   2.792   4.028  16.981  0.0500  0.0008 -0.0501
  458MPD2     C 6816   0.226   2.349  12.379  0.5626  0.0913  0.2192
  458MPD2    C1 6817   0.218   2.398  12.513  0.3459  0.1172  0.5960
  458MPD2    C2 6818   0.093   2.461  12.552  0.3874  0.0943  0.2155
  458MPD2    C3 6819   4.722   2.490  12.448 -0.1669  0.0006 -0.3770
  458MPD2    C4 6820   0.024   2.440  12.316  0.1547 -0.6449  0.0431
  458MPD2    C5 6821   0.140   2.375  12.284 -0.0509 -0.1196  0.4485
  458MPD2     H 6822   0.077   2.509  12.648 -1.1433 -2.4837  1.2361
  458MPD2    H1 6823   4.675   2.456  12.237 -0.4907 -3.3101  0.0888
  458MPD2    H2 6824   0.315   2.301  12.340  0.2438  2.7011 -3.7674
  458MPD2    H3 6825   0.164   2.340  12.184 -0.1660  0.0101  0.3742
  458MPD2     N 6826   4.603   2.552  12.483  0.4439 -0.2137 -0.6045
  458MPD2    H5 6827   4.600   2.577  12.581 -1.4671  2.1619 -1.2746
  458MPD2    N1 6828   0.326   2.365  12.598  0.5390 -0.5523  0.1162
  458MPD2    H7 6829   0.406   2.316  12.560  2.3103  1.5888  1.0627
  459TMC3    C1 6830   0.451   2.360  12.798 -0.0482  0.3422  0.4795
  459TMC3    C2 6831   0.555   2.409  12.727 -0.0393  0.0236 -0.0931
  459TMC3    C3 6832   0.683   2.390  12.781 -0.0227  0.1788  0.1585
  459TMC3    C4 6833   0.460   2.296  12.919 -0.0092 -0.3975 -0.0097
  459TMC3    C5 6834   0.596   2.276  12.965  0.0886  0.7430  0.5269
  459TMC3    C6 6835   0.703   2.325  12.898  0.1128  0.0519  0.0563
  459TMC3     C 6836   0.326   2.390  12.734  0.1318 -0.8039  0.5337
  459TMC3     O 6837   0.227   2.413  12.801 -0.5685  0.0916 -0.0425
  459TMC3     H 6838   0.534   2.467  12.637 -1.8479 -0.4473  0.0144
  459TMC3    H1 6839   0.368   2.270  12.968 -0.0200 -1.7611 -0.7698
  459TMC3    H2 6840   0.801   2.322  12.945 -0.4875 -1.3020  1.2399
  459TMC3    C7 6841   0.595   2.206  13.098 -0.3118  0.6744 -0.5045
  459TMC3    C8 6842   0.797   2.464  12.719 -0.4159 -0.5526 -0.3937
  459TMC3    O1 6843   0.492   2.188  13.162  0.1531  0.6571 -0.5599
  459TMC3    O2 6844   0.887   2.485  12.791  0.0478  0.0828 -0.0814
  460MPD2     C 6845   0.194   0.219  10.554 -0.0047  0.2059  0.1004
  460MPD2    C1 6846   0.071   0.181  10.611  0.3117 -0.2552  0.1084
  460MPD2    C2 6847   4.681   0.196  10.537 -0.2897  0.2193 -0.2133
  460MPD2    C3 6848   4.688   0.245  10.405  0.0980 -0.0277  0.5018
  460MPD2    C4 6849   0.085   0.285  10.350  0.7564  0.6693  0.0561
  460MPD2    C5 6850   0.203   0.271  10.429 -0.2944  0.5120 -0.9608
  460MPD2     H 6851   4.584   0.169  10.577 -0.4891  2.9408  1.1878
  460MPD2    H1 6852   0.098   0.322  10.249  0.0887 -0.4035 -0.4196
  460MPD2    H2 6853   0.292   0.206  10.599  0.0811  1.4878  0.2855
  460MPD2    H3 6854   0.301   0.289  10.386  0.4952 -1.7069 -0.1182
  460MPD2     N 6855   4.581   0.244  10.317 -0.2358 -0.0372  0.1255
  460MPD2    H5 6856   4.590   0.297  10.231 -2.5198  1.7808  0.9996
  460MPD2    N1 6857   0.077   0.105  10.732  0.2054 -0.3722  0.1422
  460MPD2    H7 6858   0.164   0.107  10.786 -0.2083 -2.0102  0.8728
  461TMC3    C1 6859   4.403   0.148  10.206 -0.3410 -0.3100 -0.5720
  461TMC3    C2 6860   4.361   0.022  10.185  1.2616 -0.2511  0.1298
  461TMC3    C3 6861   4.300   0.002  10.067 -0.1337 -0.1275 -0.0735
  461TMC3    C4 6862   4.352   0.260  10.145 -0.2493  0.5954 -0.3121
  461TMC3    C5 6863   4.271   0.239  10.041  0.8829 -0.0399 -0.4948
  461TMC3    C6 6864   4.256   0.111   9.988 -0.1799  0.2435 -0.2026
  461TMC3     C 6865   4.479   0.159  10.325 -0.2786 -1.0260  0.7931
  461TMC3     O 6866   4.458   0.075  10.410  0.0151  1.1705  0.3407
  461TMC3     H 6867   4.407   4.659  10.234 -0.1104 -1.7563 -1.2181
  461TMC3    H1 6868   4.363   0.358  10.190 -1.6499  0.0931  1.1065
  461TMC3    H2 6869   4.222   0.095   9.887  1.7138  2.0384 -1.1201
  461TMC3    C7 6870   4.203   0.350   9.969  0.0509  0.2315 -0.4675
  461TMC3    C8 6871   4.334   4.608   9.998 -0.7554  0.2999  0.3790
  461TMC3    O1 6872   4.128   0.323   9.872 -0.2026  0.0286  0.1666
  461TMC3    O2 6873   4.441   4.557  10.029 -0.1697 -0.0492  0.0727
  462TMC3    C1 6874   4.317   1.532   0.400 -0.2494 -1.0374  0.4116
  462TMC3    C2 6875   4.434   1.467   0.433 -0.1822 -0.2899  0.0197
  462TMC3    C3 6876   4.414   1.332   0.458 -0.7796 -0.1036 -0.1182
  462TMC3    C4 6877   4.201   1.470   0.378  0.5797  0.8024 -0.0484
  462TMC3    C5 6878   4.191   1.336   0.407  0.6205 -0.3272 -0.1217
  462TMC3    C6 6879   4.296   1.260   0.447 -0.2604  0.5604  0.4080
  462TMC3     C 6880   4.319   1.679   0.374 -0.0999 -0.0444 -0.0161
  462TMC3     O 6881   4.418   1.730   0.334 -0.2249 -0.4653  0.0991
  462TMC3     H 6882   4.528   1.520   0.449 -0.4762  0.4601 -0.7343
  462TMC3    H1 6883   4.110   1.518   0.345  0.3076 -1.7052 -2.9373
  462TMC3    H2 6884   4.283   1.162   0.491 -0.5314  0.4325  0.0393
  462TMC3    C7 6885   4.068   1.265   0.355 -0.3063  0.3341  0.6991
  462TMC3    C8 6886   4.539   1.255   0.478 -0.2455  0.2760 -0.1520
  462TMC3    O1 6887   4.084   1.144   0.346  0.4176 -0.0634 -0.5932
  462TMC3    O2 6888   4.637   1.327   0.485  0.6217  0.9160  0.3254
  463MPD2     C 6889   0.709   0.199   2.349 -0.1398  0.7417 -0.6703
  463MPD2    C1 6890   0.625   0.231   2.244  0.3282  0.2501 -0.4149
  463MPD2    C2 6891   0.657   0.342   2.163 -0.1940  0.8174 -0.2297
  463MPD2    C3 6892   0.781   0.402   2.179  0.1509  0.4905  0.4859
  463MPD2    C4 6893   0.869   0.361   2.280  0.6996  0.1198 -0.3467
  463MPD2    C5 6894   0.828   0.257   2.364  0.4280 -0.2300 -0.9158
  463MPD2     H 6895   0.585   0.369   2.087 -1.3885  2.9124  1.6559
  463MPD2    H1 6896   0.962   0.412   2.303  1.1581 -0.0392 -1.7978
  463MPD2    H2 6897   0.684   0.127   2.426  1.5527 -0.1159 -0.9203
  463MPD2    H3 6898   0.877   0.229   2.456  0.4136 -1.0135 -1.1480
  463MPD2     N 6899   0.819   0.517   2.103  0.4034  0.9086 -0.3269
  463MPD2    H5 6900   0.913   0.554   2.113  1.1480 -0.6215 -1.4957
  463MPD2    N1 6901   0.505   0.174   2.230  0.3647  0.3912 -0.2948
  463MPD2    H7 6902   0.441   0.213   2.162 -1.8604 -1.1939  0.8736
  464TMC3    C1 6903   0.351   4.720   2.235  0.5610  0.1496 -0.2116
  464TMC3    C2 6904   0.257   0.084   2.183 -0.1137  0.2528  0.2541
  464TMC3    C3 6905   0.162   0.043   2.092  0.0504  0.2629  0.2219
  464TMC3    C4 6906   0.362   4.596   2.179  0.3229 -0.3105  0.1282
  464TMC3    C5 6907   0.283   4.557   2.080 -0.2757  0.0191  0.2371
  464TMC3    C6 6908   0.175   4.643   2.036  0.7861 -0.6786  0.0900
  464TMC3     C 6909   0.463   0.061   2.298  0.0482  0.0515 -0.2861
  464TMC3     O 6910   0.537   4.699   2.353 -0.7373  0.2408  0.3114
  464TMC3     H 6911   0.238   0.181   2.227  2.5665  1.6653 -1.7047
  464TMC3    H1 6912   0.437   4.529   2.220  0.2056 -1.3250 -1.2852
  464TMC3    H2 6913   0.116   4.618   1.949 -0.0351  2.4205 -0.2429
  464TMC3    C7 6914   0.319   4.440   2.004 -0.2627 -0.6291  0.3781
  464TMC3    C8 6915   0.079   0.149   2.032 -1.0305  0.0761  1.1260
  464TMC3    O1 6916   0.434   4.394   2.026  0.1421  0.1209  0.1095
  464TMC3    O2 6917   0.102   0.265   2.059  0.5339 -0.4901 -0.2079
  465MPD2     C 6918   2.366   3.736  16.493 -0.4286 -0.0621  0.0286
  465MPD2    C1 6919   2.268   3.733  16.594 -0.6927 -1.0221  0.4882
  465MPD2    C2 6920   2.142   3.679  16.564 -0.6631  0.9959  0.4530
  465MPD2    C3 6921   2.107   3.640  16.433  0.6650  0.3950 -0.1964
  465MPD2    C4 6922   2.205   3.636  16.337 -0.7992  0.0510  0.0422
  465MPD2    C5 6923   2.333   3.675  16.369 -0.6786  0.5863  0.4837
  465MPD2     H 6924   2.068   3.682  16.643 -0.7841 -0.3074  0.3785
  465MPD2    H1 6925   2.177   3.611  16.235  0.5389 -0.7864 -0.1168
  465MPD2    H2 6926   2.465   3.774  16.511 -1.1271  0.6041  2.4761
  465MPD2    H3 6927   2.404   3.675  16.287 -1.5909  1.7415 -0.3209
  465MPD2     N 6928   1.974   3.608  16.391  0.3720  0.2175 -0.0790
  465MPD2    H5 6929   1.964   3.606  16.290  0.4763 -1.7110 -0.0511
  465MPD2    N1 6930   2.291   3.798  16.717  0.0766  0.5469  0.0559
  465MPD2    H7 6931   2.211   3.791  16.780 -0.4557 -0.8190 -0.7797
  466TMC3    C1 6932   1.537   3.473  16.491  0.3076 -0.4738 -0.9421
  466TMC3    C2 6933   1.485   3.590  16.438 -0.3149  0.6549 -0.5976
  466TMC3    C3 6934   1.567   3.672  16.368  0.6889  0.2282  0.2607
  466TMC3    C4 6935   1.670   3.440  16.476  0.2146  0.0399 -0.1079
  466TMC3    C5 6936   1.757   3.532  16.413  0.3384  0.6173 -0.2510
  466TMC3    C6 6937   1.701   3.634  16.345  0.1095 -0.9269 -0.2158
  466TMC3     C 6938   1.448   3.419  16.590 -0.1407  0.0612 -0.2453
  466TMC3     O 6939   1.391   3.500  16.668 -0.2565  0.1411  0.0316
  466TMC3     H 6940   1.382   3.610  16.463 -0.7139  1.1989 -2.6328
  466TMC3    H1 6941   1.714   3.356  16.529 -2.0826 -1.2446 -0.2130
  466TMC3    H2 6942   1.762   3.706  16.292  0.8925 -0.0445  1.9166
  466TMC3    C7 6943   1.879   3.559  16.474  0.6061  0.5639 -0.1126
  466TMC3    C8 6944   1.531   3.805  16.327  0.5000 -0.4442 -0.7511
  466TMC3    O1 6945   1.891   3.547  16.598 -0.2185  0.7675  0.1856
  466TMC3    O2 6946   1.593   3.854  16.233 -0.0388  0.2096  0.0093
  467TMC3    C1 6947   3.144   1.767  13.541  0.1651 -0.2846 -0.0736
  467TMC3    C2 6948   3.192   1.809  13.417  0.0729  0.0145 -0.5773
  467TMC3    C3 6949   3.108   1.882  13.342 -0.1180 -0.4827  0.2070
  467TMC3    C4 6950   3.017   1.796  13.589 -0.0317  0.3460 -1.2689
  467TMC3    C5 6951   2.938   1.874  13.507 -0.1201  0.8344  0.0925
  467TMC3    C6 6952   2.981   1.914  13.382 -0.2326  0.1859 -0.2705
  467TMC3     C 6953   3.242   1.740  13.642 -0.0040  0.2756  0.2885
  467TMC3     O 6954   3.342   1.677  13.603 -0.0644 -0.4674  0.0287
  467TMC3     H 6955   3.293   1.786  13.385  0.0344 -0.4482 -0.3696
  467TMC3    H1 6956   2.989   1.762  13.688  1.9880  1.8315 -0.1997
  467TMC3    H2 6957   2.907   1.951  13.312 -0.2865  0.6133  0.0119
  467TMC3    C7 6958   2.799   1.905  13.535  0.1567  0.2000  0.1207
  467TMC3    C8 6959   3.152   1.933  13.212 -0.0302 -0.0116 -0.7045
  467TMC3    O1 6960   2.741   1.975  13.451 -0.3597  0.0100 -0.0179
  467TMC3    O2 6961   3.242   1.878  13.152 -0.3757 -0.1604  0.0123
  468MPD2     C 6962   1.418   4.519  11.327 -0.2316 -0.3171  0.6703
  468MPD2    C1 6963   1.546   4.508  11.296 -0.3216 -0.9500 -0.2203
  468MPD2    C2 6964   1.588   4.396  11.220  0.7113 -0.2649  0.5685
  468MPD2    C3 6965   1.497   4.305  11.168  0.9799 -0.5179  0.2502
  468MPD2    C4 6966   1.364   4.327  11.191  0.0764 -0.2723 -0.5717
  468MPD2    C5 6967   1.327   4.440  11.260 -0.1920  0.5335 -0.0898
  468MPD2     H 6968   1.692   4.394  11.191  0.2610 -1.1401 -0.9887
  468MPD2    H1 6969   1.286   4.262  11.154 -1.1896  1.2286 -0.5078
  468MPD2    H2 6970   1.378   4.587  11.402  0.2588  0.0682  0.5847
  468MPD2    H3 6971   1.222   4.444  11.289 -1.0100 -2.8406 -2.5834
  468MPD2     N 6972   1.541   4.198  11.088 -0.0134  0.3715 -0.0579
  468MPD2    H5 6973   1.468   4.138  11.049  2.3569 -0.9850 -2.4268
  468MPD2    N1 6974   1.653   4.591  11.351 -0.1874 -0.1603 -0.0421
  468MPD2    H7 6975   1.746   4.558  11.326 -0.3189 -1.3281  0.9983
  469TMC3    C1 6976   1.767   0.045  11.444 -0.4572  0.7256 -0.0843
  469TMC3    C2 6977   1.888   4.705  11.434  0.2026  0.2273  0.1410
  469TMC3    C3 6978   1.998   0.053  11.462  0.1274  0.1413 -0.2801
  469TMC3    C4 6979   1.762   0.166  11.500 -0.9191 -0.8273  0.3340
  469TMC3    C5 6980   1.879   0.234  11.531 -0.1624 -0.2822 -0.6480
  469TMC3    C6 6981   1.997   0.177  11.512 -0.1568  0.9632  0.0953
  469TMC3     C 6982   1.638   4.707  11.414 -0.2350 -0.2011 -0.6565
  469TMC3     O 6983   1.536   0.049  11.424 -0.4487 -0.2373 -0.4752
  469TMC3     H 6984   1.899   4.602  11.403 -1.2291  0.1523 -0.1278
  469TMC3    H1 6985   1.665   0.213  11.509 -0.3814  0.3291  0.1004
  469TMC3    H2 6986   2.088   0.235  11.506 -0.3192  1.2773  0.7148
  469TMC3    C7 6987   1.871   0.346  11.618 -0.4887 -0.4809  0.3176
  469TMC3    C8 6988   2.131   4.718  11.415 -0.2912 -0.2131  0.1410
  469TMC3    O1 6989   1.763   0.402  11.601  0.5137 -0.3533 -0.2262
  469TMC3    O2 6990   2.124   4.626  11.335  0.4838  0.5570 -0.2704
  470TMC3    C1 6991   2.842   0.196   0.286  0.6959  0.6054  0.1615
  470TMC3    C2 6992   2.978   0.226   0.275  0.6568  0.2945 -0.2481
  470TMC3    C3 6993   3.059   0.154   0.360  0.6581 -0.1991 -0.2320
  470TMC3    C4 6994   2.790   0.098   0.363  0.7329 -0.0018 -0.1151
  470TMC3    C5 6995   2.874   0.020   0.433  0.2560 -0.1855  0.0725
  470TMC3    C6 6996   3.011   0.046   0.429  0.2868  0.0912 -0.2982
  470TMC3     C 6997   2.748   0.294   0.247  0.2208 -0.1810 -0.7304
  470TMC3     O 6998   2.636   0.290   0.299 -0.0170  0.1189  0.0980
  470TMC3     H 6999   3.019   0.305   0.213  1.1306  0.8653  0.7819
  470TMC3    H1 7000   2.683   0.080   0.361  1.0496 -1.4965 -3.0243
  470TMC3    H2 7001   3.079   4.705   0.483 -0.1798 -0.1877 -0.0408
  470TMC3    C7 7002   2.828   4.637   0.511 -0.0574 -0.5938 -0.1059
  470TMC3    C8 7003   3.199   0.198   0.373  0.2887 -0.1734 -0.0091
  470TMC3    O1 7004   2.913   4.594   0.594 -0.0118 -0.0479 -0.5363
  470TMC3    O2 7005   3.218   0.317   0.357 -0.8466 -0.8380 -0.2394
  471MPD2     C 7006   4.092   2.281  16.850 -0.1278  0.2713  0.7715
  471MPD2    C1 7007   4.211   2.218  16.824 -0.0277 -0.3675  0.7720
  471MPD2    C2 7008   4.319   2.239  16.909  0.0924 -0.1145  0.1795
  471MPD2    C3 7009   4.300   2.320  17.023  0.0517 -0.5122  0.3213
  471MPD2    C4 7010   4.180   2.378  17.050  0.2220  0.5341 -0.8304
  471MPD2    C5 7011   4.079   2.362  16.959  0.1584 -0.0826 -0.3691
  471MPD2     H 7012   4.409   2.181  16.897  0.6345  1.0188 -1.1003
  471MPD2    H1 7013   4.167   2.441  17.137 -1.4773 -0.6919 -0.2049
  471MPD2    H2 7014   3.998   2.260  16.800  1.7360  1.3872 -3.1981
  471MPD2    H3 7015   3.989   2.422  16.962  0.9425  1.1186 -0.9018
  471MPD2     N 7016   4.397   2.340  17.124 -0.3253 -0.3723 -0.0293
  471MPD2    H5 7017   4.379   2.403  17.202  2.0614  0.1171  0.1055
  471MPD2    N1 7018   4.222   2.120  16.726  0.8956 -0.3558 -0.2577
  471MPD2    H7 7019   4.311   2.071  16.727  1.3841  0.4420 -2.9064
  472TMC3    C1 7020   4.168   1.980  16.548  0.1065  0.0361  0.8909
  472TMC3    C2 7021   4.137   1.968  16.414 -0.0458  1.0298 -0.7254
  472TMC3    C3 7022   4.144   1.842  16.354  0.3075  0.2418  0.2799
  472TMC3    C4 7023   4.233   1.879  16.622 -0.1610 -0.6389  0.1731
  472TMC3    C5 7024   4.242   1.755  16.559  0.3683  0.2905 -0.1837
  472TMC3    C6 7025   4.200   1.735  16.429 -0.1886  0.0030  0.4297
  472TMC3     C 7026   4.126   2.097  16.627  0.3881 -0.0324 -0.1578
  472TMC3     O 7027   4.023   2.153  16.598 -0.6681 -0.4128 -0.2106
  472TMC3     H 7028   4.069   2.042  16.374 -0.9398  1.1113  0.9529
  472TMC3    H1 7029   4.248   1.881  16.729 -3.1909 -1.5150  0.6125
  472TMC3    H2 7030   4.222   1.643  16.376 -1.9467  0.9041 -1.8951
  472TMC3    C7 7031   4.205   1.650  16.647  0.5146  0.5305  0.5775
  472TMC3    C8 7032   4.024   1.785  16.298  0.0985 -0.3746 -0.5403
  472TMC3    O1 7033   4.268   1.633  16.752 -0.0730 -0.0197  0.3306
  472TMC3    O2 7034   4.003   1.666  16.329  0.3127 -0.8668  0.2720
  473MPD2     C 7035   0.461   4.369  13.957 -0.5022  0.0418  0.2449
  473MPD2    C1 7036   0.328   4.407  13.944 -0.7655  0.2688  0.0096
  473MPD2    C2 7037   0.261   4.461  14.057 -0.2342 -0.0245  0.2388
  473MPD2    C3 7038   0.339   4.480  14.176  0.5313 -0.1038  0.0534
  473MPD2    C4 7039   0.472   4.439  14.183 -0.1959  0.6495 -0.0331
  473MPD2    C5 7040   0.529   4.381  14.070  0.0347  0.6515 -0.3060
  473MPD2     H 7041   0.157   4.487  14.040  0.3613  1.7249 -0.8615
  473MPD2    H1 7042   0.530   4.442  14.275 -2.2472  1.0754  1.2594
  473MPD2    H2 7043   0.518   4.316  13.882  1.1972  0.6163  1.1417
  473MPD2    H3 7044   0.626   4.336  14.088  0.2581  1.2031 -0.1420
  473MPD2     N 7045   0.293   4.547  14.294  0.0070 -0.1938  0.3277
  473MPD2    H5 7046   0.361   4.555  14.369  0.6903 -0.2466 -0.2790
  473MPD2    N1 7047   0.250   4.386  13.826  0.0434 -0.2965  0.4159
  473MPD2    H7 7048   0.155   4.421  13.834  0.1194 -0.0359  0.1688
  474TMC3    C1 7049   0.132   4.685  14.417 -0.7037  0.4542  0.0359
  474TMC3    C2 7050   4.721   0.000  14.424  0.5402  0.0813 -0.0621
  474TMC3    C3 7051   4.688   0.120  14.473  0.7206 -0.2546 -0.6049
  474TMC3    C4 7052   0.231   0.042  14.469  0.9086 -0.2221  0.2927
  474TMC3    C5 7053   0.189   0.157  14.529  0.0042 -0.1810  0.3468
  474TMC3    C6 7054   0.058   0.200  14.528 -0.4651 -0.1461 -0.4453
  474TMC3     C 7055   0.163   4.581  14.314  0.6100 -0.1459  0.2083
  474TMC3     O 7056   0.063   4.544  14.253 -0.2024 -0.2748 -0.1139
  474TMC3     H 7057   4.642   4.663  14.382 -1.3515  2.3955  0.2119
  474TMC3    H1 7058   0.338   0.028  14.461  0.8465 -0.3077 -0.3534
  474TMC3    H2 7059   0.028   0.296  14.568  0.8858  0.2098 -0.3009
  474TMC3    C7 7060   0.282   0.244  14.610 -0.1354  0.4269  0.2393
  474TMC3    C8 7061   4.600   0.188  14.376  0.0393  0.0157  0.5362
  474TMC3    O1 7062   0.402   0.243  14.594 -0.3643  0.1557  0.1852
  474TMC3    O2 7063   4.579   0.135  14.268  0.2017  0.0365 -0.2497
  475MPD2     C 7064   3.207   2.132  10.479 -0.4240  0.1373  0.8056
  475MPD2    C1 7065   3.192   2.256  10.539 -0.1460 -0.4273 -0.5458
  475MPD2    C2 7066   3.073   2.294  10.594 -0.2387 -0.8500 -0.0525
  475MPD2    C3 7067   2.965   2.208  10.602  0.0969  0.1836 -0.6522
  475MPD2    C4 7068   2.978   2.084  10.544  0.2640 -0.2047 -0.2237
  475MPD2    C5 7069   3.095   2.048  10.483  0.0142  0.2110  0.2281
  475MPD2     H 7070   3.062   2.395  10.632 -1.1673 -1.0284  0.1500
  475MPD2    H1 7071   2.892   2.020  10.530  0.7573 -0.5962 -1.5264
  475MPD2    H2 7072   3.298   2.095  10.432 -1.1261 -0.8843  0.2660
  475MPD2    H3 7073   3.099   1.954  10.429  2.1211  0.3910  0.0631
  475MPD2     N 7074   2.848   2.261  10.657 -0.1016 -0.2680 -0.5985
  475MPD2    H5 7075   2.852   2.360  10.680 -3.1388 -0.2301 -0.1860
  475MPD2    N1 7076   3.308   2.339  10.529  0.2492 -0.0580  0.0397
  475MPD2    H7 7077   3.381   2.298  10.471  1.2191 -1.2149  2.0637
  476TMC3    C1 7078   3.466   2.511  10.560 -0.1533  0.7021  0.6134
  476TMC3    C2 7079   3.505   2.492  10.429  0.3628 -0.4037  0.1930
  476TMC3    C3 7080   3.566   2.589  10.358  0.4191 -0.1618  0.5151
  476TMC3    C4 7081   3.507   2.622  10.630 -0.6811 -0.1195 -0.1348
  476TMC3    C5 7082   3.579   2.717  10.564 -0.1242 -0.5881  0.0308
  476TMC3    C6 7083   3.618   2.694  10.434  0.3018 -0.0313 -0.5320
  476TMC3     C 7084   3.336   2.457  10.594  0.7199  0.0249  0.4866
  476TMC3     O 7085   3.260   2.525  10.660  0.3766  0.6574  0.0530
  476TMC3     H 7086   3.489   2.396  10.380 -3.0037 -1.1268  2.7121
  476TMC3    H1 7087   3.471   2.643  10.730  2.8324  1.4632  0.7807
  476TMC3    H2 7088   3.669   2.774  10.382  1.6321 -0.3007  0.3543
  476TMC3    C7 7089   3.646   2.827  10.627  0.0556  0.2604 -0.4890
  476TMC3    C8 7090   3.474   2.643  10.256  0.1203 -0.0498 -0.2013
  476TMC3    O1 7091   3.731   2.882  10.563 -0.1035  0.2217  0.0708
  476TMC3    O2 7092   3.472   2.765  10.238  0.4556 -0.3608  0.0207
  477MPD2     C 7093   0.127   3.557  11.450 -0.1474  0.3135 -1.2231
  477MPD2    C1 7094   0.110   3.650  11.551  1.0380 -0.2026  0.0824
  477MPD2    C2 7095   0.160   3.623  11.675  0.0934 -0.4674 -0.3288
  477MPD2    C3 7096   0.216   3.498  11.706  0.0082 -0.3716  0.0259
  477MPD2    C4 7097   0.226   3.409  11.601 -0.0560  0.4006  0.4788
  477MPD2    C5 7098   0.178   3.434  11.476 -0.1250 -1.0732 -0.8511
  477MPD2     H 7099   0.153   3.693  11.757 -2.2156 -2.8835  1.5196
  477MPD2    H1 7100   0.272   3.314  11.625 -2.8746 -1.1548 -0.3703
  477MPD2    H2 7101   0.077   3.567  11.355  0.0644  2.4597 -1.0990
  477MPD2    H3 7102   0.185   3.359  11.398  0.8121 -0.8754 -0.9628
  477MPD2     N 7103   0.273   3.483  11.835  0.0613  0.1536 -0.3111
  477MPD2    H5 7104   0.287   3.567  11.889  0.8023 -0.3893  0.3582
  477MPD2    N1 7105   0.041   3.764  11.513 -0.3879  0.2170 -0.0626
  477MPD2    H7 7106   0.002   3.758  11.420 -0.7971  0.3849  0.0994
  478TMC3    C1 7107   4.643   3.962  11.516 -0.3195  0.1416 -0.2165
  478TMC3    C2 7108   4.563   4.047  11.594  0.6218 -0.1103 -0.0210
  478TMC3    C3 7109   4.520   4.168  11.536  0.0066  0.0193 -1.2954
  478TMC3    C4 7110   4.683   4.009  11.390  0.4658  0.4577 -0.0447
  478TMC3    C5 7111   4.633   4.122  11.334  0.5987  0.2682  0.2443
  478TMC3    C6 7112   4.554   4.206  11.407 -0.3185 -0.5406  0.7543
  478TMC3     C 7113   4.722   3.867  11.591  0.4525 -0.2843  0.6831
  478TMC3     O 7114   0.028   3.891  11.708  0.3457 -0.1542  0.5420
  478TMC3     H 7115   4.552   4.022  11.699  3.3782  2.0744  0.7702
  478TMC3    H1 7116   0.033   3.951  11.333 -0.1906  0.3085 -0.7238
  478TMC3    H2 7117   4.520   4.303  11.374  1.7362 -0.0415  0.1137
  478TMC3    C7 7118   4.682   4.162  11.204 -0.2871  0.0103 -0.6389
  478TMC3    C8 7119   4.438   4.257  11.615 -0.0501 -0.0672  0.1459
  478TMC3    O1 7120   0.080   4.177  11.203 -0.0829 -0.0273  0.4523
  478TMC3    O2 7121   4.329   4.209  11.647  0.0064 -0.2730 -0.1517
  479MPD2     C 7122   3.863   1.474  15.431  0.0470  0.1982  0.1100
  479MPD2    C1 7123   3.814   1.421  15.550  0.2571 -0.6555 -0.1076
  479MPD2    C2 7124   3.872   1.463  15.674 -0.7483 -0.4086 -0.0139
  479MPD2    C3 7125   3.986   1.543  15.666  0.5401 -0.2374  0.4288
  479MPD2    C4 7126   4.031   1.586  15.545 -0.0347  0.2111 -0.7692
  479MPD2    C5 7127   3.970   1.553  15.429  0.1760  0.1262 -0.0337
  479MPD2     H 7128   3.842   1.419  15.768  1.8144 -0.3100  0.8555
  479MPD2    H1 7129   4.120   1.648  15.544  1.1372 -1.4417  1.0046
  479MPD2    H2 7130   3.825   1.459  15.331 -1.7311  0.5927  0.7269
  479MPD2    H3 7131   4.006   1.575  15.329  1.2647  0.9332  0.5351
  479MPD2     N 7132   4.048   1.604  15.782  0.5310 -0.0921 -0.2983
  479MPD2    H5 7133   4.144   1.635  15.772  0.4428  0.9423  2.1022
  479MPD2    N1 7134   3.701   1.339  15.546  0.4013 -0.8060 -0.8163
  479MPD2    H7 7135   3.676   1.311  15.452 -0.2299 -1.7340 -0.3689
  480TMC3    C1 7136   3.690   1.530  16.051  0.4138 -0.1959  0.3644
  480TMC3    C2 7137   3.598   1.592  15.974  0.5813 -0.8440  0.6181
  480TMC3    C3 7138   3.639   1.673  15.868 -0.0912 -0.0756  0.9136
  480TMC3    C4 7139   3.825   1.552  16.034  0.8759  0.4422  0.4471
  480TMC3    C5 7140   3.857   1.631  15.932  0.0593  0.0184 -0.5050
  480TMC3    C6 7141   3.773   1.693  15.846  0.1273 -0.1525 -0.4315
  480TMC3     C 7142   3.662   1.408  16.120  0.2550  0.4190  0.1000
  480TMC3     O 7143   3.756   1.352  16.176  0.0554 -0.7078 -0.0501
  480TMC3     H 7144   3.491   1.578  15.973  0.5029  0.0815 -2.0387
  480TMC3    H1 7145   3.901   1.489  16.078 -0.0603 -1.9226 -1.2822
  480TMC3    H2 7146   3.810   1.750  15.761  0.4220 -0.8874 -0.7923
  480TMC3    C7 7147   4.001   1.612  15.911 -0.5089  0.1451  0.4615
  480TMC3    C8 7148   3.544   1.685  15.762 -1.2680  0.1676  0.1921
  480TMC3    O1 7149   4.071   1.625  16.012 -1.0507  0.0639  0.6687
  480TMC3    O2 7150   3.424   1.685  15.785  0.3935  0.0899  0.5673
  481MPD2     C 7151   1.155   1.316  14.581 -0.2962 -0.3166  0.1466
  481MPD2    C1 7152   1.023   1.276  14.595  0.5384  0.2389 -0.4433
  481MPD2    C2 7153   0.958   1.312  14.714 -0.3063 -1.1522  0.2755
  481MPD2    C3 7154   1.025   1.384  14.815 -0.3200  0.2925  0.2023
  481MPD2    C4 7155   1.153   1.435  14.792  0.0987 -0.8166  0.4945
  481MPD2    C5 7156   1.217   1.397  14.676 -0.7671 -0.3055 -0.2290
  481MPD2     H 7157   0.852   1.293  14.730 -1.0599  1.8263 -1.1281
  481MPD2    H1 7158   1.204   1.496  14.865  1.2272 -2.4213  1.0478
  481MPD2    H2 7159   1.219   1.288  14.497 -0.5010  0.7357 -0.3507
  481MPD2    H3 7160   1.323   1.417  14.666 -0.5787 -1.4163 -0.4896
  481MPD2     N 7161   0.970   1.398  14.951  0.1383  0.7424  0.1699
  481MPD2    H5 7162   1.029   1.453  15.013  1.7096 -1.3598  0.5382
  481MPD2    N1 7163   0.959   1.192  14.497 -0.3298 -0.7794  0.1897
  481MPD2    H7 7164   1.017   1.172  14.415  0.8963 -0.3581  0.9525
  482TMC3    C1 7165   0.798   1.058  14.377  0.0242  0.4502 -0.0189
  482TMC3    C2 7166   0.890   0.974  14.331  0.0239  0.2485 -0.2843
  482TMC3    C3 7167   0.857   0.876  14.247  0.1829 -1.2280 -0.0938
  482TMC3    C4 7168   0.673   1.053  14.342  0.4722  0.2908  0.2592
  482TMC3    C5 7169   0.636   0.967  14.242 -0.1318 -0.0850  0.3214
  482TMC3    C6 7170   0.731   0.879  14.191  0.3212 -0.0507 -0.0365
  482TMC3     C 7171   0.829   1.145  14.491 -0.4776 -0.0060  0.4640
  482TMC3     O 7172   0.738   1.168  14.569  0.3944 -0.0415  0.0874
  482TMC3     H 7173   0.988   0.973  14.378  1.0874  2.4502 -2.4499
  482TMC3    H1 7174   0.596   1.110  14.393  0.5236 -1.2207  2.0175
  482TMC3    H2 7175   0.719   0.817  14.103  0.0261  1.0356 -0.7641
  482TMC3    C7 7176   0.494   0.940  14.217 -0.2884 -0.3950 -0.4034
  482TMC3    C8 7177   0.949   0.784  14.181 -0.1559 -0.1124 -0.6675
  482TMC3    O1 7178   0.401   0.983  14.288 -0.4242 -0.2787  0.3487
  482TMC3    O2 7179   0.896   0.705  14.098  0.1744  0.7487 -0.7015
  483TMC3    C1 7180   3.466   4.332   0.217 -0.3569  0.4963  0.6703
  483TMC3    C2 7181   3.530   4.439   0.161 -0.0460  0.2273  0.1855
  483TMC3    C3 7182   3.637   4.494   0.225 -0.2808  0.1864  0.1944
  483TMC3    C4 7183   3.517   4.269   0.325  0.6639  0.3322  0.5062
  483TMC3    C5 7184   3.617   4.334   0.393  0.5972  0.2603 -0.1894
  483TMC3    C6 7185   3.688   4.440   0.340  0.0327 -0.8865 -0.8530
  483TMC3     C 7186   3.358   4.275   0.137  0.4457  0.2831 -0.0225
  483TMC3     O 7187   3.356   4.299   0.016  0.2535 -0.4045 -0.1352
  483TMC3     H 7188   3.482   4.489   0.078  1.2329 -0.7340 -1.1117
  483TMC3    H1 7189   3.484   4.174   0.366  0.2343 -0.2797 -1.2382
  483TMC3    H2 7190   3.775   4.472   0.397 -2.1383  1.0640  1.3229
  483TMC3    C7 7191   3.648   4.307   0.537 -0.3364 -0.5435  0.7882
  483TMC3    C8 7192   3.686   4.624   0.180 -0.2446 -0.5675 -0.0366
  483TMC3    O1 7193   3.770   4.308   0.559 -0.2730  0.0032  0.3324
  483TMC3    O2 7194   3.618   4.674   0.090  0.4483 -0.2050 -0.3978
  484MPD2     C 7195   0.833   2.618  12.399 -0.2095  0.7835 -0.2815
  484MPD2    C1 7196   0.876   2.584  12.522 -0.2049  0.2718 -0.1811
  484MPD2    C2 7197   1.003   2.602  12.560  0.0853 -0.0832 -0.9969
  484MPD2    C3 7198   1.089   2.671  12.479 -0.6467  1.0592  0.7188
  484MPD2    C4 7199   1.050   2.712  12.353  0.3282 -0.3470 -0.4724
  484MPD2    C5 7200   0.922   2.684  12.316  0.3339 -0.1401 -0.2545
  484MPD2     H 7201   1.038   2.548  12.648  3.9249  1.6782 -1.4367
  484MPD2    H1 7202   1.108   2.760  12.275  2.6991 -0.2660  1.3383
  484MPD2    H2 7203   0.730   2.615  12.366 -0.0855  0.1671 -0.6225
  484MPD2    H3 7204   0.902   2.718  12.215  1.7811  2.1239  0.2082
  484MPD2     N 7205   1.229   2.689  12.494  0.3724 -0.4317 -0.2840
  484MPD2    H5 7206   1.284   2.723  12.416  0.2978  1.2290  0.3854
  484MPD2    N1 7207   0.783   2.503  12.583 -0.7434  0.5095  0.6240
  484MPD2    H7 7208   0.698   2.484  12.531 -0.6236 -0.3753  0.7627
  485TMC3    C1 7209   1.441   2.677  12.603  0.4474  0.0690  0.5413
  485TMC3    C2 7210   1.519   2.629  12.708  0.2554  0.9318  0.2334
  485TMC3    C3 7211   1.654   2.661  12.700 -0.1292 -0.0231  0.0475
  485TMC3    C4 7212   1.497   2.743  12.496 -0.3526 -0.6987  0.4678
  485TMC3    C5 7213   1.632   2.763  12.491  0.9114  0.1551  0.1808
  485TMC3    C6 7214   1.707   2.738  12.599 -0.7274  0.3826 -0.2916
  485TMC3     C 7215   1.298   2.666  12.613  0.2486 -0.5178 -0.1893
  485TMC3     O 7216   1.256   2.638  12.723 -0.2240  0.0734  0.1297
  485TMC3     H 7217   1.477   2.570  12.789  0.1560  0.0941 -0.4225
  485TMC3    H1 7218   1.440   2.760  12.405  2.4237  1.3563 -0.8778
  485TMC3    H2 7219   1.806   2.781  12.605 -1.1049  0.7417  3.3771
  485TMC3    C7 7220   1.696   2.745  12.366  0.3847 -0.2007  0.1267
  485TMC3    C8 7221   1.742   2.549  12.733  0.4346  0.1654  0.3624
  485TMC3    O1 7222   1.677   2.814  12.268 -0.7243 -0.4485 -0.5778
  485TMC3    O2 7223   1.860   2.574  12.698 -0.3604 -0.0638  0.0942
  486MPD2     C 7224   4.051   1.382  13.151  0.0763 -0.4036  0.4207
  486MPD2    C1 7225   3.969   1.335  13.058 -0.2997  0.2646 -0.8197
  486MPD2    C2 7226   3.891   1.430  12.993  0.0678  0.1915  0.2545
  486MPD2    C3 7227   3.897   1.562  13.039 -0.4478  0.4280 -0.2748
  486MPD2    C4 7228   3.983   1.603  13.132 -0.0659 -0.3212 -0.4263
  486MPD2    C5 7229   4.062   1.516  13.196  0.2682 -0.4437  0.4474
  486MPD2     H 7230   3.813   1.406  12.921  0.3662 -0.6896  0.2326
  486MPD2    H1 7231   3.985   1.705  13.168 -1.9832 -0.0949 -0.9781
  486MPD2    H2 7232   4.122   1.312  13.193 -1.3691 -0.6510  2.4283
  486MPD2    H3 7233   4.136   1.555  13.265 -0.5064 -1.3142  1.7631
  486MPD2     N 7234   3.813   1.652  12.966  0.1457  0.1629 -0.1221
  486MPD2    H5 7235   3.744   1.620  12.899  0.2831 -0.0712 -0.1532
  486MPD2    N1 7236   3.965   1.198  13.024 -0.2190 -0.1509 -1.0058
  486MPD2    H7 7237   4.013   1.128  13.079  1.0157  0.2317 -1.5765
  487TMC3    C1 7238   3.854   1.013  12.943 -0.9904  1.0271 -0.4722
  487TMC3    C2 7239   3.782   0.960  12.837 -0.5668  0.2541 -0.1828
  487TMC3    C3 7240   3.698   0.859  12.862  0.2839  0.7391  0.7692
  487TMC3    C4 7241   3.843   0.959  13.065 -0.7486 -0.0263  0.0581
  487TMC3    C5 7242   3.757   0.860  13.082  0.0930 -0.0118 -0.3290
  487TMC3    C6 7243   3.678   0.809  12.983 -0.1721 -0.1894 -0.2308
  487TMC3     C 7244   3.884   1.151  12.931 -0.2652  0.1009 -1.0104
  487TMC3     O 7245   3.808   1.210  12.849 -0.1942 -0.7666  0.3909
  487TMC3     H 7246   3.813   0.993  12.739  0.8357  0.0686  0.1917
  487TMC3    H1 7247   3.892   1.003  13.151 -2.5722  0.0440  1.0528
  487TMC3    H2 7248   3.636   0.709  12.984  2.0317 -1.0997  1.3448
  487TMC3    C7 7249   3.718   0.834  13.224 -0.5999 -0.0555  0.5556
  487TMC3    C8 7250   3.649   0.790  12.749  0.0133  0.1962  0.6604
  487TMC3    O1 7251   3.791   0.878  13.312 -0.0384 -0.0592  0.3594
  487TMC3    O2 7252   3.734   0.779  12.660 -0.2835 -0.2225 -0.2659
  488MPD2     C 7253   3.197   3.452  16.057  0.2876 -0.5220  0.3093
  488MPD2    C1 7254   3.280   3.560  16.071 -0.3068  0.0386  0.2162
  488MPD2    C2 7255   3.277   3.635  16.190 -0.0103  0.1618  0.5487
  488MPD2    C3 7256   3.188   3.592  16.294  0.2699  0.1309  0.0015
  488MPD2    C4 7257   3.104   3.484  16.274  0.3863  0.0368  0.1991
  488MPD2    C5 7258   3.113   3.414  16.157 -0.1372 -0.4699  0.0111
  488MPD2     H 7259   3.348   3.715  16.204 -0.6346  0.6733  0.7996
  488MPD2    H1 7260   3.039   3.452  16.354  0.2056  1.7854  0.7600
  488MPD2    H2 7261   3.190   3.401  15.962 -1.2517  0.1815  0.0378
  488MPD2    H3 7262   3.038   3.335  16.150 -0.3577 -0.2598 -0.0129
  488MPD2     N 7263   3.183   3.675  16.410 -0.0683  0.6788  0.6208
  488MPD2    H5 7264   3.230   3.765  16.403  0.6388  0.5782  4.0313
  488MPD2    N1 7265   3.370   3.602  15.978 -0.4811  0.2395  0.2350
  488MPD2    H7 7266   3.423   3.685  16.001  0.5135  0.0237 -1.3167
  489TMC3    C1 7267   3.120   3.769  16.612 -0.7296 -0.3411  0.4737
  489TMC3    C2 7268   3.119   3.893  16.566 -0.2219 -0.0803  0.6659
  489TMC3    C3 7269   3.084   4.001  16.655  0.0765  0.4528 -0.9796
  489TMC3    C4 7270   3.106   3.742  16.741 -0.8914  0.1343 -0.1127
  489TMC3    C5 7271   3.092   3.851  16.827 -0.3058 -0.4094  0.2966
  489TMC3    C6 7272   3.077   3.980  16.790  0.4055  0.7489 -0.1680
  489TMC3     C 7273   3.122   3.657  16.530 -0.0499 -0.2416  0.1377
  489TMC3     O 7274   3.079   3.551  16.575 -0.0632  0.0498  0.0442
  489TMC3     H 7275   3.131   3.912  16.460  3.2764 -1.0862  0.8731
  489TMC3    H1 7276   3.127   3.644  16.782 -2.0458 -0.4053 -0.8231
  489TMC3    H2 7277   3.072   4.063  16.860 -2.8376 -0.7331  1.3306
  489TMC3    C7 7278   3.123   3.823  16.964  0.0576 -0.6682  0.0747
  489TMC3    C8 7279   3.048   4.122  16.593  0.0544  0.2193  0.0358
  489TMC3    O1 7280   3.140   3.705  16.990  0.2451  0.1262  0.1416
  489TMC3    O2 7281   3.046   4.124  16.468 -0.2597 -0.3482 -0.7721
  490MPD2     C 7282   3.828   3.539  17.656  0.2076  0.1311  0.3073
  490MPD2    C1 7283   3.885   3.441  17.576 -0.6164 -0.1389  1.0448
  490MPD2    C2 7284   4.017   3.442  17.543 -0.2631  0.4646  0.1961
  490MPD2    C3 7285   4.091   3.545  17.579 -0.3839  0.5164  0.1476
  490MPD2    C4 7286   4.039   3.645  17.663  0.1050  0.7353  0.2416
  490MPD2    C5 7287   3.910   3.641   0.008  0.0882 -0.8664 -0.0560
  490MPD2     H 7288   4.064   3.358  17.492  0.3882  0.7475  0.3289
  490MPD2    H1 7289   4.113   3.713   0.011  1.5213 -1.2358  0.9679
  490MPD2    H2 7290   3.722   3.538  17.675  0.4596  0.8806  1.7278
  490MPD2    H3 7291   3.876   3.717   0.078  1.5620  1.1801 -1.5667
  490MPD2     N 7292   4.227   3.562  17.549  0.1569  0.3494 -0.0790
  490MPD2    H5 7293   4.272   3.640  17.596 -0.0182  1.1311 -1.1972
  490MPD2    N1 7294   3.807   3.325  17.550  0.3827  0.7312 -0.1079
  490MPD2    H7 7295   3.720   3.311  17.601  1.1631 -1.8815  0.4644
  491TMC3    C1 7296   3.772   3.113  17.447 -0.8931 -0.5227  0.7361
  491TMC3    C2 7297   3.770   3.052  17.573 -0.4780  0.0518  0.7758
  491TMC3    C3 7298   3.784   2.918  17.588 -0.5263 -0.3730 -0.5345
  491TMC3    C4 7299   3.778   3.033  17.336 -0.2155  0.1559  0.2457
  491TMC3    C5 7300   3.794   2.897  17.363 -0.2881 -0.5939 -0.1145
  491TMC3    C6 7301   3.797   2.831  17.483 -0.4876 -0.3498  0.0563
  491TMC3     C 7302   3.843   3.235  17.446 -0.3707 -0.2923 -0.6111
  491TMC3     O 7303   3.913   3.251  17.348 -0.1022  0.2086  0.5990
  491TMC3     H 7304   3.776   3.107  17.666  1.9613  1.4583 -0.2124
  491TMC3    H1 7305   3.796   3.079  17.240  0.0068  0.4893  0.4481
  491TMC3    H2 7306   3.824   2.726  17.490 -0.0819 -0.1987  0.7847
  491TMC3    C7 7307   3.770   2.810  17.250 -0.0387  0.8886  0.4575
  491TMC3    C8 7308   3.777   2.861   0.029  0.0629 -0.2336  0.9554
  491TMC3    O1 7309   3.805   2.690  17.262  0.6811 -0.5072  0.3845
  491TMC3    O2 7310   3.707   2.916   0.109  0.3086 -0.0384 -0.4741
  492MPD2     C 7311   0.042   2.768  11.444  1.1586 -0.1801 -0.1593
  492MPD2    C1 7312   4.715   2.669  11.363  0.3005  0.2057  0.3207
  492MPD2    C2 7313   4.632   2.574  11.414  0.2881 -0.0517 -0.5750
  492MPD2    C3 7314   4.587   2.585  11.544  0.3644 -0.1148 -0.6929
  492MPD2    C4 7315   4.638   2.687  11.621 -0.2524 -0.5520 -0.8273
  492MPD2    C5 7316   4.712   2.788  11.572  0.4596 -0.1355 -0.5017
  492MPD2     H 7317   4.601   2.483  11.363 -2.1971  0.1611  0.5229
  492MPD2    H1 7318   4.612   2.705  11.725  1.7434 -0.9240 -0.2487
  492MPD2    H2 7319   0.119   2.834  11.405  3.5600 -2.1222  1.2312
  492MPD2    H3 7320   0.005   2.876  11.633  1.2678 -0.0569 -0.8269
  492MPD2     N 7321   4.507   2.496  11.614  1.0437 -0.5572  0.9127
  492MPD2    H5 7322   4.474   2.521  11.707  2.9369 -1.2806  1.7720
  492MPD2    N1 7323   0.051   2.651  11.238  0.0760  0.0316  0.1275
  492MPD2    H7 7324   0.094   2.736  11.201 -2.6714  1.5340  0.4201
  493TMC3    C1 7325   0.107   2.549  11.034  0.3328 -0.3334  0.2614
  493TMC3    C2 7326   0.218   2.633  11.036  0.6648 -0.5383  0.0737
  493TMC3    C3 7327   0.260   2.674  10.914 -0.7806 -0.1960  0.1702
  493TMC3    C4 7328   0.041   2.517  10.916 -0.5456  0.2663 -0.2129
  493TMC3    C5 7329   0.109   2.546  10.797 -0.1167  0.3266 -0.6063
  493TMC3    C6 7330   0.217   2.629  10.794 -0.3804 -0.0889  0.4620
  493TMC3     C 7331   0.027   2.545  11.153  0.3871 -0.9702 -0.2624
  493TMC3     O 7332   4.665   2.457  11.157  0.0796  0.2207 -0.3417
  493TMC3     H 7333   0.275   2.643  11.127 -0.5173  1.2740  0.6112
  493TMC3    H1 7334   4.667   2.468  10.917  1.0834 -2.9201  1.7273
  493TMC3    H2 7335   0.269   2.660  10.704  1.9564  1.0384  2.1993
  493TMC3    C7 7336   0.098   2.450  10.690  0.5535 -0.2264  0.3290
  493TMC3    C8 7337   0.382   2.750  10.922  0.6042  0.1228 -0.1043
  493TMC3    O1 7338   4.719   2.382  10.697  0.0098  0.2688  0.0754
  493TMC3    O2 7339   0.478   2.690  10.968 -0.2557  0.3980  0.0364
  494TMC3    C1 7340   0.475   0.474   0.849  0.6155 -0.3508 -0.6750
  494TMC3    C2 7341   0.512   0.349   0.894 -0.0136 -0.3293  0.2024
  494TMC3    C3 7342   0.543   0.258   0.797 -0.1823 -0.5535  0.1879
  494TMC3    C4 7343   0.494   0.511   0.717  0.2882  0.4620  0.4827
  494TMC3    C5 7344   0.547   0.419   0.631  0.0998  0.3491  0.4132
  494TMC3    C6 7345   0.569   0.293   0.666 -0.3506  0.0675 -0.2560
  494TMC3     C 7346   0.423   0.572   0.937 -0.0522  0.0750  0.7415
  494TMC3     O 7347   0.388   0.533   1.051 -0.2404 -0.3334 -0.0645
  494TMC3     H 7348   0.503   0.325   1.000 -2.4292 -1.0297 -0.1554
  494TMC3    H1 7349   0.445   0.596   0.672  0.6244  0.6508  0.4744
  494TMC3    H2 7350   0.580   0.216   0.591  0.4859 -0.1228  0.0674
  494TMC3    C7 7351   0.562   0.441   0.487  0.0365  0.0069  0.9411
  494TMC3    C8 7352   0.519   0.120   0.827 -0.1515 -0.0294 -0.0284
  494TMC3    O1 7353   0.555   0.351   0.406 -0.1674  0.1368  0.8673
  494TMC3    O2 7354   0.482   0.090   0.942 -0.3504 -0.2072 -0.3034
  495TMC3    C1 7355   4.009   1.539  14.922  0.1180 -0.6444 -0.6539
  495TMC3    C2 7356   3.926   1.532  14.812 -0.1340 -0.6633  0.0324
  495TMC3    C3 7357   3.802   1.594  14.813 -0.7600  0.7089  0.9490
  495TMC3    C4 7358   3.981   1.627  15.028  0.4134  0.2488  0.1415
  495TMC3    C5 7359   3.848   1.673  15.026  0.4401 -1.0699  0.0770
  495TMC3    C6 7360   3.765   1.661  14.925 -0.3204  0.1393  0.0441
  495TMC3     C 7361   4.127   1.459  14.931 -0.1180 -0.0046 -0.0971
  495TMC3     O 7362   4.212   1.514  15.004 -0.5980  0.4463 -0.2628
  495TMC3     H 7363   3.966   1.491  14.720  0.1031  0.3848 -0.3332
  495TMC3    H1 7364   4.046   1.638  15.114 -0.9801 -1.4952  1.4084
  495TMC3    H2 7365   3.673   1.718  14.914  0.0368  0.3369 -2.0210
  495TMC3    C7 7366   3.784   1.708  15.153  0.3259 -0.7778  0.2164
  495TMC3    C8 7367   3.727   1.609  14.690 -0.4308 -0.0967 -0.5549
  495TMC3    O1 7368   3.854   1.763  15.236 -0.0434 -0.2538 -0.6738
  495TMC3    O2 7369   3.635   1.689  14.692  0.0215  1.1834  0.4011
  496MPD2     C 7370   1.911   1.785  15.389 -0.1258 -0.1197 -0.4853
  496MPD2    C1 7371   1.805   1.699  15.377  0.6668  0.0955 -0.3900
  496MPD2    C2 7372   1.677   1.731  15.424 -0.1159  0.6904  0.1976
  496MPD2    C3 7373   1.661   1.860  15.488 -0.5958 -0.1640 -0.2710
  496MPD2    C4 7374   1.771   1.940  15.499 -0.6509  0.6158  0.2479
  496MPD2    C5 7375   1.898   1.901  15.461 -0.5764 -0.0051 -0.0767
  496MPD2     H 7376   1.598   1.661  15.401  0.3849  0.1472  0.1390
  496MPD2    H1 7377   1.758   2.037  15.545  1.5700  0.8317  0.4001
  496MPD2    H2 7378   2.011   1.763  15.353 -0.7576  0.0118 -2.3233
  496MPD2    H3 7379   1.978   1.972  15.477  0.5036 -1.3976  0.6643
  496MPD2     N 7380   1.539   1.908  15.525  0.5829 -0.3209  2.0888
  496MPD2    H5 7381   1.542   2.005  15.553 -0.4811  1.0425 -2.6010
  496MPD2    N1 7382   1.834   1.573  15.316  0.3951 -0.3839 -0.2609
  496MPD2    H7 7383   1.930   1.567  15.284  0.6134 -3.6714  1.0027
  497TMC3    C1 7384   1.313   1.929  15.560  0.0411 -0.9545 -0.3060
  497TMC3    C2 7385   1.218   1.855  15.620 -0.7050 -0.4626  0.2367
  497TMC3    C3 7386   1.140   1.913  15.714 -0.5506 -0.3221 -0.4142
  497TMC3    C4 7387   1.340   2.061  15.590  0.7798  0.8300 -0.1957
  497TMC3    C5 7388   1.270   2.110  15.691 -0.2049 -0.1756  0.3621
  497TMC3    C6 7389   1.161   2.044  15.739  0.1074 -0.4058 -0.5489
  497TMC3     C 7390   1.418   1.847  15.512  0.2960  0.2561 -0.5975
  497TMC3     O 7391   1.396   1.737  15.458  0.1429 -0.1926  0.1911
  497TMC3     H 7392   1.215   1.749  15.599  0.9169 -1.0861  3.0535
  497TMC3    H1 7393   1.425   2.112  15.545  2.6584 -1.1048  1.0973
  497TMC3    H2 7394   1.093   2.087  15.811  0.4744 -0.6696 -0.0490
  497TMC3    C7 7395   1.345   2.210  15.768 -0.0616 -0.3209  0.1134
  497TMC3    C8 7396   1.030   1.841  15.783  0.0837  0.4189 -0.3038
  497TMC3    O1 7397   1.430   2.278  15.711 -0.0512 -0.1764  0.8921
  497TMC3    O2 7398   0.971   1.912  15.862 -0.2557 -0.4656 -0.8080
  498MPD2     C 7399   2.794   2.071   9.894  0.1275 -0.2409 -0.2077
  498MPD2    C1 7400   2.718   2.180   9.931  0.2470 -0.4489  0.3954
  498MPD2    C2 7401   2.588   2.164   9.975 -0.1846 -0.4689  0.0552
  498MPD2    C3 7402   2.521   2.042   9.968 -0.8482 -0.3635  0.0354
  498MPD2    C4 7403   2.600   1.939   9.920  0.0276 -0.4921  1.1239
  498MPD2    C5 7404   2.731   1.953   9.876  0.0751  0.5453 -0.0818
  498MPD2     H 7405   2.527   2.250  10.000 -2.4197 -1.4924 -1.8643
  498MPD2    H1 7406   2.565   1.836   9.918  1.8400 -1.0894 -0.0192
  498MPD2    H2 7407   2.900   2.075   9.870  0.3642  0.3300  0.9451
  498MPD2    H3 7408   2.773   1.856   9.850 -0.8467  0.4408 -1.2000
  498MPD2     N 7409   2.380   2.033   9.983 -0.4950  0.7338 -0.3940
  498MPD2    H5 7410   2.334   2.113  10.025 -1.0076  0.6075 -0.7263
  498MPD2    N1 7411   2.770   2.313   9.935 -0.1043 -0.2324  0.4402
  498MPD2    H7 7412   2.705   2.390   9.954  0.1994  0.4632 -1.2772
  499TMC3    C1 7413   2.932   2.494   9.923  0.3173 -0.6626  0.0259
  499TMC3    C2 7414   3.063   2.529   9.910 -0.4771 -0.2378  0.2863
  499TMC3    C3 7415   3.094   2.661   9.910 -0.1070  0.2776  0.5020
  499TMC3    C4 7416   2.830   2.586   9.947  0.1687 -0.3302  0.2870
  499TMC3    C5 7417   2.872   2.723   9.941 -0.1315  0.1636 -0.5161
  499TMC3    C6 7418   3.004   2.760   9.921  0.0916 -0.1976  0.4487
  499TMC3     C 7419   2.907   2.349   9.925  0.3145  0.2714  0.2641
  499TMC3     O 7420   3.003   2.272   9.917 -0.0198 -0.1773  0.3492
  499TMC3     H 7421   3.136   2.450   9.893  1.1001  1.1387  0.6378
  499TMC3    H1 7422   2.731   2.549   9.968  0.2351 -1.5961 -1.7477
  499TMC3    H2 7423   3.027   2.865   9.921  0.0335 -0.1872 -1.1389
  499TMC3    C7 7424   2.763   2.820   9.945 -0.2911  0.1173  0.0165
  499TMC3    C8 7425   3.229   2.710   9.882  0.9087 -0.4659  0.0620
  499TMC3    O1 7426   2.794   2.935   9.938 -0.5062  0.1471 -0.3674
  499TMC3    O2 7427   3.239   2.821   9.834  0.2317 -0.1350  0.2332
  500MPD2     C 7428   3.971   3.461  10.312 -0.3321 -0.4623  0.5942
  500MPD2    C1 7429   3.912   3.576  10.362 -0.0428  0.5224 -0.0977
  500MPD2    C2 7430   3.778   3.608  10.326  0.7466 -0.6016  0.2305
  500MPD2    C3 7431   3.718   3.522  10.232 -0.3348 -0.3953 -0.3207
  500MPD2    C4 7432   3.783   3.412  10.180 -0.4936 -0.2421 -0.2103
  500MPD2    C5 7433   3.909   3.379  10.224  0.6841 -0.1295 -0.6529
  500MPD2     H 7434   3.739   3.707  10.348  0.4626 -0.6003 -0.2905
  500MPD2    H1 7435   3.734   3.359  10.100 -0.5528  0.5563 -0.6966
  500MPD2    H2 7436   4.071   3.437  10.346 -0.5177  0.3715  1.7350
  500MPD2    H3 7437   3.960   3.292  10.184  2.4672  0.1229  1.0533
  500MPD2     N 7438   3.591   3.538  10.179 -0.1706  0.0410  0.0067
  500MPD2    H5 7439   3.562   3.470  10.109  1.0670 -0.2894 -0.1961
  500MPD2    N1 7440   3.978   3.667  10.452 -0.0013 -0.4443  0.2725
  500MPD2    H7 7441   3.917   3.743  10.480  0.7743  0.1895  0.2575
  501TMC3    C1 7442   4.138   3.752  10.585 -0.0783 -0.0819  0.0543
  501TMC3    C2 7443   4.112   3.883  10.548  0.4290  0.2187  0.4585
  501TMC3    C3 7444   4.185   3.979  10.617  0.3129  0.3408 -0.3603
  501TMC3    C4 7445   4.237   3.712  10.677  0.1221 -0.3005 -0.5188
  501TMC3    C5 7446   4.314   3.811  10.728 -0.6356 -0.5518 -0.7599
  501TMC3    C6 7447   4.282   3.944  10.708 -0.4597  0.5196 -0.0699
  501TMC3     C 7448   4.102   3.650  10.500  0.4880 -0.5311 -0.6908
  501TMC3     O 7449   4.165   3.549  10.507  0.2955 -0.1082 -0.3862
  501TMC3     H 7450   4.043   3.905  10.468 -0.5476  3.4023  2.1826
  501TMC3    H1 7451   4.251   3.610  10.712  1.7753  0.2321  0.3681
  501TMC3    H2 7452   4.331   4.017  10.772  1.1063  1.0708 -1.9015
  501TMC3    C7 7453   4.443   3.773  10.795 -0.2285  0.2710 -0.4618
  501TMC3    C8 7454   4.164   4.120  10.590 -0.3032 -0.0118  0.2521
  501TMC3    O1 7455   4.434   3.678  10.875 -0.1538  0.0735 -0.4787
  501TMC3    O2 7456   4.258   4.193  10.621 -0.5793  0.5123  0.9831
  502TMC3    C1 7457   3.370   2.636  14.869  0.2846  0.1434  0.1839
  502TMC3    C2 7458   3.337   2.771  14.835  0.4195  0.2241 -0.8378
  502TMC3    C3 7459   3.203   2.801  14.807 -0.0752 -0.4845  0.0357
  502TMC3    C4 7460   3.273   2.547  14.897  0.5683 -0.1904  0.4325
  502TMC3    C5 7461   3.139   2.580  14.880 -0.3604 -0.2192 -0.0741
  502TMC3    C6 7462   3.106   2.708  14.824  0.1935  0.1693 -0.8538
  502TMC3     C 7463   3.488   2.629  14.951 -0.4867 -0.9585 -0.2157
  502TMC3     O 7464   3.592   2.685  14.910 -0.2101  0.0078 -0.7592
  502TMC3     H 7465   3.417   2.844  14.831  0.7551  0.0686  2.7094
  502TMC3    H1 7466   3.301   2.442  14.904  0.0278 -0.5434 -2.6978
  502TMC3    H2 7467   3.001   2.730  14.807  0.0225 -0.2699 -0.3647
  502TMC3    C7 7468   3.041   2.481  14.917  0.1186  0.6822 -0.5939
  502TMC3    C8 7469   3.182   2.943  14.785  0.2014 -0.8440 -0.0562
  502TMC3    O1 7470   3.078   2.365  14.902  0.4648 -0.8462 -0.2519
  502TMC3    O2 7471   3.280   3.017  14.764  0.1223  0.2977 -0.1744
  503MPD2     C 7472   0.699   3.317  17.510  0.2484 -0.2061  0.0184
  503MPD2    C1 7473   0.824   3.371  17.521  0.0606 -0.0333 -0.4161
  503MPD2    C2 7474   0.929   3.283  17.533  0.2890  0.0284 -0.0624
  503MPD2    C3 7475   0.915   3.146  17.519  0.2052  0.1809 -0.3331
  503MPD2    C4 7476   0.786   3.095  17.499  0.1510  0.3073 -0.3043
  503MPD2    C5 7477   0.677   3.181  17.503  0.4607 -0.2543  0.7661
  503MPD2     H 7478   1.026   3.328  17.552  1.6067 -2.7548 -0.2547
  503MPD2    H1 7479   0.768   2.988  17.493  0.7549  0.0851  2.1707
  503MPD2    H2 7480   0.607   3.373  17.520  0.1284 -0.6173  1.1535
  503MPD2    H3 7481   0.574   3.147  17.493  0.3815 -0.3947  2.0111
  503MPD2     N 7482   1.031   3.067  17.530  0.1489 -0.5024 -0.5029
  503MPD2    H5 7483   1.111   3.112  17.574  1.0795 -0.7725 -1.9334
  503MPD2    N1 7484   0.842   3.506  17.542 -0.1906 -0.0807  0.7129
  503MPD2    H7 7485   0.938   3.527  17.569 -0.1002  1.7440 -0.9426
  504TMC3    C1 7486   1.152   2.862  17.523 -0.3804 -1.1830  0.5779
  504TMC3    C2 7487   1.134   2.728  17.517  0.3570 -0.2456 -0.1014
  504TMC3    C3 7488   1.241   2.648  17.515 -0.5445  0.3140 -0.2324
  504TMC3    C4 7489   1.267   2.923  17.541  0.0626  0.2657  0.0995
  504TMC3    C5 7490   1.376   2.840  17.533 -0.3956  0.0100 -0.0747
  504TMC3    C6 7491   1.363   2.706  17.520 -0.5172  0.1148  0.0339
  504TMC3     C 7492   1.036   2.935  17.488 -0.0691 -0.5617 -0.0228
  504TMC3     O 7493   0.949   2.878  17.424  0.7138 -0.1290 -0.8420
  504TMC3     H 7494   1.034   2.688  17.511 -0.6368  2.2486  0.0563
  504TMC3    H1 7495   1.279   3.026  17.512  0.6937  0.3312  0.5998
  504TMC3    H2 7496   1.445   2.636  17.512  0.2109  0.7348  2.0676
  504TMC3    C7 7497   1.479   2.886  17.448  0.8020  0.8039  0.1427
  504TMC3    C8 7498   1.218   2.519  17.578 -0.9211 -0.2191  0.0377
  504TMC3    O1 7499   1.512   2.821  17.350  0.0959 -0.5318  0.4881
  504TMC3    O2 7500   1.116   2.466  17.540 -0.3615  0.1082  0.1665
  505MPD2     C 7501   1.181   1.821  10.398  0.1416 -0.5447 -1.2570
  505MPD2    C1 7502   1.225   1.717  10.476 -0.1074 -0.4864 -0.3338
  505MPD2    C2 7503   1.285   1.745  10.601  0.6288  0.2937 -0.2258
  505MPD2    C3 7504   1.288   1.869  10.657 -0.5709  0.0016  0.1480
  505MPD2    C4 7505   1.249   1.971  10.582 -0.2553  0.7172 -0.1067
  505MPD2    C5 7506   1.196   1.951  10.459  0.3318  0.7065 -0.4052
  505MPD2     H 7507   1.331   1.664  10.657  0.6252 -0.7445 -1.6951
  505MPD2    H1 7508   1.241   2.076  10.608  0.1872  0.9482 -0.9262
  505MPD2    H2 7509   1.125   1.810  10.306 -0.6569  1.1908 -0.9839
  505MPD2    H3 7510   1.159   2.039  10.407 -0.9070  0.9233  0.8354
  505MPD2     N 7511   1.358   1.875  10.782 -0.0119  0.2880  0.2701
  505MPD2    H5 7512   1.398   1.788  10.816 -0.0200 -0.8176 -2.5658
  505MPD2    N1 7513   1.204   1.587  10.429  0.4839 -0.3793  0.5808
  505MPD2    H7 7514   1.164   1.577  10.336  2.3088  1.4008 -0.3939
  506TMC3    C1 7515   1.224   1.355  10.425 -0.3909  0.0152 -0.0407
  506TMC3    C2 7516   1.292   1.372  10.309 -0.2795  0.0972  0.5849
  506TMC3    C3 7517   1.367   1.265  10.266 -0.0576 -0.1912 -0.2930
  506TMC3    C4 7518   1.230   1.242  10.496  0.2286 -0.2850  0.0053
  506TMC3    C5 7519   1.307   1.136  10.458 -0.3671  0.1631  0.3584
  506TMC3    C6 7520   1.368   1.144  10.337  0.4974  0.0538  0.3118
  506TMC3     C 7521   1.224   1.477  10.506 -0.0054 -0.5587 -0.5617
  506TMC3     O 7522   1.243   1.463  10.626  0.4804 -0.3732 -0.0553
  506TMC3     H 7523   1.271   1.455  10.242 -1.4356  0.2737  1.1637
  506TMC3    H1 7524   1.177   1.223  10.588 -0.2363  2.0086  0.1982
  506TMC3    H2 7525   1.426   1.057  10.308  0.9237  0.1198  0.9656
  506TMC3    C7 7526   1.403   1.109  10.557 -0.4227 -0.3858  0.3665
  506TMC3    C8 7527   1.435   1.272  10.139  0.7420  0.0888 -0.0151
  506TMC3    O1 7528   1.474   1.010  10.544  0.1064  0.0898 -0.4154
  506TMC3    O2 7529   1.466   1.160  10.091  1.0161 -0.1367 -0.2085
  507TMC3    C1 7530   1.793   2.886  14.912  0.2449 -0.1384 -0.3703
  507TMC3    C2 7531   1.766   2.802  14.803 -0.0351  0.4522 -0.2961
  507TMC3    C3 7532   1.845   2.809  14.697  0.1745 -0.3424  0.7873
  507TMC3    C4 7533   1.909   2.959  14.909  0.3518  0.1823 -0.0222
  507TMC3    C5 7534   1.981   2.970  14.790  0.3904 -0.5126  0.2131
  507TMC3    C6 7535   1.957   2.885  14.690  0.2076  1.1693 -0.1718
  507TMC3     C 7536   1.705   2.893  15.029  0.2472 -0.2237 -1.1440
  507TMC3     O 7537   1.759   2.946  15.126 -0.0305  0.1208  0.1788
  507TMC3     H 7538   1.675   2.745  14.794 -0.1015  0.4249  0.4795
  507TMC3    H1 7539   1.920   3.046  14.973  3.6702 -0.8865  0.8835
  507TMC3    H2 7540   2.017   2.889  14.600  1.8208  0.5154  0.8736
  507TMC3    C7 7541   1.985   3.101  14.725 -0.2522 -0.2544  0.4880
  507TMC3    C8 7542   1.770   2.796  14.571 -0.1368  1.0137  0.7159
  507TMC3    O1 7543   2.008   3.096  14.606  0.2628 -0.5772  0.6331
  507TMC3    O2 7544   1.680   2.708  14.560 -0.5196  0.2914 -0.1543
  508MPD2     C 7545   2.824   0.541  16.452 -0.4692 -0.0438  0.2490
  508MPD2    C1 7546   2.855   0.650  16.532 -0.4136 -0.2270 -0.6010
  508MPD2    C2 7547   2.817   0.778  16.484 -0.1970 -0.5725 -0.2997
  508MPD2    C3 7548   2.762   0.801  16.360  0.2867  0.0351  0.6917
  508MPD2    C4 7549   2.738   0.691  16.277 -0.2284 -0.5899  0.3054
  508MPD2    C5 7550   2.773   0.566  16.324 -0.2265  0.0497  0.3649
  508MPD2     H 7551   2.819   0.866  16.548  0.0989 -0.3074 -0.6719
  508MPD2    H1 7552   2.706   0.697  16.174  0.2062 -1.0793  0.1433
  508MPD2    H2 7553   2.853   0.447  16.498 -2.1261 -0.2780  0.8122
  508MPD2    H3 7554   2.765   0.482  16.256 -0.2968  0.6499 -0.3665
  508MPD2     N 7555   2.732   0.937  16.316  0.3917  0.1908 -0.5179
  508MPD2    H5 7556   2.759   1.003  16.388 -0.4623 -0.1531  0.1270
  508MPD2    N1 7557   2.892   0.646  16.671 -0.8857  0.1515  0.7551
  508MPD2    H7 7558   2.883   0.728  16.730  0.3553  1.4445 -0.8396
  509TMC3    C1 7559   2.508   1.250  16.057 -0.8204  0.4002 -0.2039
  509TMC3    C2 7560   2.614   1.319  16.007  0.6971 -0.1439 -0.2739
  509TMC3    C3 7561   2.738   1.287  16.049  0.2183  0.1435 -0.1284
  509TMC3    C4 7562   2.524   1.146  16.145 -0.4383  0.0369 -0.2219
  509TMC3    C5 7563   2.651   1.110  16.193 -0.5751 -0.2024 -0.4936
  509TMC3    C6 7564   2.760   1.188  16.143  0.0230 -0.8407 -0.1051
  509TMC3     C 7565   2.379   1.270  15.994 -0.7150  0.0685  0.1900
  509TMC3     O 7566   2.278   1.258  16.058  0.8460 -0.3078 -0.3227
  509TMC3     H 7567   2.596   1.407  15.947  0.9508  1.1459  1.5223
  509TMC3    H1 7568   2.446   1.076  16.174 -1.0143  0.0508 -1.7280
  509TMC3    H2 7569   2.860   1.174  16.183  0.1806 -0.6886 -0.4462
  509TMC3    C7 7570   2.679   0.974  16.196 -0.0513  0.8530  1.2863
  509TMC3    C8 7571   2.853   1.337  15.981 -1.0727 -0.3841 -0.3810
  509TMC3    O1 7572   2.645   0.917  16.094  0.5015 -0.1479  0.2390
  509TMC3    O2 7573   2.960   1.328  16.042 -0.5662 -0.1272 -0.0600
  510MPD2     C 7574   0.639   2.571  14.749  0.7140 -0.1815 -0.1789
  510MPD2    C1 7575   0.697   2.467  14.816 -0.0569 -0.2660 -0.5353
  510MPD2    C2 7576   0.787   2.394  14.741  0.4933  0.1090 -0.1831
  510MPD2    C3 7577   0.839   2.438  14.618 -0.6153  0.2298  0.3683
  510MPD2    C4 7578   0.785   2.555  14.563 -0.2455 -0.0260  0.6531
  510MPD2    C5 7579   0.686   2.622  14.633 -0.2534 -0.1216 -0.0231
  510MPD2     H 7580   0.833   2.303  14.777  1.3155  1.1360  1.3775
  510MPD2    H1 7581   0.838   2.594  14.477 -0.1038  0.1858  0.8363
  510MPD2    H2 7582   0.553   2.617  14.798  1.0232 -0.5326  0.6861
  510MPD2    H3 7583   0.659   2.720  14.596 -1.1616 -0.2926  0.1949
  510MPD2     N 7584   0.929   2.353  14.554  0.1850 -0.6646  0.1444
  510MPD2    H5 7585   0.951   2.269  14.607  1.8988 -1.2548 -1.5194
  510MPD2    N1 7586   0.641   2.424  14.934  0.7451  0.5621 -0.2457
  510MPD2    H7 7587   0.562   2.479  14.967  0.2128  0.9520 -2.1832
  511TMC3    C1 7588   0.619   2.270  15.123 -0.0207  0.2063 -0.3828
  511TMC3    C2 7589   0.497   2.317  15.162 -0.4779  0.3802  0.1546
  511TMC3    C3 7590   0.413   2.236  15.226 -0.0195  0.2604 -0.2036
  511TMC3    C4 7591   0.653   2.141  15.164  0.5659 -0.2787  0.2780
  511TMC3    C5 7592   0.562   2.063  15.223  0.5962 -0.0936  0.8827
  511TMC3    C6 7593   0.438   2.113  15.265 -0.2111  0.2400  0.9692
  511TMC3     C 7594   0.695   2.319  15.004 -0.2233  0.3201  0.2905
  511TMC3     O 7595   0.791   2.249  14.977  1.1316  0.4735  0.0818
  511TMC3     H 7596   0.465   2.419  15.147 -0.9650 -0.2149 -2.8792
  511TMC3    H1 7597   0.748   2.095  15.141  0.1227 -1.5671  1.0897
  511TMC3    H2 7598   0.362   2.052  15.311  0.0016 -0.2232  0.7079
  511TMC3    C7 7599   0.568   1.926  15.174 -0.2979  0.6680 -0.4039
  511TMC3    C8 7600   0.289   2.293  15.272 -0.3164 -0.6524 -0.3475
  511TMC3    O1 7601   0.620   1.914  15.064 -0.4187  0.5788  0.2695
  511TMC3    O2 7602   0.280   2.404  15.323  0.4834 -0.0409 -0.2125
  512TMC3    C1 7603   4.212   1.229  13.495  0.0410 -0.2544  0.0510
  512TMC3    C2 7604   4.322   1.202  13.562  0.4381 -0.2608  0.4399
  512TMC3    C3 7605   4.380   1.079  13.542  0.3850 -0.0415  0.5180
  512TMC3    C4 7606   4.161   1.143  13.397  0.0068  0.0609 -0.6437
  512TMC3    C5 7607   4.214   1.015  13.385 -0.3205 -0.7252  0.2125
  512TMC3    C6 7608   4.327   0.982  13.453  0.2636 -0.3884  0.0230
  512TMC3     C 7609   4.138   1.350  13.536  0.5620  0.5942  0.1232
  512TMC3     O 7610   4.198   1.433  13.597 -0.3042  0.0096 -0.0071
  512TMC3     H 7611   4.336   1.257  13.654  2.4239  0.8624 -0.5244
  512TMC3    H1 7612   4.092   1.180  13.322  1.0269  2.5592 -0.3776
  512TMC3    H2 7613   4.369   0.882  13.442 -3.9625 -2.1733  0.0990
  512TMC3    C7 7614   4.193   0.949  13.261  0.0037 -0.9422  0.0330
  512TMC3    C8 7615   4.516   1.049  13.587  0.2660  0.5753  1.4372
  512TMC3    O1 7616   4.121   1.003  13.179 -0.4783 -0.1275 -0.9719
  512TMC3    O2 7617   4.564   0.947  13.542  0.0993  0.2023  0.4325
  513MPD2     C 7618   0.935   1.603  13.304 -0.3412  0.0860  0.4158
  513MPD2    C1 7619   0.996   1.539  13.198 -0.6494  0.6279 -0.5932
  513MPD2    C2 7620   1.092   1.447  13.245 -0.3098  0.1186 -0.1347
  513MPD2    C3 7621   1.131   1.439  13.375  0.2420 -0.5434 -0.0117
  513MPD2    C4 7622   1.082   1.520  13.473 -0.1925  0.0917 -0.4191
  513MPD2    C5 7623   0.979   1.599  13.433 -0.0651 -0.9262 -0.4195
  513MPD2     H 7624   1.141   1.385  13.172 -3.1273 -0.1209 -1.8155
  513MPD2    H1 7625   1.104   1.507  13.579  2.4109  0.8718 -0.8587
  513MPD2    H2 7626   0.852   1.672  13.294  0.6946  1.3631  0.5732
  513MPD2    H3 7627   0.935   1.657  13.513  0.1259  1.8107 -2.3347
  513MPD2     N 7628   1.223   1.339  13.402 -0.1809 -0.0470 -0.0404
  513MPD2    H5 7629   1.244   1.276  13.325 -1.4438  0.3038 -0.6719
  513MPD2    N1 7630   0.954   1.540  13.064  0.5194  0.6651  0.7089
  513MPD2    H7 7631   0.988   1.469  12.999 -0.1174  0.0039  1.0977
  514TMC3    C1 7632   0.863   1.612  12.864  0.0730 -0.0304 -0.1683
  514TMC3    C2 7633   0.912   1.700  12.776 -1.1336 -0.5593 -0.9051
  514TMC3    C3 7634   0.982   1.652  12.669  0.2601 -1.0267 -0.2574
  514TMC3    C4 7635   0.880   1.478  12.845 -0.6385  0.1097 -0.1552
  514TMC3    C5 7636   0.966   1.436  12.744 -0.0056 -1.1735  0.1436
  514TMC3    C6 7637   1.023   1.524  12.660 -0.1535 -0.2123  0.3832
  514TMC3     C 7638   0.874   1.637  13.008 -0.4646  0.4556  0.6212
  514TMC3     O 7639   0.846   1.747  13.059 -0.0035 -0.4018 -0.5362
  514TMC3     H 7640   0.887   1.806  12.784  1.3161 -0.0969  0.4396
  514TMC3    H1 7641   0.821   1.418  12.913  1.8161 -0.4337  1.4661
  514TMC3    H2 7642   1.100   1.503  12.587 -0.3582 -0.0817  0.1305
  514TMC3    C7 7643   1.054   1.334  12.803  0.0315  0.3452 -0.0275
  514TMC3    C8 7644   1.030   1.755  12.578  0.2410  0.0422 -0.3456
  514TMC3    O1 7645   1.027   1.309  12.918  0.2778 -0.3548 -0.8276
  514TMC3    O2 7646   0.989   1.869  12.602  0.3672 -0.6335  0.0433
  515MPD2     C 7647   4.136   3.143  15.175 -0.1928  0.6907 -1.2797
  515MPD2    C1 7648   4.153   3.192  15.048 -0.3393 -0.3591  0.0179
  515MPD2    C2 7649   4.183   3.331  15.036  0.3540  1.1131 -0.1141
  515MPD2    C3 7650   4.223   3.405  15.142 -0.1713 -0.1347  0.0396
  515MPD2    C4 7651   4.207   3.351  15.263 -0.1447  0.1101  0.2670
  515MPD2    C5 7652   4.171   3.218  15.280  0.2996  0.3688 -0.2225
  515MPD2     H 7653   4.208   3.371  14.938 -0.7360  2.3011  0.1021
  515MPD2    H1 7654   4.225   3.410  15.353  2.3767  0.8506 -0.7191
  515MPD2    H2 7655   4.107   3.040  15.195  1.3582  0.8152  1.7386
  515MPD2    H3 7656   4.160   3.174  15.378 -0.0110 -1.2445 -0.9883
  515MPD2     N 7657   4.302   3.524  15.131  0.0396  0.1784 -0.0258
  515MPD2    H5 7658   4.329   3.564  15.220  0.3992 -1.4643  0.6032
  515MPD2    N1 7659   4.151   3.111  14.931 -0.4809  0.2371 -0.3952
  515MPD2    H7 7660   4.148   3.155  14.839  0.9410  0.3958 -0.3611
  516TMC3    C1 7661   4.139   2.901  14.812  0.0737 -0.0571  0.0624
  516TMC3    C2 7662   4.078   2.958  14.700  0.7990  0.0883 -0.2242
  516TMC3    C3 7663   4.064   2.881  14.595  0.2859  0.2420 -0.7251
  516TMC3    C4 7664   4.156   2.768  14.824  0.2442 -0.1703  0.3843
  516TMC3    C5 7665   4.134   2.691  14.712  0.3805  0.1612  0.2600
  516TMC3    C6 7666   4.086   2.744  14.594 -0.0172  0.1955 -0.6201
  516TMC3     C 7667   4.162   2.971  14.940  0.5034 -0.7595 -0.4307
  516TMC3     O 7668   4.219   2.916  15.036 -0.4942 -0.5377  0.5549
  516TMC3     H 7669   4.073   3.066  14.700  0.4257  0.0669  0.9290
  516TMC3    H1 7670   4.199   2.728  14.914  1.8663 -0.1862 -0.3980
  516TMC3    H2 7671   4.094   2.681  14.507 -2.9262 -1.0657  0.0608
  516TMC3    C7 7672   4.081   2.563  14.751  0.5497 -0.7515 -0.0943
  516TMC3    C8 7673   4.019   2.927  14.466  0.1832  0.9591 -0.0894
  516TMC3    O1 7674   4.139   2.497  14.836  0.0982  0.0398  0.3564
  516TMC3    O2 7675   3.981   2.844  14.385  0.5403  0.1351  0.0917
  517MPD2     C 7676   3.053   0.415  17.307  0.2913  0.8160 -0.5992
  517MPD2    C1 7677   3.179   0.368  17.349 -0.4878 -1.0887  0.3949
  517MPD2    C2 7678   3.244   0.422  17.457  0.0262  0.3747  0.7161
  517MPD2    C3 7679   3.202   0.528  17.522 -0.5465 -0.0553  0.6664
  517MPD2    C4 7680   3.085   0.582  17.478 -0.5510 -0.0738 -0.2702
  517MPD2    C5 7681   3.015   0.527  17.375 -0.0781 -0.2869 -0.3642
  517MPD2     H 7682   3.334   0.369  17.485  0.1213  0.9847  1.5636
  517MPD2    H1 7683   3.037   0.660  17.536  0.5987  1.6794 -1.7032
  517MPD2    H2 7684   2.988   0.368  17.235 -0.3914  0.4881  0.2308
  517MPD2    H3 7685   2.919   0.563  17.341  0.2636 -1.1502 -2.2650
  517MPD2     N 7686   3.264   0.584  17.637 -0.0874 -0.6200 -0.4291
  517MPD2    H5 7687   3.221   0.670  17.670  0.5290 -0.4446 -0.0829
  517MPD2    N1 7688   3.246   0.262  17.286 -0.3244 -0.3807  0.0223
  517MPD2    H7 7689   3.340   0.235  17.314 -0.2543 -0.1932 -0.0319
  518TMC3    C1 7690   3.274   0.093  17.126  0.1647  0.5261  0.5987
  518TMC3    C2 7691   3.226   4.701  17.077 -0.1843 -1.2618 -1.1344
  518TMC3    C3 7692   3.312   4.631  16.997 -0.0090  0.2309 -0.1579
  518TMC3    C4 7693   3.408   0.127  17.115  0.1193 -0.0870 -0.3414
  518TMC3    C5 7694   3.490   0.047  17.044 -0.8817  0.0225  0.6186
  518TMC3    C6 7695   3.443   4.664  16.975 -0.0670  0.2881  0.2733
  518TMC3     C 7696   3.181   0.179  17.192  0.1098 -0.6014 -0.0184
  518TMC3     O 7697   3.064   0.169  17.165  0.2968  0.1255  0.5275
  518TMC3     H 7698   3.124   4.671  17.096 -0.5578  0.1233 -0.9468
  518TMC3    H1 7699   3.444   0.224  17.147 -0.3293 -0.2020  0.5129
  518TMC3    H2 7700   3.512   4.603  16.917 -0.5013  0.5937 -0.5758
  518TMC3    C7 7701   3.623   0.037  17.103  0.1545  0.3344 -0.2435
  518TMC3    C8 7702   3.272   4.496  16.969  0.3098  0.5535  0.1672
  518TMC3    O1 7703   3.653   0.114  17.191 -0.0207 -0.3249  0.1797
  518TMC3    O2 7704   3.190   4.439  17.041  0.5072  0.2565 -0.3112
  519MPD2     C 7705   0.751   2.906  14.777  0.4685  1.1248 -0.3929
  519MPD2    C1 7706   0.686   2.964  14.668 -0.5106 -0.4233  1.0221
  519MPD2    C2 7707   0.747   2.960  14.545  0.9222  0.3468 -0.6239
  519MPD2    C3 7708   0.875   2.908  14.530  0.0210 -0.0821  0.4036
  519MPD2    C4 7709   0.944   2.868  14.648  0.0135  0.4698  0.2657
  519MPD2    C5 7710   0.878   2.863  14.767 -0.0799 -0.3683 -0.6547
  519MPD2     H 7711   0.692   2.993  14.458  0.9611 -0.4952 -0.9700
  519MPD2    H1 7712   1.045   2.830  14.639 -0.0774  0.4277 -0.5695
  519MPD2    H2 7713   0.700   2.908  14.873 -1.1800  0.9507 -1.2540
  519MPD2    H3 7714   0.924   2.827  14.859 -1.7139 -0.9179 -0.0502
  519MPD2     N 7715   0.936   2.883  14.406  0.4594 -0.3595  0.7716
  519MPD2    H5 7716   1.035   2.862  14.400 -0.4214 -4.0789 -0.3826
  519MPD2    N1 7717   0.555   3.001  14.682 -0.2332 -0.2218  0.6650
  519MPD2    H7 7718   0.520   3.007  14.777  1.0823  0.8902  1.0727
  520TMC3    C1 7719   0.946   2.824  14.177  0.3859 -0.0993  0.4532
  520TMC3    C2 7720   0.873   2.804  14.065 -0.7277 -0.2928  0.0962
  520TMC3    C3 7721   0.945   2.762  13.952  0.0781  0.5011 -0.1524
  520TMC3    C4 7722   1.080   2.792  14.183  0.4523  1.3814  0.5463
  520TMC3    C5 7723   1.136   2.734  14.068  0.3686 -0.1720 -0.2165
  520TMC3    C6 7724   1.076   2.729  13.948 -0.4328  0.4467 -0.2567
  520TMC3     C 7725   0.866   2.875  14.289  0.2638  0.1597 -0.2162
  520TMC3     O 7726   0.749   2.897  14.261  0.0494  0.0314 -0.0415
  520TMC3     H 7727   0.768   2.827  14.050 -0.7365 -0.8681 -0.7348
  520TMC3    H1 7728   1.129   2.790  14.280 -0.0046 -0.0268  0.7576
  520TMC3    H2 7729   1.115   2.685  13.856  0.1998  0.3811  0.0386
  520TMC3    C7 7730   1.252   2.653  14.087  0.2743 -0.0601 -0.3306
  520TMC3    C8 7731   0.862   2.711  13.840 -0.6890  0.2580  0.9048
  520TMC3    O1 7732   1.272   2.599  14.196 -0.5822 -0.3645  0.1440
  520TMC3    O2 7733   0.920   2.677  13.737 -0.3956 -0.5147  0.7876
  521MPD2     C 7734   1.588   1.624  17.465  0.4883 -0.0686  0.0265
  521MPD2    C1 7735   1.560   1.502  17.410 -0.4417 -0.1732 -0.2451
  521MPD2    C2 7736   1.666   1.415  17.370  0.0056 -0.4552 -0.5134
  521MPD2    C3 7737   1.792   1.456  17.392  0.5576  0.3165  0.2593
  521MPD2    C4 7738   1.820   1.578  17.453 -0.5872 -0.8586  0.0129
  521MPD2    C5 7739   1.718   1.660  17.485  0.2601  0.6753  0.4000
  521MPD2     H 7740   1.643   1.325  17.315  1.6146 -1.4114  0.3659
  521MPD2    H1 7741   1.921   1.617  17.463 -0.6340 -1.6052  3.1944
  521MPD2    H2 7742   1.510   1.697  17.484 -1.3748 -2.5920  2.0929
  521MPD2    H3 7743   1.736   1.760  17.524  0.2205  0.4260  1.0671
  521MPD2     N 7744   1.889   1.370  17.346 -0.0476  0.3987 -0.1190
  521MPD2    H5 7745   1.857   1.281  17.311 -0.5529 -0.2524  1.9954
  521MPD2    N1 7746   1.422   1.469  17.403  0.1544  0.4410  0.2091
  521MPD2    H7 7747   1.357   1.541  17.433 -0.0510  0.5106 -0.3853
  522TMC3    C1 7748   2.104   1.260  17.346  0.1361 -0.6955 -0.5110
  522TMC3    C2 7749   2.217   1.240  17.429 -0.4444 -0.3921 -0.1068
  522TMC3    C3 7750   2.313   1.150  17.382  0.1583  0.2024  0.6169
  522TMC3    C4 7751   2.082   1.184  17.233 -0.2458  0.0440 -0.4251
  522TMC3    C5 7752   2.175   1.092  17.200 -0.0412 -0.2656  0.4303
  522TMC3    C6 7753   2.290   1.070  17.272 -0.6271 -0.2677  0.0615
  522TMC3     C 7754   2.026   1.382  17.369 -0.2402  0.4528  0.1905
  522TMC3     O 7755   2.088   1.470  17.425  0.0153 -1.0213 -0.3361
  522TMC3     H 7756   2.241   1.309  17.508 -0.2447 -0.0550 -0.4603
  522TMC3    H1 7757   1.994   1.209  17.174 -1.1440  0.7943  1.2256
  522TMC3    H2 7758   2.373   1.023  17.220  0.9852  3.2022 -0.4791
  522TMC3    C7 7759   2.165   1.015  17.083 -0.2328 -0.6657 -0.4879
  522TMC3    C8 7760   2.443   1.176  17.435  0.4987  0.3462  0.5305
  522TMC3    O1 7761   2.209   0.904  17.092  0.1778  0.0667 -0.1299
  522TMC3    O2 7762   2.472   1.288  17.475 -0.2233 -0.4193  0.3675
  523MPD2     C 7763   4.333   0.698   9.937 -0.0886  0.4260 -0.5991
  523MPD2    C1 7764   4.255   0.592   9.913 -0.3032  0.4398 -0.0312
  523MPD2    C2 7765   4.146   0.612   9.821 -0.1392  0.5123  0.8714
  523MPD2    C3 7766   4.116   0.734   9.753 -0.3986 -0.5786 -0.0016
  523MPD2    C4 7767   4.194   0.838   9.795  0.0351  0.6185  0.3570
  523MPD2    C5 7768   4.296   0.821   9.886  0.5275 -0.3004 -0.4945
  523MPD2     H 7769   4.078   0.533   9.794 -0.9522  1.9361 -1.2983
  523MPD2    H1 7770   4.171   0.943   9.776 -0.3683  0.4005 -0.3373
  523MPD2    H2 7771   4.423   0.695   9.997 -0.6139  0.7897  0.2034
  523MPD2    H3 7772   4.348   0.908   9.926  0.4103  0.3994 -1.8924
  523MPD2     N 7773   4.018   0.759   9.653  0.0304 -0.2138 -0.0664
  523MPD2    H5 7774   4.004   0.852   9.614  3.4499 -0.8491 -2.8420
  523MPD2    N1 7775   4.277   0.465   9.982  0.4565  0.2976 -0.0224
  523MPD2    H7 7776   4.357   0.469  10.044  0.7375  0.2327 -0.3853
  524TMC3    C1 7777   3.844   0.712   9.498  0.1362 -0.1334  0.3269
  524TMC3    C2 7778   3.769   0.619   9.431  0.8558 -0.2248  0.0831
  524TMC3    C3 7779   3.643   0.667   9.381 -0.1363 -0.0423  0.2733
  524TMC3    C4 7780   3.806   0.842   9.514 -0.6845  0.4721 -0.2480
  524TMC3    C5 7781   3.693   0.886   9.450  0.7777  0.1144  0.5257
  524TMC3    C6 7782   3.606   0.802   9.378 -0.2136 -0.1762 -0.0609
  524TMC3     C 7783   3.948   0.664   9.589 -0.2994  0.2078 -0.9240
  524TMC3     O 7784   3.954   0.545   9.603 -0.1667 -0.2352 -0.1999
  524TMC3     H 7785   3.783   0.513   9.444 -3.4851 -0.9663 -1.1460
  524TMC3    H1 7786   3.843   0.916   9.585 -0.7626 -0.5714  0.8698
  524TMC3    H2 7787   3.515   0.844   9.337 -0.9840  0.4379  2.3125
  524TMC3    C7 7788   3.646   1.024   9.460 -0.3901 -0.6618 -0.7508
  524TMC3    C8 7789   3.569   0.573   9.303  0.7322  0.0800  0.0399
  524TMC3    O1 7790   3.525   1.053   9.440  0.4372  0.0118 -0.7026
  524TMC3    O2 7791   3.633   0.482   9.255  0.4303 -0.0398  0.1849
  525MPD2     C 7792   2.199   2.339  14.460 -0.0048  0.3563 -0.1589
  525MPD2    C1 7793   2.318   2.324  14.525  0.6440 -0.3619 -0.7135
  525MPD2    C2 7794   2.432   2.376  14.467  0.3611 -0.3754  0.5974
  525MPD2    C3 7795   2.425   2.446  14.350  0.1620 -0.0524  0.1840
  525MPD2    C4 7796   2.306   2.450  14.283 -0.0687  0.1061  0.2774
  525MPD2    C5 7797   2.189   2.403  14.340  0.3797  0.4960  0.0992
  525MPD2     H 7798   2.525   2.382  14.522  0.2502  0.4570  0.6947
  525MPD2    H1 7799   2.312   2.506  14.191 -0.7084 -0.7203 -0.2588
  525MPD2    H2 7800   2.110   2.301  14.507 -0.8419  3.6180  0.8803
  525MPD2    H3 7801   2.091   2.419  14.296  0.5416  1.8225  0.2009
  525MPD2     N 7802   2.531   2.525  14.304  0.4890  0.1107  0.6493
  525MPD2    H5 7803   2.510   2.598  14.235  1.1304 -0.6026 -0.2969
  525MPD2    N1 7804   2.322   2.266  14.655  0.5650  0.6381  0.5478
  525MPD2    H7 7805   2.414   2.244  14.691  1.4277  0.1053 -2.0299
  526TMC3    C1 7806   2.256   2.171  14.863 -1.2411 -0.1680 -0.7275
  526TMC3    C2 7807   2.173   2.175  14.969 -0.3747  0.5939  0.0753
  526TMC3    C3 7808   2.219   2.115  15.083  0.7692  0.1697  0.5515
  526TMC3    C4 7809   2.374   2.104  14.866 -0.3000  0.1288  0.0798
  526TMC3    C5 7810   2.410   2.038  14.983  0.3798 -0.4851 -0.2082
  526TMC3    C6 7811   2.338   2.046  15.096 -0.1879 -0.2137  0.1474
  526TMC3     C 7812   2.218   2.239  14.737 -0.8214  0.5701 -0.1108
  526TMC3     O 7813   2.098   2.267  14.729 -0.1919  0.3000  0.6977
  526TMC3     H 7814   2.085   2.237  14.953 -0.9175 -0.0903  0.4544
  526TMC3    H1 7815   2.414   2.078  14.768  2.1969  3.2820  0.2516
  526TMC3    H2 7816   2.351   1.971  15.173 -0.2979 -0.8072 -0.4197
  526TMC3    C7 7817   2.531   1.958  14.985 -0.4111 -0.3924  0.4003
  526TMC3    C8 7818   2.142   2.141  15.200  0.4793  0.0811 -0.9241
  526TMC3    O1 7819   2.565   1.915  15.096  0.0681 -0.5384  0.1226
  526TMC3    O2 7820   2.195   2.130  15.309 -0.0434  0.2454 -0.1945
  527MPD2     C 7821   0.297   1.269   1.472 -0.7381 -0.2239 -0.3119
  527MPD2    C1 7822   0.345   1.156   1.529 -0.4104 -0.2553  0.2713
  527MPD2    C2 7823   0.445   1.081   1.467  0.4304  0.4470 -0.7738
  527MPD2    C3 7824   0.497   1.124   1.348 -0.1522  0.0876 -0.0854
  527MPD2    C4 7825   0.454   1.250   1.300  0.3979 -0.0362  0.1569
  527MPD2    C5 7826   0.353   1.319   1.360 -0.0577  0.6613 -0.2041
  527MPD2     H 7827   0.466   0.983   1.506 -1.5632  1.1079  1.9432
  527MPD2    H1 7828   0.483   1.288   1.203  3.7333  2.8015  2.2726
  527MPD2    H2 7829   0.212   1.323   1.513  1.0390  0.7819  2.0492
  527MPD2    H3 7830   0.305   1.401   1.308  0.0734  0.6891 -0.2799
  527MPD2     N 7831   0.584   1.026   1.280  0.0695  0.6127 -0.3569
  527MPD2    H5 7832   0.577   0.927   1.304 -1.0159  0.4771 -1.2221
  527MPD2    N1 7833   0.301   1.105   1.651 -0.3164 -0.1297  0.4864
  527MPD2    H7 7834   0.336   1.016   1.685 -3.0596 -1.9028 -1.2504
  528TMC3    C1 7835   0.220   1.103   1.864 -0.1399  0.3060  0.8999
  528TMC3    C2 7836   0.338   1.069   1.923 -0.7569 -0.7961 -0.4107
  528TMC3    C3 7837   0.327   1.000   2.041  0.5998  0.0078  0.3413
  528TMC3    C4 7838   0.096   1.057   1.893  0.3628 -0.1407  0.3003
  528TMC3    C5 7839   0.086   0.986   2.009  0.1575 -0.2559 -0.0764
  528TMC3    C6 7840   0.202   0.952   2.083 -0.7686 -0.3641 -0.7840
  528TMC3     C 7841   0.231   1.173   1.745  0.7175  0.0506 -0.4629
  528TMC3     O 7842   0.185   1.284   1.753  0.2199  0.1237 -0.2809
  528TMC3     H 7843   0.426   1.115   1.880  0.6992 -2.7287  0.5212
  528TMC3    H1 7844   0.010   1.094   1.838  1.1937  2.6189  0.8952
  528TMC3    H2 7845   0.197   0.878   2.161  2.2945 -1.5150 -1.7005
  528TMC3    C7 7846   4.690   0.914   2.042 -0.0422 -0.6229  0.3239
  528TMC3    C8 7847   0.457   0.981   2.114  0.2669  0.5044 -0.9576
  528TMC3    O1 7848   4.709   0.805   2.093 -0.4820 -0.1812  0.5436
  528TMC3    O2 7849   0.546   1.043   2.059  0.1330  0.5832 -0.7970
  529MPD2     C 7850   2.551   3.341   0.558 -0.1943 -0.2722  0.4851
  529MPD2    C1 7851   2.557   3.430   0.659  0.9411 -0.3522  0.2567
  529MPD2    C2 7852   2.549   3.567   0.634  0.3788 -0.0744 -0.0763
  529MPD2    C3 7853   2.543   3.614   0.500  0.1641 -0.0590  0.5302
  529MPD2    C4 7854   2.519   3.520   0.401 -0.5915 -0.2576 -0.3726
  529MPD2    C5 7855   2.533   3.384   0.431  0.4630 -0.3027  0.0879
  529MPD2     H 7856   2.543   3.641   0.713 -0.0131  0.8599 -0.9653
  529MPD2    H1 7857   2.492   3.541   0.298 -0.5487 -1.6396 -0.6724
  529MPD2    H2 7858   2.578   3.237   0.572 -0.1640 -0.3452 -0.1074
  529MPD2    H3 7859   2.521   3.314   0.349 -0.2801  0.8089 -0.7708
  529MPD2     N 7860   2.526   3.752   0.465  0.0162  0.0022 -0.2734
  529MPD2    H5 7861   2.494   3.771   0.370  0.9130 -1.2026 -0.8106
  529MPD2    N1 7862   2.586   3.392   0.797  0.4880  0.3207  0.1325
  529MPD2    H7 7863   2.591   3.467   0.865 -4.0027 -1.0513  1.9750
  530TMC3    C1 7864   2.603   3.259   0.990 -0.3068  0.5727  0.2078
  530TMC3    C2 7865   2.674   3.358   1.047  0.0755 -0.5077 -0.0510
  530TMC3    C3 7866   2.651   3.376   1.183 -0.2340  0.4567 -0.6207
  530TMC3    C4 7867   2.509   3.187   1.049  0.5801 -0.1975  0.9700
  530TMC3    C5 7868   2.485   3.199   1.184 -0.4397 -0.1618  0.4749
  530TMC3    C6 7869   2.559   3.294   1.253  0.4304 -0.4996 -0.1941
  530TMC3     C 7870   2.595   3.262   0.844  0.3304 -0.9194  0.3034
  530TMC3     O 7871   2.553   3.158   0.795  0.6630 -0.3141 -0.3300
  530TMC3     H 7872   2.746   3.417   0.991  0.3567  1.0321  1.8945
  530TMC3    H1 7873   2.454   3.107   1.000  0.5027 -1.0657  2.4893
  530TMC3    H2 7874   2.537   3.324   1.355 -1.7981  1.2281 -1.1899
  530TMC3    C7 7875   2.358   3.148   1.228  0.7795  0.4679  0.6318
  530TMC3    C8 7876   2.727   3.476   1.267  0.1789  0.7140  0.4020
  530TMC3    O1 7877   2.275   3.115   1.145 -0.3742  0.0072 -0.0535
  530TMC3    O2 7878   2.672   3.542   1.354 -0.5318 -0.4017 -0.5437
  531MPD2     C 7879   1.444   1.015  12.834 -0.2446 -0.2956 -0.1127
  531MPD2    C1 7880   1.364   1.062  12.932  0.1185 -0.5602  0.2485
  531MPD2    C2 7881   1.271   1.159  12.888  0.0903  0.0256  0.1471
  531MPD2    C3 7882   1.243   1.181  12.754 -0.1113  0.2405 -0.9102
  531MPD2    C4 7883   1.313   1.109  12.658  0.5648 -0.0105 -0.0060
  531MPD2    C5 7884   1.421   1.037  12.696 -0.6333  0.0090  0.2185
  531MPD2     H 7885   1.214   1.214  12.962 -1.0356  0.9775 -1.3998
  531MPD2    H1 7886   1.296   1.118  12.552 -0.9207  0.1112  0.2398
  531MPD2    H2 7887   1.523   0.943  12.853  1.9202  1.6727 -1.6494
  531MPD2    H3 7888   1.481   0.984  12.624  0.9753  1.7544  0.2577
  531MPD2     N 7889   1.147   1.276  12.715  0.1816 -0.6462  0.4819
  531MPD2    H5 7890   1.150   1.292  12.615 -0.2303  2.0492  0.8972
  531MPD2    N1 7891   1.396   1.038  13.067 -0.3987 -0.5422  0.2293
  531MPD2    H7 7892   1.477   0.980  13.081  0.3027  0.5632  0.7940
  532TMC3    C1 7893   1.386   1.076  13.297 -0.0752  0.5947  0.3769
  532TMC3    C2 7894   1.309   1.113  13.400 -0.8071  0.0396  0.3950
  532TMC3    C3 7895   1.360   1.187  13.506  0.0635  0.1085 -0.1157
  532TMC3    C4 7896   1.521   1.072  13.309 -0.1438  0.0614  0.6860
  532TMC3    C5 7897   1.575   1.144  13.414 -0.0749  0.1696  0.0699
  532TMC3    C6 7898   1.499   1.200  13.515 -0.0943  0.0054 -0.6835
  532TMC3     C 7899   1.326   1.085  13.169  0.2345 -0.0549 -0.5625
  532TMC3     O 7900   1.216   1.143  13.170 -0.0784  0.4418  0.1855
  532TMC3     H 7901   1.203   1.091  13.394 -0.5885 -0.6899 -0.6578
  532TMC3    H1 7902   1.581   1.055  13.220  0.5427  0.5979  1.0527
  532TMC3    H2 7903   1.548   1.242  13.602  1.8809 -2.5656 -0.5495
  532TMC3    C7 7904   1.710   1.106  13.444  0.2060 -0.0321  0.0563
  532TMC3    C8 7905   1.286   1.311  13.519 -0.6576  0.1888  0.0234
  532TMC3    O1 7906   1.762   1.150  13.544 -0.4490  0.0274  0.1859
  532TMC3    O2 7907   1.300   1.376  13.618 -0.2578  1.2052  0.4525
  533TMC3    C1 7908   2.700   2.672  14.373 -0.1588  0.7241 -0.9577
  533TMC3    C2 7909   2.830   2.672  14.404  0.2087  0.0952 -0.5526
  533TMC3    C3 7910   2.868   2.760  14.504  0.3696 -0.0776  0.5943
  533TMC3    C4 7911   2.606   2.753  14.425  0.7676 -0.9500  0.0898
  533TMC3    C5 7912   2.649   2.844  14.520 -0.2095 -0.3802 -0.4424
  533TMC3    C6 7913   2.777   2.849  14.562 -0.1936 -0.2721 -0.2635
  533TMC3     C 7914   2.650   2.534  14.367  0.9089  0.5962 -0.1836
  533TMC3     O 7915   2.720   2.449  14.415 -0.7967  0.3145 -0.2926
  533TMC3     H 7916   2.897   2.596  14.365 -0.8211 -1.5000  0.7692
  533TMC3    H1 7917   2.503   2.753  14.392  0.4892 -0.3332  0.9532
  533TMC3    H2 7918   2.809   2.920  14.638  1.3687 -0.3326 -0.8648
  533TMC3    C7 7919   2.543   2.861  14.615 -0.3314  0.4311  0.5652
  533TMC3    C8 7920   2.993   2.824  14.498  0.0416 -0.3945  0.1224
  533TMC3    O1 7921   2.470   2.762  14.637 -0.0902 -0.3287 -0.7016
  533TMC3    O2 7922   2.980   2.944  14.508  0.2427  0.0428  0.1766
  534MPD2     C 7923   0.308   4.185   1.875 -0.0636  0.6891  0.2395
  534MPD2    C1 7924   0.218   4.283   1.855 -1.0641 -0.0921  0.0939
  534MPD2    C2 7925   0.121   4.272   1.761  0.4254 -0.3735 -0.6533
  534MPD2    C3 7926   0.119   4.168   1.677 -0.4945  0.0950 -0.0971
  534MPD2    C4 7927   0.215   4.063   1.688  0.4503  0.0347  0.5738
  534MPD2    C5 7928   0.309   4.083   1.786 -0.8157  0.1078 -0.7155
  534MPD2     H 7929   0.057   4.360   1.759  1.8051  0.6157 -1.1029
  534MPD2    H1 7930   0.213   3.975   1.625 -0.5413  0.9176 -0.6271
  534MPD2    H2 7931   0.382   4.186   1.954  1.1643 -0.5386 -0.9000
  534MPD2    H3 7932   0.382   4.004   1.796  0.3080  1.4232  1.3989
  534MPD2     N 7933   0.025   4.155   1.569 -0.2347 -0.0916 -0.0387
  534MPD2    H5 7934   0.031   4.075   1.507  1.2275 -0.4074  0.4993
  534MPD2    N1 7935   0.224   4.403   1.921  0.2019  0.4669 -0.5171
  534MPD2    H7 7936   0.146   4.468   1.928 -0.5094 -0.2454 -1.7766
  535TMC3    C1 7937   4.574   4.221   1.425 -0.1844 -0.8201 -0.1076
  535TMC3    C2 7938   4.437   4.260   1.428 -0.4519 -0.7438  1.0574
  535TMC3    C3 7939   4.381   4.283   1.305 -0.1844  0.6550 -0.5796
  535TMC3    C4 7940   4.645   4.198   1.316  0.0355  0.7172  0.1681
  535TMC3    C5 7941   4.566   4.199   1.205  0.3362 -0.7966  0.4543
  535TMC3    C6 7942   4.442   4.241   1.192 -0.3127 -0.0795 -0.5092
  535TMC3     C 7943   4.642   4.244   1.549 -0.0960 -0.2435  0.3230
  535TMC3     O 7944   4.595   4.332   1.622 -0.5095  0.1782  0.0812
  535TMC3     H 7945   4.390   4.286   1.522  2.2014  1.7927  1.6958
  535TMC3    H1 7946   0.023   4.159   1.304  0.5396  2.2376 -0.5344
  535TMC3    H2 7947   4.401   4.248   1.092  0.6478  0.4624 -0.8555
  535TMC3    C7 7948   4.649   4.231   1.094 -0.8261  0.4923 -0.6282
  535TMC3    C8 7949   4.233   4.279   1.284  0.0693  0.0620  0.6812
  535TMC3    O1 7950   4.722   4.150   1.046 -0.1710  0.8322 -0.2014
  535TMC3    O2 7951   4.189   4.205   1.197  0.2838 -0.1910  0.1377
  536MPD2     C 7952   3.923   2.270  16.255  0.0153 -0.3895 -0.3640
  536MPD2    C1 7953   3.796   2.223  16.306 -0.2139 -0.5519 -0.4593
  536MPD2    C2 7954   3.687   2.232  16.228  0.0697  1.1889  0.6164
  536MPD2    C3 7955   3.696   2.282  16.096 -0.3225  0.2388 -0.2336
  536MPD2    C4 7956   3.820   2.324  16.049 -0.0982  1.4830  0.1081
  536MPD2    C5 7957   3.930   2.326  16.134  0.1619  0.9172 -0.6605
  536MPD2     H 7958   3.588   2.202  16.261 -0.6816  1.8142 -1.0734
  536MPD2    H1 7959   3.831   2.367  15.950 -1.5486  0.7348 -0.3827
  536MPD2    H2 7960   4.015   2.266  16.312  0.7171 -2.1475 -1.6436
  536MPD2    H3 7961   4.021   2.360  16.086  0.1085 -0.3277 -1.6421
  536MPD2     N 7962   3.583   2.303  16.011  0.2496  0.2935  0.2156
  536MPD2    H5 7963   3.606   2.349  15.924 -0.3380 -0.9621 -0.6042
  536MPD2    N1 7964   3.789   2.186  16.439  0.3125  0.1686 -0.7884
  536MPD2    H7 7965   3.875   2.192  16.493 -0.6540  0.0380  0.7703
  537TMC3    C1 7966   3.701   2.135  16.650  0.5365 -0.2264  0.1890
  537TMC3    C2 7967   3.692   2.254  16.719  0.1410 -0.3454  0.0394
  537TMC3    C3 7968   3.652   2.264  16.851 -0.1833 -0.0973 -0.0009
  537TMC3    C4 7969   3.670   2.021  16.715 -0.7208 -0.1157 -0.3111
  537TMC3    C5 7970   3.634   2.030  16.850  0.3012 -0.2038  0.3522
  537TMC3    C6 7971   3.625   2.148  16.922  0.3251  0.7774  0.1180
  537TMC3     C 7972   3.678   2.138  16.504  0.5818  0.0475 -0.6512
  537TMC3     O 7973   3.564   2.146  16.463 -0.0591 -0.0045 -0.0792
  537TMC3     H 7974   3.715   2.350  16.673  0.9016 -0.2357  0.6513
  537TMC3    H1 7975   3.646   1.927  16.666 -0.8724  0.9614 -2.2619
  537TMC3    H2 7976   3.603   2.153  17.028 -2.0737  0.9191 -0.3850
  537TMC3    C7 7977   3.554   1.921  16.907  0.4804 -0.3738 -0.2415
  537TMC3    C8 7978   3.660   2.394  16.928 -0.5215 -0.1285  0.0248
  537TMC3    O1 7979   3.486   1.863  16.826  0.3307  0.3579  0.7947
  537TMC3    O2 7980   3.688   2.388  17.047  0.7545  0.1248 -0.4888
  538TMC3    C1 7981   0.021   0.611  10.749 -0.1084 -0.3712 -0.3697
  538TMC3    C2 7982   0.154   0.621  10.767  0.2485  0.2701  0.1458
  538TMC3    C3 7983   0.215   0.746  10.805 -0.1656 -0.0540  0.0089
  538TMC3    C4 7984   4.668   0.725  10.754  0.1219 -0.2708 -0.0146
  538TMC3    C5 7985   0.005   0.842  10.789 -0.2199 -0.3930 -0.0852
  538TMC3    C6 7986   0.140   0.859  10.810 -1.2307 -1.3607  0.0164
  538TMC3     C 7987   4.677   0.488  10.796  0.4823  0.1747 -0.0683
  538TMC3     O 7988   4.559   0.496  10.769  0.3928 -0.9555 -0.4803
  538TMC3     H 7989   0.219   0.535  10.778 -0.8933 -0.6837 -0.6471
  538TMC3    H1 7990   4.560   0.728  10.743 -0.0333 -1.9354  0.9456
  538TMC3    H2 7991   0.184   0.955  10.834 -0.3574 -2.3432  2.4237
  538TMC3    C7 7992   4.651   0.912  10.879 -1.1224  0.0064 -0.0873
  538TMC3    C8 7993   0.308   0.740  10.919  0.0128 -0.1030  0.1408
  538TMC3    O1 7994   4.534   0.939  10.852  0.5601  0.0954 -0.0846
  538TMC3    O2 7995   0.260   0.785  11.020  0.4635 -0.4630 -0.0173
  539MPD2     C 7996   4.347   4.461  11.809  0.0688 -0.0845 -0.6680
  539MPD2    C1 7997   4.450   4.474  11.721  0.1791  0.3687  0.8624
  539MPD2    C2 7998   4.515   4.599  11.706  0.0486  0.2398 -0.3499
  539MPD2    C3 7999   4.477   4.709  11.776  0.3383  0.4689 -0.4152
  539MPD2    C4 8000   4.390   4.686  11.882  0.0091  0.3931 -0.3316
  539MPD2    C5 8001   4.328   4.562  11.899  0.1035  0.4342  0.6434
  539MPD2     H 8002   4.580   4.615  11.621  0.4625  0.6763  0.0541
  539MPD2    H1 8003   4.369   0.043  11.953 -2.4010 -1.3735  0.9640
  539MPD2    H2 8004   4.306   4.364  11.833 -0.5771  0.3283 -0.0722
  539MPD2    H3 8005   4.265   4.560  11.987  0.6120 -2.8393  0.9405
  539MPD2     N 8006   4.518   0.115  11.746  0.3622  0.2938  0.4250
  539MPD2    H5 8007   4.502   0.190  11.813 -2.9352  0.4024 -0.5115
  539MPD2    N1 8008   4.499   4.376  11.632  0.2286  0.5356 -0.0662
  539MPD2    H7 8009   4.581   4.399  11.576  0.1570 -1.8712 -1.1800
  540TMC3    C1 8010   4.591   0.300  11.618  0.4638  0.5686  0.4645
  540TMC3    C2 8011   4.503   0.354  11.527 -0.2929  0.4115  0.8226
  540TMC3    C3 8012   4.453   0.474  11.557 -0.0831  0.4232  0.9770
  540TMC3    C4 8013   4.614   0.354  11.741 -0.3907 -0.3081  1.1369
  540TMC3    C5 8014   4.552   0.474  11.775  0.0315  0.0611  0.1530
  540TMC3    C6 8015   4.470   0.531  11.682 -0.2955 -0.0883  0.1035
  540TMC3     C 8016   4.587   0.161  11.628 -0.1497  0.3830  0.6706
  540TMC3     O 8017   4.617   0.096  11.527 -0.0643  0.3149  0.1045
  540TMC3     H 8018   4.491   0.309  11.429  0.9704 -0.5416  1.1054
  540TMC3    H1 8019   4.670   0.293  11.810  0.9004  0.5904  0.8765
  540TMC3    H2 8020   4.400   0.610  11.709 -2.2273 -2.0732  0.9190
  540TMC3    C7 8021   4.531   0.485  11.919  0.0353 -0.4017 -0.3753
  540TMC3    C8 8022   4.394   0.562  11.456 -0.2047  0.1486 -0.0790
  540TMC3    O1 8023   4.545   0.380  11.982 -0.2982  0.1948  0.1870
  540TMC3    O2 8024   4.440   0.672  11.447  0.1394  0.0746  0.5769
  541MPD2     C 8025   2.863   1.755  13.123  0.2887  0.0341  0.1110
  541MPD2    C1 8026   2.966   1.691  13.061 -0.1388  1.1313 -0.6310
  541MPD2    C2 8027   2.991   1.720  12.929  0.3513 -0.3420  0.3794
  541MPD2    C3 8028   2.906   1.808  12.862  0.8086  0.1163  0.6717
  541MPD2    C4 8029   2.796   1.859  12.932 -0.0827  0.7178 -0.0284
  541MPD2    C5 8030   2.770   1.835  13.059 -0.2452 -0.1248  0.1927
  541MPD2     H 8031   3.061   1.673  12.861 -0.5133 -3.4461  1.6069
  541MPD2    H1 8032   2.726   1.927  12.885 -3.4171  0.3196  4.4322
  541MPD2    H2 8033   2.841   1.732  13.227  0.3479 -1.8084 -0.2754
  541MPD2    H3 8034   2.692   1.886  13.114 -0.3946 -1.4891  1.2253
  541MPD2     N 8035   2.922   1.854  12.723 -0.0595 -0.1947 -0.0367
  541MPD2    H5 8036   2.862   1.927  12.684 -1.4931 -1.0524  0.5484
  541MPD2    N1 8037   3.036   1.594  13.135  0.4468 -0.4278 -0.8821
  541MPD2    H7 8038   2.989   1.565  13.220  0.5052  1.1835 -0.2931
  542TMC3    C1 8039   3.001   1.839  12.499  0.5619  0.2325  0.0749
  542TMC3    C2 8040   3.048   1.748  12.413 -0.1372  0.6082  0.1051
  542TMC3    C3 8041   2.992   1.745  12.289  0.3036  1.3134  0.1246
  542TMC3    C4 8042   2.900   1.926  12.461 -1.0783 -0.5368 -0.5549
  542TMC3    C5 8043   2.848   1.922  12.334  0.0860  0.4148 -0.0724
  542TMC3    C6 8044   2.888   1.831  12.240  0.0144  0.2753  0.6815
  542TMC3     C 8045   3.024   1.817  12.639  0.5649  0.0206 -0.1127
  542TMC3     O 8046   3.116   1.740  12.666 -0.2691 -0.2962  0.2950
  542TMC3     H 8047   3.124   1.677  12.443  1.1826  2.0929  0.2911
  542TMC3    H1 8048   2.873   2.007  12.528  1.2595  1.4477 -2.0507
  542TMC3    H2 8049   2.854   1.824  12.137 -0.9668 -0.2819  1.0472
  542TMC3    C7 8050   2.781   2.041  12.293  0.3970 -0.2943  0.6651
  542TMC3    C8 8051   3.029   1.636  12.202 -0.0032  0.1281 -0.4528
  542TMC3    O1 8052   2.779   2.128  12.380 -0.3074  0.0683 -0.2500
  542TMC3    O2 8053   3.019   1.653  12.083 -0.4149 -0.0329  0.2285
  543TMC3    C1 8054   2.428   3.375  17.150  0.7166  0.2657 -0.2817
  543TMC3    C2 8055   2.368   3.313  17.256  0.1797  0.0736 -0.1870
  543TMC3    C3 8056   2.345   3.396  17.363  0.3011 -0.1948 -0.6578
  543TMC3    C4 8057   2.460   3.506  17.140  0.5749 -0.0652 -0.0949
  543TMC3    C5 8058   2.448   3.579  17.254 -0.0796 -0.4968 -0.6631
  543TMC3    C6 8059   2.389   3.527  17.361  0.3504  0.3641  0.5203
  543TMC3     C 8060   2.457   3.291  17.033 -0.1825  0.3819  0.7700
  543TMC3     O 8061   2.472   3.171  17.052 -0.4662 -0.1312  0.2072
  543TMC3     H 8062   2.331   3.211  17.245  1.5042 -0.4184 -0.0943
  543TMC3    H1 8063   2.518   3.540  17.055 -0.3332  1.6747 -0.0072
  543TMC3    H2 8064   2.360   3.591  17.444  0.1817  2.1926 -0.9482
  543TMC3    C7 8065   2.521   3.701  17.256 -0.2273  0.5903 -0.8777
  543TMC3    C8 8066   2.310   3.331  17.487  0.2220  0.3038  0.3088
  543TMC3    O1 8067   2.530   3.754  17.149 -0.5139  0.2242 -0.0515
  543TMC3    O2 8068   2.227   3.389  17.560 -0.3522  0.0438 -0.4964
  544MPD2     C 8069   2.281   2.917   0.085  0.5392  0.2011  0.6521
  544MPD2    C1 8070   2.356   2.882  17.669 -0.1227  0.9052 -0.5337
  544MPD2    C2 8071   2.385   2.983  17.576  0.1576  0.1903  0.3045
  544MPD2    C3 8072   2.327   3.105  17.588  0.3270  0.1709  0.1226
  544MPD2    C4 8073   2.248   3.133   0.002  0.1669 -0.2925  0.4154
  544MPD2    C5 8074   2.227   3.042   0.094  0.1502  0.3890 -0.0725
  544MPD2     H 8075   2.439   2.965  17.484 -0.3237 -1.0832  0.2685
  544MPD2    H1 8076   2.212   3.233   0.026  1.7325  1.1467 -3.2084
  544MPD2    H2 8077   2.280   2.848   0.169  0.2895 -1.2035 -0.5165
  544MPD2    H3 8078   2.177   3.082   0.181 -1.9184 -0.3961 -0.9039
  544MPD2     N 8079   2.353   3.203  17.491  0.5426  0.4900  0.5313
  544MPD2    H5 8080   2.422   3.174  17.423  0.8433 -3.7195  2.6375
  544MPD2    N1 8081   2.406   2.751  17.667 -0.3151 -0.5439  0.5253
  544MPD2    H7 8082   2.390   2.705   0.062  0.8125  1.0432  1.5364
  545TMC3    C1 8083   2.530   2.552  17.620 -1.1366 -0.6958  0.3622
  545TMC3    C2 8084   2.646   2.512  17.567  0.0953 -1.1955  0.2755
  545TMC3    C3 8085   2.698   2.397  17.618  0.2670 -0.2851 -0.0187
  545TMC3    C4 8086   2.471   2.502   0.040  0.2399 -0.3042 -0.1847
  545TMC3    C5 8087   2.521   2.377   0.070  0.5723 -0.1476 -0.1663
  545TMC3    C6 8088   2.639   2.319   0.023  0.7563  0.1612 -0.3643
  545TMC3     C 8089   2.478   2.675  17.571 -0.5797 -0.0822  0.3593
  545TMC3     O 8090   2.517   2.714  17.463  0.3627 -0.1781 -0.5064
  545TMC3     H 8091   2.682   2.551  17.473  1.4491 -1.6860  0.5846
  545TMC3    H1 8092   2.371   2.531   0.071  1.0130  1.8678  0.3075
  545TMC3    H2 8093   2.655   2.211   0.021  2.8582  0.4849 -0.0486
  545TMC3    C7 8094   2.464   2.323   0.196  0.4599  0.2915 -0.2237
  545TMC3    C8 8095   2.789   2.326  17.539  0.3380  0.6478 -0.1601
  545TMC3    O1 8096   2.357   2.375   0.226  0.4051 -0.2253  0.1012
  545TMC3    O2 8097   2.780   2.352  17.418  0.2263 -0.3738 -1.1032
  546MPD2     C 8098   3.403   3.212  17.617 -0.1022  0.1936 -0.0550
  546MPD2    C1 8099   3.417   3.165  17.488 -0.0146 -0.2408 -0.1729
  546MPD2    C2 8100   3.470   3.257  17.398 -0.5548 -0.3237 -0.1394
  546MPD2    C3 8101   3.502   3.389  17.436  0.9264  0.0861 -0.4780
  546MPD2    C4 8102   3.484   3.431  17.565 -1.0536 -0.3012 -0.0896
  546MPD2    C5 8103   3.439   3.338  17.653 -0.7382  0.3798 -0.3187
  546MPD2     H 8104   3.500   3.227  17.299 -1.1229  1.0081 -0.7260
  546MPD2    H1 8105   3.523   3.522  17.607 -1.0809  0.7517 -2.3282
  546MPD2    H2 8106   3.363   3.147   0.000 -4.7866  1.6906 -1.2095
  546MPD2    H3 8107   3.416   3.363   0.063 -3.4294  0.8563 -1.0424
  546MPD2     N 8108   3.554   3.483  17.348 -1.1175  0.2917 -0.0043
  546MPD2    H5 8109   3.557   3.576  17.388 -0.2346 -0.4874  1.7500
  546MPD2    N1 8110   3.387   3.031  17.454  0.1672  0.5937 -0.6388
  546MPD2    H7 8111   3.343   2.974  17.525 -0.5854 -0.3045 -1.8265
  547TMC3    C1 8112   3.352   2.840  17.324  0.2194 -0.7129  0.1956
  547TMC3    C2 8113   3.332   2.798  17.195  0.5617  0.3527 -0.4827
  547TMC3    C3 8114   3.370   2.672  17.166 -0.6804  1.1103 -0.1791
  547TMC3    C4 8115   3.407   2.759  17.424 -0.4202  0.1710  0.4447
  547TMC3    C5 8116   3.454   2.638  17.385 -0.1437 -0.3286  0.4902
  547TMC3    C6 8117   3.421   2.588  17.259 -0.0923  0.3452 -0.6591
  547TMC3     C 8118   3.396   2.978  17.323 -0.2696 -0.3285  0.6203
  547TMC3     O 8119   3.425   3.027  17.216  0.1857  0.3003 -0.2002
  547TMC3     H 8120   3.300   2.862  17.114 -4.2773  0.4476  1.4843
  547TMC3    H1 8121   3.424   2.806  17.520  3.9954 -1.9902  0.7484
  547TMC3    H2 8122   3.468   2.495  17.228 -0.8290 -0.8593  1.7997
  547TMC3    C7 8123   3.557   2.577  17.470 -0.0329  0.5902 -0.4875
  547TMC3    C8 8124   3.307   2.612  17.049  0.6635 -0.8715 -0.3963
  547TMC3    O1 8125   3.547   2.604  17.589 -0.3868  0.6539 -0.2827
  547TMC3    O2 8126   3.272   2.687  16.957  0.1675  0.5499  0.1941
  548MPD2     C 8127   3.535   2.864  12.158  0.6229 -0.5721  0.2795
  548MPD2    C1 8128   3.569   2.831  12.286 -0.1892  0.0047  0.2769
  548MPD2    C2 8129   3.685   2.760  12.304 -0.0044 -0.1303  0.2545
  548MPD2    C3 8130   3.748   2.695  12.207  0.2987 -0.2173  0.4570
  548MPD2    C4 8131   3.704   2.720  12.077 -0.1696  0.0670  0.6205
  548MPD2    C5 8132   3.598   2.805  12.054  0.1344 -0.3038  0.4480
  548MPD2     H 8133   3.722   2.744  12.405  0.7670  1.4359  0.2190
  548MPD2    H1 8134   3.758   2.679  11.993 -0.4547  1.4542 -0.2423
  548MPD2    H2 8135   3.450   2.927  12.134 -0.0128 -2.0142 -1.2696
  548MPD2    H3 8136   3.566   2.815  11.951 -1.1093  1.4976  1.0135
  548MPD2     N 8137   3.865   2.612  12.235  0.1512 -0.1705 -0.3124
  548MPD2    H5 8138   3.892   2.613  12.333 -0.3690  2.3905 -0.2147
  548MPD2    N1 8139   3.485   2.877  12.389 -0.2158  0.0957  0.0325
  548MPD2    H7 8140   3.408   2.938  12.366 -0.4226  1.1947  3.5876
  549TMC3    C1 8141   3.395   2.873  12.609  0.5871  0.6689  0.4028
  549TMC3    C2 8142   3.321   2.980  12.581 -0.2234 -0.3615  0.4843
  549TMC3    C3 8143   3.223   3.012  12.671  0.3290  0.6600  0.6886
  549TMC3    C4 8144   3.359   2.780  12.705 -0.4622  0.0534  0.1597
  549TMC3    C5 8145   3.261   2.817  12.798 -0.4415 -0.1373 -0.3142
  549TMC3    C6 8146   3.193   2.938  12.782  0.1088 -0.1216 -0.5512
  549TMC3     C 8147   3.496   2.829  12.518  0.3522  0.1886  0.6349
  549TMC3     O 8148   3.565   2.743  12.563  0.2781 -0.4648  0.1155
  549TMC3     H 8149   3.346   3.054  12.506 -0.6294 -1.9814 -1.2532
  549TMC3    H1 8150   3.413   2.687  12.715  1.2311  0.9892 -0.2738
  549TMC3    H2 8151   3.123   2.971  12.857  1.3619 -0.6481  0.8559
  549TMC3    C7 8152   3.250   2.746  12.922  0.6148  0.3698  0.9394
  549TMC3    C8 8153   3.147   3.133  12.648 -0.2604 -0.0191 -0.2919
  549TMC3    O1 8154   3.190   2.810  13.010  0.3163 -0.0847  0.6221
  549TMC3    O2 8155   3.025   3.127  12.651 -0.3669  0.2442 -0.6000
  550TMC3    C1 8156   2.682   1.101  12.515  0.3702 -0.2360 -0.5971
  550TMC3    C2 8157   2.710   1.147  12.638 -0.8364  0.3250  0.6061
  550TMC3    C3 8158   2.672   1.274  12.663  0.8301  0.1390  0.4025
  550TMC3    C4 8159   2.631   1.175  12.414  0.0615 -0.9748 -0.2934
  550TMC3    C5 8160   2.597   1.302  12.448 -0.2809  0.5736  0.5536
  550TMC3    C6 8161   2.617   1.349  12.572  0.1881 -0.1506 -0.2073
  550TMC3     C 8162   2.737   0.967  12.481  0.2089  0.0388 -1.1349
  550TMC3     O 8163   2.819   0.917  12.557 -0.3339  0.2093  0.2823
  550TMC3     H 8164   2.743   1.077  12.714  0.7545 -0.2590 -0.6277
  550TMC3    H1 8165   2.601   1.137  12.317  0.5507  1.4540 -1.3923
  550TMC3    H2 8166   2.582   1.449  12.597  1.2589 -0.1657  1.3341
  550TMC3    C7 8167   2.485   1.363  12.366 -0.6984 -0.7279  0.0379
  550TMC3    C8 8168   2.599   1.295  12.788 -0.0697 -0.2426  0.3700
  550TMC3    O1 8169   2.479   1.337  12.242 -0.6023 -0.4522 -0.0132
  550TMC3    O2 8170   2.575   1.414  12.814 -0.2403  0.2197  0.2455
  551TMC3    C1 8171   0.087   3.544  13.367  0.1380 -0.3128 -0.3169
  551TMC3    C2 8172   0.178   3.544  13.267 -0.5860 -0.5606 -0.9361
  551TMC3    C3 8173   0.271   3.643  13.260  0.0834  0.3874  0.5913
  551TMC3    C4 8174   0.078   3.644  13.459  0.1566 -0.3102 -0.0936
  551TMC3    C5 8175   0.179   3.740  13.451 -0.6392  0.4499  0.8480
  551TMC3    C6 8176   0.268   3.750  13.345  0.4529 -0.1674 -0.1333
  551TMC3     C 8177   4.706   3.438  13.362  0.4217  0.0087 -0.1217
  551TMC3     O 8178   4.691   3.368  13.264  0.6951 -0.1748  0.2366
  551TMC3     H 8179   0.181   3.455  13.204  0.0106 -1.1739 -0.0374
  551TMC3    H1 8180   0.020   3.638  13.550  1.0357 -0.3922  0.4583
  551TMC3    H2 8181   0.333   3.837  13.339 -0.5871  0.5217 -1.5065
  551TMC3    C7 8182   0.223   3.808  13.580  0.9573  0.2189  0.4887
  551TMC3    C8 8183   0.337   3.647  13.130  0.3452 -0.3390 -0.6723
  551TMC3    O1 8184   0.153   3.778  13.674  0.2419  0.2013 -0.1125
  551TMC3    O2 8185   0.333   3.544  13.060  0.0504  0.2405 -0.7086
  552MPD2     C 8186   1.508   0.993  13.779 -0.1386  0.5494  0.1317
  552MPD2    C1 8187   1.636   0.947  13.756 -0.7459  0.0192  1.0427
  552MPD2    C2 8188   1.750   0.997  13.816  0.3910  0.1505 -0.3236
  552MPD2    C3 8189   1.738   1.084  13.919  0.0931 -0.2076 -0.5560
  552MPD2    C4 8190   1.612   1.135  13.938 -0.3499 -0.5651 -0.0968
  552MPD2    C5 8191   1.498   1.091  13.866  0.2301  0.6038  0.1379
  552MPD2     H 8192   1.844   0.948  13.793 -0.3296 -3.0895  3.7075
  552MPD2    H1 8193   1.588   1.212  14.011  0.3891 -1.3474  0.9890
  552MPD2    H2 8194   1.425   0.967  13.714 -0.4042  0.7013  0.4148
  552MPD2    H3 8195   1.403   1.138  13.885  1.0993  1.5925  2.0583
  552MPD2     N 8196   1.838   1.133  14.000  0.1164 -0.1306 -0.1594
  552MPD2    H5 8197   1.811   1.175  14.089 -1.7668 -3.0955  0.6627
  552MPD2    N1 8198   1.669   0.849  13.666 -0.4977 -0.1131  0.5924
  552MPD2    H7 8199   1.768   0.825  13.661 -0.1465  1.1940  1.1911
  553TMC3    C1 8200   1.639   0.671  13.521 -0.1282  0.4062  0.0477
  553TMC3    C2 8201   1.575   0.620  13.407 -0.3011  0.2511  0.5952
  553TMC3    C3 8202   1.630   0.508  13.351 -0.7134 -0.3266  0.5439
  553TMC3    C4 8203   1.757   0.615  13.573  0.0069 -0.1036 -0.7780
  553TMC3    C5 8204   1.807   0.500  13.512 -0.3604 -0.5259 -0.0432
  553TMC3    C6 8205   1.737   0.442  13.405  0.1616  0.1737  0.0744
  553TMC3     C 8206   1.581   0.781  13.587 -0.2761 -0.5356 -0.6186
  553TMC3     O 8207   1.462   0.804  13.561  0.0585 -0.2253  0.3468
  553TMC3     H 8208   1.483   0.656  13.363 -0.3270 -0.3435  0.1648
  553TMC3    H1 8209   1.817   0.661  13.651 -1.1701  1.0670 -0.5622
  553TMC3    H2 8210   1.767   0.349  13.358  0.2004  0.3732 -0.2903
  553TMC3    C7 8211   1.948   0.505  13.473  0.2768 -0.8033 -0.1046
  553TMC3    C8 8212   1.608   0.483  13.207  0.3365  0.0001 -0.2071
  553TMC3    O1 8213   1.979   0.435  13.381 -0.6394 -0.5458 -0.1335
  553TMC3    O2 8214   1.693   0.408  13.159 -0.1363  0.3038 -0.1862
  554TMC3    C1 8215   3.943   4.656  11.985 -0.3433 -0.2739 -0.0251
  554TMC3    C2 8216   3.871   4.604  11.878  0.5310  0.4183 -0.5920
  554TMC3    C3 8217   3.901   4.632  11.752 -0.0464  0.1148 -0.1442
  554TMC3    C4 8218   4.032   0.031  11.958  0.3165  0.7917  0.4511
  554TMC3    C5 8219   4.062   0.063  11.827  0.1288 -0.2108 -0.0633
  554TMC3    C6 8220   3.994   0.003  11.723 -0.6558  1.0387 -0.2965
  554TMC3     C 8221   3.971   4.567  12.094 -0.5964  0.5343  0.1682
  554TMC3     O 8222   3.902   4.462  12.092  0.3687 -0.9269  0.1918
  554TMC3     H 8223   3.805   4.521  11.900  0.7704 -0.1437 -2.0114
  554TMC3    H1 8224   4.090   0.075  12.038 -0.8285  1.0224  1.1425
  554TMC3    H2 8225   4.025   0.032  11.623  1.1279  1.8081  0.4921
  554TMC3    C7 8226   4.120   0.188  11.798  0.0022 -0.7037  0.1684
  554TMC3    C8 8227   3.795   4.635  11.652 -0.3917  0.3147 -0.3779
  554TMC3    O1 8228   4.160   0.205  11.681  0.0976  0.3806 -0.0093
  554TMC3    O2 8229   3.827   4.703  11.562  0.8281 -0.3764  0.3697
  555TMC3    C1 8230   2.718   4.386  14.921  0.9570 -0.6641 -0.7090
  555TMC3    C2 8231   2.672   4.482  15.009  0.0575 -0.3363 -0.6016
  555TMC3    C3 8232   2.589   4.439  15.116 -0.2162 -0.7734  0.0989
  555TMC3    C4 8233   2.699   4.255  14.954  0.4729 -0.2677 -0.3120
  555TMC3    C5 8234   2.628   4.220  15.065 -0.7756 -0.1479 -0.1879
  555TMC3    C6 8235   2.569   4.309  15.149 -0.0232  0.5649 -0.3986
  555TMC3     C 8236   2.780   4.422  14.799  0.3022 -0.2762 -0.4179
  555TMC3     O 8237   2.835   4.336  14.730 -0.2367  0.5802 -0.1395
  555TMC3     H 8238   2.699   4.586  14.990 -0.3572 -0.3858 -1.4359
  555TMC3    H1 8239   2.741   4.180  14.887 -0.6145 -0.2938 -0.9672
  555TMC3    H2 8240   2.500   4.285  15.229 -0.3252 -1.7341 -1.3411
  555TMC3    C7 8241   2.622   4.072  15.091  0.3105 -0.3523  0.5704
  555TMC3    C8 8242   2.516   4.532  15.197  0.3634 -0.6362  0.3016
  555TMC3    O1 8243   2.554   4.041  15.188 -0.0577 -0.3423  0.0891
  555TMC3    O2 8244   2.410   4.495  15.243 -0.1617  0.1617 -0.0872
  556MPD2     C 8245   1.665   1.013  11.137 -0.0680 -0.2630  0.1647
  556MPD2    C1 8246   1.548   0.967  11.196  0.4207  0.3761 -0.0938
  556MPD2    C2 8247   1.479   0.864  11.142 -0.1649 -0.4610  0.2143
  556MPD2    C3 8248   1.515   0.810  11.017 -0.7702  0.1660  0.1643
  556MPD2    C4 8249   1.617   0.874  10.947  0.3387  1.0537 -0.4822
  556MPD2    C5 8250   1.695   0.960  11.011 -0.5931 -0.0433  0.2730
  556MPD2     H 8251   1.399   0.814  11.195 -1.4543  0.8142 -0.5141
  556MPD2    H1 8252   1.655   0.846  10.850 -0.7423 -0.9193 -0.3409
  556MPD2    H2 8253   1.720   1.098  11.175  0.0215 -0.8931  1.4409
  556MPD2    H3 8254   1.784   0.993  10.958  0.9544 -1.0804  2.2173
  556MPD2     N 8255   1.447   0.705  10.945  0.4226  0.2830  0.3182
  556MPD2    H5 8256   1.459   0.706  10.844  0.5003  2.5959  0.3664
  556MPD2    N1 8257   1.492   1.022  11.318 -0.2806  0.5686  0.9628
  556MPD2    H7 8258   1.409   0.980  11.359  0.1233 -1.1177  0.0430
  557TMC3    C1 8259   1.294   0.525  10.907 -0.5123 -0.0449 -0.1784
  557TMC3    C2 8260   1.340   0.516  10.780 -0.7128  0.6680 -0.3227
  557TMC3    C3 8261   1.251   0.475  10.684  0.0692 -0.2456 -0.2879
  557TMC3    C4 8262   1.159   0.512  10.935 -0.6343  0.1869 -0.1915
  557TMC3    C5 8263   1.072   0.475  10.832  0.1849  0.1491 -0.4014
  557TMC3    C6 8264   1.114   0.462  10.707 -0.3871  0.1234 -0.5566
  557TMC3     C 8265   1.347   0.620  10.998 -0.3175  0.6232 -0.2416
  557TMC3     O 8266   1.303   0.630  11.110 -0.1489  0.3323 -0.1234
  557TMC3     H 8267   1.443   0.537  10.752  0.9358 -2.1001  3.5366
  557TMC3    H1 8268   1.118   0.514  11.035  0.4214 -0.5301  0.2540
  557TMC3    H2 8269   1.043   0.437  10.628 -1.8416  0.1827  0.7304
  557TMC3    C7 8270   0.935   0.516  10.850  0.5427 -0.1013 -0.0750
  557TMC3    C8 8271   1.300   0.479  10.552 -0.4869  0.4220 -0.6682
  557TMC3    O1 8272   0.861   0.471  10.764  0.1873 -0.0845  0.1851
  557TMC3    O2 8273   1.368   0.580  10.519 -0.0350 -0.0666 -0.2357
  558TMC3    C1 8274   3.371   3.626  10.175  0.2379 -0.3100 -0.6176
  558TMC3    C2 8275   3.270   3.621  10.263 -1.0218 -0.3939  1.2368
  558TMC3    C3 8276   3.144   3.583  10.211 -1.1603 -0.0429  0.2760
  558TMC3    C4 8277   3.361   3.602  10.040 -0.0478  0.0536 -0.0033
  558TMC3    C5 8278   3.242   3.555   9.996  0.2320  0.2045 -0.3179
  558TMC3    C6 8279   3.132   3.562  10.076  0.0368 -0.4050  0.1949
  558TMC3     C 8280   3.499   3.625  10.240 -0.1901 -0.2149  0.1899
  558TMC3     O 8281   3.504   3.683  10.347 -0.7634  0.0472 -0.0992
  558TMC3     H 8282   3.283   3.651  10.367  1.9103 -1.0996  1.0565
  558TMC3    H1 8283   3.450   3.597   9.978 -0.2922 -1.3815 -0.2447
  558TMC3    H2 8284   3.041   3.512  10.045  1.1894 -1.5732 -1.2993
  558TMC3    C7 8285   3.228   3.526   9.858  0.0470 -0.9959  0.2054
  558TMC3    C8 8286   3.040   3.546  10.304 -0.7075 -0.2356 -0.1410
  558TMC3    O1 8287   3.325   3.532   9.784  0.8345 -0.2483 -0.4470
  558TMC3    O2 8288   2.924   3.546  10.261 -0.3829 -0.1895  0.2948
  559MPD2     C 8289   3.319   4.283  10.571 -0.4969  0.4706 -0.0327
  559MPD2    C1 8290   3.243   4.291  10.683 -0.4622 -0.3192 -0.2212
  559MPD2    C2 8291   3.304   4.303  10.809  0.2710 -0.6367 -0.6601
  559MPD2    C3 8292   3.441   4.301  10.817  0.2647  0.8811 -0.5919
  559MPD2    C4 8293   3.519   4.280  10.706  0.0927 -0.7898 -0.3056
  559MPD2    C5 8294   3.455   4.273  10.586  0.6171 -0.4689 -0.0503
  559MPD2     H 8295   3.257   4.307  10.907 -0.6196  1.4071 -1.1666
  559MPD2    H1 8296   3.627   4.275  10.712  0.0371  0.9888  2.4251
  559MPD2    H2 8297   3.287   4.287  10.468 -0.0221 -1.6324 -0.2716
  559MPD2    H3 8298   3.511   4.266  10.493  0.1017  0.1783 -0.4126
  559MPD2     N 8299   3.500   4.300  10.948  0.5383  0.0220  0.1476
  559MPD2    H5 8300   3.435   4.309  11.025 -0.9911 -0.4485 -1.0928
  559MPD2    N1 8301   3.099   4.311  10.684 -0.3077  0.1337 -0.0312
  559MPD2    H7 8302   3.059   4.313  10.591 -1.3399  0.1677  0.4087
  560TMC3    C1 8303   3.645   4.284  11.123  0.3806 -0.2697  0.6283
  560TMC3    C2 8304   3.554   4.216  11.198  0.5815 -0.1588  0.4024
  560TMC3    C3 8305   3.591   4.189  11.333 -0.0061 -0.2079  0.2997
  560TMC3    C4 8306   3.768   4.328  11.171  0.1662 -0.1487  0.1727
  560TMC3    C5 8307   3.789   4.309  11.304  0.0035 -0.4606 -0.0653
  560TMC3    C6 8308   3.707   4.225  11.380  0.4537  0.3136  0.6101
  560TMC3     C 8309   3.634   4.293  10.976 -0.7343  0.5783  0.2606
  560TMC3     O 8310   3.734   4.310  10.906  0.2988 -0.2409 -0.5613
  560TMC3     H 8311   3.461   4.179  11.157  0.8380 -1.6347  1.1671
  560TMC3    H1 8312   3.832   4.393  11.112  1.2900 -0.5232  0.9843
  560TMC3    H2 8313   3.737   4.195  11.480 -0.1355 -3.6850 -0.4328
  560TMC3    C7 8314   3.907   4.358  11.373  0.7351 -0.5747 -0.3357
  560TMC3    C8 8315   3.526   4.071  11.389 -0.2065  0.4690 -0.2134
  560TMC3    O1 8316   3.906   4.350  11.495  0.9344 -0.0100  0.6418
  560TMC3    O2 8317   3.433   4.028  11.318 -0.3280 -0.1545  0.0656
  561TMC3    C1 8318   1.318   3.029  11.300  0.7581  0.1825  0.0560
  561TMC3    C2 8319   1.293   2.967  11.415  0.2393 -0.2401  0.1076
  561TMC3    C3 8320   1.242   3.039  11.517 -0.2392 -0.3379 -0.9086
  561TMC3    C4 8321   1.306   3.165  11.279  0.2477 -0.4555  0.0739
  561TMC3    C5 8322   1.278   3.241  11.392  0.4345  0.2795 -0.6045
  561TMC3    C6 8323   1.243   3.177  11.511 -0.6053  0.1469 -0.2046
  561TMC3     C 8324   1.315   2.946  11.181  0.6207  0.2773  0.5021
  561TMC3     O 8325   1.269   2.835  11.187  0.2888 -0.1894 -0.0298
  561TMC3     H 8326   1.299   2.859  11.415  0.7055 -0.2089 -1.1194
  561TMC3    H1 8327   1.311   3.211  11.181 -1.7954  0.8384  0.5855
  561TMC3    H2 8328   1.192   3.235  11.587  1.6201 -0.4241  1.7220
  561TMC3    C7 8329   1.239   3.378  11.381  0.1591 -0.7263  0.1813
  561TMC3    C8 8330   1.174   2.972  11.628 -0.3350  0.0122  0.2195
  561TMC3    O1 8331   1.163   3.430  11.462  0.2663 -0.0608 -0.6511
  561TMC3    O2 8332   1.199   2.853  11.642 -0.6632 -0.3744 -0.6009
  562TMC3    C1 8333   2.496   0.219  15.982 -0.1849 -0.4021 -0.0508
  562TMC3    C2 8334   2.379   0.292  15.977 -0.6777 -0.1588 -0.3305
  562TMC3    C3 8335   2.317   0.288  15.854 -0.8967  0.2739 -0.3467
  562TMC3    C4 8336   2.541   0.137  15.883 -0.2400 -0.2204  0.0896
  562TMC3    C5 8337   2.468   0.128  15.767 -0.2326  1.1986  0.8720
  562TMC3    C6 8338   2.358   0.210  15.749  0.4649 -0.0591  0.4879
  562TMC3     C 8339   2.582   0.245  16.091  0.0368 -0.3124  0.0711
  562TMC3     O 8340   2.536   0.288  16.194 -0.6164  0.5060 -0.2014
  562TMC3     H 8341   2.347   0.355  16.059 -0.9996 -0.0944 -0.5038
  562TMC3    H1 8342   2.622   0.066  15.889 -1.0871 -1.1945  0.0197
  562TMC3    H2 8343   2.295   0.203  15.661  0.7696  2.1816  0.0783
  562TMC3    C7 8344   2.496   0.020  15.672  0.1132  0.2090 -0.4182
  562TMC3    C8 8345   2.177   0.330  15.853  0.2226 -0.1600 -1.4442
  562TMC3    O1 8346   2.401   4.673  15.638 -0.4963 -0.0246  0.2843
  562TMC3    O2 8347   2.114   0.318  15.958 -0.4047 -0.3504 -0.5468
  563MPD2     C 8348   4.718   1.655  16.098  0.4185 -0.4328  0.2194
  563MPD2    C1 8349   0.012   1.665  16.233 -0.6361  0.0744 -0.5395
  563MPD2    C2 8350   0.134   1.704  16.287 -0.0632 -0.3693  1.0129
  563MPD2    C3 8351   0.247   1.729  16.211 -0.6445  0.3350  0.1005
  563MPD2    C4 8352   0.230   1.714  16.073 -0.0594  0.0746  0.0044
  563MPD2    C5 8353   0.103   1.681  16.022 -0.3894 -0.0112 -0.1627
  563MPD2     H 8354   0.150   1.720  16.393  1.3233  1.2660  0.5567
  563MPD2    H1 8355   0.317   1.733  16.011  1.0688 -0.1473  1.5062
  563MPD2    H2 8356   4.626   1.624  16.049 -1.8291  3.8766  1.7703
  563MPD2    H3 8357   0.078   1.680  15.916  2.5821  0.9494 -0.8836
  563MPD2     N 8358   0.370   1.754  16.279 -0.0883 -0.1719  0.1756
  563MPD2    H5 8359   0.351   1.755  16.378  0.7393 -1.4128  0.3430
  563MPD2    N1 8360   4.639   1.619  16.329  0.4569 -0.6059  0.1533
  563MPD2    H7 8361   4.652   1.648  16.425 -1.3725  1.2646 -0.1416
  564TMC3    C1 8362   4.477   1.480  16.432  0.0667  0.3566  0.2743
  564TMC3    C2 8363   4.361   1.417  16.422 -1.1042  0.3066 -0.1451
  564TMC3    C3 8364   4.310   1.340  16.527  0.2092 -0.3322  0.5605
  564TMC3    C4 8365   4.558   1.454  16.535  0.5723 -0.0505  0.0664
  564TMC3    C5 8366   4.502   1.386  16.643 -0.5049 -0.1372 -0.0937
  564TMC3    C6 8367   4.371   1.338  16.645  0.1858  0.1105  0.5079
  564TMC3     C 8368   4.534   1.534  16.303 -0.3670  1.2318 -0.2350
  564TMC3     O 8369   4.469   1.516  16.201 -0.6461 -0.3106  0.2001
  564TMC3     H 8370   4.310   1.427  16.327 -0.3669  1.2953 -0.4335
  564TMC3    H1 8371   4.664   1.478  16.529 -0.1541  2.6165 -1.9004
  564TMC3    H2 8372   4.327   1.283  16.728 -1.4558  0.4648 -0.1186
  564TMC3    C7 8373   4.609   1.299  16.683 -0.1195  0.7953  0.7881
  564TMC3    C8 8374   4.248   1.209  16.498 -0.5415  0.6948  0.7137
  564TMC3    O1 8375   4.718   1.345  16.709 -0.4006 -1.0186 -0.1726
  564TMC3    O2 8376   4.279   1.122  16.581  0.1689 -0.2304 -0.1658
  565TMC3    C1 8377   0.738   2.826  10.279 -0.0610 -0.0124  0.0855
  565TMC3    C2 8378   0.763   2.719  10.367  0.0782 -0.0057 -0.0822
  565TMC3    C3 8379   0.688   2.608  10.362  0.3593  0.4134 -0.0430
  565TMC3    C4 8380   0.640   2.814  10.184  0.2765  0.2797 -0.7539
  565TMC3    C5 8381   0.569   2.701  10.177 -0.2696  0.2768  0.0063
  565TMC3    C6 8382   0.594   2.591  10.255  0.0008  0.5422 -0.1792
  565TMC3     C 8383   0.834   2.939  10.268  0.1927 -0.3588  0.7692
  565TMC3     O 8384   0.805   3.027  10.187  0.3291  0.3840  0.2788
  565TMC3     H 8385   0.849   2.722  10.433  0.3055 -0.7722 -0.3468
  565TMC3    H1 8386   0.620   2.897  10.117 -0.8210 -0.3319 -1.1830
  565TMC3    H2 8387   0.519   2.513  10.261  0.6677  0.0170  1.1244
  565TMC3    C7 8388   0.444   2.700  10.099 -0.2707  0.2873  0.2785
  565TMC3    C8 8389   0.706   2.496  10.455  1.0440  0.7041 -0.1221
  565TMC3    O1 8390   0.360   2.615  10.129 -0.4847 -0.0027  0.3213
  565TMC3    O2 8391   0.677   2.386  10.416 -0.2782  0.0736  1.2715
  566MPD2     C 8392   1.923   4.604  14.314 -0.0389 -0.4321 -0.7904
  566MPD2    C1 8393   2.047   4.547  14.327  0.3792 -0.7285  0.5338
  566MPD2    C2 8394   2.062   4.413  14.303 -0.4926  0.4573 -0.2588
  566MPD2    C3 8395   1.956   4.326  14.288 -0.1551  0.5389  0.1007
  566MPD2    C4 8396   1.836   4.387  14.277  0.4524 -0.5985 -0.1924
  566MPD2    C5 8397   1.818   4.523  14.298 -0.3105 -0.4026  0.1612
  566MPD2     H 8398   2.162   4.373  14.296 -0.4910  0.1198  1.7159
  566MPD2    H1 8399   1.744   4.331  14.264  0.3210  0.0462 -2.1310
  566MPD2    H2 8400   1.901   4.709  14.323 -0.4728 -0.4124 -2.1241
  566MPD2    H3 8401   1.715   4.557  14.287 -0.5140 -1.4857 -1.3350
  566MPD2     N 8402   1.960   4.192  14.262 -0.3062  0.5376 -0.0472
  566MPD2    H5 8403   1.872   4.149  14.236  0.2312 -1.3252  1.2599
  566MPD2    N1 8404   2.165   4.630  14.348  0.1406 -0.0605  0.0188
  566MPD2    H7 8405   2.141   0.003  14.322  0.4202 -0.0021 -0.0328
  567TMC3    C1 8406   2.400   4.672  14.351 -0.1401  0.7153 -0.0038
  567TMC3    C2 8407   2.393   4.701  14.218  0.2583 -0.5090  0.2730
  567TMC3    C3 8408   2.497   4.653  14.145  0.6992  0.4028  0.1211
  567TMC3    C4 8409   2.506   4.604  14.408  0.1494 -0.5068 -0.5200
  567TMC3    C5 8410   2.598   4.540  14.327  0.7633  0.0668 -0.6013
  567TMC3    C6 8411   2.592   4.566  14.189  0.2983  0.6314  0.3162
  567TMC3     C 8412   2.288   4.587  14.383 -0.9247 -0.4812 -0.0040
  567TMC3     O 8413   2.315   4.488  14.447 -0.0687  0.3117 -0.0816
  567TMC3     H 8414   2.310   0.029  14.170 -0.2954  0.6084  2.4212
  567TMC3    H1 8415   2.511   4.601  14.517  0.6679  1.6767 -0.4832
  567TMC3    H2 8416   2.654   4.520  14.113 -0.6138  0.4478 -0.3157
  567TMC3    C7 8417   2.639   4.404  14.375  0.3117 -0.2686 -0.1068
  567TMC3    C8 8418   2.486   4.659  13.999  0.7384 -0.1087  0.5093
  567TMC3    O1 8419   2.734   4.355  14.314  0.8131 -0.2490 -0.1894
  567TMC3    O2 8420   2.529   4.574  13.924  0.1186 -0.3328 -0.3362
  568MPD2     C 8421   4.692   4.553  16.506  0.0805 -0.7105 -0.3448
  568MPD2    C1 8422   4.690   4.655  16.597 -0.3572  0.3846 -0.5703
  568MPD2    C2 8423   4.592   0.028  16.585 -0.7220  0.0370 -0.5881
  568MPD2    C3 8424   4.494   0.020  16.486 -0.1939  0.0372  0.0639
  568MPD2    C4 8425   4.503   4.643  16.395 -0.6088  0.6501  0.3384
  568MPD2    C5 8426   4.600   4.547  16.407  0.1523 -0.0094 -0.7922
  568MPD2     H 8427   4.589   0.115  16.649 -0.7123  0.2999 -0.9461
  568MPD2    H1 8428   4.425   4.627  16.322 -0.7107 -0.6901  0.7444
  568MPD2    H2 8429   0.037   4.470  16.521  1.1551  0.3280  0.5050
  568MPD2    H3 8430   4.589   4.461  16.342 -2.2532  0.9208 -1.6179
  568MPD2     N 8431   4.408   0.127  16.474  0.1400  0.0387 -0.9288
  568MPD2    H5 8432   4.416   0.199  16.545  2.4745 -0.5433 -0.5926
  568MPD2    N1 8433   0.063   4.658  16.702 -0.1035 -0.2074 -0.4937
  568MPD2    H7 8434   0.125   4.578  16.711 -1.1177 -0.7302  1.6406
  569TMC3    C1 8435   4.245   0.263  16.413 -0.0510 -0.0710 -0.3567
  569TMC3    C2 8436   4.241   0.286  16.553  0.2117  0.7449  1.1658
  569TMC3    C3 8437   4.261   0.412  16.599  0.0938  0.0037  0.1537
  569TMC3    C4 8438   4.277   0.366  16.330 -0.5756  0.4751  0.0732
  569TMC3    C5 8439   4.305   0.490  16.387  0.5926  0.2823 -0.3135
  569TMC3    C6 8440   4.295   0.518  16.518 -0.5239  0.5213  1.0014
  569TMC3     C 8441   4.316   0.142  16.373 -0.4848  0.0587 -0.5027
  569TMC3     O 8442   4.311   0.098  16.260 -0.0721 -0.0542 -0.4794
  569TMC3     H 8443   4.232   0.208  16.628  1.0956 -0.0947  0.3853
  569TMC3    H1 8444   4.289   0.345  16.224  0.4121  2.7408 -0.2448
  569TMC3    H2 8445   4.343   0.604  16.563 -0.2923 -0.0378  1.8124
  569TMC3    C7 8446   4.326   0.600  16.296  0.1059 -0.1232  0.2964
  569TMC3    C8 8447   4.367   0.398  16.700  0.2895  0.4111  0.3769
  569TMC3    O1 8448   4.372   0.584  16.183  0.2914 -0.2126 -0.1863
  569TMC3    O2 8449   4.443   0.301  16.683  0.4649 -0.5580  0.2132
  570TMC3    C1 8450   3.465   3.634  15.761 -0.8967 -0.8391  1.0538
  570TMC3    C2 8451   3.593   3.662  15.795  0.7548 -0.4167  0.5829
  570TMC3    C3 8452   3.669   3.738  15.702 -0.1684  0.4066  0.4616
  570TMC3    C4 8453   3.417   3.666  15.637  0.5785 -0.5612  0.0723
  570TMC3    C5 8454   3.487   3.742  15.548  0.1597 -0.7665 -0.8985
  570TMC3    C6 8455   3.621   3.777  15.581  0.0106  1.3750  0.1103
  570TMC3     C 8456   3.362   3.574  15.842 -0.2551 -0.3005  0.4859
  570TMC3     O 8457   3.289   3.502  15.776 -0.4212 -0.0152 -0.5340
  570TMC3     H 8458   3.634   3.625  15.889 -0.3039  1.0293  1.6074
  570TMC3    H1 8459   3.311   3.661  15.617 -0.1345  1.0050  3.4378
  570TMC3    H2 8460   3.676   3.822  15.500 -1.5676  0.8915 -1.2440
  570TMC3    C7 8461   3.405   3.858  15.518 -0.7622 -0.2150 -0.4543
  570TMC3    C8 8462   3.805   3.785  15.737  0.1379  0.1360  0.2069
  570TMC3    O1 8463   3.291   3.829  15.479  0.1629  0.1740  0.0689
  570TMC3    O2 8464   3.868   3.843  15.647  0.5158  0.0067  0.2100
  571MPD2     C 8465   2.304   0.393  17.328 -0.8327  0.0748  0.1972
  571MPD2    C1 8466   2.220   0.503  17.305 -0.7365 -0.0164 -0.4327
  571MPD2    C2 8467   2.199   0.600  17.401  0.4281  0.1057 -0.2554
  571MPD2    C3 8468   2.251   0.586  17.527  0.5592 -0.0098  0.5773
  571MPD2    C4 8469   2.335   0.479  17.561 -0.2078  0.6986  0.0532
  571MPD2    C5 8470   2.368   0.394  17.451  0.8084  0.5696  0.4750
  571MPD2     H 8471   2.140   0.688  17.380 -1.1814 -0.3988  2.1623
  571MPD2    H1 8472   2.377   0.467  17.660  0.2884  0.6722 -0.1603
  571MPD2    H2 8473   2.325   0.319  17.252 -0.8398  0.7285 -0.4436
  571MPD2    H3 8474   2.442   0.316  17.462  1.5958  0.7845 -3.1556
  571MPD2     N 8475   2.228   0.678  17.627 -0.1259  0.2156 -0.3385
  571MPD2    H5 8476   2.255   0.656   0.029 -0.2637 -0.2510 -0.4070
  571MPD2    N1 8477   2.174   0.513  17.170 -0.2085  0.0296 -0.0017
  571MPD2    H7 8478   2.210   0.441  17.109 -0.0026  0.9299 -0.9413
  572TMC3    C1 8479   2.153   0.877   0.032 -0.1917 -0.1364 -0.2732
  572TMC3    C2 8480   2.115   0.794   0.135 -0.3504  0.0423 -0.4070
  572TMC3    C3 8481   2.074   0.859   0.252 -0.0527  0.3147  0.3474
  572TMC3    C4 8482   2.173   1.009   0.045  0.0165  0.1187 -0.1268
  572TMC3    C5 8483   2.133   1.068   0.159 -0.5900 -0.2581 -0.5420
  572TMC3    C6 8484   2.080   0.992   0.264 -0.3027 -0.1439  0.3456
  572TMC3     C 8485   2.185   0.808  17.593  0.6712  0.6899  0.0651
  572TMC3     O 8486   2.184   0.873  17.488 -0.0312 -0.8525 -0.5328
  572TMC3     H 8487   2.069   0.699   0.113  2.0915 -1.1145 -0.5639
  572TMC3    H1 8488   2.195   1.072  17.653 -1.9221  0.6717 -0.2326
  572TMC3    H2 8489   2.062   1.044   0.358 -3.3088  0.5817 -0.6095
  572TMC3    C7 8490   2.156   1.210   0.173  0.6128 -0.6845 -0.1390
  572TMC3    C8 8491   2.057   0.779   0.370  0.6639 -0.1283  0.1663
  572TMC3    O1 8492   2.172   1.281   0.075 -0.5610 -0.3517 -0.0976
  572TMC3    O2 8493   2.109   0.670   0.363 -0.2758  0.6592 -0.0795
  573MPD2     C 8494   2.965   1.170   1.379  0.9210  0.6941  0.6272
  573MPD2    C1 8495   2.911   1.292   1.401  0.4169  0.6962  0.6256
  573MPD2    C2 8496   2.879   1.371   1.293  0.5088 -0.3270  0.2661
  573MPD2    C3 8497   2.872   1.327   1.159 -0.3690 -1.0601  0.4384
  573MPD2    C4 8498   2.915   1.200   1.141 -0.1432 -0.3826  0.5850
  573MPD2    C5 8499   2.968   1.128   1.243  0.4968  0.4049  0.1329
  573MPD2     H 8500   2.850   1.474   1.309  0.2877 -0.1274 -1.4024
  573MPD2    H1 8501   2.916   1.156   1.042 -0.6555  1.7233 -0.3424
  573MPD2    H2 8502   2.999   1.100   1.455  1.8595  0.5240  0.0512
  573MPD2    H3 8503   3.015   1.034   1.215 -0.6272 -0.1005 -0.0294
  573MPD2     N 8504   2.838   1.401   1.041  0.0782 -0.3359 -0.3295
  573MPD2    H5 8505   2.843   1.350   0.954  0.3527 -1.8191  0.5598
  573MPD2    N1 8506   2.899   1.327   1.535  0.2806 -0.1954 -0.0783
  573MPD2    H7 8507   2.933   1.257   1.600  0.4897 -0.4799 -0.4899
  574TMC3    C1 8508   2.775   1.575   0.900  0.3793 -0.4655  0.4673
  574TMC3    C2 8509   2.764   1.707   0.875  0.2283  0.9089  0.4031
  574TMC3    C3 8510   2.702   1.740   0.756  0.3306  0.2490  0.3920
  574TMC3    C4 8511   2.751   1.485   0.798 -0.2149  0.0493  0.3754
  574TMC3    C5 8512   2.714   1.529   0.674  0.0731 -0.0633  0.0471
  574TMC3    C6 8513   2.682   1.659   0.650  0.3381 -0.0958  0.1832
  574TMC3     C 8514   2.790   1.529   1.036 -0.0076 -0.0317 -0.1238
  574TMC3     O 8515   2.770   1.609   1.125  0.1160  0.1582  0.0203
  574TMC3     H 8516   2.778   1.777   0.956  3.6136  0.7618 -0.0441
  574TMC3    H1 8517   2.775   1.379   0.808  0.0629 -0.0182 -1.0283
  574TMC3    H2 8518   2.641   1.697   0.556  1.0933 -0.4581 -0.2910
  574TMC3    C7 8519   2.659   1.430   0.580 -0.4089  0.2462 -0.3334
  574TMC3    C8 8520   2.640   1.871   0.752  0.1207 -0.1889  0.2575
  574TMC3    O1 8521   2.616   1.329   0.633 -0.0255  1.0658  0.1029
  574TMC3    O2 8522   2.601   1.930   0.849 -0.1860 -0.1242  0.3680
  575TMC3    C1 8523   0.989   1.723  10.811 -0.1740  0.1300 -0.1774
  575TMC3    C2 8524   0.958   1.631  10.712 -0.2234  0.1045  0.2308
  575TMC3    C3 8525   0.883   1.671  10.606 -0.5889  0.6272 -0.1608
  575TMC3    C4 8526   0.963   1.858  10.800  0.1602 -0.4600 -0.1075
  575TMC3    C5 8527   0.891   1.893  10.691 -0.3879 -0.1250 -0.1603
  575TMC3    C6 8528   0.850   1.805  10.595 -0.4977 -0.1777  0.0145
  575TMC3     C 8529   1.068   1.677  10.929 -0.2308 -0.6442  0.0510
  575TMC3     O 8530   1.081   1.761  11.015 -0.0916  0.2953 -0.3722
  575TMC3     H 8531   0.984   1.526  10.716  1.7839  0.5728 -0.6747
  575TMC3    H1 8532   0.989   1.934  10.872 -3.7988  0.6824  0.1551
  575TMC3    H2 8533   0.818   1.836  10.496  0.3016 -1.0349 -0.5171
  575TMC3    C7 8534   0.853   2.033  10.673 -0.2880 -0.0106 -0.1279
  575TMC3    C8 8535   0.840   1.580  10.502 -0.0704 -0.0597  0.0223
  575TMC3    O1 8536   0.816   2.064  10.562 -0.2551 -0.1748 -0.1072
  575TMC3    O2 8537   0.899   1.475  10.510 -0.2788  0.3248 -0.0656
  576MPD2     C 8538   0.276   3.730  12.539 -0.0863  0.7277  0.0760
  576MPD2    C1 8539   0.253   3.725  12.405  0.0173 -0.8808 -0.0733
  576MPD2    C2 8540   0.180   3.839  12.352  0.0218 -0.3310 -1.1269
  576MPD2    C3 8541   0.133   3.949  12.423  0.5280 -0.0703  0.8335
  576MPD2    C4 8542   0.165   3.947  12.556  1.4693 -0.6126  0.1278
  576MPD2    C5 8543   0.228   3.836  12.613  0.7026 -0.2992 -0.6140
  576MPD2     H 8544   0.167   3.853  12.245 -0.1869  0.3803 -1.0077
  576MPD2    H1 8545   0.128   4.032  12.612  1.8119  0.1034 -0.7381
  576MPD2    H2 8546   0.317   3.642  12.587 -3.1068  0.0287  1.3743
  576MPD2    H3 8547   0.243   3.840  12.720 -1.8363 -0.3454 -0.2500
  576MPD2     N 8548   0.076   4.061  12.356 -0.1396  0.4585 -0.0498
  576MPD2    H5 8549   0.057   4.048  12.257 -0.0323 -1.3674  0.1758
  576MPD2    N1 8550   0.306   3.627  12.317  0.4481  0.4791  0.2401
  576MPD2    H7 8551   0.290   3.645  12.219 -0.0744  0.4375  0.3194
  577TMC3    C1 8552   0.413   3.425  12.232  0.7774 -0.0289  0.1655
  577TMC3    C2 8553   0.529   3.358  12.241  0.0950 -0.9026 -0.7198
  577TMC3    C3 8554   0.576   3.291  12.133 -0.0552  0.9166  0.5625
  577TMC3    C4 8555   0.349   3.455  12.112  0.1357 -0.2493 -0.3005
  577TMC3    C5 8556   0.401   3.385  12.003  0.1653 -0.3314  0.1198
  577TMC3    C6 8557   0.505   3.293  12.015  0.4035  0.4139  0.6233
  577TMC3     C 8558   0.379   3.511  12.350 -0.5254 -0.0370  0.5850
  577TMC3     O 8559   0.428   3.481  12.455  0.3300  0.0719  0.0696
  577TMC3     H 8560   0.581   3.357  12.336 -0.9161 -0.0436 -0.1664
  577TMC3    H1 8561   0.250   3.495  12.099 -0.1390 -0.3810  1.4825
  577TMC3    H2 8562   0.532   3.249  11.919  2.2230 -0.9788  1.7879
  577TMC3    C7 8563   0.325   3.369  11.883  0.3474  0.0986 -0.4138
  577TMC3    C8 8564   0.699   3.219  12.137  0.6208 -0.2133  0.2967
  577TMC3    O1 8565   0.312   3.252  11.846  0.3376  0.0970  0.0965
  577TMC3    O2 8566   0.721   3.155  12.239 -0.1209 -0.4887 -0.8060
  578MPD2     C 8567   2.794   3.855   0.906 -0.3012 -0.4801  0.2657
  578MPD2    C1 8568   2.882   3.750   0.865 -0.8933 -0.7198  0.0438
  578MPD2    C2 8569   2.991   3.717   0.948 -0.5738 -0.3395 -0.1103
  578MPD2    C3 8570   3.014   3.790   1.057  0.0323 -0.5279  0.0802
  578MPD2    C4 8571   2.926   3.892   1.094 -0.2744 -0.3685  0.4899
  578MPD2    C5 8572   2.816   3.917   1.023 -0.8879 -0.0911  0.2228
  578MPD2     H 8573   3.059   3.641   0.911  1.1860  0.5274  1.3447
  578MPD2    H1 8574   2.952   3.956   1.178  0.6688 -0.2107  0.0771
  578MPD2    H2 8575   2.706   3.881   0.848  0.9206 -2.1938 -2.3699
  578MPD2    H3 8576   2.745   3.990   1.061 -0.8686 -0.9344  1.8712
  578MPD2     N 8577   3.143   3.772   1.118 -0.0121  0.1795  0.2020
  578MPD2    H5 8578   3.192   3.691   1.081  0.5358  0.1711  0.9528
  578MPD2    N1 8579   2.857   3.684   0.750  0.0131  0.0745  0.3300
  578MPD2    H7 8580   2.793   3.725   0.683 -1.6191 -2.6121  0.2740
  579TMC3    C1 8581   3.358   3.861   1.186 -0.2777 -0.3295  0.2879
  579TMC3    C2 8582   3.420   3.957   1.257  0.0841  0.2731  0.0716
  579TMC3    C3 8583   3.557   3.971   1.247 -0.5095 -0.0683 -0.0219
  579TMC3    C4 8584   3.423   3.761   1.122 -0.7085  0.1171  0.9089
  579TMC3    C5 8585   3.561   3.770   1.123 -0.6836 -0.0310 -0.8766
  579TMC3    C6 8586   3.631   3.873   1.184 -0.5172 -0.2293  0.2214
  579TMC3     C 8587   3.213   3.866   1.192 -0.1545  0.1537  0.3761
  579TMC3     O 8588   3.163   3.961   1.251 -0.0871  0.0626 -0.2344
  579TMC3     H 8589   3.364   4.035   1.308  0.0232 -2.0585  3.5956
  579TMC3    H1 8590   3.366   3.691   1.062  0.4920 -0.8347  0.8624
  579TMC3    H2 8591   3.739   3.879   1.193 -0.4690 -1.0858  0.2091
  579TMC3    C7 8592   3.631   3.642   1.092 -0.5441  0.2044  0.5382
  579TMC3    C8 8593   3.608   4.084   1.323 -0.0447 -0.6364  0.4366
  579TMC3    O1 8594   3.751   3.649   1.109  0.3985 -0.1636 -0.1551
  579TMC3    O2 8595   3.531   4.124   1.408 -0.2680 -0.4228  0.1356
  580TMC3    C1 8596   2.874   2.309  12.015  1.5482  0.6541 -0.0837
  580TMC3    C2 8597   2.862   2.436  12.065 -0.1653 -0.4421 -0.2479
  580TMC3    C3 8598   2.937   2.481  12.163  0.2380 -0.1436  0.3324
  580TMC3    C4 8599   2.963   2.214  12.061  0.0022  0.0110 -0.2070
  580TMC3    C5 8600   3.034   2.264  12.167  1.0909  0.4821  0.0311
  580TMC3    C6 8601   3.030   2.393  12.215  0.1651 -0.0646 -0.8342
  580TMC3     C 8602   2.844   2.294  11.876  0.3543 -0.3458  0.9046
  580TMC3     O 8603   2.920   2.232  11.804 -0.8887 -0.6179  0.6313
  580TMC3     H 8604   2.790   2.505  12.022  2.8545  3.4283  0.8391
  580TMC3    H1 8605   2.990   2.117  12.021 -0.4524 -0.4831  0.6953
  580TMC3    H2 8606   3.095   2.418  12.298 -0.8365 -1.4961  0.3782
  580TMC3    C7 8607   3.120   2.177  12.251  0.0669  0.1291  0.1892
  580TMC3    C8 8608   2.999   2.601  12.127 -0.1982 -0.1047 -0.1869
  580TMC3    O1 8609   3.134   2.206  12.368  0.0051  0.5704  0.5138
  580TMC3    O2 8610   2.945   2.705  12.154 -0.2090 -0.1714  0.0232
  581MPD2     C 8611   0.969   2.800  15.592 -0.8149  0.7688 -1.1139
  581MPD2    C1 8612   0.874   2.700  15.619  0.5067  0.2849 -0.6945
  581MPD2    C2 8613   0.745   2.713  15.565 -0.8063  0.7587 -0.0165
  581MPD2    C3 8614   0.711   2.829  15.492  0.6284  0.0842 -0.1357
  581MPD2    C4 8615   0.805   2.929  15.473  0.4552 -0.3227 -0.2515
  581MPD2    C5 8616   0.932   2.913  15.528 -0.3780 -0.4334 -1.2720
  581MPD2     H 8617   0.671   2.640  15.598 -0.5479  0.3021 -0.4567
  581MPD2    H1 8618   0.779   3.019  15.419 -0.1889 -0.3819 -0.0408
  581MPD2    H2 8619   1.072   2.796  15.625 -0.4361 -0.3232 -2.4248
  581MPD2    H3 8620   1.006   2.988  15.499 -0.0103 -0.3891 -0.2161
  581MPD2     N 8621   0.582   2.831  15.431 -0.2258 -0.0242  0.6367
  581MPD2    H5 8622   0.531   2.743  15.425 -1.7207  0.8849  0.1984
  581MPD2    N1 8623   0.907   2.577  15.690  0.6868 -0.0301 -0.0164
  581MPD2    H7 8624   0.829   2.512  15.697 -0.6259  1.4992 -0.1958
  582TMC3    C1 8625   1.026   2.431  15.835 -0.6463  0.9225 -1.0464
  582TMC3    C2 8626   1.094   2.487  15.944 -0.3688 -1.0761  0.3345
  582TMC3    C3 8627   1.041   2.463  16.071 -0.3616  0.5234  0.4932
  582TMC3    C4 8628   0.918   2.342  15.848  0.2225 -0.1690 -0.1843
  582TMC3    C5 8629   0.875   2.313  15.978  0.3930 -0.5959  0.4967
  582TMC3    C6 8630   0.936   2.365  16.091  0.4171  0.3552  0.9448
  582TMC3     C 8631   1.031   2.541  15.740  0.4409 -0.2049 -0.4818
  582TMC3     O 8632   1.142   2.594  15.729  0.4654 -0.2319 -0.2195
  582TMC3     H 8633   1.185   2.546  15.939 -0.3503 -1.1613 -0.2707
  582TMC3    H1 8634   0.858   2.325  15.759  1.0808  0.3592 -0.8667
  582TMC3    H2 8635   0.886   2.338  16.183  2.1378 -1.6298  1.3032
  582TMC3    C7 8636   0.732   2.318  15.991 -0.0590 -0.7069  0.3355
  582TMC3    C8 8637   1.068   2.551  16.191  0.5860 -0.0302  0.4690
  582TMC3    O1 8638   0.704   2.413  16.065 -0.2455  0.0677  0.0178
  582TMC3    O2 8639   0.998   2.550  16.291 -0.1619  0.1685  0.2343
  583MPD2     C 8640   0.855   4.364  17.049  0.3153  0.0986  0.0770
  583MPD2    C1 8641   0.828   4.455  16.954  0.0522 -0.2089  0.5878
  583MPD2    C2 8642   0.774   4.581  16.999 -0.9115  0.5995  0.3302
  583MPD2    C3 8643   0.763   4.611  17.136 -0.7445  0.4812  1.3345
  583MPD2    C4 8644   0.795   4.508  17.223 -0.4781 -0.2140  0.0707
  583MPD2    C5 8645   0.844   4.388  17.181 -0.1928 -0.3206 -0.5772
  583MPD2     H 8646   0.748   4.661  16.931 -0.3670 -1.3011 -2.1061
  583MPD2    H1 8647   0.796   4.519  17.331  1.9590  0.2466  0.0064
  583MPD2    H2 8648   0.907   4.270  17.031  2.8059  1.4020  0.4305
  583MPD2    H3 8649   0.885   4.320  17.255  0.2247 -0.1024 -0.6064
  583MPD2     N 8650   0.717   0.008  17.180  0.6077  0.5799 -0.0010
  583MPD2    H5 8651   0.683   0.076  17.113  2.4545  1.7126  0.1903
  583MPD2    N1 8652   0.871   4.431  16.822 -1.0571 -0.6233 -0.5207
  583MPD2    H7 8653   0.852   4.506  16.756  2.4530  1.6172  1.0073
  584TMC3    C1 8654   0.659   0.188  17.337 -0.3363  0.7247  0.0562
  584TMC3    C2 8655   0.691   0.284  17.240  0.2491 -0.4845  0.4276
  584TMC3    C3 8656   0.661   0.415  17.268 -0.2060 -0.0497 -0.0836
  584TMC3    C4 8657   0.641   0.226  17.474  0.1913 -0.3775 -0.0189
  584TMC3    C5 8658   0.633   0.366  17.501 -0.3667  0.6349  0.2215
  584TMC3    C6 8659   0.626   0.453  17.395 -0.3267  0.2788  0.5736
  584TMC3     C 8660   0.688   0.043  17.317 -0.1062  0.0029  0.2519
  584TMC3     O 8661   0.695   4.698  17.418 -0.5368  0.4982  0.1249
  584TMC3     H 8662   0.736   0.256  17.145 -0.2998 -1.3590  0.4291
  584TMC3    H1 8663   0.644   0.154  17.555 -2.2440 -1.1455 -0.6117
  584TMC3    H2 8664   0.591   0.554  17.417 -2.7567 -0.5191  0.4009
  584TMC3    C7 8665   0.607   0.404  17.636 -0.6036 -0.1159 -0.2923
  584TMC3    C8 8666   0.712   0.507  17.166 -0.1744  0.3837 -0.0235
  584TMC3    O1 8667   0.551   0.318   0.011 -0.8406 -0.1472  0.2874
  584TMC3    O2 8668   0.707   0.476  17.050 -0.2716 -0.1318  0.8369
  585MPD2     C 8669   0.278   4.212  17.526  0.0321 -0.0450  0.5118
  585MPD2    C1 8670   0.196   4.156  17.618  1.1723  0.4205  0.4677
  585MPD2    C2 8671   0.120   4.041  17.595  0.0182 -0.8719 -0.7109
  585MPD2    C3 8672   0.115   3.989  17.467  0.1993 -0.6532  0.0135
  585MPD2    C4 8673   0.203   4.042  17.376 -0.0890  0.4901 -0.5882
  585MPD2    C5 8674   0.277   4.152  17.408  0.3376  0.5288  0.2652
  585MPD2     H 8675   0.069   3.990  17.676  3.4623 -2.3246  0.5095
  585MPD2    H1 8676   0.200   4.004  17.275 -0.3080 -1.6981  0.2333
  585MPD2    H2 8677   0.341   4.298  17.549 -0.4146  0.7754 -1.3316
  585MPD2    H3 8678   0.351   4.193  17.339  0.3067 -2.1297 -1.3399
  585MPD2     N 8679   0.042   3.871  17.432 -0.3357  0.2466 -0.0291
  585MPD2    H5 8680   0.047   3.846  17.334 -0.3134 -0.0315  0.0409
  585MPD2    N1 8681   0.185   4.195   0.055 -0.0631  0.4007 -0.4508
  585MPD2    H7 8682   0.140   4.133   0.121  3.1552 -2.4813 -0.9269
  586TMC3    C1 8683   4.615   3.681  17.452 -0.4576 -0.3277 -0.1496
  586TMC3    C2 8684   4.705   3.593  17.404 -0.5374  0.8037 -0.2910
  586TMC3    C3 8685   4.666   3.458  17.381 -0.2037 -0.4389 -0.1029
  586TMC3    C4 8686   4.487   3.642  17.493  0.0641 -0.3589  0.1304
  586TMC3    C5 8687   4.448   3.507  17.470 -0.6200 -0.5266 -0.3533
  586TMC3    C6 8688   4.542   3.420  17.421  0.8573 -0.5000  0.2134
  586TMC3     C 8689   4.669   3.805  17.508  0.5962  0.5580  0.6907
  586TMC3     O 8690   4.619   3.845  17.609  0.7649 -0.3136  0.0024
  586TMC3     H 8691   0.085   3.628  17.400  0.0323 -0.8128 -0.1353
  586TMC3    H1 8692   4.426   3.716  17.543 -1.4527 -0.9541 -0.8423
  586TMC3    H2 8693   4.498   3.324  17.396  1.3452 -1.3014  2.4010
  586TMC3    C7 8694   4.307   3.471  17.480 -0.5279 -0.5817  0.4104
  586TMC3    C8 8695   0.038   3.351  17.360  0.0888 -0.3733  0.4045
  586TMC3    O1 8696   4.274   3.371  17.420 -0.5002  0.9927  0.4773
  586TMC3    O2 8697   4.713   3.242  17.379  0.4261 -0.0700 -0.0756
  587TMC3    C1 8698   2.400   2.127  16.976  0.4950  0.2378 -0.4386
  587TMC3    C2 8699   2.420   2.247  16.907 -0.3718 -0.4444  0.2291
  587TMC3    C3 8700   2.553   2.281  16.889 -0.5539 -0.0912  0.1030
  587TMC3    C4 8701   2.508   2.052  17.031 -0.2215 -1.1509 -0.1759
  587TMC3    C5 8702   2.634   2.098  17.004 -0.6412 -0.2244 -0.0762
  587TMC3    C6 8703   2.659   2.209  16.927  0.1962  0.4615 -0.2378
  587TMC3     C 8704   2.278   2.119  17.055 -0.5683 -0.6907  0.6024
  587TMC3     O 8705   2.291   2.074  17.167 -0.0613 -0.0126 -0.4831
  587TMC3     H 8706   2.339   2.316  16.885  0.1363 -0.8338 -2.9387
  587TMC3    H1 8707   2.484   1.971  17.099 -1.0609 -0.4791  0.3272
  587TMC3    H2 8708   2.756   2.255  16.913  0.1371  0.4239 -0.7715
  587TMC3    C7 8709   2.745   2.017  17.056  0.4795  0.3810  0.0753
  587TMC3    C8 8710   2.558   2.421  16.859  0.0299 -0.6437 -0.9054
  587TMC3    O1 8711   2.853   2.072  17.060 -0.1462  0.5562 -0.2341
  587TMC3    O2 8712   2.470   2.464  16.782  0.1976 -0.3453 -0.1927
  588TMC3    C1 8713   0.262   4.462   9.997  0.1973  0.0311 -0.3968
  588TMC3    C2 8714   0.194   4.351   9.967  0.6605 -0.1623  0.0246
  588TMC3    C3 8715   0.242   4.230  10.019 -0.4019 -0.4801 -0.5220
  588TMC3    C4 8716   0.377   4.461  10.071  0.5355 -0.0747  0.7936
  588TMC3    C5 8717   0.427   4.340  10.112 -0.3009  0.5878 -0.2041
  588TMC3    C6 8718   0.358   4.223  10.093 -0.3317  0.1670 -0.2873
  588TMC3     C 8719   0.218   4.593   9.953  0.2601  0.4160  0.3748
  588TMC3     O 8720   0.130   4.605   9.872 -0.0520 -0.0185 -0.1042
  588TMC3     H 8721   0.106   4.360   9.904  1.6196 -1.8335 -1.5616
  588TMC3    H1 8722   0.432   4.554  10.076 -0.0024  0.2395  0.7778
  588TMC3    H2 8723   0.403   4.135  10.137  3.0397  0.7737 -2.5310
  588TMC3    C7 8724   0.552   4.337  10.189  0.1579 -0.8865 -0.2269
  588TMC3    C8 8725   0.155   4.112   9.989 -0.1909 -0.0632  0.1410
  588TMC3    O1 8726   0.568   4.246  10.271 -0.5366 -0.6077 -0.5551
  588TMC3    O2 8727   0.041   4.125   9.943 -0.0659  0.2477 -0.1754
  589TMC3    C1 8728   3.663   0.840   0.722 -0.5565 -0.0121  0.6141
  589TMC3    C2 8729   3.797   0.854   0.745  0.2895 -0.0710  0.0295
  589TMC3    C3 8730   3.870   0.739   0.716 -0.2949 -0.4157  0.0205
  589TMC3    C4 8731   3.601   0.729   0.677  0.0358  0.2156 -1.0143
  589TMC3    C5 8732   3.671   0.614   0.656 -0.7922  0.8850  0.0582
  589TMC3    C6 8733   3.805   0.623   0.678 -0.2340  0.5252 -0.7157
  589TMC3     C 8734   3.588   0.964   0.705  0.1373  0.0936 -0.8663
  589TMC3     O 8735   3.489   0.955   0.636 -0.0407  0.2449 -0.2220
  589TMC3     H 8736   3.848   0.946   0.770  0.1585 -0.2491  0.9330
  589TMC3    H1 8737   3.493   0.732   0.666 -0.0678  0.2969  0.1162
  589TMC3    H2 8738   3.859   0.539   0.635 -1.7472 -0.5421 -0.5311
  589TMC3    C7 8739   3.590   0.501   0.598 -0.1855  0.1353 -0.6105
  589TMC3    C8 8740   4.004   0.720   0.763  0.1707 -0.2782 -0.3654
  589TMC3    O1 8741   3.471   0.520   0.585  0.3119 -0.3405 -0.2348
  589TMC3    O2 8742   4.047   0.602   0.766  0.5238 -0.9680 -0.0168
  590MPD2     C 8743   3.588   0.477  16.995  0.5263  0.6571 -1.0526
  590MPD2    C1 8744   3.482   0.470  16.906 -0.6550 -0.4099  0.1643
  590MPD2    C2 8745   3.515   0.433  16.778 -0.4987 -0.4916 -0.1745
  590MPD2    C3 8746   3.638   0.412  16.727  0.2407  0.4705 -0.2411
  590MPD2    C4 8747   3.746   0.422  16.818  0.0613  0.6605 -0.4504
  590MPD2    C5 8748   3.712   0.452  16.950  0.4437  0.1483 -0.3634
  590MPD2     H 8749   3.431   0.427  16.710  0.6876 -0.3661 -1.6547
  590MPD2    H1 8750   3.847   0.434  16.781 -0.5446  2.4876 -1.4863
  590MPD2    H2 8751   3.570   0.506  17.098 -1.7484 -1.7168 -0.7547
  590MPD2    H3 8752   3.793   0.450  17.022 -2.0274  0.2817  2.3937
  590MPD2     N 8753   3.652   0.411  16.588  0.6854 -0.6786 -0.7409
  590MPD2    H5 8754   3.573   0.412  16.524 -1.1087 -0.8609  1.4632
  590MPD2    N1 8755   3.344   0.496  16.930  0.2475 -0.2161 -0.2550
  590MPD2    H7 8756   3.284   0.470  16.853  1.2484 -0.1865 -1.0437
  591TMC3    C1 8757   3.751   0.491  16.396  0.4229  0.2344  0.2673
  591TMC3    C2 8758   3.865   0.511  16.318  0.2528 -0.1676  0.6119
  591TMC3    C3 8759   3.876   0.608  16.229  0.5253 -0.1676 -0.5271
  591TMC3    C4 8760   3.635   0.571  16.376 -0.2862  0.7315 -0.6299
  591TMC3    C5 8761   3.647   0.671  16.275  0.4377  0.4337 -0.5696
  591TMC3    C6 8762   3.765   0.688  16.204 -0.5163 -0.1275 -0.5534
  591TMC3     C 8763   3.768   0.416  16.526 -0.2919 -0.2139  0.0223
  591TMC3     O 8764   3.882   0.397  16.562 -0.7393  0.0664  0.1262
  591TMC3     H 8765   3.952   0.446  16.317 -0.5717 -1.3073  3.0397
  591TMC3    H1 8766   3.545   0.575  16.437 -0.3125  1.6119 -0.7303
  591TMC3    H2 8767   3.764   0.747  16.113 -1.6824 -1.5223 -1.4495
  591TMC3    C7 8768   3.536   0.768  16.274 -0.2536 -0.2877 -0.1554
  591TMC3    C8 8769   3.939   0.580  16.111 -0.6091  0.6331 -0.1447
  591TMC3    O1 8770   3.426   0.728  16.316 -0.6192 -0.3014 -0.0131
  591TMC3    O2 8771   3.941   0.460  16.084  0.4299  0.6715  0.2454
  592MPD2     C 8772   4.098   2.166  11.205 -0.2510 -0.0502 -0.2026
  592MPD2    C1 8773   4.054   2.234  11.321  0.7335 -0.0537  0.2497
  592MPD2    C2 8774   3.957   2.172  11.394 -0.2623 -0.2917 -0.4921
  592MPD2    C3 8775   3.920   2.040  11.364  0.3511 -0.6365  0.2972
  592MPD2    C4 8776   3.994   1.968  11.271 -0.3825  0.5348  0.5865
  592MPD2    C5 8777   4.071   2.034  11.184  0.0475 -0.0763  0.6824
  592MPD2     H 8778   3.912   2.224  11.478  3.2976 -0.2826  1.3875
  592MPD2    H1 8779   3.976   1.863  11.257  1.5146  0.1150  1.2750
  592MPD2    H2 8780   4.162   2.212  11.131 -0.6910 -0.2230 -0.6961
  592MPD2    H3 8781   4.108   1.980  11.098  1.3062  0.1752  1.0650
  592MPD2     N 8782   3.818   1.970  11.436  0.3182 -0.3808 -0.0228
  592MPD2    H5 8783   3.787   2.007  11.525  2.9418 -0.6020  0.9802
  592MPD2    N1 8784   4.089   2.366  11.341  0.7282 -0.3898 -0.2990
  592MPD2    H7 8785   4.146   2.404  11.265  2.1314  2.2997  2.1117
  593TMC3    C1 8786   4.160   2.562  11.471  0.1097  0.0665  1.0805
  593TMC3    C2 8787   4.185   2.599  11.592 -0.0082 -0.4308 -0.2005
  593TMC3    C3 8788   4.252   2.719  11.616 -0.5984  0.2735  0.0539
  593TMC3    C4 8789   4.209   2.619  11.358  0.7080  0.6487 -0.6481
  593TMC3    C5 8790   4.287   2.734  11.378 -0.0768 -0.3593 -0.8256
  593TMC3    C6 8791   4.303   2.783  11.505 -0.0456  0.3547 -0.8298
  593TMC3     C 8792   4.081   2.433  11.462  0.1602 -0.0166  0.9082
  593TMC3     O 8793   4.017   2.403  11.561  0.1050  0.0382 -0.2321
  593TMC3     H 8794   4.141   2.547  11.677  2.1588 -1.8344  0.0542
  593TMC3    H1 8795   4.171   2.585  11.262  0.8358  0.7924 -0.7478
  593TMC3    H2 8796   4.379   2.858  11.521  0.6670 -0.3770 -0.8314
  593TMC3    C7 8797   4.372   2.785  11.270 -0.1119 -0.5612 -0.4673
  593TMC3    C8 8798   4.312   2.740  11.747 -0.1193  0.3186 -0.2387
  593TMC3    O1 8799   4.419   2.896  11.288 -0.4113 -0.1919  0.2645
  593TMC3    O2 8800   4.320   2.650  11.832  0.6598  0.4547  0.4172
  594MPD2     C 8801   2.600   1.330  13.773  0.2273 -0.5823 -0.3944
  594MPD2    C1 8802   2.575   1.323  13.906 -0.0090  0.8770 -0.0817
  594MPD2    C2 8803   2.671   1.379  13.987  0.2700  0.3736  0.9613
  594MPD2    C3 8804   2.778   1.446  13.942 -0.7932  0.5900  0.8093
  594MPD2    C4 8805   2.812   1.431  13.807 -0.3743 -0.0354 -0.0846
  594MPD2    C5 8806   2.717   1.382  13.723 -0.4572  0.5711  0.1745
  594MPD2     H 8807   2.652   1.376  14.094 -1.8421  0.1779  0.5841
  594MPD2    H1 8808   2.906   1.463  13.762 -1.1013  0.1866 -1.4433
  594MPD2    H2 8809   2.514   1.307  13.712 -0.1214  0.7272 -0.4079
  594MPD2    H3 8810   2.745   1.378  13.619 -0.7463 -0.9390  0.1568
  594MPD2     N 8811   2.849   1.527  14.027 -1.1187  0.1000 -0.6870
  594MPD2    H5 8812   2.815   1.536  14.122  0.1801  2.2327 -0.4272
  594MPD2    N1 8813   2.455   1.265  13.953 -0.0391 -0.0091  0.0545
  594MPD2    H7 8814   2.383   1.253  13.882 -0.2640  0.4291  0.2129
  595TMC3    C1 8815   3.185   1.726  14.275 -0.1990 -0.0520  0.5239
  595TMC3    C2 8816   3.147   1.691  14.148  0.1401 -0.7572  0.5048
  595TMC3    C3 8817   3.012   1.676  14.117 -0.6605  0.2454  0.0711
  595TMC3    C4 8818   3.093   1.775  14.362  0.7868 -0.2756 -0.7433
  595TMC3    C5 8819   2.958   1.767  14.329 -0.6155 -0.4367 -0.3769
  595TMC3    C6 8820   2.910   1.704  14.212 -0.1868  0.4418  0.2075
  595TMC3     C 8821   3.313   1.693  14.327  0.0861 -0.3788 -1.0923
  595TMC3     O 8822   3.348   1.752  14.431  0.5557  0.0204  0.6086
  595TMC3     H 8823   3.219   1.651  14.077 -1.1907 -0.8233 -0.8151
  595TMC3    H1 8824   3.129   1.814  14.456 -1.1941 -1.5082  0.5124
  595TMC3    H2 8825   2.805   1.711  14.188  0.6221  1.3958 -3.1259
  595TMC3    C7 8826   2.857   1.780  14.433  0.2902 -0.1294  0.2821
  595TMC3    C8 8827   2.970   1.594  14.003  0.1700 -0.2997 -0.0509
  595TMC3    O1 8828   2.759   1.840  14.394 -0.3283 -0.1562 -0.0176
  595TMC3    O2 8829   3.044   1.593  13.903 -0.3609 -0.7736 -0.2670
  596MPD2     C 8830   1.680   4.116  16.772  0.6316  0.3951  0.9906
  596MPD2    C1 8831   1.695   4.233  16.701 -0.6380 -0.1329  0.0602
  596MPD2    C2 8832   1.728   4.222  16.571 -0.1364 -1.0804 -0.0887
  596MPD2    C3 8833   1.737   4.098  16.505  0.5793 -0.3760  0.0399
  596MPD2    C4 8834   1.713   3.983  16.578 -0.2995 -0.4621  0.4604
  596MPD2    C5 8835   1.687   3.994  16.708  1.3279  0.1386  0.1485
  596MPD2     H 8836   1.756   4.315  16.525 -0.5589 -0.2510  1.3268
  596MPD2    H1 8837   1.721   3.882  16.540  0.9959 -0.2382  0.1242
  596MPD2    H2 8838   1.668   4.115  16.880  0.7648 -3.3295  0.9524
  596MPD2    H3 8839   1.680   3.905  16.769 -1.3000  1.5334  1.8721
  596MPD2     N 8840   1.755   4.090  16.367 -0.4782 -0.8509  0.5154
  596MPD2    H5 8841   1.755   3.996  16.329  0.3388 -0.7882  0.3648
  596MPD2    N1 8842   1.690   4.368  16.748 -0.6273  0.1246 -0.1090
  596MPD2    H7 8843   1.695   4.443  16.681 -1.4540 -2.6025 -3.2169
  597TMC3    C1 8844   1.646   4.547  16.908 -0.1450  0.2679  0.4856
  597TMC3    C2 8845   1.689   4.637  16.810  0.1872 -0.0818 -0.2454
  597TMC3    C3 8846   1.655   0.052  16.833 -0.0784 -0.5354 -0.2169
  597TMC3    C4 8847   1.585   4.585  17.025 -0.1378 -0.0368  0.2441
  597TMC3    C5 8848   1.576   4.722  17.051 -0.5491  0.5932 -0.0846
  597TMC3    C6 8849   1.611   0.095  16.961 -0.2163  0.3865  0.7585
  597TMC3     C 8850   1.659   4.402  16.879 -0.4158 -0.3133  0.1996
  597TMC3     O 8851   1.638   4.322  16.971  0.2218  0.9546 -0.4823
  597TMC3     H 8852   1.742   4.609  16.720 -0.5243  0.2296 -0.7675
  597TMC3    H1 8853   1.553   4.509  17.095 -1.2069 -1.0061 -1.3134
  597TMC3    H2 8854   1.601   0.201  16.978  1.1745  0.5110  0.8082
  597TMC3    C7 8855   1.471   0.035  17.148 -0.4910  0.2016  0.1693
  597TMC3    C8 8856   1.707   0.155  16.741  0.0936  0.6284 -0.3338
  597TMC3    O1 8857   1.448   4.675  17.235  0.4770 -0.4466 -0.3727
  597TMC3    O2 8858   1.675   0.264  16.779 -0.3873  0.6469  0.0084
  598TMC3    C1 8859   0.047   1.288  15.702 -0.3265 -0.6947  0.1591
  598TMC3    C2 8860   4.651   1.227  15.661  0.2072  0.0512  0.1428
  598TMC3    C3 8861   4.634   1.183  15.534  0.8049 -0.1132  0.7173
  598TMC3    C4 8862   0.140   1.324  15.607 -0.5104 -0.0401 -0.9043
  598TMC3    C5 8863   0.124   1.282  15.482 -0.0976 -0.7726 -0.4754
  598TMC3    C6 8864   0.018   1.200  15.446  0.3825  0.1772  0.0068
  598TMC3     C 8865   0.076   1.322  15.840 -0.4486  0.3711  0.0396
  598TMC3     O 8866   0.170   1.399  15.855 -0.3270  0.8076  0.1281
  598TMC3     H 8867   4.573   1.218  15.737 -0.8518  1.0975 -0.8242
  598TMC3    H1 8868   0.238   1.356  15.643 -0.8732 -0.3892  0.3749
  598TMC3    H2 8869   0.006   1.170  15.343 -0.2479  0.2654  0.0513
  598TMC3    C7 8870   0.220   1.306  15.373  0.3689  0.3737  0.0934
  598TMC3    C8 8871   4.521   1.099  15.499  0.6793  0.1058  0.8595
  598TMC3    O1 8872   0.195   1.250  15.266  0.3588 -0.2528  0.2804
  598TMC3    O2 8873   4.452   1.059  15.591 -0.3932  0.5291 -0.2270
  599MPD2     C 8874   0.031   3.623  16.735  0.1879  0.6035  0.0601
  599MPD2    C1 8875   0.022   3.578  16.604  0.0780 -0.2674  0.2799
  599MPD2    C2 8876   4.617   3.556  16.555  0.6005 -0.5029 -0.4270
  599MPD2    C3 8877   4.506   3.607  16.620  0.1425  0.8216  0.4451
  599MPD2    C4 8878   4.526   3.658  16.745  0.1611  0.5526  1.0109
  599MPD2    C5 8879   4.650   3.665  16.806 -0.0180 -0.0746 -0.5179
  599MPD2     H 8880   4.609   3.531  16.450  0.5361  0.4535 -0.6564
  599MPD2    H1 8881   4.441   3.683  16.806 -0.7728 -0.2907  0.0664
  599MPD2    H2 8882   0.128   3.633  16.783  1.2271 -3.9006 -1.0329
  599MPD2    H3 8883   4.662   3.707  16.905 -0.5674  1.0538 -0.9307
  599MPD2     N 8884   4.372   3.606  16.567  0.1174 -0.0089 -0.8723
  599MPD2    H5 8885   4.298   3.653  16.617  0.2206  0.9164 -1.5726
  599MPD2    N1 8886   0.140   3.550  16.536  0.4339  0.3226  0.0976
  599MPD2    H7 8887   0.222   3.539  16.594  0.6904  0.0264 -0.3207
  600TMC3    C1 8888   4.198   3.544  16.422  0.0125  0.1389  0.4485
  600TMC3    C2 8889   4.141   3.422  16.399 -0.2153  0.0045 -0.1081
  600TMC3    C3 8890   4.006   3.415  16.416 -0.5555  0.0125 -0.2618
  600TMC3    C4 8891   4.127   3.658  16.426  0.3862 -0.2466  1.1746
  600TMC3    C5 8892   3.991   3.643  16.434  0.3886 -0.0201 -0.5878
  600TMC3    C6 8893   3.927   3.521  16.429 -0.0474 -0.9192 -0.4426
  600TMC3     C 8894   4.340   3.548  16.449  0.6527  0.0568 -0.2098
  600TMC3     O 8895   4.406   3.480  16.370 -0.0881  0.7160 -0.5173
  600TMC3     H 8896   4.201   3.333  16.387 -0.8215 -0.0918 -2.3781
  600TMC3    H1 8897   4.175   3.756  16.422  1.8357 -1.1702 -3.4589
  600TMC3    H2 8898   3.821   3.519  16.452 -0.0907  0.1853 -0.5231
  600TMC3    C7 8899   3.904   3.764  16.446 -0.4376 -0.2671 -0.1397
  600TMC3    C8 8900   3.956   3.275  16.431  0.4236 -0.3893  0.0199
  600TMC3    O1 8901   3.795   3.773  16.392  0.3237 -0.0514  0.8554
  600TMC3    O2 8902   4.045   3.192  16.424  0.3008 -0.0009  0.7359
  601MPD2     C 8903   2.254   1.627   0.451 -0.1402 -0.2816  0.2439
  601MPD2    C1 8904   2.186   1.612   0.333  0.3393 -0.5187  0.1097
  601MPD2    C2 8905   2.163   1.487   0.282  0.4359  0.1068 -0.4049
  601MPD2    C3 8906   2.213   1.374   0.344 -0.2871 -0.4923  0.5704
  601MPD2    C4 8907   2.265   1.392   0.466  0.0834 -0.3598 -0.9581
  601MPD2    C5 8908   2.273   1.514   0.526 -0.7638  0.2065  0.1666
  601MPD2     H 8909   2.108   1.477   0.189 -0.2085  2.6049 -0.3043
  601MPD2    H1 8910   2.315   1.310   0.517  0.0141 -1.2207 -2.2632
  601MPD2    H2 8911   2.282   1.723   0.492 -1.4397  0.7658 -1.3072
  601MPD2    H3 8912   2.322   1.534   0.620 -1.3567  0.0846  0.4956
  601MPD2     N 8913   2.193   1.243   0.299 -0.0022  0.1021 -0.2486
  601MPD2    H5 8914   2.200   1.168   0.367  1.6629  0.6135  0.1318
  601MPD2    N1 8915   2.142   1.726   0.264 -0.0982 -0.0909 -0.1426
  601MPD2    H7 8916   2.078   1.720   0.186  1.2287  1.2592 -1.3424
  602TMC3    C1 8917   2.149   1.927   0.166 -0.1752 -0.2806 -0.0024
  602TMC3    C2 8918   2.246   1.995   0.097  1.0155 -0.0165  0.0588
  602TMC3    C3 8919   2.200   2.056  17.675 -0.4840  0.1266  0.0575
  602TMC3    C4 8920   2.022   1.924   0.119  0.8092  0.2399 -0.2575
  602TMC3    C5 8921   1.976   2.011   0.021 -0.5074 -1.0570 -0.1598
  602TMC3    C6 8922   2.068   2.074  17.637 -0.7780  0.4057  0.0711
  602TMC3     C 8923   2.196   1.847   0.275 -0.1604  0.4598 -0.4146
  602TMC3     O 8924   2.285   1.895   0.345  0.1112 -0.1384  0.9750
  602TMC3     H 8925   2.351   2.002   0.123  1.2857 -2.1254 -0.4768
  602TMC3    H1 8926   1.941   1.879   0.176  0.4842  2.0574  0.7205
  602TMC3    H2 8927   2.041   2.131  17.548 -0.3248  1.9257  0.9003
  602TMC3    C7 8928   1.837   2.034  17.688 -0.0951 -0.3750  0.6086
  602TMC3    C8 8929   2.301   2.131  17.598  0.5923  0.1982 -0.2375
  602TMC3    O1 8930   1.764   1.934   0.014 -0.1089  0.3829  0.3411
  602TMC3    O2 8931   2.404   2.076  17.558 -0.2088 -0.2534  0.0114
  603TMC3    C1 8932   0.874   1.396  11.235 -0.1671  0.2045  0.1897
  603TMC3    C2 8933   0.875   1.451  11.364 -0.0502 -0.1417  0.4764
  603TMC3    C3 8934   0.801   1.573  11.385 -0.1386 -0.4860 -0.0418
  603TMC3    C4 8935   0.816   1.450  11.125  0.0786 -0.5727 -0.4753
  603TMC3    C5 8936   0.751   1.565  11.155  0.8019  0.3898 -0.3237
  603TMC3    C6 8937   0.739   1.629  11.278  0.5255  0.1068 -0.0890
  603TMC3     C 8938   0.934   1.270  11.207 -0.3421  0.0971 -0.5573
  603TMC3     O 8939   0.944   1.242  11.086 -0.1040 -0.6173  0.2294
  603TMC3     H 8940   0.926   1.408  11.449 -0.0181  0.4766  0.7725
  603TMC3    H1 8941   0.847   1.426  11.024 -1.1005 -2.0026 -0.5026
  603TMC3    H2 8942   0.671   1.713  11.289 -0.5580 -0.7287 -0.3426
  603TMC3    C7 8943   0.698   1.640  11.038 -0.8845 -0.0550  0.3716
  603TMC3    C8 8944   0.759   1.593  11.523  0.2189 -0.4933 -0.1456
  603TMC3    O1 8945   0.675   1.758  11.065  0.2056 -0.0782  0.2022
  603TMC3    O2 8946   0.775   1.500  11.596  0.2575  0.1983  0.4237
  604MPD2     C 8947   0.970   0.981  16.396  0.5418  0.0836 -0.1482
  604MPD2    C1 8948   0.870   0.895  16.419 -0.3676  0.4403 -0.2954
  604MPD2    C2 8949   0.838   0.801  16.326  0.2099 -1.1111 -0.3772
  604MPD2    C3 8950   0.910   0.781  16.212  0.0058 -0.3543 -0.1441
  604MPD2    C4 8951   1.021   0.856  16.199  0.1388 -0.0308  0.0151
  604MPD2    C5 8952   1.043   0.973  16.274  0.2193 -0.6962 -0.2149
  604MPD2     H 8953   0.751   0.739  16.345 -0.1798 -0.0767  1.2517
  604MPD2    H1 8954   1.088   0.854  16.114 -0.6825  1.2524 -0.6508
  604MPD2    H2 8955   1.003   1.062  16.460 -0.2948  1.0551 -0.9557
  604MPD2    H3 8956   1.120   1.043  16.244 -2.5476  2.5966  0.4450
  604MPD2     N 8957   0.887   0.674  16.126  0.4209 -0.0882 -0.0779
  604MPD2    H5 8958   0.809   0.614  16.151 -1.3912  0.9010 -3.2361
  604MPD2    N1 8959   0.790   0.921  16.538  0.0940  0.1394  0.5093
  604MPD2    H7 8960   0.808   1.014  16.574 -0.6030  1.5423 -2.7639
  605TMC3    C1 8961   0.646   0.899  16.721  0.2503  0.1116 -0.0809
  605TMC3    C2 8962   0.722   0.983  16.793 -0.5974  0.0029 -0.3327
  605TMC3    C3 8963   0.678   1.042  16.907  0.3457  0.5812 -0.5405
  605TMC3    C4 8964   0.517   0.885  16.751 -0.4231  0.1873 -0.6828
  605TMC3    C5 8965   0.457   0.972  16.843  0.5033  0.0926  0.2353
  605TMC3    C6 8966   0.542   1.041  16.932 -0.0866  0.1233  0.7255
  605TMC3     C 8967   0.687   0.845  16.589  0.0136  0.5282  0.8322
  605TMC3     O 8968   0.641   0.741  16.549 -0.4247 -0.0874  0.4090
  605TMC3     H 8969   0.827   0.986  16.764 -0.4499  0.3654  0.2390
  605TMC3    H1 8970   0.465   0.830  16.672  1.2114 -3.3439  0.6925
  605TMC3    H2 8971   0.495   1.111  17.000  0.8871  0.9006  0.5995
  605TMC3    C7 8972   0.321   1.014  16.827 -0.3320 -0.3265 -0.2370
  605TMC3    C8 8973   0.759   1.134  16.983  0.5370  0.6472  0.7750
  605TMC3    O1 8974   0.293   1.130  16.854 -0.4647 -0.4081  0.1110
  605TMC3    O2 8975   0.722   1.167  17.092  0.3259  0.3255 -0.0360
  606TMC3    C1 8976   1.946   4.264  17.190 -0.3520 -0.0238 -0.2158
  606TMC3    C2 8977   1.964   4.277  17.322 -0.0911 -0.7334 -0.2455
  606TMC3    C3 8978   1.939   4.172  17.405  0.2189  0.3473 -0.0649
  606TMC3    C4 8979   1.897   4.151  17.132 -0.2553  0.4126  0.5108
  606TMC3    C5 8980   1.871   4.049  17.213 -0.2276 -0.2228  0.3971
  606TMC3    C6 8981   1.877   4.056  17.354  0.2816  0.3917  0.7880
  606TMC3     C 8982   1.967   4.387  17.108 -0.2202  0.3546  0.0386
  606TMC3     O 8983   1.959   4.486  17.178  0.1753 -0.0254  0.0297
  606TMC3     H 8984   2.015   4.365  17.361 -1.0655  0.2183 -1.0836
  606TMC3    H1 8985   1.877   4.138  17.026  0.6003 -1.6405  0.6127
  606TMC3    H2 8986   1.863   3.973  17.422  0.0160 -1.8935 -2.0512
  606TMC3    C7 8987   1.841   3.917  17.146  0.0799  0.3206 -0.2339
  606TMC3    C8 8988   1.992   4.180  17.538 -0.1234 -0.7514 -0.6582
  606TMC3    O1 8989   1.896   3.897  17.037 -0.1741 -0.5755 -0.3671
  606TMC3    O2 8990   2.093   4.251  17.545 -0.1528 -0.2380  0.1001
  607MPD2     C 8991   4.088   1.726  11.692 -0.0951  0.1899 -0.4682
  607MPD2    C1 8992   4.118   1.805  11.796  0.4662 -0.2737 -0.0109
  607MPD2    C2 8993   4.116   1.760  11.921  0.0116 -0.2394 -0.1329
  607MPD2    C3 8994   4.107   1.623  11.948 -0.0848 -0.0596  0.6168
  607MPD2    C4 8995   4.073   1.540  11.843 -0.0401 -0.3007 -0.3965
  607MPD2    C5 8996   4.063   1.596  11.719  0.5905  0.0745 -0.5989
  607MPD2     H 8997   4.141   1.830  12.000  1.5651  0.6427 -1.3984
  607MPD2    H1 8998   4.057   1.435  11.864 -1.4429 -0.8799 -4.2653
  607MPD2    H2 8999   4.060   1.766  11.595 -1.5101  1.7529  0.5918
  607MPD2    H3 9000   4.020   1.533  11.643 -0.9730  0.7863 -0.3014
  607MPD2     N 9001   4.112   1.592  12.085 -0.4230 -0.2857 -0.2367
  607MPD2    H5 9002   4.119   1.670  12.149  3.7244 -0.1638 -0.8033
  607MPD2    N1 9003   4.144   1.943  11.785 -0.1012 -0.0014  0.1679
  607MPD2    H7 9004   4.138   1.990  11.874 -1.5812  0.3855 -0.1240
  608TMC3    C1 9005   4.236   2.144  11.714  0.3265  0.3038  0.1588
  608TMC3    C2 9006   4.273   2.152  11.843  0.1442  0.2039  0.6203
  608TMC3    C3 9007   4.357   2.254  11.879  0.5909 -0.2413  0.1670
  608TMC3    C4 9008   4.284   2.223  11.619 -0.7534 -0.2045 -0.0907
  608TMC3    C5 9009   4.363   2.328  11.656 -0.4433 -0.3320  0.3507
  608TMC3    C6 9010   4.399   2.347  11.792  0.8254  0.5843 -0.7846
  608TMC3     C 9011   4.183   2.016  11.673 -0.3496 -0.0326 -0.4688
  608TMC3     O 9012   4.178   1.982  11.555 -0.2538  0.4267 -0.3889
  608TMC3     H 9013   4.231   2.097  11.926  0.7971 -0.8825  0.2331
  608TMC3    H1 9014   4.274   2.205  11.512 -0.7303 -2.3081  0.2613
  608TMC3    H2 9015   4.441   2.438  11.832 -1.2612  1.4844 -0.6343
  608TMC3    C7 9016   4.441   2.390  11.558  0.1412 -0.2952  0.0168
  608TMC3    C8 9017   4.404   2.269  12.013 -0.8887 -0.2826 -0.9190
  608TMC3    O1 9018   4.445   2.348  11.444  0.7543  0.3774 -0.0114
  608TMC3    O2 9019   4.411   2.382  12.050 -0.2757  0.5342  0.1169
  609TMC3    C1 9020   2.294   1.170   9.638 -0.8152  0.7169 -0.0390
  609TMC3    C2 9021   2.333   1.294   9.595 -0.5811 -0.5559 -0.0061
  609TMC3    C3 9022   2.467   1.314   9.562 -1.0176  0.1022  0.2940
  609TMC3    C4 9023   2.372   1.058   9.615  0.4501  0.2682 -0.6016
  609TMC3    C5 9024   2.493   1.081   9.563  0.2336  0.4198  0.2093
  609TMC3    C6 9025   2.550   1.208   9.539 -0.0459 -0.0764 -0.2254
  609TMC3     C 9026   2.246   1.164   9.773 -0.1117  0.4533 -0.5429
  609TMC3     O 9027   2.267   1.059   9.831  0.2648 -0.4446  0.0083
  609TMC3     H 9028   2.278   1.387   9.602 -2.2412 -1.6861  1.8155
  609TMC3    H1 9029   2.359   0.959   9.656  0.9398 -0.3567 -1.9654
  609TMC3    H2 9030   2.656   1.211   9.513  0.4996  2.7083  2.3567
  609TMC3    C7 9031   2.582   0.964   9.541 -0.7115  0.2121  0.1646
  609TMC3    C8 9032   2.518   1.448   9.554 -0.2175 -0.3550 -0.7055
  609TMC3    O1 9033   2.704   0.982   9.537 -0.0284 -0.4667 -0.2437
  609TMC3    O2 9034   2.454   1.544   9.599  0.1457 -0.3139 -0.2216
  610TMC3    C1 9035   4.317   1.092  12.925 -0.3506 -0.5040  0.1076
  610TMC3    C2 9036   4.326   1.192  13.018 -0.6530  0.8750 -0.3258
  610TMC3    C3 9037   4.418   1.172  13.120  0.3253 -0.6854  0.4543
  610TMC3    C4 9038   4.379   0.973  12.935 -0.0351 -0.3316  0.1009
  610TMC3    C5 9039   4.471   0.961  13.040 -0.5036 -0.6504 -0.7425
  610TMC3    C6 9040   4.495   1.060  13.128 -0.5632  0.2063  0.4877
  610TMC3     C 9041   4.215   1.121  12.823 -0.3828 -0.0504 -0.0728
  610TMC3     O 9042   4.171   1.027  12.766 -0.3713 -0.4174 -0.5052
  610TMC3     H 9043   4.269   1.284  13.019 -1.3903  0.4318 -0.9442
  610TMC3    H1 9044   4.359   0.901  12.856  0.3098 -2.2804  1.7812
  610TMC3    H2 9045   4.561   1.044  13.212 -0.8667 -0.1124  0.6631
  610TMC3    C7 9046   4.531   0.827  13.070 -0.0669 -0.1468 -0.5319
  610TMC3    C8 9047   4.444   1.282  13.205 -1.0263  0.6029 -0.4379
  610TMC3    O1 9048   4.576   0.816  13.185  0.5281  0.2142  0.9616
  610TMC3    O2 9049   4.349   1.360  13.223  0.2975 -0.4650  0.1886
  611MPD2     C 9050   4.469   0.617  10.357 -0.1714  0.0333 -0.0347
  611MPD2    C1 9051   4.424   0.744  10.324  0.0661 -0.0530  0.3747
  611MPD2    C2 9052   4.517   0.845  10.303  0.0026  0.2933  0.4922
  611MPD2    C3 9053   4.648   0.830  10.335 -0.7595 -0.0615  0.0598
  611MPD2    C4 9054   4.688   0.705  10.368  0.2766 -0.8546 -0.0940
  611MPD2    C5 9055   4.598   0.597  10.386  0.0736 -0.9379 -0.2727
  611MPD2     H 9056   4.490   0.944  10.270  0.1322  0.0059 -0.4804
  611MPD2    H1 9057   0.068   0.681  10.393  0.1132 -2.0422 -0.5400
  611MPD2    H2 9058   4.402   0.533  10.370 -0.3087  0.3955  1.6209
  611MPD2    H3 9059   4.636   0.505  10.428 -1.1331 -0.8763  0.9333
  611MPD2     N 9060   0.024   0.932  10.340  0.6616  0.7042 -0.6231
  611MPD2    H5 9061   0.120   0.900  10.352  0.7592  1.7076  1.3154
  611MPD2    N1 9062   4.284   0.760  10.287  0.6510 -0.3820 -0.1089
  611MPD2    H7 9063   4.225   0.678  10.303 -0.2982  0.3924  0.3919
  612TMC3    C1 9064   0.118   1.144  10.319 -0.1360  0.7111  0.2442
  612TMC3    C2 9065   0.132   1.247  10.405  1.1345  0.5252  1.2337
  612TMC3    C3 9066   0.252   1.304  10.416 -0.5717 -0.1814  0.2001
  612TMC3    C4 9067   0.214   1.092  10.241 -0.5559  0.4621 -0.6417
  612TMC3    C5 9068   0.329   1.158  10.246  0.5458 -0.3092 -0.2864
  612TMC3    C6 9069   0.354   1.261  10.339  0.6076 -0.6806  0.2077
  612TMC3     C 9070   4.720   1.068  10.339  0.1644  0.3524 -0.6264
  612TMC3     O 9071   4.615   1.129  10.359  0.0416  0.1999 -0.4440
  612TMC3     H 9072   0.051   1.292  10.461 -0.6107 -0.6157 -0.3486
  612TMC3    H1 9073   0.196   1.026  10.156  0.5059  1.1964 -1.4327
  612TMC3    H2 9074   0.455   1.299  10.347  1.0978 -1.7465 -0.9685
  612TMC3    C7 9075   0.438   1.088  10.173  0.4755  0.3339  0.3309
  612TMC3    C8 9076   0.263   1.419  10.497 -0.3877  0.0922  0.0684
  612TMC3    O1 9077   0.408   1.028  10.071 -0.0669  0.3111  0.1925
  612TMC3    O2 9078   0.160   1.472  10.533  0.4854 -0.0690 -0.6667
  613MPD2     C 9079   3.099   0.481  15.744  0.1661 -0.0346  0.3737
  613MPD2    C1 9080   3.106   0.454  15.605  0.6411 -0.1626 -0.1559
  613MPD2    C2 9081   3.163   0.344  15.552 -0.1413  0.1709  0.3715
  613MPD2    C3 9082   3.213   0.248  15.631  0.4585 -0.0634 -0.0818
  613MPD2    C4 9083   3.193   0.257  15.769 -0.1163 -0.5468 -0.5845
  613MPD2    C5 9084   3.139   0.376  15.824  0.0678  0.1736  0.2125
  613MPD2     H 9085   3.153   0.313  15.449  0.9134 -0.1908  0.3850
  613MPD2    H1 9086   3.214   0.184  15.846 -0.7760  1.5263  1.5715
  613MPD2    H2 9087   3.056   0.571  15.786 -2.5158 -1.0742 -0.0884
  613MPD2    H3 9088   3.126   0.386  15.931 -2.2127  1.3101 -0.1618
  613MPD2     N 9089   3.280   0.135  15.579 -0.1043  0.2447  0.6180
  613MPD2    H5 9090   3.299   0.138  15.479  1.7858  2.7851  1.0799
  613MPD2    N1 9091   3.044   0.553  15.529  0.3501  0.9112 -0.3251
  613MPD2    H7 9092   2.993   0.622  15.583 -1.9470 -0.1268 -1.1507
  614TMC3    C1 9093   2.945   0.649  15.336 -0.0740 -0.4276 -0.1799
  614TMC3    C2 9094   2.971   0.660  15.201 -0.4929  0.1770 -0.6302
  614TMC3    C3 9095   2.883   0.638  15.097  0.3243  1.0211 -0.1935
  614TMC3    C4 9096   2.815   0.618  15.370  0.2485  0.0797  0.3804
  614TMC3    C5 9097   2.721   0.606  15.273  0.0028  0.2463  0.2608
  614TMC3    C6 9098   2.755   0.607  15.139  0.6159 -0.0973 -0.0672
  614TMC3     C 9099   3.048   0.565  15.395  1.0150 -0.6961  0.1043
  614TMC3     O 9100   3.112   0.498  15.319  0.5667  0.6925  0.4497
  614TMC3     H 9101   3.074   0.675  15.172  0.4864  0.6824  3.0842
  614TMC3    H1 9102   2.777   0.602  15.470 -1.9064 -1.3045 -0.6791
  614TMC3    H2 9103   2.678   0.579  15.067  0.1132 -1.1989  0.9042
  614TMC3    C7 9104   2.617   0.517  15.315 -0.4256  0.1955 -0.2238
  614TMC3    C8 9105   2.921   0.532  15.013  0.2338  0.5057  0.9049
  614TMC3    O1 9106   2.562   0.532  15.423 -0.2112  0.1278 -0.6983
  614TMC3    O2 9107   2.846   0.509  14.922  0.6910 -0.4365  0.5608
  615MPD2     C 9108   2.502   0.935  16.765 -0.8113  0.6087 -0.3895
  615MPD2    C1 9109   2.404   0.998  16.688 -0.2875  0.1649  0.5838
  615MPD2    C2 9110   2.352   0.938  16.576 -1.1284  0.1838  0.1016
  615MPD2    C3 9111   2.413   0.824  16.529  0.4312 -0.4694 -0.2675
  615MPD2    C4 9112   2.513   0.762  16.604 -0.1759  0.0568  0.4720
  615MPD2    C5 9113   2.550   0.818  16.720  0.5176 -0.8333  0.3801
  615MPD2     H 9114   2.280   0.988  16.512 -0.2790  0.2165 -0.8219
  615MPD2    H1 9115   2.566   0.674  16.569  3.1271  1.6015  1.5174
  615MPD2    H2 9116   2.535   0.962  16.865 -2.6518 -2.3159  0.9857
  615MPD2    H3 9117   2.635   0.778  16.774  0.4379 -1.7587 -0.1754
  615MPD2     N 9118   2.380   0.763  16.406  0.4416  0.1974  0.4227
  615MPD2    H5 9119   2.451   0.698  16.375  0.3049  0.2353  0.0322
  615MPD2    N1 9120   2.355   1.129  16.715  0.0141  0.9064 -0.5163
  615MPD2    H7 9121   2.274   1.171  16.670 -1.0318 -0.6149 -0.0295
  616TMC3    C1 9122   2.388   1.359  16.785  0.3759  0.1469  0.0332
  616TMC3    C2 9123   2.486   1.457  16.773  0.7855  0.1618 -0.0159
  616TMC3    C3 9124   2.450   1.576  16.831  0.3468  0.2005 -0.0986
  616TMC3    C4 9125   2.275   1.371  16.862  0.1344 -0.2360 -0.2405
  616TMC3    C5 9126   2.255   1.491  16.920 -0.7213  0.3061  0.1424
  616TMC3    C6 9127   2.333   1.601  16.892  0.4997  0.1596  0.2911
  616TMC3     C 9128   2.438   1.222  16.771 -0.6235 -0.6102 -0.4910
  616TMC3     O 9129   2.551   1.207  16.814  0.0976  0.5054 -0.3012
  616TMC3     H 9130   2.578   1.437  16.718  1.3193 -0.2769  1.0441
  616TMC3    H1 9131   2.212   1.284  16.875 -0.4402  0.2953  0.5236
  616TMC3    H2 9132   2.306   1.700  16.925 -4.0440 -0.6321 -1.0284
  616TMC3    C7 9133   2.134   1.518  16.992  0.7243 -0.5810  0.1931
  616TMC3    C8 9134   2.534   1.697  16.804  0.4331  0.8645 -0.0586
  616TMC3    O1 9135   2.048   1.427  16.981 -0.4981  0.0467  0.0203
  616TMC3    O2 9136   2.476   1.805  16.790  0.0074  0.2915 -0.6609
  617MPD2     C 9137   0.234   3.731  14.107  0.0960  1.0159  0.3704
  617MPD2    C1 9138   0.216   3.652  14.216  0.0529  0.3277  0.2227
  617MPD2    C2 9139   0.093   3.620  14.263  0.2331  0.0355  0.1894
  617MPD2    C3 9140   4.701   3.660  14.206 -0.1476  0.7211  0.8994
  617MPD2    C4 9141   4.716   3.741  14.095 -0.6855  0.5199  0.7096
  617MPD2    C5 9142   0.118   3.776  14.050  0.6703 -0.9912  0.0243
  617MPD2     H 9143   0.098   3.561  14.354 -0.5181  0.3128  0.4106
  617MPD2    H1 9144   4.625   3.782  14.051  0.3006  1.0687 -0.8122
  617MPD2    H2 9145   0.330   3.768  14.074  0.5883 -0.0162  0.6334
  617MPD2    H3 9146   0.115   3.837  13.960 -1.7581 -0.1405  0.6680
  617MPD2     N 9147   4.567   3.620  14.244  0.4927 -0.4435  0.3072
  617MPD2    H5 9148   4.492   3.627  14.177  0.4712 -2.4902  0.1224
  617MPD2    N1 9149   0.339   3.598  14.268  0.3332 -0.1752 -0.4680
  617MPD2    H7 9150   0.424   3.626  14.220  0.5029 -0.2659 -0.2201
  618TMC3    C1 9151   0.476   3.463  14.391 -0.4362 -0.0396 -0.5166
  618TMC3    C2 9152   0.510   3.345  14.341  0.7691  0.0150 -0.0109
  618TMC3    C3 9153   0.640   3.314  14.310 -0.3191 -0.0770  0.5661
  618TMC3    C4 9154   0.565   3.561  14.403  0.5990  0.0349 -0.0514
  618TMC3    C5 9155   0.697   3.535  14.384  0.2181  0.3209 -0.1004
  618TMC3    C6 9156   0.737   3.409  14.340  0.0388 -0.0938 -0.5257
  618TMC3     C 9157   0.342   3.495  14.366  0.0678 -0.3906  0.1965
  618TMC3     O 9158   0.259   3.418  14.414  0.2159  0.0517  0.6013
  618TMC3     H 9159   0.432   3.271  14.328 -0.5778  1.2562  0.9995
  618TMC3    H1 9160   0.533   3.659  14.434 -1.5578 -0.3913 -0.9069
  618TMC3    H2 9161   0.842   3.383  14.338 -0.3792 -1.7603 -0.7413
  618TMC3    C7 9162   0.799   3.639  14.401  0.1613  0.5839 -0.3699
  618TMC3    C8 9163   0.665   3.209  14.212  0.1120  0.1035  0.1957
  618TMC3    O1 9164   0.795   3.708  14.498 -0.0865  0.1179  0.2270
  618TMC3    O2 9165   0.570   3.140  14.193  0.1013 -0.0251 -0.0584
  619MPD2     C 9166   1.978   4.665  13.230 -0.9375  0.5313  0.5039
  619MPD2    C1 9167   1.961   0.072  13.263  0.4989  0.0693  0.4890
  619MPD2    C2 9168   1.968   0.099  13.401 -0.2728 -0.9689  0.0773
  619MPD2    C3 9169   1.976   0.003  13.500  0.1106 -0.3220  0.4401
  619MPD2    C4 9170   1.969   4.598  13.462 -0.2438  0.3375 -0.0755
  619MPD2    C5 9171   1.972   4.571  13.328 -0.4539 -1.0497  0.4265
  619MPD2     H 9172   1.976   0.203  13.432 -0.4644 -0.9637  0.1061
  619MPD2    H1 9173   1.972   4.515  13.532  0.0010  1.4489  1.2183
  619MPD2    H2 9174   1.990   4.637  13.126  1.4776  0.2449  0.8516
  619MPD2    H3 9175   1.982   4.469  13.296 -0.5108 -0.3038 -1.9473
  619MPD2     N 9176   1.977   0.035  13.637 -0.5878 -0.0217 -0.0398
  619MPD2    H5 9177   2.004   4.680  13.696  1.9776  2.7215  2.3703
  619MPD2    N1 9178   1.953   0.182  13.173 -0.1121 -0.1446  0.7816
  619MPD2    H7 9179   1.950   0.274  13.217  3.3013  0.3686  0.0167
  620TMC3    C1 9180   1.972   0.297  12.965  0.1834 -0.0638  0.2030
  620TMC3    C2 9181   1.903   0.305  12.848  0.3246  0.0445 -0.5199
  620TMC3    C3 9182   1.841   0.417  12.810 -0.2223 -0.4301  0.1198
  620TMC3    C4 9183   1.987   0.408  13.044  0.0791  0.5769  0.1848
  620TMC3    C5 9184   1.936   0.525  12.996  0.3234  0.4316 -0.5764
  620TMC3    C6 9185   1.862   0.538  12.884 -0.0536 -0.0007 -0.4385
  620TMC3     C 9186   1.958   0.167  13.031  0.6442 -0.0061  0.2507
  620TMC3     O 9187   1.957   0.065  12.964 -0.1107 -0.0262 -0.6763
  620TMC3     H 9188   1.883   0.211  12.798  1.9903 -0.9445  0.6792
  620TMC3    H1 9189   2.043   0.405  13.137 -0.0736 -1.7593  0.1998
  620TMC3    H2 9190   1.815   0.630  12.850  1.7284  1.5556  1.3612
  620TMC3    C7 9191   1.928   0.645  13.076  0.3910 -0.4758 -0.3588
  620TMC3    C8 9192   1.751   0.417  12.692  0.0535  0.2549  0.0287
  620TMC3    O1 9193   1.832   0.719  13.047 -0.1656  0.5246  0.4198
  620TMC3    O2 9194   1.797   0.350  12.599 -0.2333 -0.0795  0.5757
  621MPD2     C 9195   2.647   4.577  10.402  0.1977  0.2010  0.1793
  621MPD2    C1 9196   2.592   4.559  10.280 -0.2262  0.1908  0.3194
  621MPD2    C2 9197   2.638   4.639  10.173  0.0483 -0.4880 -0.3382
  621MPD2    C3 9198   2.724   0.019  10.199  0.4049 -0.5418 -0.2490
  621MPD2    C4 9199   2.779   0.040  10.327  0.3509 -0.5102  0.1865
  621MPD2    C5 9200   2.742   4.672  10.421  0.1448  0.0479  0.1233
  621MPD2     H 9201   2.606   4.611  10.074 -1.3937 -3.3949  0.9447
  621MPD2    H1 9202   2.833   0.130  10.354 -0.1533  0.0569 -0.7002
  621MPD2    H2 9203   2.627   4.509  10.485  1.9682  0.4572  0.8153
  621MPD2    H3 9204   2.782   4.685  10.521  0.1239  2.7341 -0.1967
  621MPD2     N 9205   2.752   0.108  10.092  0.0460 -0.0508 -0.8578
  621MPD2    H5 9206   2.697   0.103  10.007  1.2223  1.3804 -1.7072
  621MPD2    N1 9207   2.495   4.467  10.253  0.1543  0.4144  0.3429
  621MPD2    H7 9208   2.477   4.447  10.155  1.9854  0.4622 -0.0134
  622TMC3    C1 9209   2.313   4.332  10.318 -0.3997  0.0562 -0.1867
  622TMC3    C2 9210   2.205   4.326  10.410  0.8998 -0.4546  0.2458
  622TMC3    C3 9211   2.093   4.265  10.368  1.1178 -0.4383 -0.1418
  622TMC3    C4 9212   2.323   4.257  10.203 -0.3232 -0.2159  1.1999
  622TMC3    C5 9213   2.206   4.192  10.173 -0.3971 -0.0265 -0.0675
  622TMC3    C6 9214   2.094   4.195  10.252  0.1317  0.3655 -0.4930
  622TMC3     C 9215   2.425   4.410  10.355 -0.3432  0.2422  0.0033
  622TMC3     O 9216   2.425   4.433  10.475 -0.0259 -0.0340  0.1651
  622TMC3     H 9217   2.201   4.377  10.506  1.2096 -1.0157  0.5599
  622TMC3    H1 9218   2.413   4.252  10.142 -0.7796  1.4601  0.3802
  622TMC3    H2 9219   1.997   4.157  10.221 -0.8396  0.3348  2.6260
  622TMC3    C7 9220   2.182   4.187  10.033 -0.5155 -0.9434  0.1050
  622TMC3    C8 9221   1.980   4.246  10.451  0.1337 -0.2950 -0.5975
  622TMC3    O1 9222   2.083   4.240   9.984  0.3101  0.3682 -0.2374
  622TMC3    O2 9223   1.898   4.164  10.414 -0.1866  0.0367 -0.1006
  623MPD2     C 9224   1.035   1.407  16.059 -0.4815  0.0942 -0.4814
  623MPD2    C1 9225   1.020   1.401  16.197  0.3325  0.7041 -0.1442
  623MPD2    C2 9226   1.121   1.345  16.269  0.7561  0.6787 -0.0795
  623MPD2    C3 9227   1.241   1.306  16.212  0.1061 -1.3890  0.3447
  623MPD2    C4 9228   1.255   1.311  16.074 -0.3464 -1.1267  0.4905
  623MPD2    C5 9229   1.148   1.357  16.001  0.2214  0.2653 -0.4450
  623MPD2     H 9230   1.107   1.338  16.377  2.2278 -1.9851 -0.0662
  623MPD2    H1 9231   1.334   1.269  16.014  1.0378  0.1426  1.4431
  623MPD2    H2 9232   0.957   1.446  15.994  1.4292  1.1544 -2.1740
  623MPD2    H3 9233   1.158   1.363  15.893 -0.8681  1.0552 -0.5027
  623MPD2     N 9234   1.337   1.253  16.298 -0.2206  0.4298 -0.6980
  623MPD2    H5 9235   1.314   1.264  16.396 -2.7607 -0.8126 -1.1753
  623MPD2    N1 9236   0.900   1.454  16.248  0.0448  0.3317 -0.0375
  623MPD2    H7 9237   0.846   1.503  16.178  1.2273  1.1758 -0.3731
  624TMC3    C1 9238   1.652   1.260  16.548 -0.0352  0.3479 -0.0848
  624TMC3    C2 9239   1.560   1.263  16.651 -0.0179 -0.2608 -0.2507
  624TMC3    C3 9240   1.444   1.196  16.608 -0.5795 -0.7070 -0.0663
  624TMC3    C4 9241   1.636   1.203  16.426 -0.2732  0.3571  0.2881
  624TMC3    C5 9242   1.512   1.154  16.389  0.0860 -0.0288 -0.0816
  624TMC3    C6 9243   1.419   1.134  16.488  0.2428 -0.7592  0.0620
  624TMC3     C 9244   1.786   1.258  16.603 -0.0410 -0.1167 -0.4432
  624TMC3     O 9245   1.812   1.317  16.707  0.4609  0.4867  0.2739
  624TMC3     H 9246   1.564   1.321  16.742  0.3756  0.7867 -0.9331
  624TMC3    H1 9247   1.707   1.224  16.347  0.1454 -0.0825  0.5507
  624TMC3    H2 9248   1.330   1.074  16.472  0.3357 -0.8803 -0.0021
  624TMC3    C7 9249   1.459   1.203  16.268 -0.5265  0.1956 -1.3294
  624TMC3    C8 9250   1.321   1.253  16.658 -0.1630 -0.0165 -0.7021
  624TMC3    O1 9251   1.530   1.234  16.172  0.1633 -0.3609  0.0395
  624TMC3    O2 9252   1.221   1.225  16.591 -0.3348  0.0694  0.0567
  625MPD2     C 9253   1.773   1.862   0.966 -0.0699  0.0502 -0.7317
  625MPD2    C1 9254   1.752   1.990   1.014  0.0541 -0.4098 -0.2932
  625MPD2    C2 9255   1.829   2.031   1.124  0.2844  0.2824  0.2069
  625MPD2    C3 9256   1.933   1.945   1.166 -0.1372 -1.1569 -0.5770
  625MPD2    C4 9257   1.946   1.813   1.116 -0.3167  0.1575 -0.3091
  625MPD2    C5 9258   1.869   1.780   1.009 -0.3068  0.2515 -0.2736
  625MPD2     H 9259   1.820   2.123   1.180 -2.0718 -1.9305  3.4880
  625MPD2    H1 9260   2.021   1.744   1.153  0.0344 -0.7854 -2.8337
  625MPD2    H2 9261   1.720   1.834   0.875  0.4140  1.5617 -1.4601
  625MPD2    H3 9262   1.884   1.682   0.966 -0.6356 -0.0045  0.2005
  625MPD2     N 9263   2.022   2.000   1.260  0.3423 -0.1266  0.2997
  625MPD2    H5 9264   2.026   2.100   1.278  1.0692 -0.3957  1.6352
  625MPD2    N1 9265   1.655   2.077   0.951  0.2118 -0.3062 -0.9583
  625MPD2    H7 9266   1.648   2.172   0.986  0.4985 -0.1741 -1.2524
  626TMC3    C1 9267   1.489   2.166   0.793 -0.2562 -0.5608 -0.1207
  626TMC3    C2 9268   1.456   2.178   0.663 -0.2567  0.7212 -0.0331
  626TMC3    C3 9269   1.390   2.286   0.617  0.2545  0.4039  0.3172
  626TMC3    C4 9270   1.422   2.244   0.884 -0.3942 -0.4255 -0.4120
  626TMC3    C5 9271   1.337   2.342   0.838 -0.1115  1.0747  0.4872
  626TMC3    C6 9272   1.333   2.372   0.711  0.4990 -0.4867 -0.0779
  626TMC3     C 9273   1.576   2.056   0.833 -0.3358  0.5787  1.0389
  626TMC3     O 9274   1.579   1.960   0.759  0.1750 -0.3741 -0.2803
  626TMC3     H 9275   1.509   2.118   0.590  0.9480 -1.3147  2.5082
  626TMC3    H1 9276   1.433   2.234   0.992 -1.2409 -1.1539 -0.3972
  626TMC3    H2 9277   1.266   2.451   0.680  0.9885 -0.1428 -0.2454
  626TMC3    C7 9278   1.225   2.370   0.930 -0.0359 -0.0987 -0.3216
  626TMC3    C8 9279   1.389   2.320   0.476 -0.7482 -0.6480 -0.4192
  626TMC3    O1 9280   1.254   2.375   1.050 -0.2000  0.5249  0.5074
  626TMC3    O2 9281   1.388   2.443   0.454  0.3531  0.0168 -0.7646
  627MPD2     C 9282   0.284   2.431  14.875 -0.1440 -0.7096  0.0122
  627MPD2    C1 9283   0.181   2.497  14.942 -0.8419 -0.3299 -1.0800
  627MPD2    C2 9284   0.051   2.443  14.944  0.3571 -0.7015  0.9773
  627MPD2    C3 9285   0.037   2.321  14.878 -0.0751  0.2679  0.1085
  627MPD2    C4 9286   0.144   2.252  14.823 -0.6230 -0.0564 -0.4065
  627MPD2    C5 9287   0.268   2.310  14.818 -0.5157 -0.7854  0.8565
  627MPD2     H 9288   4.693   2.494  14.995 -0.5012 -1.3779  0.2924
  627MPD2    H1 9289   0.136   2.157  14.771  1.2005  0.7309 -2.1388
  627MPD2    H2 9290   0.384   2.471  14.884 -1.2558  1.7286  1.5817
  627MPD2    H3 9291   0.347   2.253  14.770  1.4013  2.3609  0.2992
  627MPD2     N 9292   4.624   2.268  14.876 -0.0226 -0.4951  0.6570
  627MPD2    H5 9293   4.560   2.317  14.938  0.7082 -0.5981  1.4986
  627MPD2    N1 9294   0.203   2.620  15.013  0.3486 -0.6574 -0.1338
  627MPD2    H7 9295   0.126   2.661  15.063  0.5149 -0.3795 -0.1046
  628TMC3    C1 9296   0.305   2.775  15.135 -0.2511 -0.3550  0.1891
  628TMC3    C2 9297   0.395   2.777  15.237  0.9512  0.6454  0.0550
  628TMC3    C3 9298   0.412   2.896  15.296 -1.0546  0.5177 -0.1620
  628TMC3    C4 9299   0.223   2.872  15.087 -0.3848  0.0764 -1.0230
  628TMC3    C5 9300   0.252   2.990  15.140 -0.1245 -0.1724 -0.4008
  628TMC3    C6 9301   0.335   3.003  15.247  0.2679  0.5160 -0.8457
  628TMC3     C 9302   0.326   2.667  15.051 -0.1528  0.4944 -0.3734
  628TMC3     O 9303   0.437   2.621  15.039  0.4384  0.0555 -0.0963
  628TMC3     H 9304   0.454   2.690  15.262 -0.7160 -0.5486 -0.1412
  628TMC3    H1 9305   0.169   2.862  14.993  0.3052  2.0763 -1.6112
  628TMC3    H2 9306   0.359   3.104  15.280 -0.8369  0.5718 -0.2006
  628TMC3    C7 9307   0.259   3.100  15.047  0.0923 -0.1748  0.3044
  628TMC3    C8 9308   0.524   2.935  15.375  1.0199  0.1863  0.5038
  628TMC3    O1 9309   0.350   3.178  15.063 -0.4891 -0.4114  0.1783
  628TMC3    O2 9310   0.563   3.050  15.379 -0.2504 -0.1291  0.1439
  629MPD2     C 9311   2.994   1.887  16.697 -0.1230  0.2721  0.0928
  629MPD2    C1 9312   3.014   1.761  16.743 -0.2823 -0.0524  0.4011
  629MPD2    C2 9313   2.909   1.679  16.777  0.0878  0.5267  0.2700
  629MPD2    C3 9314   2.781   1.742  16.765 -1.1253  0.9502 -0.0786
  629MPD2    C4 9315   2.759   1.869  16.712 -0.3494 -0.7319 -0.1685
  629MPD2    C5 9316   2.868   1.943  16.674 -0.0392  0.4564 -0.4941
  629MPD2     H 9317   2.917   1.579  16.818 -1.0766 -0.4826 -1.9410
  629MPD2    H1 9318   2.667   1.927  16.720  0.1675  0.1798 -0.8640
  629MPD2    H2 9319   3.075   1.957  16.679 -0.2391 -0.0018 -1.5279
  629MPD2    H3 9320   2.856   2.045  16.639  1.5751  1.8754  3.1139
  629MPD2     N 9321   2.671   1.660  16.795  0.1932  0.2127  0.2188
  629MPD2    H5 9322   2.698   1.562  16.803 -2.5966 -0.7984 -2.9426
  629MPD2    N1 9323   3.147   1.708  16.749 -0.5746 -0.0194 -0.2476
  629MPD2    H7 9324   3.217   1.766  16.706 -0.7434  0.3195 -0.0656
  630TMC3    C1 9325   3.309   1.547  16.738 -0.0912 -0.8342  0.2913
  630TMC3    C2 9326   3.345   1.576  16.611  0.4830 -0.0184  0.2658
  630TMC3    C3 9327   3.470   1.547  16.569 -0.3935  0.4407 -0.0889
  630TMC3    C4 9328   3.383   1.468  16.820 -0.6225  0.0111  0.1100
  630TMC3    C5 9329   3.512   1.441  16.773 -0.6638  0.8937  0.0063
  630TMC3    C6 9330   3.554   1.475  16.652 -0.3684 -0.3908 -0.2962
  630TMC3     C 9331   3.181   1.581  16.789 -0.9994 -0.4109  0.3872
  630TMC3     O 9332   3.129   1.508  16.870  0.0180  0.1508 -0.0493
  630TMC3     H 9333   3.282   1.624  16.537  0.1039  0.7090  1.0617
  630TMC3    H1 9334   3.364   1.464  16.926 -1.3035  0.8560  0.0231
  630TMC3    H2 9335   3.647   1.436  16.613 -0.5678 -0.6861 -0.4808
  630TMC3    C7 9336   3.615   1.455  16.872 -0.5010 -0.1962  0.2752
  630TMC3    C8 9337   3.545   1.643  16.500 -0.1968 -0.2328 -0.1986
  630TMC3    O1 9338   3.594   1.410  16.984  0.1821  0.4770  0.5678
  630TMC3    O2 9339   3.645   1.689  16.560  0.4307  0.6243 -0.2244
  631MPD2     C 9340   1.734   0.858  15.567  0.0367  0.8842  0.1741
  631MPD2    C1 9341   1.861   0.896  15.543 -0.6547 -0.3922  0.0734
  631MPD2    C2 9342   1.969   0.835  15.607  0.4728  0.5247  0.9454
  631MPD2    C3 9343   1.939   0.737  15.712  0.6314  0.9443 -0.0752
  631MPD2    C4 9344   1.806   0.699  15.731  0.5889  0.0385  0.6872
  631MPD2    C5 9345   1.708   0.757  15.653 -0.2712 -0.3167 -0.7838
  631MPD2     H 9346   2.073   0.855  15.583  0.8457 -1.1832  1.1313
  631MPD2    H1 9347   1.782   0.612  15.790  1.2880  0.1995  1.2097
  631MPD2    H2 9348   1.646   0.912  15.533  0.9450  0.3626 -2.9435
  631MPD2    H3 9349   1.608   0.721  15.674 -0.9956  1.1894 -1.6854
  631MPD2     N 9350   2.044   0.707  15.800  0.7168  0.0975  0.6004
  631MPD2    H5 9351   2.136   0.724  15.761  0.0908  0.0328 -0.9018
  631MPD2    N1 9352   1.868   1.003  15.449 -0.5215  0.2990 -0.0968
  631MPD2    H7 9353   1.778   1.041  15.422 -1.7775 -0.1981  3.2702
  632TMC3    C1 9354   1.963   1.154  15.306  0.2319 -0.2821  0.3675
  632TMC3    C2 9355   1.867   1.247  15.342 -0.0872  0.3389 -0.0540
  632TMC3    C3 9356   1.844   1.351  15.264 -0.0824 -0.1764 -0.7783
  632TMC3    C4 9357   2.028   1.163  15.181 -0.0414  0.0891  0.0572
  632TMC3    C5 9358   1.992   1.273  15.107  1.1761 -0.8335  0.7269
  632TMC3    C6 9359   1.905   1.375  15.142  0.3689  0.0965 -0.6525
  632TMC3     C 9360   1.977   1.028  15.374 -0.2023  0.7402 -0.2861
  632TMC3     O 9361   2.082   0.962  15.363 -0.4796 -0.5479 -0.3642
  632TMC3     H 9362   1.839   1.265  15.445  0.0668  0.9740 -0.1238
  632TMC3    H1 9363   2.083   1.078  15.143 -0.6455  0.0906 -0.8204
  632TMC3    H2 9364   1.876   1.463  15.086 -2.4093  0.8875  2.0316
  632TMC3    C7 9365   2.076   1.301  14.995  0.0646  0.7314  0.5260
  632TMC3    C8 9366   1.765   1.460  15.320  0.2453  0.3104  0.5681
  632TMC3    O1 9367   2.037   1.392  14.919  0.1149 -0.1793  0.0830
  632TMC3    O2 9368   1.671   1.435  15.398  0.4382 -0.2790 -0.2850
  633MPD2     C 9369   1.222   4.118  17.487  0.3293  0.6069  0.4115
  633MPD2    C1 9370   1.179   4.071  17.361  0.2711  0.3745 -0.3459
  633MPD2    C2 9371   1.168   3.936  17.339 -0.0896  0.4917 -0.0245
  633MPD2    C3 9372   1.196   3.846  17.445 -0.2619 -0.2884 -0.1501
  633MPD2    C4 9373   1.259   3.893  17.564  0.2252  0.3459 -0.0005
  633MPD2    C5 9374   1.270   4.033  17.579 -1.1417 -0.0250  0.1153
  633MPD2     H 9375   1.141   3.903  17.239 -0.6071 -1.1722  0.6699
  633MPD2    H1 9376   1.282   3.830  17.649  1.6680 -0.4368 -0.9678
  633MPD2    H2 9377   1.233   4.224  17.506  2.2429  0.6059 -0.7105
  633MPD2    H3 9378   1.312   4.074  17.670  2.2579  0.0419 -1.4925
  633MPD2     N 9379   1.189   3.703  17.432 -0.0375  0.1709 -0.3112
  633MPD2    H5 9380   1.220   3.651  17.514 -0.8117  0.1960  0.0033
  633MPD2    N1 9381   1.159   4.151  17.245  0.5420  0.0685  0.6051
  633MPD2    H7 9382   1.137   4.105  17.157 -0.2452  1.3688  0.1174
  634TMC3    C1 9383   1.197   4.338  17.106  0.3195  0.2317 -0.0569
  634TMC3    C2 9384   1.238   4.247  17.010 -0.5189  0.0815  0.6033
  634TMC3    C3 9385   1.294   4.302  16.896  0.0989 -0.2719  0.8848
  634TMC3    C4 9386   1.172   4.465  17.074 -0.1111  0.3131 -0.1726
  634TMC3    C5 9387   1.228   4.505  16.954 -0.0373  0.5996 -0.1861
  634TMC3    C6 9388   1.294   4.430  16.875 -0.6034  0.0977 -0.1302
  634TMC3     C 9389   1.178   4.287  17.243 -0.1447 -0.3066  0.3847
  634TMC3     O 9390   1.179   4.367  17.331  0.4340 -0.0532 -0.2782
  634TMC3     H 9391   1.253   4.141  17.030  1.9807  0.5158  1.0455
  634TMC3    H1 9392   1.127   4.535  17.143  1.0607  2.9177 -2.0578
  634TMC3    H2 9393   1.355   4.482  16.802 -0.0949 -0.2898  0.0142
  634TMC3    C7 9394   1.178   4.626  16.887  0.1463 -0.3020 -0.4137
  634TMC3    C8 9395   1.348   4.212  16.801 -0.2360  0.4651  0.0551
  634TMC3    O1 9396   1.219   4.640  16.770 -0.3644 -0.1503 -0.1809
  634TMC3    O2 9397   1.346   4.090  16.827 -0.2660  0.0802 -0.7035
  635TMC3    C1 9398   2.055   0.602  16.988  0.2210 -0.2173 -0.1530
  635TMC3    C2 9399   2.120   0.514  16.910  0.4082  0.3507 -0.0754
  635TMC3    C3 9400   2.068   0.496  16.782  0.1507 -0.3584 -0.0947
  635TMC3    C4 9401   1.944   0.664  16.952  0.9536  0.2026  0.1444
  635TMC3    C5 9402   1.895   0.644  16.827 -0.2556 -0.2248  0.3156
  635TMC3    C6 9403   1.954   0.561  16.737  0.8107 -0.4436  1.2079
  635TMC3     C 9404   2.082   0.607  17.130  0.4989  0.8531 -0.0559
  635TMC3     O 9405   2.008   0.679  17.194 -0.3394  0.1682 -0.2825
  635TMC3     H 9406   2.214   0.472  16.945 -0.7461  0.1043  2.7527
  635TMC3    H1 9407   1.889   0.726  17.021  2.0639 -1.0259  2.1313
  635TMC3    H2 9408   1.911   0.550  16.638 -0.1258 -0.2494  1.5979
  635TMC3    C7 9409   1.777   0.715  16.790 -1.1292 -0.0204 -0.1942
  635TMC3    C8 9410   2.104   0.372  16.715 -0.7098 -0.8701  0.1205
  635TMC3    O1 9411   1.697   0.653  16.717  0.0232  0.5452  0.3621
  635TMC3    O2 9412   2.155   0.285  16.785 -0.1485 -0.1414 -0.0747
  636MPD2     C 9413   2.618   4.498  15.529  1.0481 -0.0787  0.0652
  636MPD2    C1 9414   2.690   4.608  15.587 -0.5411  0.9941 -0.2291
  636MPD2    C2 9415   2.830   4.609  15.563  0.1385  0.0203  0.7460
  636MPD2    C3 9416   2.889   4.508  15.497 -0.0371 -0.2370 -0.7318
  636MPD2    C4 9417   2.818   4.405  15.442  0.0343 -0.2853 -1.1268
  636MPD2    C5 9418   2.681   4.397  15.463 -0.4653 -0.1466  0.5158
  636MPD2     H 9419   2.886   4.693  15.603  0.4733  0.1691 -0.0350
  636MPD2    H1 9420   2.871   4.333  15.380  1.7174  1.3692 -1.6318
  636MPD2    H2 9421   2.510   4.494  15.529  1.0866 -1.0699 -1.7654
  636MPD2    H3 9422   2.622   4.319  15.418 -0.2473 -0.4451  0.7482
  636MPD2     N 9423   3.033   4.518  15.485 -0.0009 -0.6744  0.6894
  636MPD2    H5 9424   3.068   4.605  15.525 -1.4615  0.9367 -1.5237
  636MPD2    N1 9425   2.629   4.715  15.661 -0.0980 -0.3651 -0.2066
  636MPD2    H7 9426   2.695   0.052  15.710 -0.9199 -0.2828  0.7784
  637TMC3    C1 9427   3.248   4.494  15.413  0.0841 -0.3168  0.3529
  637TMC3    C2 9428   3.282   4.538  15.536  0.1124  0.3100 -0.0241
  637TMC3    C3 9429   3.363   4.646  15.544 -0.1471  0.0036  0.1453
  637TMC3    C4 9430   3.294   4.550  15.297 -0.0301 -0.2489  0.4352
  637TMC3    C5 9431   3.362   4.672  15.307 -0.6929 -0.1338  0.5618
  637TMC3    C6 9432   3.400   4.714  15.428  0.0997 -0.3571  0.2490
  637TMC3     C 9433   3.115   4.448  15.406  0.0126  0.0005 -0.0079
  637TMC3     O 9434   3.080   4.360  15.325  0.7065  0.3528 -0.5287
  637TMC3     H 9435   3.245   4.485  15.622  0.1818  0.7101  0.2548
  637TMC3    H1 9436   3.251   4.517  15.203  0.4669 -4.1581  1.5798
  637TMC3    H2 9437   3.472   0.072  15.436  0.1578 -0.2548 -1.2073
  637TMC3    C7 9438   3.315   0.063  15.221 -0.0163  0.4684 -0.0796
  637TMC3    C8 9439   3.320   0.018  15.646  0.4585 -0.2051  0.1373
  637TMC3    O1 9440   3.363   0.174  15.258 -0.2713  0.7605  0.1748
  637TMC3    O2 9441   3.276   4.706  15.754  0.0017  0.3797  0.0282
  638MPD2     C 9442   2.455   3.167  14.791  0.6960 -0.2836 -0.4136
  638MPD2    C1 9443   2.459   3.036  14.762 -0.4615 -0.8821 -0.5027
  638MPD2    C2 9444   2.389   2.952  14.845 -1.0388  0.3793  0.4376
  638MPD2    C3 9445   2.329   2.996  14.964  0.4125 -0.4667  0.5558
  638MPD2    C4 9446   2.326   3.129  14.988 -0.0100 -0.3033  0.1500
  638MPD2    C5 9447   2.387   3.216  14.899 -0.1730 -0.8062  0.4207
  638MPD2     H 9448   2.395   2.845  14.828 -2.8300  0.7944 -2.7804
  638MPD2    H1 9449   2.293   3.180  15.077  1.5751  2.2118 -0.6842
  638MPD2    H2 9450   2.509   3.235  14.726  0.7989  0.0837  0.0587
  638MPD2    H3 9451   2.393   3.320  14.929  1.1704 -0.7883  0.1039
  638MPD2     N 9452   2.291   2.898  15.058 -0.5634  0.0899  0.0145
  638MPD2    H5 9453   2.315   2.803  15.030 -0.8056  0.0234  0.0396
  638MPD2    N1 9454   2.540   2.987  14.663  0.2006 -0.0216  0.4674
  638MPD2    H7 9455   2.615   3.049  14.634  0.1723 -1.3623 -2.4352
  639TMC3    C1 9456   2.199   2.804  15.243  0.3151 -0.5225 -0.8777
  639TMC3    C2 9457   2.086   2.741  15.213 -0.5389  0.1326  0.2678
  639TMC3    C3 9458   2.076   2.606  15.224 -0.0844 -0.4170 -0.1756
  639TMC3    C4 9459   2.315   2.730  15.260  0.5409  0.1738  0.0045
  639TMC3    C5 9460   2.301   2.593  15.276 -0.3436 -0.2551  0.4529
  639TMC3    C6 9461   2.180   2.532  15.262  0.1211  0.3362 -0.1253
  639TMC3     C 9462   2.216   2.923  15.168  1.0446  0.1076  0.5519
  639TMC3     O 9463   2.174   3.029  15.206 -0.2813 -0.3357  1.2947
  639TMC3     H 9464   2.001   2.803  15.182  0.6585  0.0432 -3.2529
  639TMC3    H1 9465   2.409   2.785  15.268  0.6127  0.1452 -0.6363
  639TMC3    H2 9466   2.180   2.424  15.275 -0.6104  0.4324  0.6821
  639TMC3    C7 9467   2.416   2.505  15.290  0.1061 -0.2456 -0.1519
  639TMC3    C8 9468   2.012   2.536  15.114  0.4357  0.2744  0.3853
  639TMC3    O1 9469   2.404   2.398  15.348  0.2187 -0.0042 -0.1337
  639TMC3    O2 9470   2.090   2.494  15.030  0.3083 -0.0333  0.0713
  640MPD2     C 9471   2.917   1.349  10.117  0.0800 -0.4682 -0.6477
  640MPD2    C1 9472   3.009   1.450  10.104  0.6670  1.2142  0.0949
  640MPD2    C2 9473   2.964   1.576  10.136  0.4306  0.3617  0.0030
  640MPD2    C3 9474   2.829   1.598  10.169  0.0413 -0.6563  0.1375
  640MPD2    C4 9475   2.748   1.490  10.184  0.5832 -0.2248  0.2177
  640MPD2    C5 9476   2.789   1.364  10.157 -0.5976 -0.0132  0.1111
  640MPD2     H 9477   3.022   1.663  10.108 -0.8335  0.6080 -1.8370
  640MPD2    H1 9478   2.645   1.498  10.217 -0.1752 -0.8938 -1.9851
  640MPD2    H2 9479   2.956   1.249  10.096  3.5838  0.8820 -0.6307
  640MPD2    H3 9480   2.706   1.295  10.158  0.6280 -1.4597  2.0221
  640MPD2     N 9481   2.788   1.730  10.205 -0.0414 -0.3277  0.0325
  640MPD2    H5 9482   2.687   1.738  10.216 -0.1278 -0.1747 -0.8410
  640MPD2    N1 9483   3.138   1.416  10.053 -0.3713 -0.1606  0.1257
  640MPD2    H7 9484   3.158   1.319  10.032  0.0177 -0.2425  0.8769
  641TMC3    C1 9485   3.342   1.438   9.947 -0.2254 -0.5584 -0.3097
  641TMC3    C2 9486   3.326   1.305   9.905 -0.3273 -0.7956 -0.4099
  641TMC3    C3 9487   3.440   1.240   9.854 -0.0691 -0.0432 -0.0953
  641TMC3    C4 9488   3.460   1.496   9.944  0.4918  0.4049  0.7770
  641TMC3    C5 9489   3.574   1.426   9.896  0.0924 -0.6978  0.9067
  641TMC3    C6 9490   3.563   1.296   9.856  0.2190 -0.2868  0.4050
  641TMC3     C 9491   3.233   1.503  10.009  0.8723 -0.6347  0.3758
  641TMC3     O 9492   3.239   1.621  10.012 -0.2961  0.0178 -0.0600
  641TMC3     H 9493   3.234   1.250   9.894 -0.7790 -0.3717  1.2396
  641TMC3    H1 9494   3.469   1.592   9.993 -0.5026  0.6490  0.4831
  641TMC3    H2 9495   3.643   1.254   9.797  1.1809  1.8168  0.2014
  641TMC3    C7 9496   3.705   1.478   9.890 -0.2702  0.3022 -0.0585
  641TMC3    C8 9497   3.424   1.099   9.824  0.3353  0.2768  0.3586
  641TMC3    O1 9498   3.792   1.397   9.865 -0.5953  0.0886  0.0061
  641TMC3    O2 9499   3.325   1.063   9.765 -0.6130  0.2108  0.6311
  642TMC3    C1 9500   4.020   2.435  12.201  0.6134  1.0199 -0.4432
  642TMC3    C2 9501   4.055   2.436  12.333  0.4548  0.0766 -0.0511
  642TMC3    C3 9502   4.081   2.318  12.404 -0.0361 -0.3430 -0.0954
  642TMC3    C4 9503   4.030   2.314  12.130  0.5968 -0.1209  0.2845
  642TMC3    C5 9504   4.058   2.200  12.201  1.1562 -0.1278 -0.0785
  642TMC3    C6 9505   4.084   2.198  12.340  0.1298  0.1169 -0.2810
  642TMC3     C 9506   3.911   2.519  12.154 -0.3305  0.4352 -0.1131
  642TMC3     O 9507   3.869   2.489  12.047  0.2950 -0.1040 -0.4175
  642TMC3     H 9508   4.068   2.527  12.390 -0.5724 -1.5054  2.6723
  642TMC3    H1 9509   4.010   2.316  12.023 -1.5526  0.8156  0.7046
  642TMC3    H2 9510   4.110   2.108  12.395  0.0252 -0.0190 -0.4533
  642TMC3    C7 9511   3.999   2.084  12.138  0.2972  0.0904  0.2854
  642TMC3    C8 9512   4.125   2.331  12.536  0.2946 -0.2882  0.0982
  642TMC3    O1 9513   4.026   2.069  12.024 -0.0330  0.0010 -0.1721
  642TMC3    O2 9514   4.184   2.435  12.570  0.0453  0.1842  0.2801
  643TMC3    C1 9515   3.364   2.313   0.247  0.0258 -0.3357 -0.3481
  643TMC3    C2 9516   3.296   2.289   0.138 -0.1997 -0.2678 -0.7175
  643TMC3    C3 9517   3.365   2.254   0.024 -0.2026 -0.3567  0.3082
  643TMC3    C4 9518   3.497   2.296   0.254 -0.1704 -0.3443 -0.1165
  643TMC3    C5 9519   3.567   2.258   0.143 -0.8715  0.0455  0.4366
  643TMC3    C6 9520   3.499   2.237   0.030  0.2869  0.3011  0.2496
  643TMC3     C 9521   3.288   2.368   0.356  0.3376 -0.1399 -0.1375
  643TMC3     O 9522   3.182   2.418   0.315 -0.5446  0.1990  0.0565
  643TMC3     H 9523   3.188   2.296   0.135 -0.2145 -0.2942 -0.1705
  643TMC3    H1 9524   3.552   2.328   0.342 -0.1996 -0.4969 -0.0416
  643TMC3    H2 9525   3.548   2.198  17.635  0.3929  2.3094 -0.5839
  643TMC3    C7 9526   3.711   2.231   0.164  0.2425 -0.2611  0.3002
  643TMC3    C8 9527   3.316   2.331  17.600  0.2739  0.5339 -1.0198
  643TMC3    O1 9528   3.741   2.204   0.279 -0.5497  0.3940  0.8364
  643TMC3    O2 9529   3.370   2.315  17.492  0.3140  0.1287  0.0353
  644MPD2     C 9530   3.334   2.282   9.640 -0.6645 -0.2798  0.5018
  644MPD2    C1 9531   3.217   2.213   9.633 -0.1367  0.4393 -0.0093
  644MPD2    C2 9532   3.098   2.281   9.601 -0.4344  0.4891  0.0068
  644MPD2    C3 9533   3.099   2.417   9.584  0.3995  0.9409 -0.0977
  644MPD2    C4 9534   3.220   2.486   9.594 -0.0536 -0.6792  0.0630
  644MPD2    C5 9535   3.337   2.423   9.609  0.0484 -0.9892 -0.6036
  644MPD2     H 9536   3.001   2.234   9.594 -0.7252  1.5125 -2.6531
  644MPD2    H1 9537   3.217   2.593   9.575 -0.2539 -0.6416  0.3047
  644MPD2    H2 9538   3.421   2.219   9.654 -0.8284 -0.9292 -1.3529
  644MPD2    H3 9539   3.428   2.477   9.631 -0.6229 -0.9083  2.0191
  644MPD2     N 9540   2.972   2.480   9.575 -0.3198 -0.0095  0.4624
  644MPD2    H5 9541   2.895   2.415   9.584  0.5809 -1.2689 -0.9887
  644MPD2    N1 9542   3.223   2.070   9.644  0.4625  0.5971 -0.3897
  644MPD2    H7 9543   3.315   2.033   9.667  0.7272  1.4498 -0.0902
  645TMC3    C1 9544   2.802   2.629   9.548 -0.0284 -0.1255  0.4237
  645TMC3    C2 9545   2.757   2.742   9.482  0.0748 -0.3662  0.0781
  645TMC3    C3 9546   2.631   2.785   9.512  0.6461  0.4884  0.4603
  645TMC3    C4 9547   2.730   2.564   9.643 -0.7105  0.2963  0.6314
  645TMC3    C5 9548   2.601   2.609   9.661  0.0419 -0.1905 -0.0686
  645TMC3    C6 9549   2.549   2.717   9.596  0.3996 -0.1314  0.3947
  645TMC3     C 9550   2.947   2.614   9.556 -0.4109  0.0614  0.1442
  645TMC3     O 9551   3.024   2.706   9.534 -0.0032  0.3465  0.3737
  645TMC3     H 9552   2.820   2.775   9.400 -1.2740  0.8378 -0.4663
  645TMC3    H1 9553   2.763   2.475   9.696  1.6192  1.2946  0.8241
  645TMC3    H2 9554   2.450   2.753   9.620  0.2841  0.1094 -0.4257
  645TMC3    C7 9555   2.514   2.522   9.735 -0.4293  0.6826 -0.5752
  645TMC3    C8 9556   2.570   2.900   9.453 -0.4766  0.1556  0.4278
  645TMC3    O1 9557   2.562   2.469   9.834  0.3854  0.1266 -0.5297
  645TMC3    O2 9558   2.451   2.921   9.465  0.2475 -0.5061 -0.0549
  646MPD2     C 9559   2.454   1.712  14.560  0.2158  0.0751 -0.0117
  646MPD2    C1 9560   2.362   1.732  14.660  0.1686 -0.0689  0.1610
  646MPD2    C2 9561   2.262   1.825  14.629  0.3481  1.3152  0.5420
  646MPD2    C3 9562   2.240   1.876  14.506 -0.0758 -0.1883 -0.3522
  646MPD2    C4 9563   2.329   1.849  14.408 -0.0366  0.8235  0.0518
  646MPD2    C5 9564   2.438   1.768  14.432  0.2928 -0.2583 -0.1854
  646MPD2     H 9565   2.185   1.850  14.701 -0.0536  1.3991  0.0837
  646MPD2    H1 9566   2.317   1.895  14.311  1.1240 -0.3628 -0.6433
  646MPD2    H2 9567   2.537   1.646  14.585 -0.7663 -0.7500  1.1094
  646MPD2    H3 9568   2.511   1.748  14.354  1.4002 -0.2095  0.8454
  646MPD2     N 9569   2.129   1.959  14.488  0.1105  0.6813 -0.1696
  646MPD2    H5 9570   2.064   1.977  14.564  2.3012 -2.1969  2.3953
  646MPD2    N1 9571   2.389   1.673  14.789 -0.2466 -0.3527  0.6830
  646MPD2    H7 9572   2.477   1.624  14.795 -0.2003 -0.4660 -0.8325
  647TMC3    C1 9573   2.371   1.617  15.019 -0.7531 -0.1163  0.3916
  647TMC3    C2 9574   2.283   1.587  15.117  0.0017  0.1917 -0.5436
  647TMC3    C3 9575   2.318   1.488  15.202 -0.1804 -0.1304 -0.3843
  647TMC3    C4 9576   2.499   1.566  15.016 -0.5050  0.2865 -0.1459
  647TMC3    C5 9577   2.526   1.458  15.101 -0.0417  0.2900  0.2727
  647TMC3    C6 9578   2.434   1.419  15.199  0.4495 -0.1828 -0.5303
  647TMC3     C 9579   2.320   1.686  14.905  0.5113 -0.0863  0.5172
  647TMC3     O 9580   2.219   1.750  14.929  0.5235 -0.3784 -0.1411
  647TMC3     H 9581   2.184   1.630  15.127  0.5973  1.6428 -0.8242
  647TMC3    H1 9582   2.583   1.603  14.959 -1.1227 -3.0077 -3.1279
  647TMC3    H2 9583   2.444   1.323  15.248 -1.7816  0.0752  0.4010
  647TMC3    C7 9584   2.658   1.425  15.137  0.6778 -0.5804  0.2958
  647TMC3    C8 9585   2.233   1.476  15.320 -0.1320 -0.6224 -0.3054
  647TMC3    O1 9586   2.665   1.388  15.256  0.4273 -0.3838  0.1013
  647TMC3    O2 9587   2.119   1.518  15.307  0.3201  0.6961 -0.8866
  648TMC3    C1 9588   1.776   4.150  16.143 -0.2739 -0.1527  0.3480
  648TMC3    C2 9589   1.832   4.040  16.090 -0.2164 -0.6689 -0.7677
  648TMC3    C3 9590   1.796   4.012  15.961 -0.3481  0.3620  0.1392
  648TMC3    C4 9591   1.679   4.224  16.078 -0.0836  0.5458 -0.2457
  648TMC3    C5 9592   1.649   4.187  15.953 -1.0298 -0.2068 -0.3025
  648TMC3    C6 9593   1.703   4.082  15.893 -0.1277  0.6790 -0.2082
  648TMC3     C 9594   1.790   4.186  16.282  0.6541 -0.1079 -0.5608
  648TMC3     O 9595   1.802   4.309  16.302 -0.4959  0.3093 -0.0339
  648TMC3     H 9596   1.913   3.989  16.142  0.3218 -0.9764 -1.8965
  648TMC3    H1 9597   1.633   4.304  16.135 -0.8972 -1.6952  2.2895
  648TMC3    H2 9598   1.681   4.061  15.789  1.7646  0.5667 -0.5880
  648TMC3    C7 9599   1.583   4.277  15.862  0.1446 -0.3992 -0.4763
  648TMC3    C8 9600   1.851   3.881  15.916  0.5603  0.0167 -0.2241
  648TMC3    O1 9601   1.602   4.270  15.738 -0.1353  0.5287 -0.4278
  648TMC3    O2 9602   1.962   3.851  15.960 -0.3192  0.1464  0.2147
  649TMC3    C1 9603   1.646   0.015  12.930 -0.2571 -0.1410  0.5236
  649TMC3    C2 9604   1.693   4.620  12.874  0.0010  1.0365 -1.0901
  649TMC3    C3 9605   1.720   4.516  12.954 -0.4034 -0.0433 -0.6819
  649TMC3    C4 9606   1.628   0.017  13.065  0.7555  0.2621  0.4437
  649TMC3    C5 9607   1.662   4.633  13.143  0.3915 -0.3328  0.2509
  649TMC3    C6 9608   1.713   4.517  13.095  0.1801 -0.0146  0.8317
  649TMC3     C 9609   1.562   0.102  12.848 -0.1999  0.6557  0.6625
  649TMC3     O 9610   1.471   0.160  12.908 -0.4966 -0.2073  0.6760
  649TMC3     H 9611   1.695   4.593  12.769  0.3537 -0.2484 -0.7581
  649TMC3    H1 9612   1.570   0.093  13.115 -2.2688 -1.6803 -0.1066
  649TMC3    H2 9613   1.734   4.437  13.164  0.9129 -0.1145  0.4901
  649TMC3    C7 9614   1.602   4.632  13.276  0.9391  0.4247  0.8270
  649TMC3    C8 9615   1.829   4.436  12.908  0.0675 -0.2887 -0.5390
  649TMC3    O1 9616   1.569   0.012  13.327  0.3087 -0.2933 -0.2074
  649TMC3    O2 9617   1.828   4.324  12.953 -0.6298  0.2030 -0.6661
  650TMC3    C1 9618   3.702   1.855  12.909  0.0673 -0.5038 -0.8588
  650TMC3    C2 9619   3.639   1.963  12.964 -0.0422  0.2548  0.2427
  650TMC3    C3 9620   3.539   2.025  12.892 -0.1496  0.5598 -0.0869
  650TMC3    C4 9621   3.682   1.820  12.780  0.3797  0.4277 -0.3472
  650TMC3    C5 9622   3.587   1.887  12.706 -0.0615 -1.1495  0.4575
  650TMC3    C6 9623   3.506   1.994  12.761  0.3167 -0.2366  0.5295
  650TMC3     C 9624   3.810   1.789  12.984 -0.0743 -0.5232  0.0706
  650TMC3     O 9625   3.861   1.864  13.065  0.8231  0.1077  0.0998
  650TMC3     H 9626   3.658   2.015  13.057 -0.8914 -0.4921  0.8412
  650TMC3    H1 9627   3.742   1.743  12.734  0.6113  0.7869 -0.6533
  650TMC3    H2 9628   3.423   2.047  12.716  0.4772 -0.9367 -0.5660
  650TMC3    C7 9629   3.542   1.821  12.582  0.8088  0.2017 -0.7720
  650TMC3    C8 9630   3.509   2.168  12.918  0.6761 -0.9626  0.7389
  650TMC3    O1 9631   3.590   1.716  12.539  0.5254  0.0428 -0.6870
  650TMC3    O2 9632   3.516   2.241  12.819 -0.1248  0.5161 -0.1944
  651MPD2     C 9633   2.165   3.921  10.577  0.1482  0.9642 -0.7049
  651MPD2    C1 9634   2.149   3.992  10.693  0.0131  0.6460  0.0229
  651MPD2    C2 9635   2.254   4.076  10.734 -0.1977  0.2662 -1.0335
  651MPD2    C3 9636   2.369   4.091  10.657 -0.1714 -0.4716  0.5385
  651MPD2    C4 9637   2.381   4.019  10.545 -0.1388  0.1941  0.4922
  651MPD2    C5 9638   2.282   3.928  10.501 -0.5833 -0.1090  0.3898
  651MPD2     H 9639   2.250   4.124  10.831  0.5773 -1.0239 -0.3538
  651MPD2    H1 9640   2.472   4.024  10.487 -0.2542 -0.5179  0.2445
  651MPD2    H2 9641   2.096   3.846  10.541  1.6937 -0.9243  0.2428
  651MPD2    H3 9642   2.287   3.869  10.410  0.1216  0.1020  0.2882
  651MPD2     N 9643   2.474   4.172  10.707  0.3219  0.2741  0.0784
  651MPD2    H5 9644   2.444   4.232  10.784 -0.6242 -0.3311  0.1899
  651MPD2    N1 9645   2.031   3.981  10.764  0.0494 -0.2094  0.3848
  651MPD2    H7 9646   2.028   4.029  10.854  1.9152 -0.0199  0.3589
  652TMC3    C1 9647   2.895   4.386  10.747 -0.3927  0.1519 -0.0071
  652TMC3    C2 9648   2.820   4.293  10.682  0.6378  0.3515  0.0572
  652TMC3    C3 9649   2.681   4.285  10.718 -0.9192  0.1682  0.2840
  652TMC3    C4 9650   2.833   4.489  10.814 -0.7714  0.6640 -0.8669
  652TMC3    C5 9651   2.698   4.495  10.839  0.0196 -0.5484  0.0581
  652TMC3    C6 9652   2.619   4.388  10.796 -0.3937  0.5752  0.6572
  652TMC3     C 9653   3.022   4.347  10.793  0.5571  0.2615  0.4950
  652TMC3     O 9654   3.046   4.377  10.909  0.4275 -0.1477 -0.4826
  652TMC3     H 9655   2.861   4.202  10.639  0.1781  0.0921  0.1731
  652TMC3    H1 9656   2.901   4.562  10.857  1.7926 -1.1876 -1.7559
  652TMC3    H2 9657   2.512   4.404  10.800 -0.5500  0.0448 -1.4970
  652TMC3    C7 9658   2.639   4.604  10.919 -0.2655  0.0155  0.6979
  652TMC3    C8 9659   2.599   4.179  10.658 -0.1031 -0.2406 -0.4122
  652TMC3    O1 9660   2.528   4.590  10.964  0.1137  0.2279 -0.5940
  652TMC3    O2 9661   2.652   4.104  10.576  0.3637 -0.1761  0.1330
  653MPD2     C 9662   1.168   4.387   0.269  0.0246  0.5017  1.2101
  653MPD2    C1 9663   1.075   4.434   0.185 -0.4738 -0.0805  0.3600
  653MPD2    C2 9664   0.999   4.337   0.117 -0.2155 -0.5863 -0.0876
  653MPD2    C3 9665   1.028   4.204   0.129 -0.1200 -0.5224  1.0655
  653MPD2    C4 9666   1.135   4.161   0.200 -0.3862 -0.4032  0.3952
  653MPD2    C5 9667   1.213   4.255   0.267  0.1251 -0.5742  0.2483
  653MPD2     H 9668   0.915   4.363   0.054 -1.2193 -0.9482  1.1059
  653MPD2    H1 9669   1.158   4.056   0.212  0.5157 -0.2594 -0.0548
  653MPD2    H2 9670   1.221   4.450   0.339 -0.5360  0.2572  1.8546
  653MPD2    H3 9671   1.300   4.223   0.323 -0.8915 -1.3231  1.4112
  653MPD2     N 9672   0.949   4.114   0.057  0.3086  0.4100  0.0420
  653MPD2    H5 9673   0.867   4.144   0.005  1.5411 -0.2173 -2.2902
  653MPD2    N1 9674   1.051   4.574   0.164 -0.4695 -0.8869 -0.2574
  653MPD2    H7 9675   0.997   4.608   0.085 -0.7278 -1.2793 -0.2485
  654TMC3    C1 9676   0.886   3.921  17.640  0.4459 -0.1676 -0.9791
  654TMC3    C2 9677   0.822   4.010  17.556 -0.5480  0.6259 -0.1179
  654TMC3    C3 9678   0.747   3.962  17.453 -0.2788  0.0023 -0.2129
  654TMC3    C4 9679   0.881   3.784  17.621 -0.3753  0.4656  0.1831
  654TMC3    C5 9680   0.798   3.736  17.522 -0.6404  0.2450  0.2969
  654TMC3    C6 9681   0.737   3.823  17.434 -0.1957 -0.0473  0.1166
  654TMC3     C 9682   0.981   3.977   0.043  0.5066 -0.0366  0.0711
  654TMC3     O 9683   1.050   3.898   0.107  0.4964 -0.4548  0.3987
  654TMC3     H 9684   0.807   4.116  17.573  1.4713  0.9624 -0.3321
  654TMC3    H1 9685   0.926   3.717   0.001  0.4640  0.9610  0.1075
  654TMC3    H2 9686   0.666   3.779  17.364 -0.0883 -0.5661  0.3310
  654TMC3    C7 9687   0.747   3.602  17.511  0.3451  0.0528  0.3526
  654TMC3    C8 9688   0.685   4.062  17.368  0.5326 -0.0692 -0.5278
  654TMC3    O1 9689   0.630   3.587  17.471 -0.2888  0.1698 -0.3658
  654TMC3    O2 9690   0.682   4.177  17.414  0.0586  0.3366  0.0129
  655MPD2     C 9691   2.084   4.141  15.798 -0.2651  0.8128 -0.4863
  655MPD2    C1 9692   2.022   4.236  15.724  0.3645 -0.3411  0.3142
  655MPD2    C2 9693   2.016   4.212  15.586  0.1346 -0.0155 -0.1263
  655MPD2    C3 9694   2.069   4.091  15.532 -0.2465 -0.0284 -0.4093
  655MPD2    C4 9695   2.126   3.998  15.617  0.0847 -0.6111  0.5738
  655MPD2    C5 9696   2.138   4.025  15.752 -0.5331  0.7613 -0.3845
  655MPD2     H 9697   1.963   4.283  15.524 -0.9761  0.0320  0.8804
  655MPD2    H1 9698   2.161   3.904  15.575  0.3086 -0.4047  0.2976
  655MPD2    H2 9699   2.097   4.149  15.906 -1.1394 -0.8343 -0.2615
  655MPD2    H3 9700   2.192   3.955  15.814 -0.2345  0.8990 -0.4861
  655MPD2     N 9701   2.077   4.056  15.396  0.0282 -0.3681  0.2577
  655MPD2    H5 9702   2.096   3.957  15.381 -1.0571 -0.7487  1.2960
  655MPD2    N1 9703   1.954   4.350  15.764 -0.0468 -0.0907  1.0741
  655MPD2    H7 9704   1.909   4.410  15.695 -1.0776 -1.1354  0.8467
  656TMC3    C1 9705   1.862   4.506  15.913  0.1855  0.1881  0.3297
  656TMC3    C2 9706   1.803   4.535  16.032 -0.3039 -0.2443 -0.2628
  656TMC3    C3 9707   1.717   4.640  16.044  0.1901  0.6920  0.2895
  656TMC3    C4 9708   1.817   4.572  15.803 -0.3629  0.0164  0.3992
  656TMC3    C5 9709   1.734   4.682  15.821 -0.1838  0.3550  0.2637
  656TMC3    C6 9710   1.690   0.005  15.942  0.2763 -0.5993 -0.1357
  656TMC3     C 9711   1.943   4.387  15.901  0.5651 -0.3784 -0.7546
  656TMC3     O 9712   1.986   4.336  16.003 -0.2847  0.2110  0.6259
  656TMC3     H 9713   1.825   4.474  16.119 -0.6620 -1.6654 -1.1884
  656TMC3    H1 9714   1.843   4.545  15.701 -2.5944 -2.5811  0.5085
  656TMC3    H2 9715   1.632   0.097  15.949  2.0481  0.6874 -2.1387
  656TMC3    C7 9716   1.673   0.017  15.699  0.1151 -0.4142 -0.3058
  656TMC3    C8 9717   1.615   4.633  16.146  0.6093 -0.2319 -0.8089
  656TMC3    O1 9718   1.724   4.713  15.589  0.2026 -0.4115 -0.2951
  656TMC3    O2 9719   1.593   4.529  16.203 -1.0320  0.5007 -0.2126
  657TMC3    C1 9720   0.866   3.981  15.100  0.4235 -0.0092 -0.2349
  657TMC3    C2 9721   0.829   3.863  15.145  0.0997  0.5872  0.1139
  657TMC3    C3 9722   0.726   3.857  15.241 -0.1506 -0.9460 -0.0325
  657TMC3    C4 9723   0.797   4.101  15.132 -0.1899  0.8652  0.1615
  657TMC3    C5 9724   0.692   4.083  15.212 -0.2059 -0.2944  0.2224
  657TMC3    C6 9725   0.663   3.966  15.276 -0.8472  0.4318  0.0826
  657TMC3     C 9726   0.993   4.008  15.030 -0.2262  1.1489  1.0804
  657TMC3     O 9727   1.018   4.116  14.984  0.7795 -0.2140  0.2774
  657TMC3     H 9728   0.866   3.772  15.100  0.6053  1.5059 -1.3290
  657TMC3    H1 9729   0.821   4.201  15.097 -1.4957  1.0831 -0.1053
  657TMC3    H2 9730   0.580   3.946  15.343 -2.5702  1.1240 -1.8282
  657TMC3    C7 9731   0.617   4.194  15.260 -0.4697 -0.5036 -0.6225
  657TMC3    C8 9732   0.699   3.731  15.317  0.5797 -0.2304  0.1889
  657TMC3    O1 9733   0.514   4.179  15.325 -0.0104 -0.0366  0.2092
  657TMC3    O2 9734   0.583   3.714  15.352 -0.0850 -0.5387 -0.0309
  658MPD2     C 9735   2.581   4.007  14.678 -0.2207 -0.3359 -0.1385
  658MPD2    C1 9736   2.489   4.102  14.711 -0.1390 -0.3908 -0.2142
  658MPD2    C2 9737   2.483   4.224  14.649  0.6017  0.2294 -0.2955
  658MPD2    C3 9738   2.573   4.241  14.548 -1.2712 -0.0520 -0.2369
  658MPD2    C4 9739   2.674   4.154  14.520 -0.2958 -0.4700  0.8577
  658MPD2    C5 9740   2.672   4.031  14.585  0.9585  0.5080  0.6425
  658MPD2     H 9741   2.406   4.296  14.676  1.1464 -0.0419  1.9270
  658MPD2    H1 9742   2.761   4.191  14.467 -0.1214 -0.0896  1.4140
  658MPD2    H2 9743   2.586   3.918  14.740  1.8546  0.5307  0.9434
  658MPD2    H3 9744   2.755   3.965  14.565 -0.2289 -1.5596  2.4337
  658MPD2     N 9745   2.561   4.359  14.475  0.3425  0.6565 -0.1986
  658MPD2    H5 9746   2.476   4.413  14.489 -0.2528 -0.3656  0.0901
  658MPD2    N1 9747   2.393   4.067  14.815  0.0452  0.1827  0.2651
  658MPD2    H7 9748   2.386   3.970  14.846 -1.2531 -0.1496 -1.0857
  659TMC3    C1 9749   2.216   4.118  14.961 -0.0527  0.7581 -0.0661
  659TMC3    C2 9750   2.198   4.166  15.091 -0.2879  0.2666 -0.0848
  659TMC3    C3 9751   2.100   4.095  15.163 -0.3420 -0.1262  0.4675
  659TMC3    C4 9752   2.138   4.025  14.896  0.4590 -0.0115  0.2929
  659TMC3    C5 9753   2.020   3.990  14.966 -0.0990 -1.2183 -0.8189
  659TMC3    C6 9754   2.010   4.013  15.103 -0.7356 -0.9716 -1.1444
  659TMC3     C 9755   2.330   4.166  14.888 -0.3330  0.1071 -0.6333
  659TMC3     O 9756   2.364   4.282  14.893  0.1443  0.1947 -0.2923
  659TMC3     H 9757   2.266   4.235  15.138 -0.1929 -0.4904  0.8882
  659TMC3    H1 9758   2.134   4.026  14.788 -2.0736  0.8411  0.3924
  659TMC3    H2 9759   1.920   3.984  15.156  0.0989 -1.1304  0.1726
  659TMC3    C7 9760   1.900   3.943  14.904 -0.2167 -0.2149 -0.1327
  659TMC3    C8 9761   2.058   4.149  15.291  0.5418  0.1201  0.9401
  659TMC3    O1 9762   1.813   3.901  14.976 -0.3440  0.2418  0.4545
  659TMC3    O2 9763   2.039   4.270  15.295 -0.1304 -0.0904  0.8751
  660MPD2     C 9764   0.584   2.733  12.779 -0.4139 -0.7613  0.7939
  660MPD2    C1 9765   0.447   2.732  12.778  0.5373  0.1201 -0.4170
  660MPD2    C2 9766   0.384   2.700  12.894 -0.2063  0.7781 -0.3665
  660MPD2    C3 9767   0.453   2.657  13.005 -0.3918 -0.4403  0.0994
  660MPD2    C4 9768   0.592   2.675  13.009  0.1125  0.3335  0.5771
  660MPD2    C5 9769   0.654   2.728  12.898  0.7351 -0.1414  0.6034
  660MPD2     H 9770   0.276   2.695  12.895 -0.2286  1.3246 -0.0270
  660MPD2    H1 9771   0.655   2.642  13.090 -0.3409  2.1799  1.6655
  660MPD2    H2 9772   0.644   2.761  12.694 -0.1446  0.9046  1.5334
  660MPD2    H3 9773   0.762   2.736  12.905  0.5618  1.5530  1.3499
  660MPD2     N 9774   0.382   2.594  13.106 -0.0716 -0.3283  0.7630
  660MPD2    H5 9775   0.286   2.576  13.080  0.4817  1.1260 -2.2567
  660MPD2    N1 9776   0.380   2.751  12.655  0.0519  0.2957 -0.1628
  660MPD2    H7 9777   0.447   2.766  12.581 -0.0458  0.6433 -0.1799
  661TMC3    C1 9778   0.229   2.784  12.483 -0.6270 -0.0923 -0.5076
  661TMC3    C2 9779   0.309   2.728  12.387  0.3698  0.1800 -0.0066
  661TMC3    C3 9780   0.261   2.723  12.261 -0.3572 -0.1840  0.0437
  661TMC3    C4 9781   0.104   2.839  12.445  1.0024 -0.1600  0.6535
  661TMC3    C5 9782   0.064   2.827  12.313  0.3078  0.0003  0.5123
  661TMC3    C6 9783   0.141   2.775  12.220  0.0100 -0.2968  0.3809
  661TMC3     C 9784   0.245   2.754  12.623  0.5799  0.5186  0.4890
  661TMC3     O 9785   0.152   2.757  12.697 -0.3749  0.1903  0.1041
  661TMC3     H 9786   0.396   2.666  12.408  1.0321  0.5727 -1.6149
  661TMC3    H1 9787   0.034   2.872  12.521  0.8657  1.8711 -0.3551
  661TMC3    H2 9788   0.097   2.759  12.123  0.4995 -1.8280  0.3983
  661TMC3    C7 9789   4.675   2.910  12.276 -0.4890  0.6175 -0.2300
  661TMC3    C8 9790   0.333   2.638  12.168  0.4345  0.0344  0.2527
  661TMC3    O1 9791   4.644   3.005  12.344 -0.2431  0.4285 -0.6274
  661TMC3    O2 9792   0.444   2.602  12.194 -0.1415 -0.1129  0.1968
  662MPD2     C 9793   0.481   3.132  17.244  0.0734 -0.0418 -0.1537
  662MPD2    C1 9794   0.372   3.082  17.314 -0.6115 -0.4508 -0.2059
  662MPD2    C2 9795   0.264   3.168  17.333  0.5736 -0.0933  0.2556
  662MPD2    C3 9796   0.272   3.302  17.290 -0.0299 -0.3145 -0.5262
  662MPD2    C4 9797   0.383   3.353  17.229 -0.2765  0.5769  0.3065
  662MPD2    C5 9798   0.483   3.266  17.210  0.4445 -0.2030 -0.3019
  662MPD2     H 9799   0.182   3.117  17.383  0.3238  0.2052  0.1459
  662MPD2    H1 9800   0.395   3.456  17.197 -0.4140  1.0079  1.6502
  662MPD2    H2 9801   0.568   3.072  17.221  0.5201  0.1985  0.9050
  662MPD2    H3 9802   0.574   3.304  17.165  0.6409  0.2922  0.5134
  662MPD2     N 9803   0.165   3.389  17.317  0.2469  0.4341  0.8875
  662MPD2    H5 9804   0.182   3.486  17.292 -0.7426  0.7579  1.4509
  662MPD2    N1 9805   0.361   2.947  17.357  0.8521 -0.0684  0.0464
  662MPD2    H7 9806   0.285   2.926  17.421  1.5013  0.1504  0.8811
  663TMC3    C1 9807   0.415   2.726  17.380 -0.6078 -1.0931  0.3898
  663TMC3    C2 9808   0.334   2.713  17.492  0.1345  0.2775  0.2860
  663TMC3    C3 9809   0.260   2.605  17.509  0.3938  0.2421 -0.5131
  663TMC3    C4 9810   0.434   2.633  17.287  0.4863 -0.1365  0.2189
  663TMC3    C5 9811   0.370   2.516  17.315  0.4021  0.3235 -0.1985
  663TMC3    C6 9812   0.287   2.500  17.423  0.1970 -0.2948  1.5439
  663TMC3     C 9813   0.454   2.852  17.321 -0.4350 -0.3628 -0.1410
  663TMC3     O 9814   0.565   2.856  17.275 -0.0192 -0.4945 -0.0111
  663TMC3     H 9815   0.315   2.807  17.543 -0.3182  0.3374  0.0070
  663TMC3    H1 9816   0.494   2.646  17.198  0.0098  0.2155 -0.0459
  663TMC3    H2 9817   0.217   2.417  17.429  0.2847 -0.5846 -1.3819
  663TMC3    C7 9818   0.370   2.414  17.206  0.1986  0.2285  0.2163
  663TMC3    C8 9819   0.115   2.631  17.506  0.2760  0.3220 -0.2606
  663TMC3    O1 9820   0.366   2.460  17.092 -0.0985  0.5197 -0.3107
  663TMC3    O2 9821   0.093   2.737  17.451  0.5688 -0.0395 -0.3986
  664MPD2     C 9822   3.608   1.005  17.531  0.0199  0.0796 -0.4420
  664MPD2    C1 9823   3.567   1.129  17.575 -0.1224  0.5050 -0.7167
  664MPD2    C2 9824   3.440   1.148  17.613  0.2821  0.1486  0.1371
  664MPD2    C3 9825   3.342   1.047  17.595  0.4077  0.2849  0.2131
  664MPD2    C4 9826   3.386   0.918  17.549  0.5927 -0.3028 -1.1281
  664MPD2    C5 9827   3.521   0.899  17.529  0.2316 -0.4154 -1.1623
  664MPD2     H 9828   3.404   1.242  17.652  1.3158  1.1949 -1.4163
  664MPD2    H1 9829   3.317   0.834  17.546 -1.9932  1.7878  0.2698
  664MPD2    H2 9830   3.713   0.992  17.506 -0.3066 -0.6950 -1.3801
  664MPD2    H3 9831   3.550   0.799  17.498 -1.4272 -1.0608 -0.6115
  664MPD2     N 9832   3.211   1.070  17.653 -0.0176  0.1877  0.0662
  664MPD2    H5 9833   3.184   1.161  17.689 -1.7132 -1.3045  2.5405
  664MPD2    N1 9834   3.653   1.237  17.600  0.0089  0.4204 -0.6985
  664MPD2    H7 9835   3.614   1.328  17.622  0.1904  0.8399 -2.1224
  665TMC3    C1 9836   2.994   1.021   0.048 -0.6157  0.2954 -0.2558
  665TMC3    C2 9837   2.922   0.925   0.118  0.1091 -0.0274 -0.2922
  665TMC3    C3 9838   2.852   0.963   0.223 -0.2493  0.0751  0.5284
  665TMC3    C4 9839   2.988   1.149   0.081  0.6072  0.3693 -1.2950
  665TMC3    C5 9840   2.918   1.185   0.191  0.0880 -0.4119 -0.4312
  665TMC3    C6 9841   2.868   1.089   0.275  0.2188  0.6467 -0.1349
  665TMC3     C 9842   3.115   0.974  17.676 -1.0240  0.0475  0.3222
  665TMC3     O 9843   3.128   0.851  17.659 -0.2058  0.3664  0.4814
  665TMC3     H 9844   2.932   0.822   0.087  1.4687 -0.3836  1.3372
  665TMC3    H1 9845   3.033   1.226   0.020  2.4473  1.8074  1.8441
  665TMC3    H2 9846   2.814   1.111   0.367  0.0810  0.5294 -0.1883
  665TMC3    C7 9847   2.945   1.305   0.261  0.0914  0.4144 -0.3462
  665TMC3    C8 9848   2.766   0.870   0.307  0.1558  1.0424  0.0014
  665TMC3    O1 9849   2.964   1.407   0.198  0.0195 -0.0841 -0.2034
  665TMC3    O2 9850   2.654   0.909   0.343  0.0362 -0.2273  0.2974
  666TMC3    C1 9851   2.862   0.270   9.966  0.5397 -0.1592  0.3579
  666TMC3    C2 9852   2.988   0.328   9.958 -0.1023 -0.3981  0.0937
  666TMC3    C3 9853   2.995   0.446   9.891 -0.4668  0.1495  0.1275
  666TMC3    C4 9854   2.747   0.337   9.921 -0.3583  0.6409 -0.0954
  666TMC3    C5 9855   2.768   0.458   9.854 -0.6149  0.4228 -0.0213
  666TMC3    C6 9856   2.891   0.511   9.836  0.1654  0.1116 -0.7936
  666TMC3     C 9857   2.838   0.211  10.099  0.7951 -0.7155 -0.1617
  666TMC3     O 9858   2.920   0.248  10.183  0.1548 -0.1425 -0.2567
  666TMC3     H 9859   3.072   0.275  10.002  0.6662  0.7911  0.0671
  666TMC3    H1 9860   2.650   0.298   9.951  0.5538 -0.8688  0.9597
  666TMC3    H2 9861   2.893   0.615   9.803  0.4181  0.4282  0.2079
  666TMC3    C7 9862   2.664   0.554   9.882 -0.3281  0.0820 -1.1985
  666TMC3    C8 9863   3.103   0.530   9.927  0.4451 -0.0596 -0.4519
  666TMC3    O1 9864   2.567   0.568   9.810  0.3464  0.2772  0.3115
  666TMC3    O2 9865   3.138   0.605   9.838 -0.4220  0.3592  0.0171
  667MPD2     C 9866   3.786   1.039  15.000 -0.8002  0.1769  0.2479
  667MPD2    C1 9867   3.878   0.974  15.076  1.0314  0.1547  0.1195
  667MPD2    C2 9868   3.878   0.829  15.086  0.0620  0.3304  0.0154
  667MPD2    C3 9869   3.780   0.757  15.026  0.1745  1.1636  0.3285
  667MPD2    C4 9870   3.693   0.826  14.946  1.1139 -0.2667  0.0296
  667MPD2    C5 9871   3.702   0.960  14.926  0.4386 -0.4966 -0.5519
  667MPD2     H 9872   3.962   0.783  15.137 -0.9948 -0.7767  0.7475
  667MPD2    H1 9873   3.611   0.772  14.899 -1.1245  1.2247  2.1969
  667MPD2    H2 9874   3.779   1.145  14.977  1.2786 -0.0137 -1.3262
  667MPD2    H3 9875   3.637   1.011  14.856  2.4971 -0.2675 -2.2779
  667MPD2     N 9876   3.772   0.614  15.049  0.4550  0.2064  0.3558
  667MPD2    H5 9877   3.697   0.564  15.002  0.5858 -0.5984  1.0062
  667MPD2    N1 9878   3.981   1.035  15.150  0.0456 -0.8832 -0.2785
  667MPD2    H7 9879   4.046   0.979  15.204  2.5424  0.1228 -2.2066
  668TMC3    C1 9880   4.100   1.213  15.258 -0.4615 -0.5480 -0.6131
  668TMC3    C2 9881   4.198   1.305  15.240  0.1789 -0.2301  0.9142
  668TMC3    C3 9882   4.267   1.346  15.353  0.0110  0.9105  0.6988
  668TMC3    C4 9883   4.072   1.154  15.377  0.4142 -0.4190  0.1967
  668TMC3    C5 9884   4.133   1.202  15.485  0.6590 -0.6627 -0.6011
  668TMC3    C6 9885   4.225   1.299  15.475 -0.5041  0.1794  0.2477
  668TMC3     C 9886   4.007   1.172  15.151 -0.1926 -0.6411 -0.7844
  668TMC3     O 9887   3.944   1.262  15.095  0.9527 -0.7600  0.4002
  668TMC3     H 9888   4.223   1.338  15.140  2.2501 -1.7166  0.9433
  668TMC3    H1 9889   3.986   1.088  15.376 -0.5623  0.8455 -0.0426
  668TMC3    H2 9890   4.286   1.316  15.563  0.7911  0.1494 -0.6314
  668TMC3    C7 9891   4.094   1.159  15.614  0.6211  0.0826  0.3593
  668TMC3    C8 9892   4.378   1.442  15.346 -0.8993  0.3923  0.4474
  668TMC3    O1 9893   4.129   1.227  15.711  0.1466 -0.2619  0.0628
  668TMC3    O2 9894   4.443   1.465  15.447  0.0946  0.3498 -0.1609
  669TMC3    C1 9895   2.156   1.090  14.275  0.5019  0.2993 -0.3980
  669TMC3    C2 9896   2.050   1.119  14.202  0.1039 -0.7818  0.1285
  669TMC3    C3 9897   2.066   1.174  14.079 -0.6255  0.0610  0.3260
  669TMC3    C4 9898   2.285   1.116  14.241  0.5757  1.0621  0.2796
  669TMC3    C5 9899   2.305   1.179  14.118 -0.4814  0.3374  0.2387
  669TMC3    C6 9900   2.194   1.206  14.037  0.3210 -0.0761 -0.8353
  669TMC3     C 9901   2.125   1.041  14.409  0.7955 -0.5954 -0.3506
  669TMC3     O 9902   2.026   1.072  14.478 -0.9356 -0.2851 -0.1424
  669TMC3     H 9903   1.951   1.086  14.233 -0.8003  2.5306  0.8222
  669TMC3    H1 9904   2.368   1.081  14.302  0.4223 -0.6594 -0.5006
  669TMC3    H2 9905   2.198   1.255  13.940  2.4572  2.7603  0.6907
  669TMC3    C7 9906   2.438   1.216  14.075  0.4741  0.7885  0.2518
  669TMC3    C8 9907   1.970   1.127  13.976  0.7274 -0.0304 -0.1424
  669TMC3    O1 9908   2.521   1.208  14.168  0.5011 -0.5234 -0.0833
  669TMC3    O2 9909   2.020   1.106  13.865  0.6015 -0.3043 -0.6458
  670MPD2     C 9910   4.674   3.287  13.977 -0.7892  0.5514 -0.0858
  670MPD2    C1 9911   0.061   3.348  14.028  0.3744 -0.3806  0.1707
  670MPD2    C2 9912   0.110   3.306  14.142 -0.3471  0.5954  0.1863
  670MPD2    C3 9913   0.040   3.213  14.224  0.3346 -0.6313 -0.5908
  670MPD2    C4 9914   4.642   3.167  14.178  0.9090  0.2523 -0.1400
  670MPD2    C5 9915   4.604   3.193  14.049 -0.8057 -0.3578  0.3878
  670MPD2     H 9916   0.198   3.358  14.178  0.1246 -0.4349  0.5066
  670MPD2    H1 9917   4.588   3.085  14.224  1.7767 -0.5703 -0.5708
  670MPD2    H2 9918   4.645   3.310  13.875 -1.0582 -2.2984 -0.6577
  670MPD2    H3 9919   4.519   3.147  14.001 -2.7542  1.1511  2.3632
  670MPD2     N 9920   0.101   3.178  14.349 -0.1185 -0.1296 -0.6398
  670MPD2    H5 9921   0.164   3.243  14.394 -1.5225  0.7413  0.0675
  670MPD2    N1 9922   0.145   3.439  13.953  0.2756 -0.7606 -0.5964
  670MPD2    H7 9923   0.220   3.482  14.006 -0.9386  0.3198  0.2640
  671TMC3    C1 9924   0.122   3.076  14.555 -0.0155 -0.3750  0.3539
  671TMC3    C2 9925   0.254   3.106  14.554 -0.0278  0.5989 -0.4238
  671TMC3    C3 9926   0.332   3.036  14.634 -0.4705  0.3360 -0.1485
  671TMC3    C4 9927   0.071   2.975  14.624  0.0221 -1.1672 -0.6380
  671TMC3    C5 9928   0.158   2.902  14.698 -0.2697 -0.1521 -0.8322
  671TMC3    C6 9929   0.292   2.932  14.709 -0.4209 -0.1294 -0.6268
  671TMC3     C 9930   0.051   3.079  14.428 -0.1721 -0.1751 -0.2210
  671TMC3     O 9931   4.710   2.979  14.396 -0.0246 -0.0445 -0.7244
  671TMC3     H 9932   0.305   3.186  14.501  0.9667 -0.2804 -0.8017
  671TMC3    H1 9933   4.688   2.949  14.620 -0.4223  0.8053 -1.5301
  671TMC3    H2 9934   0.354   2.858  14.758 -1.2732 -0.8068 -0.5681
  671TMC3    C7 9935   0.146   2.763  14.680 -0.9484 -0.2226 -0.6712
  671TMC3    C8 9936   0.464   3.030  14.586  0.4699  0.0399 -0.0904
  671TMC3    O1 9937   0.232   2.699  14.619 -0.3692 -0.3982 -0.3963
  671TMC3    O2 9938   0.474   3.032  14.466  0.1563 -0.2657 -0.3965
  672MPD2     C 9939   0.151   4.568   1.575 -1.2294  0.0078  0.4499
  672MPD2    C1 9940   0.281   4.517   1.570 -0.0915 -0.5361  0.1981
  672MPD2    C2 9941   0.374   4.563   1.658  0.0214  0.5176 -0.3178
  672MPD2    C3 9942   0.349   4.676   1.727  0.0222 -0.0470  0.1056
  672MPD2    C4 9943   0.225   0.012   1.726  0.2992  0.4401 -0.5918
  672MPD2    C5 9944   0.124   4.673   1.658 -1.2064 -0.1579 -0.9256
  672MPD2     H 9945   0.472   4.518   1.660 -0.1970  0.1488  1.8779
  672MPD2    H1 9946   0.203   0.107   1.774 -3.6149 -0.2347 -1.0169
  672MPD2    H2 9947   0.071   4.533   1.511  0.2780  1.4568 -2.2071
  672MPD2    H3 9948   0.024   4.713   1.666 -1.1240  0.4217 -2.8517
  672MPD2     N 9949   0.452   0.012   1.810 -0.2691 -1.0993  0.1154
  672MPD2    H5 9950   0.420   0.095   1.859 -0.0490 -2.2125  2.1621
  672MPD2    N1 9951   0.316   4.419   1.475  0.4758  0.3462  0.6074
  672MPD2    H7 9952   0.408   4.377   1.488  0.2969 -0.4070 -0.5730
  673TMC3    C1 9953   0.301   4.282   1.291  0.0080 -0.1561 -0.1964
  673TMC3    C2 9954   0.359   4.178   1.356  0.3273  0.5972 -0.6170
  673TMC3    C3 9955   0.392   4.067   1.276  0.2686  0.3195  0.5875
  673TMC3    C4 9956   0.282   4.289   1.163 -0.4227  0.2544  0.4189
  673TMC3    C5 9957   0.330   4.185   1.089  0.2679  0.5186  0.1693
  673TMC3    C6 9958   0.387   4.069   1.140  0.2189 -0.2291  1.1618
  673TMC3     C 9959   0.231   4.377   1.372  0.1982 -0.1333 -0.0229
  673TMC3     O 9960   0.126   4.419   1.324 -0.1502 -0.5792 -0.1331
  673TMC3     H 9961   0.329   4.154   1.458 -0.8231 -1.2858 -1.3963
  673TMC3    H1 9962   0.232   4.377   1.124  0.9284  1.8646  2.3049
  673TMC3    H2 9963   0.438   3.996   1.078  0.8048 -0.2605  1.6821
  673TMC3    C7 9964   0.378   4.223   0.955 -0.0989  0.0340  0.3473
  673TMC3    C8 9965   0.444   3.948   1.342 -0.4461  0.0421  0.1891
  673TMC3    O1 9966   0.413   4.129   0.888  0.0305 -0.4869  0.6396
  673TMC3    O2 9967   0.438   3.848   1.275  0.0439 -0.2330  0.2814
  674MPD2     C 9968   0.864   3.751   0.337  0.9317 -0.1499 -0.4130
  674MPD2    C1 9969   0.743   3.709   0.280  0.7184  0.0485 -1.0160
  674MPD2    C2 9970   0.633   3.787   0.287  0.3448  0.2296 -0.5649
  674MPD2    C3 9971   0.641   3.910   0.350 -0.1734  0.5910  0.3746
  674MPD2    C4 9972   0.757   3.954   0.408 -0.3316 -0.1831  0.4916
  674MPD2    C5 9973   0.873   3.874   0.402 -0.0027 -0.5741 -0.0986
  674MPD2     H 9974   0.545   3.760   0.229 -1.2152 -0.5257  2.0819
  674MPD2    H1 9975   0.772   4.050   0.457  1.2283 -0.2677  0.1827
  674MPD2    H2 9976   0.953   3.691   0.321  0.2928 -1.7938  2.2570
  674MPD2    H3 9977   0.970   3.918   0.424  0.3663 -0.7000 -1.4726
  674MPD2     N 9978   0.518   3.982   0.362 -0.5116 -0.4658  0.3822
  674MPD2    H5 9979   0.441   3.944   0.309 -0.8740  0.0826  0.5253
  674MPD2    N1 9980   0.744   3.581   0.226  0.2537 -0.2118 -0.5172
  674MPD2    H7 9981   0.823   3.521   0.247 -1.2843 -1.1153  2.7127
  675TMC3    C1 9982   0.672   3.381   0.135  0.1211  0.1018  0.0766
  675TMC3    C2 9983   0.564   3.298   0.122 -0.1133 -0.4462 -0.3754
  675TMC3    C3 9984   0.584   3.165   0.135 -0.7183 -0.6613 -0.0404
  675TMC3    C4 9985   0.805   3.337   0.156  0.1890  0.9864  0.5095
  675TMC3    C5 9986   0.817   3.201   0.170 -0.0410  0.1218  0.2936
  675TMC3    C6 9987   0.710   3.111   0.160 -0.4268  0.1695 -0.1577
  675TMC3     C 9988   0.639   3.520   0.162  0.1272 -0.2730 -0.0898
  675TMC3     O 9989   0.528   3.566   0.129 -0.1712 -0.4168 -0.3935
  675TMC3     H 9990   0.464   3.337   0.101  0.7574  1.0948 -1.6731
  675TMC3    H1 9991   0.887   3.409   0.153  1.3444 -0.3616 -0.0472
  675TMC3    H2 9992   0.723   3.004   0.148 -1.4337  0.1615 -1.1910
  675TMC3    C7 9993   0.952   3.144   0.165 -0.1247 -0.3224  0.5487
  675TMC3    C8 9994   0.461   3.089   0.106  0.5439 -0.5836  0.0070
  675TMC3    O1 9995   1.045   3.224   0.171  0.3572  0.0411 -0.5134
  675TMC3    O2 9996   0.359   3.149   0.074 -0.0719 -0.1997  0.4083
  676MPD2     C 9997   3.659   1.418  10.995  0.1457  0.3478  0.1720
  676MPD2    C1 9998   3.531   1.371  11.028 -0.1923 -1.0002 -0.4122
  676MPD2    C2 9999   3.506   1.234  11.042 -0.5247  0.0605 -0.0655
  676MPD2    C310000   3.608   1.149  11.045 -0.1515  0.5398 -0.2957
  676MPD2    C410001   3.738   1.198  11.033  0.0849 -0.6735 -0.0276
  676MPD2    C510002   3.763   1.331  11.007  0.4726  0.1446  0.5672
  676MPD2     H10003   3.406   1.193  11.055 -0.5053  0.0787  0.1375
  676MPD2    H110004   3.823   1.130  11.033  0.5529 -0.0845  0.6984
  676MPD2    H210005   3.683   1.522  10.978 -1.4338  0.5535 -0.7749
  676MPD2    H310006   3.860   1.375  10.986 -0.1768  0.5746 -1.5423
  676MPD2     N10007   3.572   1.011  11.081  0.1539  0.3349 -0.3006
  676MPD2    H510008   3.479   0.993  11.117 -0.4371 -0.1020 -2.0648
  676MPD2    N110009   3.425   1.457  11.034 -0.3627  0.2643  0.4031
  676MPD2    H710010   3.338   1.410  11.056  0.3602 -2.1761 -1.9708
  677TMC3    C110011   3.284   1.636  11.004  0.6040  0.3716  0.2760
  677TMC3    C210012   3.187   1.541  10.981  0.4075 -0.4310 -0.2931
  677TMC3    C310013   3.061   1.567  11.030  0.8720 -0.1051 -0.1380
  677TMC3    C410014   3.257   1.755  11.058 -0.0394  0.3564  0.6934
  677TMC3    C510015   3.124   1.780  11.097 -0.1511 -0.4090  0.3216
  677TMC3    C610016   3.024   1.688  11.082 -0.4062 -0.7149  0.4271
  677TMC3     C10017   3.422   1.586  10.991 -0.4273  0.7480 -0.1366
  677TMC3     O10018   3.515   1.668  10.982  0.2259 -0.2296 -0.3378
  677TMC3     H10019   3.205   1.438  10.951  2.2199 -0.4415  0.7787
  677TMC3    H110020   3.341   1.816  11.090 -1.5467  1.7095  2.0428
  677TMC3    H210021   2.925   1.697  11.126 -0.9350  0.6471 -1.0360
  677TMC3    C710022   3.105   1.869  11.213 -1.1233 -0.0032  0.3286
  677TMC3    C810023   2.971   1.455  11.038  0.2304 -0.2118 -0.8297
  677TMC3    O110024   2.999   1.860  11.277  0.3553  1.0626  0.4105
  677TMC3    O210025   2.954   1.388  10.934  0.7142  0.3134  0.3404
  678MPD2     C10026   4.493   0.859   0.870  0.2289 -0.0354 -0.2564
  678MPD2    C110027   4.418   0.973   0.847 -0.0107  0.6051 -0.3368
  678MPD2    C210028   4.278   0.963   0.834  0.0392 -0.0115 -0.2608
  678MPD2    C310029   4.214   0.841   0.819 -0.1353 -0.7318 -0.2128
  678MPD2    C410030   4.289   0.725   0.845 -0.0263  0.1646 -0.0267
  678MPD2    C510031   4.424   0.739   0.859  0.3593  0.0955 -0.3885
  678MPD2     H10032   4.221   1.055   0.823 -2.0059 -0.9954  2.1457
  678MPD2    H110033   4.254   0.623   0.849  0.7077 -0.1394 -1.3405
  678MPD2    H210034   4.588   0.861   0.922  0.2013 -1.6622 -0.1253
  678MPD2    H310035   4.480   0.649   0.881  0.3358  0.0791 -0.3966
  678MPD2     N10036   4.074   0.836   0.786 -0.1849  0.3310 -0.9725
  678MPD2    H510037   4.036   0.922   0.747  0.6611  2.3233  2.5635
  678MPD2    N110038   4.485   1.098   0.837 -0.1237  0.3254  0.3702
  678MPD2    H710039   4.433   1.179   0.805  1.7785  1.1538 -0.6233
  679TMC3    C110040   0.097   1.416   0.854  0.0807  0.6229 -0.1500
  679TMC3    C210041   0.068   1.286   0.843 -0.2916  0.7261 -1.1002
  679TMC3    C310042   4.659   1.254   0.824 -0.4550 -0.3902 -0.2055
  679TMC3    C410043   0.004   1.515   0.830  0.2377 -0.3672  0.5329
  679TMC3    C510044   4.596   1.481   0.804  0.2611 -0.8700 -1.0742
  679TMC3    C610045   4.558   1.352   0.807  0.1782  0.5244 -0.2997
  679TMC3     C10046   0.224   1.457   0.916 -0.3981 -0.4976  0.2484
  679TMC3     O10047   0.315   1.377   0.925  0.4986  0.3105 -0.6233
  679TMC3     H10048   0.140   1.208   0.866 -1.8321 -0.2208  0.5410
  679TMC3    H110049   0.039   1.618   0.826 -0.0479 -0.3198 -0.7062
  679TMC3    H210050   4.455   1.328   0.785  0.1732  1.0426 -0.8601
  679TMC3    C710051   4.518   1.594   0.767 -0.0277 -0.9061 -0.6667
  679TMC3    C810052   4.620   1.112   0.840  0.0735 -1.2269  0.0108
  679TMC3    O110053   4.581   1.682   0.710 -0.9166 -0.1376  0.1806
  679TMC3    O210054   4.713   1.035   0.855 -0.1841  0.2646  0.4739
  680MPD2     C10055   1.369   0.503  14.155  0.2898 -0.3712 -0.0935
  680MPD2    C110056   1.237   0.476  14.140  0.0098  0.2544  0.0442
  680MPD2    C210057   1.143   0.573  14.154 -0.4130  0.0001 -0.0979
  680MPD2    C310058   1.178   0.697  14.200  0.3565 -0.3334 -0.4380
  680MPD2    C410059   1.310   0.723  14.236  0.1894  0.4773 -0.7337
  680MPD2    C510060   1.397   0.629  14.195 -0.5270 -0.0563  0.3712
  680MPD2     H10061   1.043   0.549  14.121  0.4077 -1.8999 -1.2415
  680MPD2    H110062   1.348   0.822  14.259 -1.6408  1.4805 -2.0545
  680MPD2    H210063   1.440   0.426  14.129 -0.4923  0.1406 -3.6896
  680MPD2    H310064   1.499   0.654  14.220 -0.6524  1.0048 -0.1928
  680MPD2     N10065   1.081   0.802  14.211  0.8634  0.1441 -0.1916
  680MPD2    H510066   1.109   0.887  14.258 -0.4864  0.1003  0.7008
  680MPD2    N110067   1.187   0.348  14.099 -0.5868 -0.3737 -0.5307
  680MPD2    H710068   1.086   0.350  14.086 -0.3873  0.6171 -1.8721
  681TMC3    C110069   1.165   0.135  14.005 -0.1429  0.6251  0.1733
  681TMC3    C210070   1.030   0.134  14.008 -0.5944  0.0970  0.0219
  681TMC3    C310071   0.969   0.019  13.964 -0.6823  0.2414 -0.2881
  681TMC3    C410072   1.233   0.040  13.939 -0.2502 -0.4231 -0.0206
  681TMC3    C510073   1.170   4.652  13.899 -0.6467  0.1643 -0.8485
  681TMC3    C610074   1.036   4.640  13.916 -0.2028  0.3649  0.4811
  681TMC3     C10075   1.254   0.233  14.072  0.2920 -0.0926 -0.3860
  681TMC3     O10076   1.374   0.205  14.081 -0.8137 -0.0573 -0.1909
  681TMC3     H10077   0.979   0.227  14.029 -0.5580  0.3120 -0.8536
  681TMC3    H110078   1.342   0.038  13.941 -0.2282  0.3508 -0.8208
  681TMC3    H210079   0.981   4.551  13.887  0.5657  0.4341 -1.1996
  681TMC3    C710080   1.239   4.537  13.840 -0.3036 -0.2434  0.2006
  681TMC3    C810081   0.825   0.014  13.955  0.7765  0.3698  0.4507
  681TMC3    O110082   1.197   4.429  13.875  0.2690  0.0473 -0.0897
  681TMC3    O210083   0.766   4.638  13.910  0.1270  0.2844 -0.3396
  682MPD2     C10084   2.642   1.609  10.959  0.8689  0.1723  0.6505
  682MPD2    C110085   2.560   1.495  10.974 -1.0541 -0.0033 -0.2341
  682MPD2    C210086   2.494   1.480  11.095  0.4208  0.2104  0.3829
  682MPD2    C310087   2.500   1.576  11.196 -0.0152 -0.4854 -0.5649
  682MPD2    C410088   2.577   1.688  11.181 -0.1583  0.5215  1.0204
  682MPD2    C510089   2.647   1.701  11.062 -0.4508  0.4156  0.7148
  682MPD2     H10090   2.436   1.389  11.104  0.4918  0.0363 -0.8827
  682MPD2    H110091   2.584   1.763  11.260 -1.7253  0.7010  1.0034
  682MPD2    H210092   2.706   1.619  10.872  2.2745  2.4197  1.9499
  682MPD2    H310093   2.707   1.789  11.041  2.7979 -2.3517 -1.6013
  682MPD2     N10094   2.426   1.569  11.320 -0.1327 -0.2437  0.1053
  682MPD2    H510095   2.441   1.645  11.386 -0.1657 -1.3656  1.4133
  682MPD2    N110096   2.550   1.385  10.883 -0.1798  0.3118 -0.2097
  682MPD2    H710097   2.484   1.311  10.906  0.3539 -0.8223 -2.3713
  683TMC3    C110098   2.219   1.561  11.682  0.8832  0.1259  0.0297
  683TMC3    C210099   2.097   1.505  11.687  0.4241 -0.5886 -0.2618
  683TMC3    C310100   2.049   1.450  11.573 -0.0421  0.4219 -0.8092
  683TMC3    C410101   2.298   1.559  11.567  0.4777  0.1532 -0.3137
  683TMC3    C510102   2.245   1.498  11.460  0.1402  0.8262 -0.0494
  683TMC3    C610103   2.120   1.452  11.457 -0.4288 -0.2832  0.0877
  683TMC3     C10104   2.257   1.630  11.803 -0.4978 -0.4327  0.2151
  683TMC3     O10105   2.158   1.678  11.864  0.2860 -0.1967 -0.6561
  683TMC3     H10106   2.056   1.469  11.780 -0.4579  1.0736 -0.0040
  683TMC3    H110107   2.402   1.587  11.572  0.4489 -0.2559  2.3945
  683TMC3    H210108   2.078   1.407  11.367 -3.7524  1.5044  0.7270
  683TMC3    C710109   2.322   1.483  11.343  0.0081  0.5137 -0.3914
  683TMC3    C810110   1.957   1.340  11.594 -0.1491  0.4324  0.7358
  683TMC3    O110111   2.284   1.385  11.272  0.3739 -0.2716  0.0734
  683TMC3    O210112   1.839   1.374  11.599 -0.0459  0.8343 -0.3057
  684MPD2     C10113   0.635   1.915  16.931 -0.2716  0.6386 -0.1232
  684MPD2    C110114   0.636   1.972  16.804 -0.5617 -0.3109  0.1438
  684MPD2    C210115   0.655   2.107  16.792  0.3422  0.2395  0.0732
  684MPD2    C310116   0.687   2.185  16.901 -0.3820  0.3173  0.5091
  684MPD2    C410117   0.689   2.127  17.028 -0.5974  0.1028  0.1788
  684MPD2    C510118   0.652   1.993  17.043  0.8178  0.4172  0.0892
  684MPD2     H10119   0.662   2.132  16.687 -0.4587 -1.2620 -0.3457
  684MPD2    H110120   0.709   2.188  17.116  0.7607 -1.0921  0.7091
  684MPD2    H210121   0.604   1.811  16.936  1.8270  0.0390  0.2456
  684MPD2    H310122   0.636   1.956  17.143 -0.9580  0.1175 -0.3008
  684MPD2     N10123   0.722   2.322  16.880 -0.0359  0.1957 -0.4600
  684MPD2    H510124   0.758   2.365  16.965  0.2741 -0.1450 -0.4161
  684MPD2    N110125   0.629   1.901  16.683 -0.9552 -0.2703 -0.6884
  684MPD2    H710126   0.619   1.944  16.592 -1.4398  0.9038 -0.0795
  685TMC3    C110127   0.674   1.715  16.543  0.0473  0.5187 -0.0624
  685TMC3    C210128   0.605   1.774  16.444 -0.6045  0.3088 -0.8176
  685TMC3    C310129   0.597   1.711  16.316  0.4548 -0.0745  0.1943
  685TMC3    C410130   0.742   1.599  16.521  1.0247 -0.2585 -0.4128
  685TMC3    C510131   0.748   1.544  16.399 -0.1333 -0.1254 -0.0864
  685TMC3    C610132   0.674   1.599  16.297 -0.4477  0.2800  0.2421
  685TMC3     C10133   0.671   1.768  16.677 -0.0216  0.0521 -0.0000
  685TMC3     O10134   0.720   1.700  16.768 -0.5629  0.4348  0.0984
  685TMC3     H10135   0.553   1.869  16.444  0.0808  0.6851 -0.8678
  685TMC3    H110136   0.791   1.549  16.604  0.7963 -1.0703 -0.7684
  685TMC3    H210137   0.654   1.554  16.200 -2.2814 -1.6284  1.5165
  685TMC3    C710138   0.857   1.449  16.375 -1.0694  0.0927 -0.0175
  685TMC3    C810139   0.495   1.750  16.222 -0.3659 -0.2188  0.1767
  685TMC3    O110140   0.913   1.401  16.472 -0.1734 -0.3278 -0.0449
  685TMC3    O210141   0.525   1.749  16.100  0.5247 -0.5252  0.1283
  686MPD2     C10142   2.309   1.019  15.645  0.0338  0.1265  0.5974
  686MPD2    C110143   2.280   0.971  15.773  0.2317 -0.3381 -0.2488
  686MPD2    C210144   2.352   0.878  15.834 -1.1745 -0.3791  0.0602
  686MPD2    C310145   2.457   0.816  15.765 -0.6443  0.5906  0.8789
  686MPD2    C410146   2.479   0.848  15.633 -0.5366  0.1321  0.2574
  686MPD2    C510147   2.406   0.950  15.576 -0.0840  1.3273 -0.2013
  686MPD2     H10148   2.344   0.854  15.939 -1.9504  2.1852  0.5922
  686MPD2    H110149   2.558   0.805  15.573 -0.2093  1.1952 -0.0672
  686MPD2    H210150   2.247   1.094  15.599  0.3242 -0.1565 -0.2644
  686MPD2    H310151   2.422   0.972  15.471 -0.3574 -0.2445 -0.5677
  686MPD2     N10152   2.544   0.714  15.830 -0.4568 -0.1207 -0.3301
  686MPD2    H510153   2.637   0.699  15.792 -0.4423  3.2052 -1.5390
  686MPD2    N110154   2.158   1.024  15.826  0.1030 -0.5593 -0.1300
  686MPD2    H710155   2.096   1.079  15.767  1.9800  0.1995 -1.4034
  687TMC3    C110156   2.385   0.636  16.013  0.0956 -0.2029 -0.4205
  687TMC3    C210157   2.271   0.615  15.942 -0.0311 -1.0268 -0.2138
  687TMC3    C310158   2.158   0.641  16.010  0.2965  0.5509 -0.4531
  687TMC3    C410159   2.394   0.673  16.146 -0.5711 -0.2491  0.2804
  687TMC3    C510160   2.269   0.693  16.204  0.0849 -0.0566  0.1764
  687TMC3    C610161   2.154   0.678  16.143 -0.1405  0.2263  0.1269
  687TMC3     C10162   2.517   0.641  15.940  0.8298 -0.1197 -0.2410
  687TMC3     O10163   2.603   0.580  16.000  0.7527 -0.6709  0.2677
  687TMC3     H10164   2.272   0.596  15.836 -1.4884 -1.4135 -0.1542
  687TMC3    H110165   2.492   0.682  16.190 -0.5194  0.9935 -0.0730
  687TMC3    H210166   2.059   0.714  16.181 -1.2052 -2.6608  0.2317
  687TMC3    C710167   2.272   0.776  16.324 -0.1488  0.5123 -0.2031
  687TMC3    C810168   2.034   0.651  15.931  0.0731 -0.8226 -0.0571
  687TMC3    O110169   2.177   0.854  16.339  0.2159  0.7608  0.1079
  687TMC3    O210170   1.937   0.623  16.007 -0.2145  0.5579  0.4766
  688MPD2     C10171   1.094   0.360  17.309  0.1613  1.2199  0.0308
  688MPD2    C110172   1.137   0.242  17.361 -0.0502  0.2517 -0.4861
  688MPD2    C210173   1.244   0.167  17.301 -0.0417  0.0630  0.0104
  688MPD2    C310174   1.299   0.222  17.182 -0.2061  0.5648 -0.4707
  688MPD2    C410175   1.243   0.333  17.124  0.1042 -0.1068 -0.2193
  688MPD2    C510176   1.143   0.407  17.190 -1.0803  0.0753 -0.8491
  688MPD2     H10177   1.299   0.086  17.350  1.6526  0.7688 -0.7107
  688MPD2    H110178   1.271   0.363  17.024  1.6062 -0.8113 -0.0134
  688MPD2    H210179   1.020   0.422  17.359 -0.1243  1.1225 -0.2669
  688MPD2    H310180   1.118   0.504  17.149 -0.9991  0.8231  0.8686
  688MPD2     N10181   1.403   0.154  17.111 -0.4635  0.2614  0.2982
  688MPD2    H510182   1.419   0.192  17.018  1.3409 -0.3090  0.3677
  688MPD2    N110183   1.095   0.201  17.493 -0.6612 -0.0230  1.1202
  688MPD2    H710184   1.140   0.121  17.537  0.7190  0.7348  1.0997
  689TMC3    C110185   0.977   0.220   0.016 -0.0818 -0.2773  0.0427
  689TMC3    C210186   0.932   0.314   0.107  0.0197 -0.2135  0.4565
  689TMC3    C310187   0.947   0.289   0.238 -0.6574  0.2961 -0.3806
  689TMC3    C410188   1.034   0.104   0.059 -0.5422  0.1141  0.1818
  689TMC3    C510189   1.045   0.079   0.193 -0.6521 -0.7780 -0.0522
  689TMC3    C610190   1.006   0.172   0.285 -0.4149  0.1409  0.5607
  689TMC3     C10191   0.991   0.266  17.572  0.4097 -0.5486  0.3333
  689TMC3     O10192   0.929   0.368  17.550  0.3101 -0.5451  0.6022
  689TMC3     H10193   0.885   0.407   0.077  1.7952  1.0371  1.5725
  689TMC3    H110194   1.057   0.030  17.677 -0.5873  0.0015  0.2802
  689TMC3    H210195   1.033   0.149   0.387 -1.9388 -1.9786  0.4765
  689TMC3    C710196   1.088   4.674   0.247  1.0334 -0.4256 -0.2191
  689TMC3    C810197   0.929   0.391   0.339 -0.3102  0.1029  0.9050
  689TMC3    O110198   1.122   4.658   0.366  0.1215 -0.1778  0.1682
  689TMC3    O210199   0.911   0.347   0.451  0.2176 -0.3500 -0.1394
  690MPD2     C10200   3.139   1.980  15.718  0.0769 -0.0593  0.2400
  690MPD2    C110201   3.135   2.037  15.590  0.5979  0.5835  0.3853
  690MPD2    C210202   3.255   2.056  15.527  1.2302  0.3181  0.2310
  690MPD2    C310203   3.372   2.035  15.587  0.1970  0.3139 -0.2686
  690MPD2    C410204   3.379   1.996  15.718 -0.1448  0.6041 -0.3802
  690MPD2    C510205   3.259   1.976  15.786 -0.2466 -0.0454 -0.4818
  690MPD2     H10206   3.250   2.101  15.428 -0.8628 -1.4066 -0.4645
  690MPD2    H110207   3.474   1.980  15.768 -0.4227  0.2667  0.0457
  690MPD2    H210208   3.047   1.953  15.770 -0.4278  1.5722  0.2114
  690MPD2    H310209   3.265   1.935  15.886  1.4137 -0.1003 -0.5966
  690MPD2     N10210   3.490   2.078  15.513  0.4316  0.7280  0.3774
  690MPD2    H510211   3.487   2.089  15.412  0.1958 -0.9040  0.2054
  690MPD2    N110212   3.015   2.044  15.515  0.1453  0.0914  0.1428
  690MPD2    H710213   3.029   2.078  15.420 -2.6211 -1.9255 -1.0040
  691TMC3    C110214   2.813   1.964  15.434  0.4735 -0.3954 -0.4427
  691TMC3    C210215   2.685   1.935  15.454  0.7076 -0.3197  0.4815
  691TMC3    C310216   2.624   1.820  15.399  0.0301  0.2819  0.6476
  691TMC3    C410217   2.876   1.893  15.342  0.3129 -0.2464  0.0244
  691TMC3    C510218   2.832   1.769  15.297  0.7494  0.6461 -0.1123
  691TMC3    C610219   2.700   1.741  15.315  0.1387  0.2394  0.3842
  691TMC3     C10220   2.895   1.980  15.544  0.1045 -0.1623 -0.1821
  691TMC3     O10221   2.859   1.925  15.648  0.1667 -0.2792  0.1591
  691TMC3     H10222   2.635   1.989  15.534  0.5933 -0.9323  0.8225
  691TMC3    H110223   2.983   1.906  15.339  0.2492  0.5879  1.1524
  691TMC3    H210224   2.665   1.644  15.282  1.2905 -0.3243  0.8265
  691TMC3    C710225   2.921   1.665  15.328 -0.1785 -0.6266  0.3870
  691TMC3    C810226   2.511   1.763  15.468 -0.1328 -0.5385  0.1490
  691TMC3    O110227   3.042   1.672  15.298  0.3047 -0.4928  0.1669
  691TMC3    O210228   2.504   1.641  15.478  0.0453  0.0125 -0.2942
  692TMC3    C110229   0.296   3.497  16.366  0.5522  0.3115 -0.4302
  692TMC3    C210230   0.393   3.498  16.464 -0.6460  0.1665 -0.0159
  692TMC3    C310231   0.521   3.438  16.441  0.1208  0.3347 -0.2486
  692TMC3    C410232   0.317   3.426  16.250  0.5656 -0.2071  0.1401
  692TMC3    C510233   0.443   3.377  16.225  0.3352 -0.0145 -0.4095
  692TMC3    C610234   0.546   3.392  16.311  0.2068 -0.0724 -0.6669
  692TMC3     C10235   0.161   3.539  16.396  0.5054 -0.4185  0.1585
  692TMC3     O10236   0.078   3.528  16.307  0.0863 -0.6214 -0.5321
  692TMC3     H10237   0.386   3.570  16.545 -1.7978  0.7476 -0.6394
  692TMC3    H110238   0.233   3.396  16.189 -0.7830  4.0966 -0.1497
  692TMC3    H210239   0.641   3.343  16.290  0.1935 -0.7096  0.7536
  692TMC3    C710240   0.450   3.258  16.141 -0.7349 -0.1624  0.0371
  692TMC3    C810241   0.524   3.309  16.512  0.3533  0.0869 -0.5363
  692TMC3    O110242   0.385   3.252  16.039  0.3921 -0.6542 -0.3236
  692TMC3    O210243   0.609   3.226  16.484 -0.3801 -0.1022  0.2882
  693MPD2     C10244   4.560   0.990  11.378 -0.4582 -0.1386  0.1221
  693MPD2    C110245   4.476   1.005  11.272 -0.0191 -0.1715  0.5421
  693MPD2    C210246   4.525   0.993  11.143 -0.2637 -0.1854 -0.6493
  693MPD2    C310247   4.657   0.954  11.127  0.2220 -0.3711  0.7140
  693MPD2    C410248   0.017   0.935  11.236  0.0985  0.1599 -0.7389
  693MPD2    C510249   4.683   0.935  11.359 -0.1813 -0.5872 -0.0448
  693MPD2     H10250   4.451   0.999  11.065  1.3356  2.8864 -1.9164
  693MPD2    H110251   0.118   0.900  11.221 -0.0301 -0.3726 -0.3365
  693MPD2    H210252   4.522   0.982  11.479  1.5058  0.5708  0.9093
  693MPD2    H310253   0.008   0.894  11.448  1.1453  0.3254 -0.3308
  693MPD2     N10254   4.718   0.926  10.999 -0.0145  0.8090 -0.1566
  693MPD2    H510255   0.083   0.876  11.006  0.3280  1.4893  0.4402
  693MPD2    N110256   4.339   1.020  11.306 -0.2576  0.8847 -0.1728
  693MPD2    H710257   4.319   1.031  11.405  0.9522 -2.1816  0.4093
  694TMC3    C110258   4.113   0.976  11.278 -0.0947  0.2651  0.3071
  694TMC3    C210259   4.032   0.897  11.206 -1.2049  0.4111  0.3662
  694TMC3    C310260   3.981   0.782  11.263 -0.1379 -0.0222 -0.5317
  694TMC3    C410261   4.126   0.966  11.414 -0.4075  0.6788 -0.9103
  694TMC3    C510262   4.064   0.851  11.473 -0.4889 -0.3272 -0.6348
  694TMC3    C610263   3.994   0.756  11.398 -0.4370 -0.1384 -0.5811
  694TMC3     C10264   4.236   1.011  11.215 -0.2520  0.0106 -0.2728
  694TMC3     O10265   4.226   0.991  11.097 -0.1970  0.2835  0.3581
  694TMC3     H10266   4.029   0.913  11.099 -1.7755  0.8899  0.4569
  694TMC3    H110267   4.188   1.035  11.470 -0.8100  1.8959 -1.9582
  694TMC3    H210268   3.949   0.668  11.444  2.1884 -2.2316 -1.9683
  694TMC3    C710269   4.108   0.814  11.608 -0.5458 -0.1333  0.3250
  694TMC3    C810270   3.916   0.675  11.182 -0.2909  0.5973  0.1722
  694TMC3    O110271   4.149   0.904  11.675 -0.2520 -0.1434  0.2118
  694TMC3    O210272   3.868   0.583  11.251 -0.1833  0.8436 -0.3594
  695MPD2     C10273   0.613   2.691  13.678  0.3928  0.0408  0.2322
  695MPD2    C110274   0.618   2.654  13.809  0.4466  0.0587 -0.6701
  695MPD2    C210275   0.515   2.578  13.865 -0.5711 -0.2061  0.4239
  695MPD2    C310276   0.398   2.561  13.793 -0.4768 -0.3855  0.2104
  695MPD2    C410277   0.397   2.595  13.655  0.4991 -0.5278 -0.8236
  695MPD2    C510278   0.502   2.661  13.603 -0.1489  0.2664  0.0216
  695MPD2     H10279   0.516   2.539  13.966 -0.1432  0.0938  0.5344
  695MPD2    H110280   0.307   2.581  13.596  1.5215 -0.7723 -2.3048
  695MPD2    H210281   0.692   2.750  13.632  2.1327 -0.9539  1.9356
  695MPD2    H310282   0.492   2.692  13.499 -1.5747 -1.1160 -0.2544
  695MPD2     N10283   0.293   2.489  13.864 -0.2312 -0.2500  0.8767
  695MPD2    H510284   0.317   2.468  13.961 -1.4861  0.0330  1.2480
  695MPD2    N110285   0.737   2.675  13.886 -0.2332 -0.7049 -0.5855
  695MPD2    H710286   0.737   2.648  13.984  0.7557  1.5222  0.0311
  696TMC3    C110287   0.066   2.434  13.897  0.0713 -0.3463  0.4564
  696TMC3    C210288   0.098   2.413  14.032  0.5218 -0.0307 -0.3638
  696TMC3    C310289   0.003   2.443  14.121  0.2560 -0.1437 -0.2934
  696TMC3    C410290   4.669   2.483  13.852 -0.0962  0.0016 -0.8764
  696TMC3    C510291   4.581   2.522  13.954  0.5882  0.1640 -0.0149
  696TMC3    C610292   4.615   2.508  14.089  0.2982  0.5083 -0.3593
  696TMC3     C10293   0.169   2.461  13.807  0.1109 -0.2560  0.3535
  696TMC3     O10294   0.141   2.487  13.690  0.7488 -0.6430  0.4310
  696TMC3     H10295   0.191   2.368  14.066 -0.2401 -1.4384 -0.1468
  696TMC3    H110296   4.655   2.503  13.746 -1.3657 -0.4474 -0.7993
  696TMC3    H210297   4.540   2.546  14.159 -1.3972 -2.5220 -0.5453
  696TMC3    C710298   4.489   2.627  13.909  0.6980 -0.7242 -0.1113
  696TMC3    C810299   0.037   2.440  14.264 -1.0525 -0.3369  0.8324
  696TMC3    O110300   4.463   2.628  13.789 -0.4285 -0.1169 -0.2366
  696TMC3    O210301   0.144   2.467  14.302 -0.1076 -0.1718 -0.3637
  697MPD2     C10302   4.379   0.060  15.822  0.1670 -0.4333 -0.2025
  697MPD2    C110303   4.448   0.015  15.707 -0.4983  0.0455 -0.1725
  697MPD2    C210304   4.496   0.116  15.628  0.0473 -0.5226 -0.3750
  697MPD2    C310305   4.488   0.249  15.661  0.8003  0.0991  0.3534
  697MPD2    C410306   4.420   0.284  15.771 -0.5712 -0.9331  0.1325
  697MPD2    C510307   4.364   0.192  15.849 -0.5507 -0.0563 -0.2206
  697MPD2     H10308   4.549   0.083  15.540  0.1606  1.3214 -0.9913
  697MPD2    H110309   4.391   0.386  15.796  1.3213 -0.6110  0.9263
  697MPD2    H210310   4.336   4.713  15.893 -1.2023  2.3908  1.7108
  697MPD2    H310311   4.304   0.208  15.938  0.5083  0.1130  0.4643
  697MPD2     N10312   4.530   0.344  15.567  0.1175  0.0467  0.1363
  697MPD2    H510313   4.548   0.314  15.472 -0.2984  1.2159 -0.3157
  697MPD2    N110314   4.461   4.604  15.667 -0.0319 -0.2460  0.0805
  697MPD2    H710315   4.485   4.580  15.571  2.5544 -1.9071  1.1641
  698TMC3    C110316   4.605   0.560  15.496  0.2548  0.6144  0.9238
  698TMC3    C210317   4.624   0.690  15.535  0.0381 -0.4242 -0.0193
  698TMC3    C310318   4.699   0.774  15.458 -0.3978 -0.9628  0.0859
  698TMC3    C410319   4.667   0.519  15.383  0.1004  0.9310  0.6540
  698TMC3    C510320   0.019   0.598  15.306  0.1058 -0.3170  0.0177
  698TMC3    C610321   0.044   0.733  15.344 -0.1981  0.1751 -0.0224
  698TMC3     C10322   4.552   0.475  15.603  0.4841 -0.5751  0.2589
  698TMC3     O10323   4.550   0.523  15.715  0.1747 -0.5097 -0.0441
  698TMC3     H10324   4.602   0.717  15.637  2.0916 -2.5499  0.9962
  698TMC3    H110325   4.657   0.413  15.361 -0.2552  0.8363  1.2709
  698TMC3    H210326   0.109   0.800  15.290 -3.3165  1.1714 -2.5366
  698TMC3    C710327   0.059   0.544  15.171 -0.1895 -0.4732 -0.1186
  698TMC3    C810328   0.053   0.868  15.548  0.3212 -1.0418 -0.7233
  698TMC3    O110329   4.715   0.453  15.131 -0.5471 -0.1536 -0.2880
  698TMC3    O210330   4.722   0.909  15.650  0.2259  0.4924 -0.0509
  699TMC3    C110331   0.333   2.478  13.309  1.8640 -0.2949 -0.4834
  699TMC3    C210332   0.385   2.400  13.414 -0.0731 -0.9546  0.2017
  699TMC3    C310333   0.304   2.314  13.479  0.2600 -0.1461  0.5488
  699TMC3    C410334   0.195   2.499  13.297  0.1377 -0.6204 -0.1526
  699TMC3    C510335   0.118   2.411  13.369 -0.1610  0.8351  1.1434
  699TMC3    C610336   0.169   2.312  13.454 -0.0895  0.1329  0.1508
  699TMC3     C10337   0.432   2.548  13.227  0.4175 -0.2542 -0.7345
  699TMC3     O10338   0.551   2.539  13.257 -0.2085 -0.0098  0.2073
  699TMC3     H10339   0.491   2.384  13.425 -0.1428 -2.0292 -0.7094
  699TMC3    H110340   0.159   2.583  13.240  1.8842 -1.7869 -2.9811
  699TMC3    H210341   0.099   2.254  13.514 -1.0548  0.9733 -0.1592
  699TMC3    C710342   4.702   2.445  13.399 -0.5851 -0.0276 -0.0949
  699TMC3    C810343   0.344   2.230  13.586 -0.3080 -0.0765  0.0942
  699TMC3    O110344   4.670   2.556  13.438  0.0425 -0.3307 -0.1368
  699TMC3    O210345   0.272   2.137  13.612 -0.1277  0.0865  0.0035
  700TMC3    C110346   4.092   0.178  17.613 -0.8810  0.2710  0.2175
  700TMC3    C210347   4.211   0.155  17.553  0.2860  0.8282 -0.2364
  700TMC3    C310348   4.324   0.195  17.614 -0.2753  0.2149  0.0521
  700TMC3    C410349   4.081   0.261   0.029  0.0937 -0.2799 -0.0918
  700TMC3    C510350   4.194   0.314   0.076  0.2858  0.1268 -0.0971
  700TMC3    C610351   4.320   0.282   0.029  0.2343 -0.0478 -0.2036
  700TMC3     C10352   3.987   0.206  17.527  0.2212 -0.0564  0.1100
  700TMC3     O10353   3.884   0.150  17.557 -0.0894 -0.4738 -0.4500
  700TMC3     H10354   4.208   0.092  17.465 -0.8278 -0.9768  1.0822
  700TMC3    H110355   3.985   0.285   0.075  0.7798 -0.8706  1.6360
  700TMC3    H210356   4.409   0.326   0.072  0.6378  0.7620 -1.8847
  700TMC3    C710357   4.177   0.463   0.100  0.3943  0.2759  0.2564
  700TMC3    C810358   4.444   0.191  17.533 -0.3184  0.8857  0.0704
  700TMC3    O110359   4.273   0.521   0.134 -0.2645 -0.5453  0.6167
  700TMC3    O210360   4.440   0.120  17.436  0.1708  0.0136  0.2307
  701TMC3    C110361   4.054   3.693  15.343  0.8680 -0.4692  0.6320
  701TMC3    C210362   4.037   3.684  15.208 -0.5494  0.0357  0.5008
  701TMC3    C310363   4.071   3.794  15.133  0.3927  0.6523  0.1298
  701TMC3    C410364   4.094   3.814  15.397  0.1236 -0.1624 -0.3367
  701TMC3    C510365   4.121   3.921  15.313  0.0317  0.3160 -0.0653
  701TMC3    C610366   4.110   3.919  15.180  0.0396  0.1932 -0.1291
  701TMC3     C10367   3.993   3.598  15.438 -0.3804 -0.3240  0.2230
  701TMC3     O10368   3.883   3.550  15.409 -0.2223  0.0002  0.3180
  701TMC3     H10369   3.995   3.593  15.165 -2.2068  0.9586  0.1383
  701TMC3    H110370   4.096   3.826  15.504 -2.8441  1.4701 -0.4848
  701TMC3    H210371   4.128   4.005  15.116 -2.8357 -0.3750 -1.7212
  701TMC3    C710372   4.100   4.055  15.356  0.4032 -0.3538 -0.8727
  701TMC3    C810373   4.075   3.771  14.989 -0.4383  0.1771  0.2433
  701TMC3    O110374   4.168   4.143  15.302  0.7696 -0.4784  0.1640
  701TMC3    O210375   4.133   3.857  14.921  0.8005  0.3651 -0.0178
  702MPD2     C10376   3.444   0.425  10.551 -0.6320 -0.4222 -0.0024
  702MPD2    C110377   3.550   0.505  10.592  0.4643 -0.1268 -0.7153
  702MPD2    C210378   3.649   0.558  10.511  0.1887 -0.9355 -0.4103
  702MPD2    C310379   3.634   0.525  10.376  0.1971 -0.1988  0.6385
  702MPD2    C410380   3.522   0.455  10.331  0.0866 -0.2188 -0.1480
  702MPD2    C510381   3.429   0.397  10.419 -0.3990  0.5927 -1.1133
  702MPD2     H10382   3.731   0.622  10.542  0.2569 -0.5552 -1.3702
  702MPD2    H110383   3.499   0.435  10.227 -0.0943  2.5123 -0.6255
  702MPD2    H210384   3.372   0.395  10.627 -2.9047 -0.2565 -2.0802
  702MPD2    H310385   3.345   0.335  10.391  0.6459 -1.3017 -0.0433
  702MPD2     N10386   3.723   0.571  10.280  0.4076 -0.4034 -0.1389
  702MPD2    H510387   3.689   0.568  10.184  0.6455  1.5241 -0.2870
  702MPD2    N110388   3.552   0.544  10.737  0.0782  0.4412  0.6049
  702MPD2    H710389   3.638   0.588  10.767  0.3001 -0.4176  1.2115
  703TMC3    C110390   3.895   0.695  10.188  0.0352 -0.3319 -0.0299
  703TMC3    C210391   3.820   0.805  10.151  0.4899 -0.0482  0.8379
  703TMC3    C310392   3.882   0.918  10.125 -0.3312 -1.0976  0.5127
  703TMC3    C410393   4.031   0.706  10.194  0.0406 -0.6163  0.6914
  703TMC3    C510394   4.094   0.824  10.169  0.7453  0.1120  0.2593
  703TMC3    C610395   4.019   0.934  10.128  0.2151  0.6966 -0.6895
  703TMC3     C10396   3.849   0.618  10.301  1.3629 -0.1532  0.2664
  703TMC3     O10397   3.915   0.602  10.401 -0.5558  0.1959  0.0571
  703TMC3     H10398   3.713   0.799  10.135  0.6387  1.4812 -0.6754
  703TMC3    H110399   4.087   0.617  10.221 -1.8169 -1.5091  1.6231
  703TMC3    H210400   4.071   1.027  10.111 -0.0376  0.8233 -0.7698
  703TMC3    C710401   4.226   0.858  10.222  0.6581 -0.1015  0.9630
  703TMC3    C810402   3.808   1.050  10.123  0.3728  0.5066  0.4734
  703TMC3    O110403   4.272   0.967  10.191  0.6707  0.2964  0.1526
  703TMC3    O210404   3.868   1.144  10.068 -0.2223  0.3628 -1.0695
  704TMC3    C110405   1.180   4.111  12.487 -0.2124 -0.4113 -0.4169
  704TMC3    C210406   1.311   4.116  12.457  0.1526 -0.0705 -0.1425
  704TMC3    C310407   1.389   4.016  12.505  0.1123  0.2345  0.4251
  704TMC3    C410408   1.114   4.009  12.556  0.0078  0.1379  0.0091
  704TMC3    C510409   1.197   3.903  12.580  0.6129 -0.0093  0.6009
  704TMC3    C610410   1.329   3.906  12.561  0.3195  0.1362 -0.1834
  704TMC3     C10411   1.087   4.200  12.425  0.5248  0.2510  0.0566
  704TMC3     O10412   0.985   4.222  12.489 -0.0243 -0.0626 -0.2289
  704TMC3     H10413   1.353   4.192  12.392 -3.7676  1.4529 -0.9010
  704TMC3    H110414   1.009   4.014  12.585 -0.0796 -1.5233 -0.0567
  704TMC3    H210415   1.388   3.818  12.585 -0.3669 -0.5134 -0.8762
  704TMC3    C710416   1.144   3.776  12.537 -0.6262 -0.5363  0.1564
  704TMC3    C810417   1.518   3.998  12.435  0.2044  0.1694 -0.2217
  704TMC3    O110418   1.221   3.715  12.463  0.1304  0.1634 -0.0414
  704TMC3    O210419   1.530   4.067  12.335 -0.3156  0.6274 -0.0028
  705MPD2     C10420   0.520   2.871  16.913 -0.5704 -0.3157  0.3059
  705MPD2    C110421   0.508   3.009  16.890  0.1997  0.0855 -0.9981
  705MPD2    C210422   0.384   3.068  16.914  0.8202  0.0606  0.0665
  705MPD2    C310423   0.280   2.998  16.962  0.9544  0.0282 -0.0281
  705MPD2    C410424   0.298   2.866  16.994  0.3737 -0.0749 -0.0395
  705MPD2    C510425   0.413   2.808  16.976 -0.0652 -0.4370 -0.4264
  705MPD2     H10426   0.374   3.174  16.895 -1.2691 -0.2953 -0.8782
  705MPD2    H110427   0.219   2.810  17.042  0.5158  0.9089  1.3535
  705MPD2    H210428   0.608   2.814  16.887 -0.4751  0.7616 -1.7021
  705MPD2    H310429   0.412   2.700  16.986  0.5186 -0.4749 -0.7485
  705MPD2     N10430   0.163   3.059  16.997  0.4913  0.0195 -0.9366
  705MPD2    H510431   0.097   2.991  17.034  1.6110 -0.9671 -0.7469
  705MPD2    N110432   0.613   3.084  16.834 -0.5218 -0.2685  0.3801
  705MPD2    H710433   0.610   3.184  16.815 -0.4126  0.0465  1.9804
  706TMC3    C110434   0.960   3.179  16.556  0.4573 -0.0347 -0.5945
  706TMC3    C210435   0.946   3.314  16.570 -0.6245  0.4381  0.9141
  706TMC3    C310436   0.861   3.358  16.673  0.3695  0.0863  0.3515
  706TMC3    C410437   0.904   3.087  16.648  0.0846 -0.4285 -0.2730
  706TMC3    C510438   0.827   3.137  16.748  0.1135  0.1062  0.6849
  706TMC3    C610439   0.791   3.269  16.755  0.8677  0.3347 -0.6028
  706TMC3     C10440   1.061   3.138  16.460  0.1955 -0.4650  0.6159
  706TMC3     O10441   1.135   3.226  16.415  0.0963 -0.2546  0.0749
  706TMC3     H10442   1.002   3.387  16.514 -1.9683  0.7733 -0.0015
  706TMC3    H110443   0.917   2.981  16.630 -0.1256 -0.5945  0.5285
  706TMC3    H210444   0.718   3.312  16.822 -1.7667 -3.7993 -0.7676
  706TMC3    C710445   0.740   3.033  16.803  0.2238 -0.1297  0.1613
  706TMC3    C810446   0.830   3.498  16.683  0.1224 -0.1801 -0.6537
  706TMC3    O110447   0.772   2.915  16.786 -0.0393 -0.3950 -0.0681
  706TMC3    O210448   0.793   3.526  16.798  0.0616 -0.1327 -0.0699
  707TMC3    C110449   1.972   1.592   1.447  0.4534 -1.0037  0.7110
  707TMC3    C210450   1.957   1.516   1.336  0.8505 -0.1418 -0.2508
  707TMC3    C310451   1.841   1.527   1.273  0.5560 -0.1812  0.4456
  707TMC3    C410452   1.880   1.681   1.486 -1.1292 -0.6435  0.4285
  707TMC3    C510453   1.765   1.696   1.413 -0.1111 -0.0808  0.7026
  707TMC3    C610454   1.734   1.611   1.312 -0.4295  0.0908  0.1860
  707TMC3     C10455   2.073   1.552   1.541  0.4803 -0.4346 -0.1749
  707TMC3     O10456   2.159   1.476   1.503  0.7306  0.1474  0.4688
  707TMC3     H10457   2.038   1.446   1.316  1.5367  1.2513 -2.3409
  707TMC3    H110458   1.896   1.748   1.569  0.6385  0.2672 -0.6560
  707TMC3    H210459   1.645   1.621   1.250 -0.0973  2.3984  0.0790
  707TMC3    C710460   1.683   1.812   1.448  0.1855  0.2599  0.2767
  707TMC3    C810461   1.815   1.463   1.145 -0.0410  0.3002  0.1020
  707TMC3    O110462   1.720   1.891   1.535  0.3074  0.0472 -0.2018
  707TMC3    O210463   1.745   1.518   1.065 -0.1887  0.4926  0.1027
  708MPD2     C10464   4.085   0.283  14.001 -0.5397  0.2699 -0.1624
  708MPD2    C110465   4.019   0.383  14.072  0.1197  0.3497  0.6602
  708MPD2    C210466   4.075   0.421  14.194 -0.7940 -0.1576 -0.1338
  708MPD2    C310467   4.178   0.353  14.254 -0.3410 -0.3749  0.2333
  708MPD2    C410468   4.217   0.238  14.196 -0.4718 -0.4749  0.0566
  708MPD2    C510469   4.173   0.205  14.064 -1.0373  0.0955 -0.8184
  708MPD2     H10470   4.018   0.496  14.248 -0.4525 -1.0268  1.4584
  708MPD2    H110471   4.284   0.177  14.256 -0.3181 -0.7756 -0.4241
  708MPD2    H210472   4.051   0.247  13.904 -0.2773 -0.6707  0.0939
  708MPD2    H310473   4.218   0.121  14.012 -0.4968 -0.4147  0.4624
  708MPD2     N10474   4.229   0.386  14.382  0.0573 -0.1169  0.0963
  708MPD2    H510475   4.273   0.307  14.429 -0.4126  0.8381  2.1494
  708MPD2    N110476   3.903   0.443  14.020 -0.1214 -0.6777  0.1534
  708MPD2    H710477   3.859   0.509  14.084  2.1362  0.6337  0.3693
  709TMC3    C110478   3.712   0.449  13.894  0.0984  0.1078  0.2464
  709TMC3    C210479   3.686   0.574  13.850  0.5392  0.2154  0.0666
  709TMC3    C310480   3.596   0.655  13.913  0.0063 -1.1979 -0.2276
  709TMC3    C410481   3.660   0.399  14.010 -0.0446  0.5236 -0.0720
  709TMC3    C510482   3.565   0.476  14.071 -0.1485 -0.5791  0.1183
  709TMC3    C610483   3.535   0.611  14.025  0.0703 -0.2628  0.3835
  709TMC3     C10484   3.855   0.427  13.897 -0.0903 -0.0463 -0.5794
  709TMC3     O10485   3.904   0.385  13.791 -0.0642 -0.3932 -0.2706
  709TMC3     H10486   3.731   0.615  13.760 -1.1978  0.4701 -0.6904
  709TMC3    H110487   3.693   0.300  14.040  0.4166  0.6247 -0.2415
  709TMC3    H210488   3.468   0.677  14.079  2.4683  2.3549  0.1516
  709TMC3    C710489   3.583   0.467  14.217  0.9197  0.1575  0.2458
  709TMC3    C810490   3.498   0.727  13.830  0.5373  0.9505 -0.2161
  709TMC3    O110491   3.575   0.568  14.286  0.3610 -0.2659  0.0067
  709TMC3    O210492   3.382   0.729  13.861  0.1336 -0.2651  0.3801
  710TMC3    C110493   4.273   2.406   0.583  0.1841 -0.4350  0.4486
  710TMC3    C210494   4.345   2.438   0.469 -0.0112 -0.0709 -0.1408
  710TMC3    C310495   4.416   2.340   0.410  0.4411  0.5427 -0.2418
  710TMC3    C410496   4.252   2.279   0.622  0.0749  0.5588 -0.0652
  710TMC3    C510497   4.322   2.186   0.555 -0.2178  0.0512 -0.3838
  710TMC3    C610498   4.406   2.211   0.456 -0.3915  0.2077 -0.1982
  710TMC3     C10499   4.196   2.509   0.652  0.2080 -0.2429 -0.2318
  710TMC3     O10500   4.089   2.481   0.709 -0.0604 -0.1054 -0.3070
  710TMC3     H10501   4.359   2.542   0.444 -4.3918  0.0751 -2.1155
  710TMC3    H110502   4.202   2.259   0.716  0.3566 -0.4293 -0.1223
  710TMC3    H210503   4.460   2.136   0.400  0.1719 -0.3693  1.1169
  710TMC3    C710504   4.346   2.068   0.624 -0.7786  0.8866 -0.1744
  710TMC3    C810505   4.494   2.373   0.290 -0.3591  1.0778  0.0399
  710TMC3    O110506   4.460   2.024   0.628 -0.3442  0.3661  0.1431
  710TMC3    O210507   4.568   2.283   0.256  0.2035 -0.1661  0.1728
  711TMC3    C110508   4.479   3.641  15.047  0.9798 -0.1967  0.6673
  711TMC3    C210509   4.491   3.726  15.157  0.7213 -0.6950  0.0638
  711TMC3    C310510   4.617   3.758  15.206  0.3723  0.2805  0.2476
  711TMC3    C410511   4.587   3.580  15.006  0.0957  0.0717 -0.9398
  711TMC3    C510512   4.704   3.587  15.074  0.1223  0.2584 -0.0824
  711TMC3    C610513   0.000   3.687  15.163 -0.1066  0.8040 -0.6649
  711TMC3     C10514   4.359   3.573  15.016 -0.0883  0.9464  0.1277
  711TMC3     O10515   4.347   3.536  14.903  0.2284  0.0008 -0.0353
  711TMC3     H10516   4.399   3.764  15.201 -0.8621 -1.8820 -2.2047
  711TMC3    H110517   4.572   3.505  14.929  0.3969 -1.6366  0.6621
  711TMC3    H210518   0.098   3.695  15.210  0.0918 -0.1647 -0.9222
  711TMC3    C710519   0.033   3.465  15.127  0.0500 -0.7603 -0.2786
  711TMC3    C810520   4.614   3.823  15.339 -0.6106 -0.2085 -0.0178
  711TMC3    O110521   0.128   3.468  15.202 -0.3594  0.2144 -0.1205
  711TMC3    O210522   4.501   3.846  15.385  0.3044  0.2193 -0.2098
  712MPD2     C10523   1.583   4.201  13.779 -0.3037  0.3116  0.7814
  712MPD2    C110524   1.542   4.264  13.897 -0.0618 -0.4509 -0.7122
  712MPD2    C210525   1.592   4.385  13.935  0.2298 -0.1312 -0.8743
  712MPD2    C310526   1.691   4.447  13.868 -0.3732 -0.5733  0.4015
  712MPD2    C410527   1.737   4.390  13.756  0.0210 -0.5878 -0.0551
  712MPD2    C510528   1.677   4.269  13.708  0.1582 -0.3023  0.1323
  712MPD2     H10529   1.569   4.419  14.035  2.3242  0.5583 -0.6308
  712MPD2    H110530   1.818   4.435  13.701 -1.5860  1.6375 -0.5915
  712MPD2    H210531   1.536   4.112  13.740  2.1094  0.0250 -1.4574
  712MPD2    H310532   1.715   4.221  13.620  0.8425 -0.7799  0.6936
  712MPD2     N10533   1.753   4.569  13.904 -0.9242  0.2645 -0.3025
  712MPD2    H510534   1.836   4.593  13.850  0.4565  0.1683  1.7307
  712MPD2    N110535   1.437   4.214  13.977 -0.0257  0.0444 -0.1426
  712MPD2    H710536   1.421   4.260  14.065 -1.0175 -1.5833  0.5247
  713TMC3    C110537   1.783   0.059  13.972  0.0813  0.7512  0.0670
  713TMC3    C210538   1.894   0.055  13.898 -0.5361  0.1106 -0.3075
  713TMC3    C310539   1.936   0.171  13.833  0.1054 -0.3225  0.1089
  713TMC3    C410540   1.712   0.176  13.993 -0.5494  0.6319 -0.0732
  713TMC3    C510541   1.774   0.289  13.950 -0.0935  0.2596  0.4822
  713TMC3    C610542   1.886   0.289  13.868  0.0277 -0.5129 -1.2471
  713TMC3     C10543   1.702   4.662  13.983 -0.3411  0.0613 -0.1022
  713TMC3     O10544   1.610   4.664  14.063 -0.8045  0.0976  0.4670
  713TMC3     H10545   1.954   4.687  13.891  2.9085  2.2062  1.7260
  713TMC3    H110546   1.625   0.169  14.058 -0.1420  2.6747  0.6702
  713TMC3    H210547   1.929   0.385  13.843 -1.0427  0.3982  0.3564
  713TMC3    C710548   1.685   0.397  13.908 -0.7302  0.3906  0.1718
  713TMC3    C810549   1.956   0.159  13.690  0.0620  0.0075  0.2124
  713TMC3    O110550   1.714   0.516  13.924 -0.0230 -0.2511  0.7604
  713TMC3    O210551   1.920   0.262  13.631  0.1976  0.4848  0.0241
  714MPD2     C10552   3.162   3.655   1.453  0.2121  0.1900 -0.3505
  714MPD2    C110553   3.185   3.536   1.393  0.0468 -0.8814  0.4435
  714MPD2    C210554   3.084   3.477   1.317  0.1308  0.0695  0.0662
  714MPD2    C310555   2.962   3.533   1.326 -0.3676  0.5351  0.1127
  714MPD2    C410556   2.943   3.656   1.383 -0.1221  0.4395  0.9095
  714MPD2    C510557   3.037   3.716   1.450 -0.4427 -0.9333  0.1374
  714MPD2     H10558   3.100   3.389   1.256  1.7864 -0.4716  1.2566
  714MPD2    H110559   2.848   3.708   1.389  1.8992  4.2104  0.4016
  714MPD2    H210560   3.235   3.715   1.506  0.4907  1.1271 -1.7796
  714MPD2    H310561   3.032   3.814   1.496 -0.3177 -1.0409  0.3828
  714MPD2     N10562   2.865   3.463   1.254 -0.2056 -0.2224  0.1743
  714MPD2    H510563   2.894   3.388   1.192 -1.6847 -0.6560 -0.0029
  714MPD2    N110564   3.313   3.476   1.390 -0.0506  0.2185  0.4183
  714MPD2    H710565   3.317   3.388   1.340 -0.6194  0.3729  0.0963
  715TMC3    C110566   3.527   3.425   1.453 -0.1354 -0.8092 -0.2943
  715TMC3    C210567   3.521   3.293   1.435 -0.0490 -0.2567 -0.1266
  715TMC3    C310568   3.633   3.214   1.424  0.3104 -0.2299 -0.1424
  715TMC3    C410569   3.649   3.483   1.464 -0.0714 -0.5343  0.2550
  715TMC3    C510570   3.760   3.404   1.443  0.4603 -0.1239  0.0761
  715TMC3    C610571   3.757   3.266   1.423  0.0012  0.2515 -0.7894
  715TMC3     C10572   3.416   3.511   1.478  0.1423  0.8125  0.7541
  715TMC3     O10573   3.427   3.608   1.548  0.1974  0.5012 -0.0715
  715TMC3     H10574   3.421   3.250   1.437 -0.4563  0.6431 -0.8936
  715TMC3    H110575   3.652   3.587   1.493  1.1686  0.0570 -2.0003
  715TMC3    H210576   3.843   3.200   1.420  0.6408  1.0540 -0.1709
  715TMC3    C710577   3.890   3.464   1.471  0.0569  0.3569  0.6849
  715TMC3    C810578   3.626   3.068   1.439  0.9972 -0.9095  0.1383
  715TMC3    O110579   3.976   3.380   1.502 -0.4782  0.3071  0.1103
  715TMC3    O210580   3.718   3.000   1.392  0.0450 -0.1374 -0.7927
  716MPD2     C10581   3.700   0.837   9.845 -0.3392 -0.5514 -0.6251
  716MPD2    C110582   3.573   0.892   9.830 -0.3156 -0.8026  0.1024
  716MPD2    C210583   3.475   0.806   9.778  0.3311 -0.3832  0.1753
  716MPD2    C310584   3.509   0.684   9.724  0.6140 -0.2450  0.4025
  716MPD2    C410585   3.635   0.631   9.751 -0.0172  0.1785  0.0100
  716MPD2    C510586   3.725   0.705   9.825 -0.5168 -0.4270 -0.9744
  716MPD2     H10587   3.370   0.832   9.769 -0.2857 -2.4618  1.2910
  716MPD2    H110588   3.659   0.527   9.734 -0.1522  0.1726 -0.1556
  716MPD2    H210589   3.785   0.899   9.873 -0.1530  0.0134 -2.3850
  716MPD2    H310590   3.818   0.652   9.843 -0.3985  0.1219  0.0510
  716MPD2     N10591   3.403   0.607   9.670  0.8622 -0.9992  0.0061
  716MPD2    H510592   3.309   0.643   9.680  1.8110  0.9844  1.7749
  716MPD2    N110593   3.543   1.030   9.859 -0.2909  0.7397 -0.2393
  716MPD2    H710594   3.619   1.080   9.904 -0.3250 -0.0986  0.7678
  717TMC3    C110595   3.285   0.435   9.569  0.4071 -0.9100  0.0750
  717TMC3    C210596   3.179   0.520   9.547 -0.0591  0.6534 -0.6161
  717TMC3    C310597   3.070   0.474   9.477 -0.3998  0.7857  0.2283
  717TMC3    C410598   3.280   0.307   9.513 -0.5071 -0.8135  0.3208
  717TMC3    C510599   3.164   0.269   9.439 -0.1469 -0.1844  0.0502
  717TMC3    C610600   3.053   0.350   9.424 -0.1290  0.3538 -0.1897
  717TMC3     C10601   3.412   0.480   9.622  0.8928 -0.1518 -0.1414
  717TMC3     O10602   3.509   0.407   9.622 -0.6366  0.4533 -0.0988
  717TMC3     H10603   3.190   0.623   9.578  2.2227 -0.5401  2.5507
  717TMC3    H110604   3.350   0.231   9.544  0.3877 -1.6213 -3.6990
  717TMC3    H210605   2.977   0.312   9.357 -0.4044  1.4281 -0.4788
  717TMC3    C710606   3.161   0.139   9.360 -1.1426  0.0678  0.5158
  717TMC3    C810607   2.960   0.565   9.489  0.1866  0.2330 -0.4312
  717TMC3    O110608   3.053   0.104   9.320  0.1908 -0.0418 -0.2542
  717TMC3    O210609   2.975   0.683   9.512  0.4136 -0.0605 -0.0785
  718MPD2     C10610   2.898   4.604  13.268 -0.1284  0.7826  0.0601
  718MPD2    C110611   2.846   4.588  13.142  0.0728 -0.1730  0.6195
  718MPD2    C210612   2.758   4.485  13.121 -0.3920  0.6457 -0.1435
  718MPD2    C310613   2.726   4.397  13.218  0.1391 -0.4775  1.2053
  718MPD2    C410614   2.798   4.395  13.341 -0.6680  0.2708  0.3923
  718MPD2    C510615   2.885   4.504  13.355 -0.0942  0.7515 -0.1138
  718MPD2     H10616   2.716   4.459  13.024  2.2222 -0.6414 -0.9390
  718MPD2    H110617   2.784   4.318  13.416 -1.0486 -0.8621 -0.8525
  718MPD2    H210618   2.978   4.674  13.293  0.3405  0.6489 -1.0698
  718MPD2    H310619   2.935   4.520  13.450  2.1118  0.3930 -1.2129
  718MPD2     N10620   2.639   4.286  13.182  0.9292  0.5601 -0.4642
  718MPD2    H510621   2.595   4.285  13.090  0.6967 -0.4302 -0.3479
  718MPD2    N110622   2.880   4.672  13.035 -0.0443  0.3097  0.0869
  718MPD2    H710623   2.922   0.037  13.063 -3.6292  1.7503  0.8714
  719TMC3    C110624   2.913   0.015  12.801  0.0103  0.3728  0.9925
  719TMC3    C210625   2.862   4.718  12.679  0.7250 -0.5838 -0.4412
  719TMC3    C310626   2.944   4.679  12.574  0.0180  0.3289  0.2553
  719TMC3    C410627   3.048   0.025  12.822 -0.1230 -0.1258  0.1803
  719TMC3    C510628   3.132   4.723  12.715  0.1641  0.3594 -0.3947
  719TMC3    C610629   3.081   4.684  12.586  0.3710  0.4568  0.1957
  719TMC3     C10630   2.847   4.650  12.899  0.2793  0.4711  0.3347
  719TMC3     O10631   2.797   4.557  12.844  0.4503 -0.6117 -0.1722
  719TMC3     H10632   2.755   4.719  12.664  0.1693 -1.0289  3.4237
  719TMC3    H110633   3.089   0.020  12.922  0.5919  0.9253 -0.0576
  719TMC3    H210634   3.151   4.662  12.506  2.0681 -0.0180  1.8189
  719TMC3    C710635   3.256   0.079  12.708 -0.1881 -0.0797  0.8490
  719TMC3    C810636   2.899   4.557  12.502  0.0521  0.0311  0.3861
  719TMC3    O110637   3.328   0.065  12.612 -0.0325 -0.3728  0.0203
  719TMC3    O210638   2.949   4.526  12.394 -0.1152 -0.1081 -0.0267
  720MPD2     C10639   1.538   1.541  14.007 -0.1535 -0.2736 -0.0034
  720MPD2    C110640   1.623   1.574  13.908  0.1252  0.4044 -0.7052
  720MPD2    C210641   1.758   1.567  13.931 -0.2282  0.4352 -0.1649
  720MPD2    C310642   1.811   1.552  14.058 -0.1521  0.4751 -0.7243
  720MPD2    C410643   1.721   1.550  14.163  0.7847  0.4159  0.0698
  720MPD2    C510644   1.587   1.537  14.135 -0.1017 -0.3048 -0.2948
  720MPD2     H10645   1.829   1.586  13.851  1.0557 -0.9528  0.6475
  720MPD2    H110646   1.752   1.534  14.265  1.3883 -0.2487 -0.2097
  720MPD2    H210647   1.433   1.516  13.994 -0.1644 -0.1334 -0.1907
  720MPD2    H310648   1.524   1.500  14.215 -2.3767 -1.1632 -2.4783
  720MPD2     N10649   1.950   1.550  14.078 -0.3070 -0.3805  0.2514
  720MPD2    H510650   1.991   1.555  13.985 -0.0811 -0.2174  0.3599
  720MPD2    N110651   1.568   1.618  13.786  0.2859  0.4482  0.7011
  720MPD2    H710652   1.625   1.629  13.703  0.6506 -2.1871  0.6079
  721TMC3    C110653   2.163   1.517  14.188  0.3209  0.0550  0.3584
  721TMC3    C210654   2.211   1.462  14.306  0.1814  0.2677 -0.4566
  721TMC3    C310655   2.346   1.471  14.324 -0.2882  0.0204  0.8524
  721TMC3    C410656   2.238   1.587  14.097 -0.3814 -0.4417  0.5380
  721TMC3    C510657   2.371   1.593  14.123  1.0850 -0.3420  0.4497
  721TMC3    C610658   2.431   1.529  14.230  0.2762  0.1447 -0.2183
  721TMC3     C10659   2.018   1.530  14.196  0.0467 -0.1361 -0.1009
  721TMC3     O10660   1.972   1.521  14.311  0.2086 -0.5096 -0.4943
  721TMC3     H10661   2.152   1.388  14.359 -0.4098  0.3375 -1.0088
  721TMC3    H110662   2.185   1.643  14.022 -0.7315 -2.1823 -0.4966
  721TMC3    H210663   2.535   1.499  14.233 -0.4021 -2.0330  2.2561
  721TMC3    C710664   2.452   1.649  14.022  0.0249  0.0654 -0.3498
  721TMC3    C810665   2.408   1.420  14.444  0.5763 -0.0211 -0.2808
  721TMC3    O110666   2.562   1.694  14.050 -0.4006 -0.1359  0.0446
  721TMC3    O210667   2.530   1.416  14.444  0.4042 -0.0810  0.6927
  722MPD2     C10668   0.377   0.176  13.643 -0.6460  0.2475 -0.2134
  722MPD2    C110669   0.429   0.130  13.519  0.5640 -0.1588  0.3692
  722MPD2    C210670   0.331   0.087  13.423  0.7251  0.4857  0.1128
  722MPD2    C310671   0.189   0.103  13.447 -0.2898  1.0958  0.5425
  722MPD2    C410672   0.152   0.137  13.578 -0.3622  0.0281  0.4308
  722MPD2    C510673   0.248   0.168  13.678  0.3120 -0.2311  0.4546
  722MPD2     H10674   0.370   0.056  13.327 -0.6424 -3.5233  0.8379
  722MPD2    H110675   0.049   0.141  13.612 -0.2280  0.2672  0.8024
  722MPD2    H210676   0.448   0.220  13.712  0.8197 -1.1978 -0.8051
  722MPD2    H310677   0.205   0.191  13.774  0.7127 -0.3678  0.6693
  722MPD2     N10678   0.095   0.073  13.342  0.5720 -0.1685 -0.4048
  722MPD2    H510679   0.125   0.024  13.259  0.1645  0.1196 -0.7258
  722MPD2    N110680   0.563   0.110  13.492  0.0895  0.0172 -0.0613
  722MPD2    H710681   0.583   0.082  13.397  0.8755  0.5315 -0.0476
  723TMC3    C110682   4.627   0.108  13.201  0.5543 -0.5109 -0.5664
  723TMC3    C210683   4.619   4.707  13.145 -0.6381 -0.0270  0.6943
  723TMC3    C310684   4.541   4.692  13.036 -0.1107 -0.0522 -0.2299
  723TMC3    C410685   4.552   0.214  13.157  0.3336 -0.9468 -0.5323
  723TMC3    C510686   4.459   0.186  13.062  0.2002  0.0210  0.3605
  723TMC3    C610687   4.447   0.068  13.000 -0.1587  0.5581  0.7529
  723TMC3     C10688   4.686   0.124  13.336  0.3419 -1.1047  0.2911
  723TMC3     O10689   4.649   0.219  13.400 -0.0065  0.0814  0.0029
  723TMC3     H10690   4.689   4.629  13.176  1.6734  1.6424 -0.3300
  723TMC3    H110691   4.570   0.317  13.185 -1.7780 -0.8654  0.5200
  723TMC3    H210692   4.371   0.054  12.925 -1.0603  1.7515  1.4387
  723TMC3    C710693   4.377   0.291  13.009 -0.5104  0.0519 -0.2133
  723TMC3    C810694   4.485   4.560  13.004 -0.4650 -1.1180  0.4708
  723TMC3    O110695   4.336   0.279  12.892  0.5677  0.8191 -0.4327
  723TMC3    O210696   4.456   4.525  12.893 -0.4602  0.0252 -0.0717
  724TMC3    C110697   0.225   2.970  10.223 -0.7336 -0.3055  0.4548
  724TMC3    C210698   0.326   2.990  10.308  0.2824 -0.1183 -0.3616
  724TMC3    C310699   0.422   3.092  10.289  0.0626 -0.4930 -0.1322
  724TMC3    C410700   0.218   3.048  10.111  0.0687  0.4335  1.4093
  724TMC3    C510701   0.303   3.148  10.083 -0.1401  0.2209  0.2363
  724TMC3    C610702   0.401   3.183  10.177 -0.3550 -0.3467 -0.0904
  724TMC3     C10703   0.142   2.854  10.249  0.5672  0.0652  0.5174
  724TMC3     O10704   0.176   2.783  10.344  0.1008 -0.3503 -0.3016
  724TMC3     H10705   0.306   2.962  10.411  1.0703  1.1411  0.1293
  724TMC3    H110706   0.161   3.011  10.026 -0.1543  1.7059  1.0001
  724TMC3    H210707   0.477   3.256  10.148 -1.6278  0.2594 -1.9011
  724TMC3    C710708   0.285   3.245   9.975 -0.0712 -0.2005  0.1246
  724TMC3    C810709   0.519   3.110  10.395  0.4959 -0.3407  0.0792
  724TMC3    O110710   0.362   3.340   9.970 -0.0231  0.0285  0.0563
  724TMC3    O210711   0.527   3.020  10.477 -0.7348 -0.2408  0.4658
  725TMC3    C110712   1.905   1.670  13.150  0.1904 -0.7835  0.6381
  725TMC3    C210713   1.822   1.737  13.065 -0.2626  0.7955  0.5133
  725TMC3    C310714   1.840   1.711  12.935  0.5596 -0.3851 -0.5151
  725TMC3    C410715   1.988   1.568  13.114 -0.4362 -0.6493  0.4873
  725TMC3    C510716   1.993   1.535  12.985  0.2800 -0.6599  0.1187
  725TMC3    C610717   1.918   1.607  12.893  0.1865 -0.0822  0.6335
  725TMC3     C10718   1.963   1.747  13.254  0.7014 -0.7667  0.1432
  725TMC3     O10719   2.042   1.701  13.333  0.6137  0.3362  0.0114
  725TMC3     H10720   1.732   1.793  13.089 -0.0530  0.9909  0.8431
  725TMC3    H110721   2.064   1.532  13.183  0.2834  0.0374  0.0524
  725TMC3    H210722   1.912   1.574  12.790  4.2067  1.3079 -0.0416
  725TMC3    C710723   2.104   1.450  12.944 -0.0706 -0.6358  0.2044
  725TMC3    C810724   1.734   1.753  12.843  0.5859 -0.7678 -0.3465
  725TMC3    O110725   2.144   1.476  12.832  0.1295 -0.1219  0.0286
  725TMC3    O210726   1.616   1.739  12.880  0.0008  0.0952  0.2740
  726MPD2     C10727   4.643   3.434  10.566 -0.0029  0.1927  0.3396
  726MPD2    C110728   4.528   3.468  10.490  0.6159 -0.1087 -0.0540
  726MPD2    C210729   4.429   3.371  10.496  0.1829  0.0259 -0.3251
  726MPD2    C310730   4.442   3.251  10.557 -0.6998 -0.5011  0.1347
  726MPD2    C410731   4.549   3.230  10.632  0.5850 -0.3061 -0.1303
  726MPD2    C510732   4.647   3.323  10.638 -0.2196 -0.0153 -0.0379
  726MPD2     H10733   4.333   3.385  10.449 -0.2003 -0.2314  0.3748
  726MPD2    H110734   4.560   3.143  10.695 -1.3323 -0.1757  0.3682
  726MPD2    H210735   0.008   3.497  10.562  0.3122 -0.1385  2.5498
  726MPD2    H310736   0.002   3.294  10.708  2.0299 -0.2630 -2.6590
  726MPD2     N10737   4.341   3.149  10.554 -0.0442 -0.2107  0.5433
  726MPD2    H510738   4.349   3.079  10.627 -3.7133  1.2987  2.4130
  726MPD2    N110739   4.520   3.580  10.415 -0.2624  0.1450  0.1989
  726MPD2    H710740   4.433   3.595  10.363  0.8110 -3.2291 -2.5765
  727TMC3    C110741   4.582   3.793  10.324  0.2418  0.8998 -0.3881
  727TMC3    C210742   4.676   3.894  10.330 -0.5959  0.2470 -0.4876
  727TMC3    C310743   4.633   4.026  10.335  0.2370 -0.3615  1.1429
  727TMC3    C410744   4.449   3.829  10.303  0.1551  0.2008 -0.0565
  727TMC3    C510745   4.416   3.964  10.295  0.4423 -0.0696 -0.3412
  727TMC3    C610746   4.505   4.062  10.312 -0.3105 -0.2604 -0.1030
  727TMC3     C10747   4.620   3.674  10.397  0.1742 -0.8610  0.2474
  727TMC3     O10748   0.011   3.664  10.430 -0.1848  0.3543 -0.3088
  727TMC3     H10749   0.055   3.876  10.363 -0.0785  1.5607 -1.3440
  727TMC3    H110750   4.372   3.755  10.321  0.8862 -0.3542  0.7608
  727TMC3    H210751   4.469   4.164  10.326 -1.2121 -0.8341  1.7454
  727TMC3    C710752   4.277   3.986  10.255  0.3668 -0.5237  0.8468
  727TMC3    C810753   0.012   4.129  10.352  0.2167  0.3940 -0.3219
  727TMC3    O110754   4.197   3.894  10.265 -0.1706  0.3810  0.6041
  727TMC3    O210755   0.121   4.105  10.401 -1.3940  0.3403  0.5450
  728TMC3    C110756   3.704   2.120  15.468  0.6349 -0.0599 -0.0939
  728TMC3    C210757   3.816   2.189  15.510 -0.5453 -0.0205 -0.0396
  728TMC3    C310758   3.879   2.265  15.419  0.4886 -0.4789 -0.1460
  728TMC3    C410759   3.670   2.115  15.335  0.3424 -0.6647  0.6509
  728TMC3    C510760   3.753   2.174  15.246  0.0925  0.2149  0.1420
  728TMC3    C610761   3.859   2.254  15.285 -0.1181 -0.5658 -0.2720
  728TMC3     C10762   3.609   2.088  15.566  0.4740 -0.2613  0.4166
  728TMC3     O10763   3.648   2.092  15.683  0.0566 -0.3068  0.4182
  728TMC3     H10764   3.845   2.198  15.614  0.9683  3.2806 -0.7565
  728TMC3    H110765   3.597   2.047  15.292  2.1313 -1.0914 -1.7205
  728TMC3    H210766   3.907   2.325  15.219  0.0105 -1.4909 -1.1638
  728TMC3    C710767   3.692   2.203  15.114 -0.7381  0.0255 -0.3863
  728TMC3    C810768   3.958   2.372  15.484  0.5247 -0.2001 -0.0218
  728TMC3    O110769   3.572   2.188  15.105  0.0994 -0.5368  0.3674
  728TMC3    O210770   3.914   2.414  15.589 -0.3599  0.0898 -0.6888
  729MPD2     C10771   1.387   3.056  16.664  0.1562 -0.2054 -0.2568
  729MPD2    C110772   1.371   3.194  16.677 -0.0967 -0.2327  0.1003
  729MPD2    C210773   1.303   3.237  16.788 -0.4895  0.1464  0.7098
  729MPD2    C310774   1.240   3.148  16.875  0.0431  0.2088  0.9652
  729MPD2    C410775   1.247   3.011  16.854 -0.4417  0.1484  0.4660
  729MPD2    C510776   1.321   2.971  16.749  0.6022 -0.0524 -0.1829
  729MPD2     H10777   1.288   3.344  16.798 -1.0003  0.2672 -1.3422
  729MPD2    H110778   1.203   2.929  16.909  0.4923 -1.5717 -1.3627
  729MPD2    H210779   1.435   3.006  16.581 -1.3386 -1.2499 -0.4777
  729MPD2    H310780   1.333   2.864  16.742 -2.2053 -0.2980 -1.0410
  729MPD2     N10781   1.158   3.186  16.978 -0.2949 -0.3607  1.1988
  729MPD2    H510782   1.141   3.103  17.035 -0.9325 -0.9855  0.1051
  729MPD2    N110783   1.439   3.280  16.580  0.3529  0.3191  0.2392
  729MPD2    H710784   1.496   3.238  16.507  0.6208  1.6393 -0.3091
  730TMC3    C110785   1.129   3.325  17.158 -0.5026  0.0144  0.0927
  730TMC3    C210786   1.215   3.253  17.231 -0.1787 -0.2936  0.0824
  730TMC3    C310787   1.284   3.318  17.327  0.1701  0.3489 -0.9325
  730TMC3    C410788   1.089   3.452  17.198  0.1276  0.8227  0.6798
  730TMC3    C510789   1.138   3.501  17.315 -0.1288 -0.0117  0.1198
  730TMC3    C610790   1.240   3.429  17.378 -0.1830  0.4647 -0.2015
  730TMC3     C10791   1.130   3.318  17.014 -0.7142  0.2679 -0.9004
  730TMC3     O10792   1.166   3.428  16.972  0.1214 -0.3843  0.2301
  730TMC3     H10793   1.234   3.151  17.199  2.3645  0.1855  0.1212
  730TMC3    H110794   1.043   3.519  17.126  0.1975  0.7363  0.5532
  730TMC3    H210795   1.291   3.468  17.465  1.5913  0.6623 -1.3488
  730TMC3    C710796   1.109   3.639  17.343  0.1912  0.3543  0.3907
  730TMC3    C810797   1.427   3.330  17.287 -0.3907  0.2473 -0.0767
  730TMC3    O110798   1.025   3.691  17.273  0.5783 -0.2359  0.2423
  730TMC3    O210799   1.466   3.246  17.207 -0.4683  0.3666  0.6708
  731MPD2     C10800   1.317   1.964  12.203  0.0725 -0.3512 -0.1217
  731MPD2    C110801   1.348   1.830  12.223 -0.5411 -0.0890  0.5251
  731MPD2    C210802   1.273   1.753  12.306 -0.5824  0.0824 -0.0401
  731MPD2    C310803   1.173   1.807  12.384 -0.1418  0.2936  0.2277
  731MPD2    C410804   1.160   1.946  12.381  0.0227 -0.0167 -0.5530
  731MPD2    C510805   1.221   2.014  12.284 -0.8339 -0.3493 -0.8344
  731MPD2     H10806   1.297   1.648  12.319  1.7728  0.2526 -2.9653
  731MPD2    H110807   1.084   1.988  12.447  0.5756  0.3921 -0.1732
  731MPD2    H210808   1.362   2.012  12.117 -2.1359 -0.4918 -1.3427
  731MPD2    H310809   1.194   2.119  12.272 -2.3513 -0.5407  0.9117
  731MPD2     N10810   1.106   1.717  12.473  0.7375  0.1556 -0.6411
  731MPD2    H510811   1.122   1.617  12.469  0.2376  0.0185  0.9927
  731MPD2    N110812   1.443   1.764  12.145  0.1074  0.1629  0.6264
  731MPD2    H710813   1.451   1.666  12.168  0.0966  0.0277  0.0643
  732TMC3    C110814   1.635   1.728  12.014  0.3950 -0.8017 -1.2543
  732TMC3    C210815   1.596   1.602  12.016  0.5309 -0.0737  0.0313
  732TMC3    C310816   1.696   1.506  12.017  0.2519 -0.0707 -0.0396
  732TMC3    C410817   1.768   1.763  12.003  0.0971  0.1716  0.0816
  732TMC3    C510818   1.868   1.668  12.006  0.2342  0.3764  0.1681
  732TMC3    C610819   1.828   1.537  12.018 -0.5536 -0.8641 -0.6093
  732TMC3     C10820   1.545   1.824  12.073  0.2494  0.0995  0.5003
  732TMC3     O10821   1.559   1.945  12.068 -0.4260  0.1031 -0.4616
  732TMC3     H10822   1.490   1.577  12.015  0.4820  0.0669  1.3200
  732TMC3    H110823   1.793   1.866  12.023 -3.2216  0.7450  1.1914
  732TMC3    H210824   1.906   1.464  12.033 -1.5198 -1.4965  1.3539
  732TMC3    C710825   1.972   1.715  12.094 -0.0568 -0.8299 -0.0908
  732TMC3    C810826   1.655   1.367  12.000 -0.2197 -0.0602 -0.2662
  732TMC3    O110827   1.956   1.827  12.144  0.0405 -0.1415 -0.8341
  732TMC3    O210828   1.734   1.292  11.943 -0.3261 -0.3750 -0.0270
  733TMC3    C110829   2.360   3.948  13.119 -0.6918  0.6580 -0.5421
  733TMC3    C210830   2.418   4.033  13.207  0.3257 -0.1845  0.3194
  733TMC3    C310831   2.537   4.086  13.161 -0.3052 -0.6701 -0.3772
  733TMC3    C410832   2.390   3.938  12.985 -0.1834  0.6734 -0.3853
  733TMC3    C510833   2.503   4.011  12.945  0.0170  0.2688 -0.1613
  733TMC3    C610834   2.579   4.091  13.029  0.1983  0.1483 -0.8248
  733TMC3     C10835   2.236   3.883  13.161  0.0903  0.5208 -0.8943
  733TMC3     O10836   2.160   3.840  13.071  0.2186  0.5333 -0.2248
  733TMC3     H10837   2.402   4.038  13.315 -3.4444 -0.2751 -0.2245
  733TMC3    H110838   2.345   3.865  12.919  0.9130 -0.4148  0.0527
  733TMC3    H210839   2.679   4.119  13.000 -0.2750  0.5697 -2.0498
  733TMC3    C710840   2.519   4.032  12.796 -0.5148  0.2654 -0.9540
  733TMC3    C810841   2.618   4.172  13.254 -0.0431  0.6247  0.6253
  733TMC3    O110842   2.525   3.931  12.726  0.0164  0.2038  0.3890
  733TMC3    O210843   2.634   4.135  13.369  0.1935  0.2145 -0.7645
  734MPD2     C10844   4.396   2.093  12.494  0.3774  0.1313  0.1377
  734MPD2    C110845   4.358   1.991  12.410 -0.2017 -0.5376 -0.3533
  734MPD2    C210846   4.373   2.015  12.275 -0.9649 -0.6212 -0.2212
  734MPD2    C310847   4.403   2.137  12.224  0.0031  0.2730  0.0210
  734MPD2    C410848   4.432   2.237  12.307 -0.1259 -0.2099  0.1378
  734MPD2    C510849   4.429   2.215  12.441 -0.6461  1.3064  0.2940
  734MPD2     H10850   4.367   1.939  12.198  0.0079 -0.4540 -0.4701
  734MPD2    H110851   4.466   2.334  12.272  0.2053  0.6548  2.8962
  734MPD2    H210852   4.395   2.085  12.602 -1.6363 -1.2210  0.0123
  734MPD2    H310853   4.466   2.295  12.505 -0.0877  0.3476  1.1708
  734MPD2     N10854   4.406   2.151  12.085 -0.4489 -0.0523 -0.1633
  734MPD2    H510855   4.385   2.070  12.028 -0.5834 -0.3014  0.2372
  734MPD2    N110856   4.312   1.865  12.454  0.1522 -0.2680 -0.0530
  734MPD2    H710857   4.335   1.841  12.550  1.6079  0.3451 -0.2458
  735TMC3    C110858   4.214   1.648  12.417 -0.0273 -0.0974  0.8373
  735TMC3    C210859   4.123   1.592  12.333  0.7920 -0.4660  0.9318
  735TMC3    C310860   4.145   1.470  12.283  0.0891 -0.1591 -0.1199
  735TMC3    C410861   4.321   1.578  12.467 -0.1732 -0.1168 -0.3144
  735TMC3    C510862   4.339   1.451  12.414  0.0242  0.6431  0.4905
  735TMC3    C610863   4.266   1.403  12.307  0.5079 -0.1491 -0.4376
  735TMC3     C10864   4.239   1.785  12.372 -0.5379  0.2139 -0.2197
  735TMC3     O10865   4.189   1.812  12.263 -0.2072  0.9719 -0.5692
  735TMC3     H10866   4.029   1.640  12.310  0.9320  0.0941  1.5341
  735TMC3    H110867   4.385   1.619  12.544  1.0571 -4.6841  1.1061
  735TMC3    H210868   4.295   1.309  12.262 -2.5860 -2.0629  1.5873
  735TMC3    C710869   4.477   1.404  12.427  0.6787  0.5547  0.0670
  735TMC3    C810870   4.109   1.468  12.139 -0.0581  0.5668  0.0670
  735TMC3    O110871   4.554   1.491  12.459  0.2536  0.6103 -0.7485
  735TMC3    O210872   4.126   1.370  12.073  0.1646  0.1058  0.1140
  736MPD2     C10873   4.588   1.048  12.475 -0.6615  0.5279  0.2609
  736MPD2    C110874   4.598   1.188  12.463 -0.4099  0.2623  0.0119
  736MPD2    C210875   0.001   1.242  12.483 -0.5120 -0.4676 -0.8312
  736MPD2    C310876   0.114   1.165  12.494  0.8874  0.6243 -0.1415
  736MPD2    C410877   0.104   1.026  12.495  0.6089 -0.1543 -0.6108
  736MPD2    C510878   4.698   0.973  12.484  0.4949 -0.3231 -0.2081
  736MPD2     H10879   0.012   1.348  12.464  0.4477 -0.4579 -0.2514
  736MPD2    H110880   0.189   0.961  12.508  0.3761 -0.3662 -0.1586
  736MPD2    H210881   4.493   0.997  12.457 -0.8080  1.1506 -0.7096
  736MPD2    H310882   4.697   0.865  12.494 -0.8950 -0.3881 -1.1772
  736MPD2     N10883   0.250   1.216  12.475  0.3415 -0.1553 -0.4823
  736MPD2    H510884   0.320   1.145  12.460 -2.4253 -3.0293  0.0975
  736MPD2    N110885   4.487   1.266  12.430 -0.2182 -0.0470 -0.1404
  736MPD2    H710886   4.405   1.210  12.408 -0.3012  0.5533 -1.3737
  737TMC3    C110887   0.387   1.371  12.361  0.6540 -0.4743  0.5644
  737TMC3    C210888   0.386   1.487  12.279  0.0450  0.1759 -0.0790
  737TMC3    C310889   0.486   1.513  12.193  0.2438 -0.1051 -0.1378
  737TMC3    C410890   0.491   1.280  12.342  0.1345  0.1708 -0.4812
  737TMC3    C510891   0.594   1.317  12.261 -0.5059  0.7911 -0.3302
  737TMC3    C610892   0.593   1.425  12.179  0.4341  0.4224 -0.0997
  737TMC3     C10893   0.273   1.347  12.445 -1.0363 -0.5224  0.2103
  737TMC3     O10894   0.212   1.449  12.466 -0.6501 -0.1310  0.6007
  737TMC3     H10895   0.303   1.557  12.282  1.0633  1.3560  0.5554
  737TMC3    H110896   0.489   1.184  12.393 -1.7997  0.0622 -0.7516
  737TMC3    H210897   0.680   1.463  12.128 -1.1709  3.1852 -0.8051
  737TMC3    C710898   0.691   1.212  12.239 -0.0374  0.4369  0.5499
  737TMC3    C810899   0.480   1.633  12.112 -0.1761 -0.1110 -0.0241
  737TMC3    O110900   0.692   1.109  12.305 -0.3387 -0.0786  0.1659
  737TMC3    O210901   0.406   1.723  12.149 -0.5064  0.3223 -0.2176
  738MPD2     C10902   0.267   1.016  15.722  0.2595 -0.7812  0.5261
  738MPD2    C110903   0.270   0.987  15.583 -0.1910 -0.3396 -0.4015
  738MPD2    C210904   0.376   1.034  15.511 -0.5565  0.1494  0.5303
  738MPD2    C310905   0.477   1.102  15.577  0.3736  0.9808 -0.1593
  738MPD2    C410906   0.472   1.124  15.719 -1.0288 -0.0135 -0.1366
  738MPD2    C510907   0.365   1.084  15.795 -0.7376  0.0314  0.3083
  738MPD2     H10908   0.373   1.021  15.404 -2.3597  0.5683  0.5278
  738MPD2    H110909   0.540   1.196  15.763  1.1946 -1.8942 -0.4532
  738MPD2    H210910   0.181   0.989  15.782 -0.6522 -1.2840 -1.0011
  738MPD2    H310911   0.360   1.114  15.899  0.3380 -0.9425  0.6382
  738MPD2     N10912   0.585   1.170  15.503 -0.6096 -0.5740  0.4968
  738MPD2    H510913   0.640   1.230  15.562 -0.0959 -0.9374  0.3850
  738MPD2    N110914   0.180   0.904  15.502 -0.3970 -0.5447  0.4433
  738MPD2    H710915   0.215   0.877  15.411  0.3757  1.8257  0.0305
  739TMC3    C110916   0.724   1.262  15.327  0.7485 -0.0357 -0.0091
  739TMC3    C210917   0.777   1.241  15.204 -0.2557 -0.0635 -0.7016
  739TMC3    C310918   0.838   1.342  15.141  0.0685  0.1834 -0.0516
  739TMC3    C410919   0.730   1.390  15.389 -0.4788 -0.2224 -0.7131
  739TMC3    C510920   0.781   1.490  15.322 -0.1465 -0.1572 -0.6465
  739TMC3    C610921   0.843   1.469  15.202 -0.3674 -0.7598 -0.3828
  739TMC3     C10922   0.609   1.174  15.367 -0.0883  0.1085 -0.1076
  739TMC3     O10923   0.557   1.104  15.278  0.1284  0.0130 -0.5320
  739TMC3     H10924   0.771   1.139  15.166 -0.6441  0.6388 -2.5237
  739TMC3    H110925   0.684   1.412  15.484 -1.0502  2.8996 -1.6873
  739TMC3    H210926   0.881   1.542  15.131  1.9804 -0.1070  1.5588
  739TMC3    C710927   0.782   1.626  15.374  0.2346  0.6942  0.5164
  739TMC3    C810928   0.872   1.322  15.003 -0.1921 -0.5115  0.0219
  739TMC3    O110929   0.723   1.646  15.477 -0.3967  0.1308 -0.6192
  739TMC3    O210930   0.800   1.240  14.952 -0.1429 -0.0213 -0.0627
  740TMC3    C110931   1.119   2.280  14.447 -0.2725  0.1386 -0.8214
  740TMC3    C210932   1.166   2.233  14.567 -0.0921  0.1966 -0.2962
  740TMC3    C310933   1.267   2.141  14.564  0.1010 -0.4294  0.0338
  740TMC3    C410934   1.182   2.247  14.328 -0.3357  0.1396  0.1603
  740TMC3    C510935   1.280   2.156  14.338 -0.3275  0.1925  0.3465
  740TMC3    C610936   1.323   2.095  14.453  0.3238  0.4483 -0.2846
  740TMC3     C10937   0.999   2.373  14.445  0.1310 -0.8037 -0.1724
  740TMC3     O10938   0.982   2.461  14.362 -0.0938  0.0696  0.1086
  740TMC3     H10939   1.119   2.263  14.660 -0.6413  0.1596 -0.5607
  740TMC3    H110940   1.149   2.290  14.234  2.5026 -1.5722 -1.6237
  740TMC3    H210941   1.390   2.010  14.450  0.2078  0.3683 -0.5526
  740TMC3    C710942   1.358   2.112  14.218 -0.5919 -0.3356 -0.2715
  740TMC3    C810943   1.322   2.109  14.698  0.2092 -0.1360  0.2970
  740TMC3    O110944   1.458   2.041  14.228  0.3020 -0.2068  0.2584
  740TMC3    O210945   1.259   2.152  14.794  0.1577  0.0285 -0.0114
  741TMC3    C110946   0.693   1.418  14.262 -0.3527 -0.5042  0.0841
  741TMC3    C210947   0.572   1.383  14.315 -0.8890 -0.2128  0.3580
  741TMC3    C310948   0.551   1.414  14.449 -0.2093 -0.7569 -0.8817
  741TMC3    C410949   0.790   1.475  14.346 -0.6360 -0.7462 -0.1881
  741TMC3    C510950   0.755   1.520  14.470 -1.3118  0.1989  0.0088
  741TMC3    C610951   0.639   1.480  14.527  0.3580 -1.0413 -0.4439
  741TMC3     C10952   0.754   1.334  14.158 -0.2371 -0.3117  0.2014
  741TMC3     O10953   0.874   1.316  14.176 -0.1131  0.4235 -0.5410
  741TMC3     H10954   0.497   1.339  14.250 -0.4219 -0.7123  0.1598
  741TMC3    H110955   0.887   1.501  14.307 -1.4647  0.8018 -1.2131
  741TMC3    H210956   0.627   1.485  14.635  1.5545  1.9653 -0.4404
  741TMC3    C710957   0.866   1.592  14.542 -0.1993 -0.0915 -0.2016
  741TMC3    C810958   0.414   1.396  14.495  0.6924 -0.6870  0.3803
  741TMC3    O110959   0.978   1.603  14.497  0.6095  0.4519  0.2409
  741TMC3    O210960   0.334   1.336  14.416 -0.2838 -0.1202 -0.3715
  742TMC3    C110961   0.347   0.149  15.110  0.0220 -0.2079 -0.4406
  742TMC3    C210962   0.268   0.069  15.037  0.0910  0.0799  0.7013
  742TMC3    C310963   0.315   0.040  14.912 -0.2029 -0.1591  0.4526
  742TMC3    C410964   0.476   0.183  15.077  0.0129 -0.6256  0.0738
  742TMC3    C510965   0.525   0.141  14.957 -1.1085  0.5704  0.6234
  742TMC3    C610966   0.447   0.063  14.880 -0.1378  0.2947  0.7049
  742TMC3     C10967   0.285   0.188  15.235 -0.4398 -1.1552  0.2847
  742TMC3     O10968   0.198   0.117  15.277 -0.0596 -0.3906 -0.4340
  742TMC3     H10969   0.160   0.073  15.044 -0.1130 -2.0050 -1.5135
  742TMC3    H110970   0.532   0.243  15.149 -1.8043  1.7865 -0.5363
  742TMC3    H210971   0.481   0.041  14.780  0.5337 -1.4711  1.3266
  742TMC3    C710972   0.658   0.093  14.972  0.4740  0.4196  0.5547
  742TMC3    C810973   0.253   4.661  14.836  0.6362 -0.1166  0.7296
  742TMC3    O110974   0.678   4.702  14.933 -0.1785  0.5822  0.4593
  742TMC3    O210975   0.330   4.591  14.771 -0.3521 -0.1663  0.0744
  743MPD2     C10976   1.779   0.281   1.002  0.1938 -0.6433  0.2069
  743MPD2    C110977   1.909   0.260   0.960  0.7172  0.5796  0.4246
  743MPD2    C210978   1.952   0.144   0.901  0.6812 -0.7962 -0.1517
  743MPD2    C310979   1.855   0.045   0.871 -0.1477 -0.5728  0.7825
  743MPD2    C410980   1.725   0.069   0.916  0.7303  0.1345 -0.8331
  743MPD2    C510981   1.687   0.179   0.979  1.0931 -0.1974  0.5447
  743MPD2     H10982   2.054   0.125   0.869 -0.1334 -1.3700 -2.4660
  743MPD2    H110983   1.654   4.710   0.908  1.6214 -0.8093  0.9964
  743MPD2    H210984   1.740   0.370   1.050  1.8488 -0.5218  1.3126
  743MPD2    H310985   1.587   0.184   1.021  0.9739 -1.5222  0.4277
  743MPD2     N10986   1.886   4.672   0.783  0.3256 -0.5139  0.1014
  743MPD2    H510987   1.977   4.675   0.738  1.5532  0.5302  2.6650
  743MPD2    N110988   1.988   0.377   0.964  0.0015  0.0508 -0.5578
  743MPD2    H710989   1.938   0.458   0.998  0.9239  0.7541 -0.8718
  744TMC3    C110990   2.182   0.517   0.908  0.6532  0.2657  0.3171
  744TMC3    C210991   2.112   0.623   0.954 -0.1031 -0.2914  0.3904
  744TMC3    C310992   2.143   0.750   0.906 -0.1573 -0.1562  0.1026
  744TMC3    C410993   2.285   0.528   0.816 -0.4156 -0.7117 -0.0792
  744TMC3    C510994   2.319   0.650   0.777  0.6175  0.0946 -0.3946
  744TMC3    C610995   2.247   0.767   0.817 -0.1565  0.7037 -0.3425
  744TMC3     C10996   2.118   0.383   0.915  0.0205 -0.3676  0.0964
  744TMC3     O10997   2.189   0.292   0.876  0.1111 -1.0288  0.1238
  744TMC3     H10998   2.049   0.608   1.041 -1.0111  1.5466  0.0416
  744TMC3    H110999   2.338   0.437   0.791  0.2358 -0.1647 -0.6850
  744TMC3    H211000   2.288   0.864   0.793  3.8394 -1.3633 -1.7696
  744TMC3    C711001   2.436   0.673   0.698  0.2146 -0.4195  0.2060
  744TMC3    C811002   2.069   0.861   0.967  0.1170  0.1687  0.0136
  744TMC3    O111003   2.444   0.785   0.649 -0.3805  0.4401  0.0584
  744TMC3    O211004   2.014   0.848   1.077 -0.4243 -0.0632  0.2653
  745TMC3    C111005   1.237   4.077  14.036 -0.0350  0.8503 -0.0773
  745TMC3    C211006   1.171   4.194  14.083  0.6132  0.4762 -0.8659
  745TMC3    C311007   1.036   4.182  14.108 -0.2272  0.5057 -0.4132
  745TMC3    C411008   1.165   3.964  14.005  0.2215 -0.6014  0.4140
  745TMC3    C511009   1.030   3.970  14.011 -0.4766  0.5551 -0.2749
  745TMC3    C611010   0.965   4.072  14.074  0.7249  0.0988  0.4883
  745TMC3     C11011   1.349   4.111  13.941 -0.3669 -0.9368  0.4122
  745TMC3     O11012   1.369   4.030  13.854  0.7043 -0.0482  0.8080
  745TMC3     H11013   1.223   4.288  14.096 -0.9228  0.9565  1.9015
  745TMC3    H111014   1.214   3.871  13.979 -1.2361 -1.2892  0.1158
  745TMC3    H211015   0.858   4.063  14.089  0.6747  0.5467  0.3831
  745TMC3    C711016   0.955   3.900  13.909  0.2084  0.0617  0.6218
  745TMC3    C811017   0.959   4.295  14.138  0.6002  0.2101  0.7350
  745TMC3    O111018   0.835   3.914  13.912  0.6622  0.4630  0.3637
  745TMC3    O211019   0.833   4.293  14.132 -0.5386 -0.6619 -0.6134
  746TMC3    C111020   3.590   0.781  11.049  0.0212 -0.0271 -0.6432
  746TMC3    C211021   3.572   0.703  10.938  0.4462 -0.2196 -0.3804
  746TMC3    C311022   3.493   0.592  10.954 -0.0020  0.2707 -0.6446
  746TMC3    C411023   3.534   0.754  11.165  0.3969 -0.1128  0.2198
  746TMC3    C511024   3.454   0.647  11.182 -0.4815 -0.3567 -0.5110
  746TMC3    C611025   3.427   0.561  11.075  0.2315 -0.1193 -0.0071
  746TMC3     C11026   3.655   0.912  11.037  0.0258 -0.0401  0.2505
  746TMC3     O11027   3.757   0.923  10.968 -0.0412  0.3937  0.2907
  746TMC3     H11028   3.639   0.735  10.859  1.5136 -0.5802  0.3677
  746TMC3    H111029   3.555   0.818  11.249  0.7055  1.7071 -1.2336
  746TMC3    H211030   3.369   0.470  11.086  0.9250 -0.5254  0.2675
  746TMC3    C711031   3.343   0.660  11.272 -0.0616 -0.7458 -0.3472
  746TMC3    C811032   3.458   0.521  10.837  0.5223  0.8916 -0.2765
  746TMC3    O111033   3.237   0.629  11.223 -0.5072  0.1559 -0.6361
  746TMC3    O211034   3.350   0.465  10.837  0.6983 -0.1671  0.4355
  747TMC3    C111035   1.477   1.181  11.496 -0.2359 -0.4496  0.7383
  747TMC3    C211036   1.362   1.124  11.550 -0.4880  0.2457 -0.1597
  747TMC3    C311037   1.301   1.190  11.656 -0.5096 -0.0866 -0.0590
  747TMC3    C411038   1.527   1.295  11.550  0.8554 -0.5635  0.2618
  747TMC3    C511039   1.461   1.355  11.659  0.1844  0.0648 -0.2519
  747TMC3    C611040   1.353   1.300  11.723 -0.4851 -0.0167  0.8303
  747TMC3     C11041   1.548   1.128  11.382  0.3052 -0.6399  0.2653
  747TMC3     O11042   1.661   1.172  11.374  0.2780  0.0753  0.3924
  747TMC3     H11043   1.331   1.025  11.518  0.4781 -0.0306 -0.2596
  747TMC3    H111044   1.590   1.364  11.494  0.8435  0.1504  1.1199
  747TMC3    H211045   1.314   1.348  11.812 -0.1513 -0.8003  1.4042
  747TMC3    C711046   1.494   1.500  11.686 -0.6764  0.5807  0.0184
  747TMC3    C811047   1.208   1.116  11.736  0.4466  0.8467  0.1510
  747TMC3    O111048   1.404   1.559  11.734 -0.4143  0.3654  0.2601
  747TMC3    O211049   1.203   0.994  11.712 -0.1151 -0.0729  0.1946
  748MPD2     C11050   2.172   2.045   1.805  0.8038  0.2141  0.0660
  748MPD2    C111051   2.242   2.158   1.809  0.8268  0.6420  0.0277
  748MPD2    C211052   2.382   2.145   1.797 -0.2014 -0.3885 -0.4846
  748MPD2    C311053   2.443   2.021   1.796 -0.0528  0.2009 -0.0913
  748MPD2    C411054   2.365   1.904   1.798  0.5180 -0.2701  0.5760
  748MPD2    C511055   2.229   1.922   1.793 -0.2437 -0.3319  0.1767
  748MPD2     H11056   2.434   2.240   1.785 -1.1744  0.0906 -0.9480
  748MPD2    H111057   2.407   1.806   1.781  0.6231  0.0322 -0.8551
  748MPD2    H211058   2.064   2.042   1.813  0.6091  2.2509 -1.9619
  748MPD2    H311059   2.161   1.840   1.773 -0.4743  0.1520 -0.9971
  748MPD2     N11060   2.583   2.018   1.792  0.0212  0.1489 -0.0621
  748MPD2    H511061   2.621   2.110   1.772  3.0699 -0.3809  3.4128
  748MPD2    N111062   2.164   2.272   1.818  0.3698 -0.1422  0.9779
  748MPD2    H711063   2.066   2.246   1.825  0.0997  0.6640  0.1747
  749TMC3    C111064   2.800   1.919   1.774  0.7799 -0.2166 -0.5338
  749TMC3    C211065   2.887   1.814   1.810  0.1684  0.6778 -0.0790
  749TMC3    C311066   3.005   1.825   1.739  0.4280  0.0194 -0.1894
  749TMC3    C411067   2.841   2.013   1.680  0.4864 -0.6818 -0.4332
  749TMC3    C511068   2.957   2.001   1.614 -0.5136  0.5174 -0.3439
  749TMC3    C611069   3.047   1.907   1.646 -0.0006  0.5188 -0.3961
  749TMC3     C11070   2.659   1.907   1.817 -0.5411  0.3990  0.2148
  749TMC3     O11071   2.617   1.800   1.858  0.2082  0.3277  0.0340
  749TMC3     H11072   2.854   1.735   1.877 -2.3750  1.4103 -0.4778
  749TMC3    H111073   2.771   2.095   1.669  0.2578 -1.0167 -1.4037
  749TMC3    H211074   3.143   1.898   1.596 -0.9679  2.6930 -2.6467
  749TMC3    C711075   3.000   2.118   1.549 -0.1365  0.4818 -0.0203
  749TMC3    C811076   3.099   1.720   1.778  0.2644  0.4109 -0.0381
  749TMC3    O111077   2.935   2.225   1.565  0.3693  0.2955 -0.4320
  749TMC3    O211078   3.089   1.673   1.890 -0.0817 -0.3910 -0.0575
  750MPD2     C11079   3.595   2.756  11.133  0.9113  0.4280  0.1899
  750MPD2    C111080   3.492   2.669  11.142 -0.0757  0.0741  0.5593
  750MPD2    C211081   3.481   2.569  11.047  0.5428 -0.2354  0.7307
  750MPD2    C311082   3.589   2.543  10.961 -0.0430 -0.2953  0.5098
  750MPD2    C411083   3.688   2.631  10.954 -0.3949 -0.4312 -0.1174
  750MPD2    C511084   3.686   2.744  11.031  0.0291  0.3701 -0.1672
  750MPD2     H11085   3.406   2.491  11.042  1.7430 -1.4269  1.3094
  750MPD2    H111086   3.772   2.614  10.887  1.8497  0.8390  2.3771
  750MPD2    H211087   3.602   2.847  11.192  1.3907  0.4095  0.1612
  750MPD2    H311088   3.762   2.819  11.013  0.3667  0.0720  0.0076
  750MPD2     N11089   3.587   2.428  10.880 -0.2580  0.0980 -0.3663
  750MPD2    H511090   3.667   2.418  10.818  0.3600 -1.9625  0.7578
  750MPD2    N111091   3.395   2.703  11.231  0.5984 -0.9620 -0.7482
  750MPD2    H711092   3.418   2.777  11.297 -3.1913 -0.7913  0.3710
  751TMC3    C111093   3.539   2.209  10.799 -0.6140  0.8129  0.1617
  751TMC3    C211094   3.444   2.125  10.754  0.3204  0.1580  0.1980
  751TMC3    C311095   3.488   1.994  10.731 -0.0535 -0.0390  0.0320
  751TMC3    C411096   3.672   2.176  10.809  0.8572 -0.4200  0.6119
  751TMC3    C511097   3.714   2.048  10.798  0.2978  0.0746 -0.6673
  751TMC3    C611098   3.618   1.955  10.767 -0.4587  0.0449 -0.1164
  751TMC3     C11099   3.489   2.328  10.872 -0.0402  0.6507 -0.2281
  751TMC3     O11100   3.379   2.320  10.923 -0.1667  0.4630 -0.8918
  751TMC3     H11101   3.340   2.155  10.740 -0.1710 -1.2672  0.8002
  751TMC3    H111102   3.742   2.248  10.851  0.4567  1.2175 -1.5381
  751TMC3    H211103   3.636   1.851  10.741 -1.0887 -0.8944  3.2810
  751TMC3    C711104   3.856   2.026  10.783  0.4049 -0.1005 -0.2631
  751TMC3    C811105   3.390   1.890  10.724 -0.5378  0.2811 -0.3172
  751TMC3    O111106   3.922   2.116  10.738 -0.3776 -0.3161  0.2257
  751TMC3    O211107   3.416   1.785  10.662 -0.2992 -0.3707  0.5209
  752TMC3    C111108   2.362   3.949  16.876  0.3566 -0.0059  0.5438
  752TMC3    C211109   2.313   3.867  16.976  0.4117  0.1858  0.3623
  752TMC3    C311110   2.257   3.928  17.085 -0.0057  0.3993  0.5958
  752TMC3    C411111   2.382   4.085  16.898 -0.2727 -0.1110 -0.3194
  752TMC3    C511112   2.329   4.141  17.006  0.0398 -0.2173  0.3297
  752TMC3    C611113   2.275   4.065  17.111  0.5965 -0.6173  0.4530
  752TMC3     C11114   2.382   3.890  16.746  0.5011  0.0963  1.1237
  752TMC3     O11115   2.470   3.931  16.670 -0.0360  0.4995 -0.1037
  752TMC3     H11116   2.288   3.763  16.959  1.8124  0.1682 -1.5785
  752TMC3    H111117   2.444   4.146  16.833  2.2273 -2.3126 -0.0456
  752TMC3    H211118   2.221   4.112  17.192  0.2224  1.4932 -1.0462
  752TMC3    C711119   2.354   4.283  17.032  0.0483 -0.5337  0.0539
  752TMC3    C811120   2.203   3.846  17.188 -0.2024  0.5612 -0.6460
  752TMC3    O111121   2.358   4.354  16.933 -0.0080  0.1563 -0.1788
  752TMC3    O211122   2.160   3.743  17.154 -0.0209  0.1207 -0.0005
  753TMC3    C111123   4.701   4.398  13.548  0.5485 -0.0815  0.7975
  753TMC3    C211124   0.087   4.407  13.634  0.1143  1.5050  0.1864
  753TMC3    C311125   0.193   4.322  13.619  0.6025 -0.1646  0.2928
  753TMC3    C411126   4.694   4.296  13.456  0.4338  0.3317  0.4190
  753TMC3    C511127   0.073   4.205  13.455 -0.7383 -1.8106 -0.1931
  753TMC3    C611128   0.189   4.225  13.522 -0.1427  0.4326 -0.2597
  753TMC3     C11129   4.621   4.513  13.517  0.2815 -0.5264 -0.1911
  753TMC3     O11130   4.587   4.525  13.402  0.6358 -0.0092  0.3035
  753TMC3     H11131   0.104   4.500  13.687  1.2003  0.9236  0.8443
  753TMC3    H111132   4.622   4.293  13.374 -0.1302  0.8833  0.8949
  753TMC3    H211133   0.263   4.146  13.525 -1.5018 -0.7771  1.9130
  753TMC3    C711134   0.088   4.104  13.351 -0.1155  0.2775  0.4163
  753TMC3    C811135   0.292   4.328  13.711  0.0327  0.7558  0.0935
  753TMC3    O111136   0.195   4.073  13.303  0.6803  0.4370 -0.0023
  753TMC3    O211137   0.399   4.284  13.670  0.0329 -0.8765 -0.2719
  754MPD2     C11138   2.404   2.767  12.513 -0.0603  0.3394  0.1614
  754MPD2    C111139   2.432   2.786  12.642 -0.2350  1.1661 -0.7121
  754MPD2    C211140   2.336   2.762  12.744  0.3060 -0.0476  0.2936
  754MPD2    C311141   2.218   2.697  12.702  0.0363 -0.5618 -0.4530
  754MPD2    C411142   2.199   2.679  12.569 -0.0367  0.1195  0.4385
  754MPD2    C511143   2.288   2.713  12.473 -0.7419 -0.8044  0.5652
  754MPD2     H11144   2.343   2.787  12.849  1.3425  0.3025  0.1435
  754MPD2    H111145   2.110   2.629  12.532  0.3903 -0.8726  0.7529
  754MPD2    H211146   2.467   2.797  12.430 -0.3300  1.1749  0.2559
  754MPD2    H311147   2.264   2.694  12.369 -0.3435  1.9442 -0.0279
  754MPD2     N11148   2.111   2.664  12.790 -1.0019 -0.0140 -0.3215
  754MPD2    H511149   2.021   2.629  12.757 -2.4838  1.3542  2.1831
  754MPD2    N111150   2.561   2.830  12.677  0.8172 -0.0856 -0.4035
  754MPD2    H711151   2.631   2.841  12.604  1.5636 -0.4743  0.2539
  755MPD2     C11152   1.251   3.045  13.136  0.2433  0.2220  0.5388
  755MPD2    C111153   1.368   3.057  13.197  0.8647 -0.1351 -0.3948
  755MPD2    C211154   1.469   2.979  13.158  0.1847  0.0828  0.6041
  755MPD2    C311155   1.447   2.869  13.073  0.1228  0.6872 -0.1346
  755MPD2    C411156   1.318   2.843  13.031  0.2292 -0.5344  0.0096
  755MPD2    C511157   1.220   2.930  13.065 -0.5228 -0.1074 -0.0847
  755MPD2     H11158   1.568   3.004  13.193  0.9612  0.1178 -1.5658
  755MPD2    H111159   1.292   2.755  12.973 -1.3685 -0.5058  0.7024
  755MPD2    H211160   1.159   3.098  13.155 -1.0626 -1.9130  0.0886
  755MPD2    H311161   1.119   2.896  13.046 -0.2587  0.4332 -2.5306
  755MPD2     N11162   1.551   2.781  13.035  0.1521  0.3383  0.1211
  755MPD2    H511163   1.522   2.688  13.005  0.9544  0.5257 -1.2135
  755MPD2    N111164   1.391   3.159  13.293 -0.0030 -0.1689 -0.2939
  755MPD2    H711165   1.486   3.149  13.328  0.7494  1.1360 -1.9656
  756MPD2     C11166   3.121   3.529   9.578 -0.0843  0.5466 -0.3514
  756MPD2    C111167   3.048   3.487   9.688  0.0174  0.4957  0.2948
  756MPD2    C211168   2.915   3.441   9.663  0.4594  1.0378  0.2618
  756MPD2    C311169   2.855   3.446   9.540 -0.1914 -0.8826 -0.3223
  756MPD2    C411170   2.938   3.499   9.440 -0.8976  0.1447 -0.3169
  756MPD2    C511171   3.065   3.535   9.456  0.0560  0.1377  0.0852
  756MPD2     H11172   2.859   3.389   9.740 -1.9427  1.8877 -0.9062
  756MPD2    H111173   2.903   3.502   9.337 -0.4890  1.3612 -0.4151
  756MPD2    H211174   3.224   3.562   9.588 -0.0537  0.3241  0.1001
  756MPD2    H311175   3.119   3.574   9.370 -0.9421  0.0212 -0.5900
  756MPD2     N11176   2.725   3.405   9.529 -0.1009  0.1079  0.0496
  756MPD2    H511177   2.691   3.353   9.609  1.9220 -0.0070  0.8387
  756MPD2    N111178   3.100   3.493   9.825  0.0723  0.3144 -0.1799
  756MPD2    H711179   3.034   3.457   9.893 -0.1798  0.7199 -0.2072
  757MPD2     C11180   2.406   2.742   9.934 -0.0340  0.2861 -0.5914
  757MPD2    C111181   2.521   2.818   9.912  1.2781  0.4608  0.1962
  757MPD2    C211182   2.519   2.946   9.858  0.7340 -0.1662 -0.0784
  757MPD2    C311183   2.403   2.992   9.804  0.1457 -0.6135  0.6979
  757MPD2    C411184   2.284   2.919   9.824 -0.1493 -0.1972 -0.4355
  757MPD2    C511185   2.287   2.798   9.891  1.1620 -0.8078 -0.2085
  757MPD2     H11186   2.604   3.010   9.836 -1.5306  2.1862 -2.0331
  757MPD2    H111187   2.191   2.930   9.769 -1.1921 -2.3148  0.8714
  757MPD2    H211188   2.406   2.646   9.983  1.4640  1.1416  1.1146
  757MPD2    H311189   2.196   2.738   9.895  1.4605 -1.3436 -1.4174
  757MPD2     N11190   2.415   3.111   9.729 -0.0066  0.3868 -0.3279
  757MPD2    H511191   2.501   3.161   9.708 -0.3122  1.6669  1.4904
  757MPD2    N111192   2.640   2.761   9.953  0.2374 -0.0581  0.6227
  757MPD2    H711193   2.631   2.666   9.988  0.8732 -0.0099  0.9180
  758MPD2     C11194   2.786   2.643  15.794 -0.0723  0.2202 -0.4987
  758MPD2    C111195   2.839   2.549  15.874  0.3542  0.2254 -0.0323
  758MPD2    C211196   2.785   2.543  16.002 -0.0664 -0.2552 -0.4594
  758MPD2    C311197   2.684   2.622  16.047 -0.4327  0.5769  0.1566
  758MPD2    C411198   2.638   2.716  15.956 -0.0440  0.0397 -0.2342
  758MPD2    C511199   2.691   2.734  15.832  0.1575  0.0927  0.2073
  758MPD2     H11200   2.810   2.463  16.071  1.0721  1.2197  0.8334
  758MPD2    H111201   2.547   2.773  15.971 -0.8757 -1.1141 -0.8981
  758MPD2    H211202   2.816   2.655  15.690 -1.8656 -1.3182 -1.2002
  758MPD2    H311203   2.656   2.813  15.766 -1.2827 -1.2586 -0.6393
  758MPD2     N11204   2.637   2.627  16.181 -0.1023 -0.6111 -0.3662
  758MPD2    H511205   2.554   2.682  16.205  0.1149 -0.6997  0.6047
  758MPD2    N111206   2.945   2.473  15.839  0.8110  0.1424  0.5282
  758MPD2    H711207   2.982   2.479  15.745 -0.5959 -3.1136 -0.2119
  759MPD2     C11208   2.132   0.287  10.694 -0.6632  1.1008  0.1241
  759MPD2    C111209   2.099   0.354  10.810  0.8363 -0.2728  0.3072
  759MPD2    C211210   2.086   0.489  10.799  0.3265 -0.0889  0.1889
  759MPD2    C311211   2.132   0.555  10.687  0.8240 -0.0756 -0.0093
  759MPD2    C411212   2.160   0.484  10.571  0.4555  0.7935  0.4058
  759MPD2    C511213   2.153   0.353  10.578 -0.4264 -0.4406  0.0382
  759MPD2     H11214   2.037   0.541  10.881  0.7448 -2.0941  1.7157
  759MPD2    H111215   2.179   0.525  10.473 -2.8516 -0.5225 -0.7757
  759MPD2    H211216   2.154   0.181  10.698  0.5533  1.3238 -0.6337
  759MPD2    H311217   2.180   0.304  10.485 -0.5262 -1.4273  0.5210
  759MPD2     N11218   2.116   0.698  10.683 -0.0626 -0.6341 -0.6720
  759MPD2    H511219   2.079   0.734  10.770 -1.5148  0.3480 -1.6990
  759MPD2    N111220   2.070   0.275  10.922 -0.1769  0.4178  0.6566
  759MPD2    H711221   2.079   0.174  10.912 -0.1002  0.5417 -0.4333
  760MPD2     C11222   1.412   2.953  11.929  0.2496  0.1819  0.7493
  760MPD2    C111223   1.548   2.947  11.908 -0.4888  0.4705  0.1746
  760MPD2    C211224   1.615   2.833  11.940  0.3984 -0.4765 -0.0045
  760MPD2    C311225   1.541   2.720  11.986 -0.4346  0.0752  0.1428
  760MPD2    C411226   1.409   2.733  12.022  0.1786 -0.0620  0.6217
  760MPD2    C511227   1.349   2.852  11.994  0.8549 -0.0708 -0.3974
  760MPD2     H11228   1.719   2.812  11.919  0.7337  1.6185 -0.4776
  760MPD2    H111229   1.356   2.643  12.051 -0.9461 -0.0640 -1.4439
  760MPD2    H211230   1.361   3.046  11.908  3.4754  2.1630  1.6320
  760MPD2    H311231   1.248   2.877  12.025 -0.3000 -0.1843 -4.0630
  760MPD2     N11232   1.597   2.591  12.005 -0.1910 -0.3008 -0.8255
  760MPD2    H511233   1.537   2.528  12.058  0.7733 -0.9426 -0.5058
  760MPD2    N111234   1.624   3.047  11.852 -0.4414  0.1213 -0.0364
  760MPD2    H711235   1.721   3.046  11.881 -0.8152  0.2759  1.2058
  761MPD2     C11236   2.899   1.784  10.767  0.4123 -0.0335  0.3838
  761MPD2    C111237   3.006   1.700  10.709  0.4468 -0.4358 -0.4131
  761MPD2    C211238   3.129   1.755  10.718  0.3482  0.0846  0.1853
  761MPD2    C311239   3.152   1.881  10.777 -0.1273  0.3024 -0.3728
  761MPD2    C411240   3.050   1.939  10.847 -0.3905  0.0529 -0.0377
  761MPD2    C511241   2.921   1.894  10.843 -0.2662 -0.0669 -0.3191
  761MPD2     H11242   3.209   1.698  10.673 -2.3961 -1.4892 -2.7177
  761MPD2    H111243   3.061   2.036  10.893  1.3491 -0.6045  0.9245
  761MPD2    H211244   2.794   1.759  10.758  0.5625  0.8775 -3.6225
  761MPD2    H311245   2.833   1.951  10.868 -0.6979 -2.0755  2.7305
  761MPD2     N11246   3.284   1.930  10.797  0.9932  0.0307  0.7462
  761MPD2    H511247   3.290   2.019  10.847  0.0475  0.6304 -0.1953
  761MPD2    N111248   2.968   1.579  10.643 -0.2865  0.2931  0.2209
  761MPD2    H711249   2.871   1.551  10.652 -0.0197 -0.9721 -0.8113
  762MPD2     C11250   3.461   1.391  10.290 -0.2565 -0.7526 -0.3324
  762MPD2    C111251   3.407   1.264  10.308 -0.1739  0.6123  0.3089
  762MPD2    C211252   3.476   1.158  10.261 -0.3660 -0.1973  0.1586
  762MPD2    C311253   3.610   1.167  10.217  1.0986 -0.0984  0.0337
  762MPD2    C411254   3.669   1.287  10.210  0.2507  0.5049 -0.1108
  762MPD2    C511255   3.595   1.396  10.241 -0.4762 -0.1730  0.7179
  762MPD2     H11256   3.420   1.065  10.259 -1.5879  0.5142  1.3971
  762MPD2    H111257   3.773   1.300  10.183  0.7414  1.3284  2.1579
  762MPD2    H211258   3.409   1.481  10.319 -1.3968 -1.3760 -0.4605
  762MPD2    H311259   3.641   1.494  10.233  0.9993 -0.9470 -0.3203
  762MPD2     N11260   3.687   1.049  10.189 -0.4917 -0.1449 -0.1089
  762MPD2    H511261   3.656   0.960  10.228 -2.1593  0.6795  0.4694
  762MPD2    N111262   3.283   1.258  10.373  0.3290  0.4766  0.6030
  762MPD2    H711263   3.239   1.345  10.403 -0.3868  0.4631 -0.3827
  763MPD2     C11264   4.254   2.443  16.336 -0.8422  0.2180 -0.3199
  763MPD2    C111265   4.285   2.566  16.281  0.0229  0.6345 -0.2170
  763MPD2    C211266   4.295   2.680  16.360 -0.4492 -0.8354  0.7077
  763MPD2    C311267   4.271   2.667  16.495  0.4691  0.6298 -0.1227
  763MPD2    C411268   4.257   2.541  16.552 -0.8730 -0.0553  0.6434
  763MPD2    C511269   4.250   2.433  16.472  0.8700 -0.3195  0.4073
  763MPD2     H11270   4.333   2.766  16.305 -0.8210  0.6443  2.7776
  763MPD2    H111271   4.244   2.520  16.658 -0.1212 -2.9154  0.1714
  763MPD2    H211272   4.250   2.349  16.281 -1.6549  0.9614 -1.5147
  763MPD2    H311273   4.199   2.348  16.516 -1.0803 -0.0280 -1.2837
  763MPD2     N11274   4.275   2.772  16.581 -0.4710 -0.9353  0.2253
  763MPD2    H511275   4.291   2.745  16.678  2.7916  1.3672  0.3507
  763MPD2    N111276   4.323   2.575  16.145 -0.6017 -0.1095  0.3226
  763MPD2    H711277   4.328   2.671  16.111  0.1312  0.8679  3.2282
  764MPD2     C11278   3.042   4.567   0.043 -0.5511 -0.1446  0.5778
  764MPD2    C111279   2.919   4.535  17.676  0.0682 -0.0950  0.0720
  764MPD2    C211280   2.832   4.452   0.051  0.0599 -0.1639 -0.1167
  764MPD2    C311281   2.867   4.394   0.174 -0.0392 -0.2334 -0.0733
  764MPD2    C411282   2.988   4.432   0.236  0.1394  0.5472  0.0633
  764MPD2    C511283   3.066   4.518   0.168  0.4262 -0.3106 -0.5841
  764MPD2     H11284   2.739   4.434  17.692  0.6229  0.0652 -1.1871
  764MPD2    H111285   3.032   4.392   0.326 -3.8059 -1.9160  0.9014
  764MPD2    H211286   3.108   4.646   0.011 -1.2628  1.1445  2.2448
  764MPD2    H311287   3.162   4.546   0.212  0.5902  0.5970 -1.5492
  764MPD2     N11288   2.771   4.314   0.238 -0.3396  0.2165  0.4685
  764MPD2    H511289   2.686   4.302   0.183  0.5978  1.7087 -1.3187
  764MPD2    N111290   2.881   4.583  17.552 -0.2964  0.2863 -0.9459
  764MPD2    H711291   2.797   4.546  17.508 -1.1893 -0.9801  1.8091
  765MPD2     C11292   2.137   1.827  15.823 -0.2360 -0.8561  0.2437
  765MPD2    C111293   2.191   1.952  15.794 -1.0884  0.3488  0.4002
  765MPD2    C211294   2.283   1.958  15.686  0.5512 -0.9734 -0.1171
  765MPD2    C311295   2.331   1.841  15.626 -0.1428  0.0052  0.4589
  765MPD2    C411296   2.275   1.717  15.656 -0.1852 -0.6765 -0.7939
  765MPD2    C511297   2.176   1.719  15.745 -0.5881  0.0391  0.3985
  765MPD2     H11298   2.331   2.052  15.660  0.2093 -0.5860  0.6323
  765MPD2    H111299   2.307   1.628  15.604  1.1062  0.2380 -1.5661
  765MPD2    H211300   2.060   1.818  15.898 -0.9004 -1.9644 -0.5834
  765MPD2    H311301   2.136   1.621  15.770 -1.2758  0.3007  0.3288
  765MPD2     N11302   2.434   1.856  15.524 -0.1559  0.3906  0.2701
  765MPD2    H511303   2.457   1.953  15.504  1.4195 -0.0747 -0.2141
  765MPD2    N111304   2.146   2.071  15.860  0.6157 -0.3527  0.4339
  765MPD2    H711305   2.067   2.064  15.923 -0.3552  0.4629 -0.6932
  766MPD2     C11306   1.719   2.285  15.465 -0.2447 -0.2722  0.4973
  766MPD2    C111307   1.854   2.301  15.481 -1.0280  0.1999 -0.1736
  766MPD2    C211308   1.953   2.252  15.386 -0.2237  0.0421  0.0233
  766MPD2    C311309   1.909   2.208  15.266  0.6823  0.0099 -0.1356
  766MPD2    C411310   1.773   2.218  15.246 -0.5454  0.1465  0.2815
  766MPD2    C511311   1.678   2.243  15.341 -1.0581 -0.1468 -0.0269
  766MPD2     H11312   2.055   2.252  15.421  0.0391 -1.8015 -0.7643
  766MPD2    H111313   1.730   2.192  15.150 -0.4360 -0.9964  0.5357
  766MPD2    H211314   1.646   2.314  15.540  0.9644  1.3244  1.0323
  766MPD2    H311315   1.573   2.245  15.318 -0.8433 -0.3953 -0.9944
  766MPD2     N11316   2.004   2.149  15.171 -0.2819 -0.5522 -0.1859
  766MPD2    H511317   1.964   2.115  15.084  0.5150 -0.9927 -0.3757
  766MPD2    N111318   1.907   2.348  15.603  0.1638  0.2342  0.4114
  766MPD2    H711319   2.008   2.346  15.613  0.3297  0.8455 -1.1384
  767MPD2     C11320   1.667   2.451  15.058 -0.4396  0.5560  0.4520
  767MPD2    C111321   1.804   2.463  15.020 -0.3781  0.2029  0.1936
  767MPD2    C211322   1.848   2.405  14.908 -0.0423 -0.6409  0.6112
  767MPD2    C311323   1.764   2.327  14.832 -0.4480 -1.0188  0.1412
  767MPD2    C411324   1.635   2.308  14.871  0.1849  0.2253 -0.6617
  767MPD2    C511325   1.582   2.375  14.981 -0.0444 -0.0529  0.3407
  767MPD2     H11326   1.949   2.409  14.867  0.2319  1.2938  1.4413
  767MPD2    H111327   1.566   2.241  14.821 -1.0980 -1.1003  2.9100
  767MPD2    H211328   1.625   2.500  15.145 -1.4608  0.8043 -0.1749
  767MPD2    H311329   1.478   2.364  15.010 -0.6489  0.3659 -1.6329
  767MPD2     N11330   1.806   2.271  14.714  0.2043 -0.5700 -0.1673
  767MPD2    H511331   1.906   2.274  14.695  0.2806 -1.9551  0.0500
  767MPD2    N111332   1.880   2.533  15.118 -0.2424  0.4633 -0.3513
  767MPD2    H711333   1.831   2.569  15.200  1.1789  0.3905  0.5178
  768MPD2     C11334   2.869   0.059  11.525  0.3477 -0.0949  0.0768
  768MPD2    C111335   2.919   0.188  11.500  0.1463 -0.2840 -0.8293
  768MPD2    C211336   3.054   0.207  11.498  0.1999  0.8158 -0.0710
  768MPD2    C311337   3.149   0.103  11.523  0.3582  0.4039  0.2891
  768MPD2    C411338   3.096   4.703  11.543 -0.0094 -1.3398  1.1587
  768MPD2    C511339   2.959   4.686  11.556  0.3613  0.2513  0.1191
  768MPD2     H11340   3.097   0.304  11.478  0.4847  0.5247 -0.8713
  768MPD2    H111341   3.149   4.608  11.553 -0.1837 -1.6557 -0.9201
  768MPD2    H211342   2.763   0.037  11.519  0.3337  0.3639 -1.2844
  768MPD2    H311343   2.928   4.584  11.574 -3.9144  1.1503 -2.1956
  768MPD2     N11344   3.290   0.122  11.515 -0.2514  0.6918 -0.3724
  768MPD2    H511345   3.355   0.051  11.548 -1.0609  0.1655  0.1041
  768MPD2    N111346   2.839   0.305  11.472 -0.1227 -0.2022  0.3129
  768MPD2    H711347   2.890   0.390  11.450 -0.2995 -0.4371 -0.9836
  769MPD2     C11348   3.945   3.582  14.532 -0.1601 -0.0439 -0.1757
  769MPD2    C111349   3.842   3.557  14.615  0.4060  0.5578 -0.1326
  769MPD2    C211350   3.854   3.582  14.752 -0.3642 -0.1883 -0.3493
  769MPD2    C311351   3.966   3.645  14.805  0.7405 -0.0518  0.1395
  769MPD2    C411352   4.068   3.666  14.712 -0.2027  0.2546 -0.3313
  769MPD2    C511353   4.057   3.640  14.582 -0.2381  0.0510 -0.3810
  769MPD2     H11354   3.769   3.549  14.811 -0.6332  2.1183  0.5542
  769MPD2    H111355   4.158   3.717  14.747  0.6712 -1.3269 -0.2525
  769MPD2    H211356   3.926   3.574  14.425 -1.3339  1.7073 -0.1085
  769MPD2    H311357   4.138   3.670  14.517 -0.5484 -0.5883 -1.0694
  769MPD2     N11358   3.988   3.676  14.944 -0.2916 -0.4708 -0.1255
  769MPD2    H511359   3.916   3.641  15.007  1.5329  2.0364  3.2966
  769MPD2    N111360   3.728   3.508  14.551 -0.1266 -0.4923  0.1891
  769MPD2    H711361   3.735   3.496  14.451  0.8775 -0.8218  0.3011
  770MPD2     C11362   2.904   3.182  14.845 -0.3414 -0.0940  0.6245
  770MPD2    C111363   3.018   3.129  14.789  0.2302 -0.1529 -0.2188
  770MPD2    C211364   3.079   3.207  14.693 -0.4340  0.1879 -0.0653
  770MPD2    C311365   3.049   3.334  14.661 -0.5687  0.7476  0.1757
  770MPD2    C411366   2.944   3.391  14.733 -0.8695 -0.0174  0.8404
  770MPD2    C511367   2.869   3.315  14.815 -0.3557  0.2391 -0.3610
  770MPD2     H11368   3.162   3.158  14.644  1.1876  0.6077  2.2886
  770MPD2    H111369   2.911   3.493  14.713 -1.7857 -0.0787  2.0541
  770MPD2    H211370   2.860   3.126  14.927 -0.3188  1.3521  1.6187
  770MPD2    H311371   2.783   3.355  14.869 -0.5970  0.8072 -1.1702
  770MPD2     N11372   3.119   3.417  14.566  0.7041  0.1351 -0.1928
  770MPD2    H511373   3.132   3.516  14.581  1.4620  0.3028 -1.9257
  770MPD2    N111374   3.057   2.995  14.812  0.2339 -0.2210  0.6318
  770MPD2    H711375   2.990   2.937  14.862 -2.2933  1.7156 -0.5061
  771MPD2     C11376   0.203   1.150  13.876  0.2902  0.3191  0.4824
  771MPD2    C111377   0.126   1.259  13.877  0.0837  0.0929  0.2459
  771MPD2    C211378   0.007   1.257  13.803 -1.0128 -0.2097 -0.4508
  771MPD2    C311379   4.689   1.147  13.736 -0.5104 -0.4571  0.1725
  771MPD2    C411380   0.048   1.034  13.749 -0.8016  0.1255  1.0213
  771MPD2    C511381   0.162   1.038  13.817 -0.0568 -0.1536 -0.0871
  771MPD2     H11382   4.670   1.347  13.787 -0.3261  0.4230  0.5121
  771MPD2    H111383   0.011   0.941  13.707 -1.3722  0.7513  0.1374
  771MPD2    H211384   0.296   1.154  13.933  1.5315  0.2574 -1.5341
  771MPD2    H311385   0.206   0.942  13.842 -1.8765 -1.1250 -0.6033
  771MPD2     N11386   4.567   1.149  13.666  0.0865  0.5699  0.3488
  771MPD2    H511387   4.503   1.226  13.683 -1.4864 -0.7491  0.4703
  771MPD2    N111388   0.153   1.381  13.955 -0.0751 -0.2469 -0.4286
  771MPD2    H711389   0.088   1.459  13.959 -0.0404 -0.2586  0.3608
  772MPD2     C11390   4.532   1.907  14.289  0.1918  0.3937  0.2609
  772MPD2    C111391   4.553   1.795  14.216  0.1774  0.2890  0.0377
  772MPD2    C211392   4.448   1.708  14.198  0.0663  0.0335 -0.3339
  772MPD2    C311393   4.316   1.744  14.236  0.8134 -0.4566 -0.1879
  772MPD2    C411394   4.303   1.857  14.310  0.2464  0.4636 -0.2063
  772MPD2    C511395   4.409   1.942  14.334 -0.7224  0.5359 -0.0230
  772MPD2     H11396   4.476   1.620  14.141 -3.9675 -0.4249 -1.5803
  772MPD2    H111397   4.206   1.884  14.350  0.6934  0.1663  1.0664
  772MPD2    H211398   4.620   1.967  14.308  0.0111  0.4086  1.0425
  772MPD2    H311399   4.403   2.038  14.385  0.5201  0.5269  0.1304
  772MPD2     N11400   4.197   1.685  14.189 -0.1956  0.2305 -0.3271
  772MPD2    H511401   4.108   1.715  14.227 -0.8534  0.3635 -1.9735
  772MPD2    N111402   4.673   1.754  14.163  0.0691 -0.2127  0.2927
  772MPD2    H711403   4.667   1.667  14.110  4.6919 -1.7823  2.2874
  773MPD2     C11404   2.756   3.006   0.579 -0.0582 -0.2417  0.0702
  773MPD2    C111405   2.823   2.934   0.479 -0.2025  0.1402 -0.3202
  773MPD2    C211406   2.948   2.886   0.508  0.4018  0.3158  0.1951
  773MPD2    C311407   3.006   2.914   0.626 -0.2944 -0.7393 -0.0247
  773MPD2    C411408   2.942   2.984   0.724  0.1527  0.4078  0.3280
  773MPD2    C511409   2.816   3.028   0.704 -0.1241 -0.0388  0.4665
  773MPD2     H11410   3.004   2.831   0.434 -0.2598 -1.1688  0.7884
  773MPD2    H111411   2.992   3.017   0.814  0.8020 -2.0782  0.8627
  773MPD2    H211412   2.657   3.046   0.559 -0.0872 -0.8924 -1.0955
  773MPD2    H311413   2.763   3.077   0.785 -1.4055 -0.8714  0.1301
  773MPD2     N11414   3.139   2.862   0.645 -0.5032  0.1335 -0.4602
  773MPD2    H511415   3.184   2.812   0.569  3.1098  2.4132  0.1950
  773MPD2    N111416   2.787   2.936   0.343 -0.4684 -0.1582  0.1489
  773MPD2    H711417   2.847   2.891   0.274 -0.0603  0.5441  0.0529
  774MPD2     C11418   3.124   2.054  12.953 -0.3006 -0.0278  0.2826
  774MPD2    C111419   3.096   2.121  13.068 -0.2812  0.4400 -0.3952
  774MPD2    C211420   3.032   2.246  13.056  0.8347  0.5775  0.2205
  774MPD2    C311421   3.016   2.301  12.928 -0.1328 -0.0524 -0.5317
  774MPD2    C411422   3.066   2.239  12.822 -0.2127  0.1567  0.6714
  774MPD2    C511423   3.114   2.114  12.830  0.4288 -0.0492  0.7122
  774MPD2     H11424   3.014   2.294  13.151 -2.7017 -1.0441  0.4043
  774MPD2    H111425   3.068   2.287  12.725 -1.7357  1.6197  1.3613
  774MPD2    H211426   3.159   1.951  12.948 -0.1911  0.0924 -1.6874
  774MPD2    H311427   3.148   2.055  12.745 -3.9471 -0.7956 -0.5716
  774MPD2     N11428   2.955   2.420  12.926 -0.0255  0.4067 -0.5884
  774MPD2    H511429   2.925   2.464  13.013 -0.6555  0.3897 -0.7937
  774MPD2    N111430   3.096   2.054  13.187  0.1577  0.2768  0.1307
  774MPD2    H711431   3.056   2.099  13.268 -0.8081  2.1494 -1.3768
  775MPD2     C11432   3.954   3.855  16.065 -0.0518 -0.7169 -0.1725
  775MPD2    C111433   3.953   3.840  15.928 -0.8459 -0.7541  0.5133
  775MPD2    C211434   4.053   3.894  15.855 -0.1641 -0.1385  0.1138
  775MPD2    C311435   4.148   3.971  15.919  0.1199  0.9332 -0.1369
  775MPD2    C411436   4.142   3.997  16.053  0.7765  0.1471  0.6801
  775MPD2    C511437   4.049   3.932  16.125 -0.2069  0.0587 -0.0752
  775MPD2     H11438   4.051   3.890  15.747  0.5448 -2.4412  0.1826
  775MPD2    H111439   4.210   4.065  16.102 -0.4001  0.1550  2.2813
  775MPD2    H211440   3.873   3.818  16.128 -0.4209 -0.9646 -0.7962
  775MPD2    H311441   4.046   3.942  16.233 -0.7252  2.4979 -0.3313
  775MPD2     N11442   4.240   4.049  15.850  0.2173  0.4450  1.1092
  775MPD2    H511443   4.298   4.115  15.900  1.5663  0.6095 -0.6742
  775MPD2    N111444   3.838   3.778  15.869  0.3011  0.3266  0.0857
  775MPD2    H711445   3.771   3.744  15.937 -0.8441  0.0965 -1.1710
  776MPD2     C11446   3.394   3.162  11.646  0.9285 -0.1347  0.0837
  776MPD2    C111447   3.261   3.166  11.598 -0.4176  0.6440 -0.0957
  776MPD2    C211448   3.189   3.281  11.629 -0.3240  0.9750 -0.3597
  776MPD2    C311449   3.235   3.372  11.721  0.3148 -0.2933 -0.4007
  776MPD2    C411450   3.359   3.354  11.776 -0.1726  0.0876 -0.4809
  776MPD2    C511451   3.438   3.254  11.730 -0.6118 -0.2987 -0.1363
  776MPD2     H11452   3.085   3.294  11.601 -0.6151  3.3146  1.8523
  776MPD2    H111453   3.394   3.436  11.839  1.1045 -1.3576  0.6952
  776MPD2    H211454   3.465   3.082  11.631 -0.1130 -1.3505  1.6628
  776MPD2    H311455   3.536   3.250  11.777  0.1328  0.6824 -1.6499
  776MPD2     N11456   3.173   3.490  11.768 -0.2791  0.0218 -0.5769
  776MPD2    H511457   3.220   3.549  11.836 -0.4788 -0.8600  0.3252
  776MPD2    N111458   3.220   3.074  11.499  0.1254  0.1925 -0.3413
  776MPD2    H711459   3.286   3.008  11.461 -2.1370 -2.5762  0.5431
  777MPD2     C11460   3.073   1.503   0.707  0.2877 -0.1618 -0.0293
  777MPD2    C111461   3.100   1.366   0.718 -0.5508 -0.3218  0.4557
  777MPD2    C211462   3.066   1.288   0.608  0.0469  0.0994 -0.5880
  777MPD2    C311463   3.012   1.346   0.495 -0.6664  0.7400 -0.7571
  777MPD2    C411464   2.974   1.477   0.492  0.1452 -0.4121  0.4518
  777MPD2    C511465   3.003   1.553   0.602 -0.2824 -0.0413  0.0682
  777MPD2     H11466   3.085   1.182   0.606 -2.5159 -0.3570 -0.5845
  777MPD2    H111467   2.942   1.521   0.398  2.9895  0.4322 -0.1102
  777MPD2    H211468   3.096   1.572   0.788 -1.8172  0.4031  0.0954
  777MPD2    H311469   2.989   1.661   0.599 -0.8957 -0.0637  2.3048
  777MPD2     N11470   2.994   1.266   0.384  0.9202  0.3554 -0.4475
  777MPD2    H511471   3.017   1.167   0.390  1.1709  0.4590  0.3784
  777MPD2    N111472   3.157   1.309   0.832  0.1336  0.2090 -0.0374
  777MPD2    H711473   3.166   1.364   0.916  1.3907 -0.7659  0.4638
  778MPD2     C11474   4.581   1.639  15.280 -0.3337 -0.6996  0.7099
  778MPD2    C111475   4.483   1.604  15.189  0.5474 -0.0294  0.3544
  778MPD2    C211476   4.488   1.664  15.065  0.1911  0.6182  0.6295
  778MPD2    C311477   4.587   1.748  15.027  0.0023  0.1877 -0.7419
  778MPD2    C411478   4.688   1.779  15.115  0.0770 -1.2364  0.1635
  778MPD2    C511479   4.682   1.719  15.234  0.5275 -0.0223  0.1654
  778MPD2     H11480   4.413   1.634  14.993  0.3148  1.4404  0.1617
  778MPD2    H111481   0.051   1.840  15.092 -0.8189  0.0869  0.3149
  778MPD2    H211482   4.590   1.611  15.385  1.8716 -2.3961  0.0643
  778MPD2    H311483   0.037   1.742  15.306  1.1762  1.2966 -0.9622
  778MPD2     N11484   4.601   1.780  14.888 -0.5014 -0.3402  0.0837
  778MPD2    H511485   4.522   1.760  14.828  0.9286 -1.1985 -1.4765
  778MPD2    N111486   4.386   1.505  15.218 -0.4146  1.1629 -0.7440
  778MPD2    H711487   4.318   1.494  15.143 -1.1413  1.8512 -0.1851
  779MPD2     C11488   4.528   0.396  14.170  0.3618 -0.2780 -0.6829
  779MPD2    C111489   4.552   0.419  14.304 -0.0693  0.1606 -0.1493
  779MPD2    C211490   4.535   0.543  14.346  0.2023  0.6357  0.2579
  779MPD2    C311491   4.499   0.644  14.267 -0.0715  0.6871 -0.1961
  779MPD2    C411492   4.480   0.627  14.137  0.4340 -0.4336 -0.4280
  779MPD2    C511493   4.487   0.501  14.088 -0.5624 -0.5094 -0.5158
  779MPD2     H11494   4.541   0.556  14.454  0.2914  4.1505 -0.1951
  779MPD2    H111495   4.457   0.702  14.063 -2.3740 -0.1089  0.7625
  779MPD2    H211496   4.527   0.303  14.114  0.2362 -1.0176  0.5537
  779MPD2    H311497   4.457   0.483  13.985 -1.1121 -1.0831 -0.2565
  779MPD2     N11498   4.496   0.770  14.328 -0.0634 -0.1605  0.1665
  779MPD2    H511499   4.536   0.774  14.421 -0.0538 -2.3793  0.2734
  779MPD2    N111500   4.570   0.319  14.403  0.0158  0.1460  0.7503
  779MPD2    H711501   4.575   0.356  14.498  1.2798 -2.0299  1.5490
  780MPD2     C11502   3.958   0.070   0.354  0.3480 -0.6332  0.2478
  780MPD2    C111503   3.858   0.055   0.257  0.9026 -0.8398  0.3223
  780MPD2    C211504   3.793   0.172   0.223  0.5342  0.2106 -0.1526
  780MPD2    C311505   3.829   0.294   0.278 -0.6187 -0.4049 -0.1486
  780MPD2    C411506   3.932   0.302   0.366  0.2694 -0.6169 -0.5541
  780MPD2    C511507   3.991   0.189   0.405  0.3986 -0.3473 -0.0623
  780MPD2     H11508   3.719   0.168   0.144  0.9285  1.3879 -0.5849
  780MPD2    H111509   3.968   0.394   0.410 -0.2631 -1.0673  0.8496
  780MPD2    H211510   4.024   4.712   0.385  0.7692 -0.7823 -1.0303
  780MPD2    H311511   4.067   0.188   0.483 -0.6897 -1.9311  0.9442
  780MPD2     N11512   3.754   0.405   0.238  0.3471  0.3861 -0.8615
  780MPD2    H511513   3.680   0.382   0.172 -0.5761 -1.8855  0.9622
  780MPD2    N111514   3.811   4.648   0.232  0.1809 -0.2291  0.3303
  780MPD2    H711515   3.855   4.574   0.285  1.0488  0.5277  0.6621
  781MPD2     C11516   0.875   1.786  12.114 -0.9057 -0.4055 -0.3613
  781MPD2    C111517   0.879   1.916  12.159  0.5461 -0.2399 -0.7010
  781MPD2    C211518   0.944   2.010  12.082  0.2750  0.2517 -0.5234
  781MPD2    C311519   1.023   1.974  11.970  0.1149  0.2795  0.7411
  781MPD2    C411520   1.029   1.842  11.928  0.3637 -0.5482  0.0174
  781MPD2    C511521   0.960   1.757  12.005  0.0372  0.2996 -0.0711
  781MPD2     H11522   0.942   2.114  12.114 -0.7297  0.9586 -2.9035
  781MPD2    H111523   1.081   1.809  11.839 -1.5117 -2.2240 -0.4516
  781MPD2    H211524   0.822   1.704  12.159  2.7155 -1.2726  2.3268
  781MPD2    H311525   0.979   1.657  11.968  2.3863  1.0925 -1.0597
  781MPD2     N11526   1.107   2.063  11.895  0.2859 -0.1092 -0.4404
  781MPD2    H511527   1.159   2.020  11.819 -0.4626  0.4215 -1.2454
  781MPD2    N111528   0.811   1.946  12.277  0.5854 -0.3072 -0.0488
  781MPD2    H711529   0.794   2.044  12.296 -0.7132 -0.3935 -0.7553
  782MPD2     C11530   4.054   2.363  10.047  0.3554  0.0192  0.0206
  782MPD2    C111531   4.131   2.353  10.165  0.5399  0.1401  0.2274
  782MPD2    C211532   4.114   2.436  10.273 -0.7858  0.4022 -0.0719
  782MPD2    C311533   4.022   2.542  10.262  0.5304 -0.3855  0.0066
  782MPD2    C411534   3.951   2.555  10.144 -0.6863  0.2912 -0.2771
  782MPD2    C511535   3.978   2.477  10.033 -0.5292  0.0360  0.1359
  782MPD2     H11536   4.186   2.413  10.351  0.5211 -0.8225 -1.6455
  782MPD2    H111537   3.877   2.633  10.129 -0.9219 -0.1200 -1.2312
  782MPD2    H211538   4.066   2.292   9.965  3.3829  1.1429 -0.5078
  782MPD2    H311539   3.933   2.506   9.939 -1.3978  1.3021  0.9373
  782MPD2     N11540   4.023   2.628  10.370  0.4558  0.3347  0.3023
  782MPD2    H511541   4.089   2.606  10.444 -1.1694 -1.0497  1.3297
  782MPD2    N111542   4.216   2.242  10.186 -0.2993  0.5779  0.1335
  782MPD2    H711543   4.256   2.234  10.279 -2.0506  0.0570  0.8571
  783MPD2     C11544   4.037   1.705  10.797  0.6274  0.6632  0.2331
  783MPD2    C111545   4.007   1.830  10.759  0.2445  0.2332 -0.5604
  783MPD2    C211546   4.093   1.894  10.669  0.1724 -0.6469  0.2765
  783MPD2    C311547   4.199   1.820  10.617  0.4436 -0.0123  0.3423
  783MPD2    C411548   4.230   1.692  10.660  0.2583  0.6099  0.8506
  783MPD2    C511549   4.148   1.634  10.759 -0.1567  0.2243  0.3247
  783MPD2     H11550   4.081   2.000  10.646  0.9622 -0.6240 -0.0216
  783MPD2    H111551   4.314   1.636  10.621 -0.4366  1.7476 -2.2872
  783MPD2    H211552   3.959   1.652  10.852  1.8379  0.5060  1.8030
  783MPD2    H311553   4.151   1.530  10.788  1.8382 -0.1149 -1.1233
  783MPD2     N11554   4.275   1.886  10.518  0.1899  0.4235 -0.4910
  783MPD2    H511555   4.240   1.978  10.497 -0.7492  0.1149 -0.2663
  783MPD2    N111556   3.891   1.893  10.811  0.4822 -0.4496 -0.0008
  783MPD2    H711557   3.845   1.849  10.891 -2.2066  0.6368 -0.9644
  784MPD2     C11558   0.667   3.673   1.709  0.2503  0.0940 -0.3488
  784MPD2    C111559   0.725   3.796   1.699  0.0205 -0.6047 -0.3159
  784MPD2    C211560   0.670   3.900   1.629 -0.6057  0.3580 -0.3710
  784MPD2    C311561   0.570   3.874   1.543  0.2449 -0.3940 -0.0588
  784MPD2    C411562   0.508   3.756   1.546 -0.8499 -0.2884 -0.2166
  784MPD2    C511563   0.561   3.656   1.625 -0.3967  0.1406 -0.3955
  784MPD2     H11564   0.729   3.992   1.628 -0.2704  0.1463 -0.1535
  784MPD2    H111565   0.427   3.722   1.484 -0.9978 -0.2363 -0.0521
  784MPD2    H211566   0.711   3.582   1.750 -0.9833 -0.1001  0.5575
  784MPD2    H311567   0.508   3.563   1.609  2.0395 -1.5171  1.2046
  784MPD2     N11568   0.524   3.974   1.451 -0.1411 -0.9851 -0.2021
  784MPD2    H511569   0.540   4.070   1.480 -4.3030 -0.9642  1.9782
  784MPD2    N111570   0.848   3.822   1.761 -0.4847 -0.2332  0.3572
  784MPD2    H711571   0.892   3.911   1.743  0.1005 -0.8075 -1.0333
  785MPD2     C11572   1.780   1.333  10.833  0.3748 -0.7824  0.7236
  785MPD2    C111573   1.670   1.413  10.836  0.5658  0.1963 -0.3701
  785MPD2    C211574   1.552   1.369  10.772  0.9310 -0.2388 -0.4199
  785MPD2    C311575   1.547   1.242  10.711 -0.4161 -0.1709 -0.6807
  785MPD2    C411576   1.663   1.160  10.709 -0.3719 -0.4685 -0.2650
  785MPD2    C511577   1.773   1.214  10.765 -0.3263  0.1607  0.7416
  785MPD2     H11578   1.461   1.427  10.774  1.7223  1.0504 -1.6302
  785MPD2    H111579   1.669   1.063  10.661 -1.0953 -0.2081 -0.8947
  785MPD2    H211580   1.876   1.363  10.875  1.6548 -1.8765 -1.4061
  785MPD2    H311581   1.864   1.155  10.768 -0.3966  0.0900  1.4614
  785MPD2     N11582   1.423   1.211  10.645 -0.1037 -0.2660  0.6018
  785MPD2    H511583   1.345   1.276  10.648  0.2953  0.2014  0.9951
  785MPD2    N111584   1.683   1.538  10.908  0.5754 -0.0714  0.0846
  785MPD2    H711585   1.761   1.551  10.971 -0.5410 -1.7630  1.8293
  786MPD2     C11586   4.578   4.427  14.592 -0.2661  0.3547  0.3958
  786MPD2    C111587   4.706   4.379  14.620  0.4907  0.8294 -0.0327
  786MPD2    C211588   0.071   4.454  14.687 -0.6011 -0.4121 -0.1939
  786MPD2    C311589   0.031   4.574  14.745  0.5861 -0.0146  0.5376
  786MPD2    C411590   4.627   4.615  14.726 -0.1984 -0.2874  0.4413
  786MPD2    C511591   4.538   4.542  14.653 -0.0300  0.1372 -0.0500
  786MPD2     H11592   0.174   4.421  14.686 -0.2203  0.7297  0.7708
  786MPD2    H111593   4.593   4.698  14.786 -1.6411  0.4176 -1.3599
  786MPD2    H211594   4.499   4.379  14.535  3.2070 -1.3556 -2.9961
  786MPD2    H311595   4.438   4.583  14.642 -0.4976 -0.4451  2.1645
  786MPD2     N11596   0.114   4.657  14.829 -0.6055 -0.2048  0.4633
  786MPD2    H511597   0.067   0.014  14.870  1.3635  1.4160 -0.4789
  786MPD2    N111598   0.042   4.271  14.552  0.3848  0.6402 -0.1514
  786MPD2    H711599   0.133   4.243  14.587 -0.1953 -1.2424 -0.1585
  787MPD2     C11600   0.272   3.756  14.822  0.0753 -0.4106  0.1321
  787MPD2    C111601   0.353   3.773  14.714  0.6407 -0.4395  0.7198
  787MPD2    C211602   0.487   3.741  14.731 -0.1504  0.3379 -1.2257
  787MPD2    C311603   0.533   3.688  14.848  0.1776  0.1416  0.2069
  787MPD2    C411604   0.451   3.672  14.952  0.5701  0.0493  0.1628
  787MPD2    C511605   0.322   3.705  14.940  0.2212  0.2098  0.1676
  787MPD2     H11606   0.558   3.765  14.652 -0.3063  0.0195 -1.4657
  787MPD2    H111607   0.476   3.639  15.053  2.5515  1.3614  0.0966
  787MPD2    H211608   0.165   3.773  14.815 -0.3443 -1.6872  3.0776
  787MPD2    H311609   0.251   3.713  15.022  0.5827 -0.7723  0.5735
  787MPD2     N11610   0.675   3.646  14.854  0.0991 -0.2111  0.8424
  787MPD2    H511611   0.730   3.663  14.771  1.0247 -2.0687  1.0868
  787MPD2    N111612   0.294   3.841  14.613 -0.0214 -0.1765  0.2820
  787MPD2    H711613   0.193   3.846  14.606 -0.1292 -2.7088  0.3157
  788MPD2     C11614   2.288   2.649   1.317  0.2565 -0.3687 -0.0703
  788MPD2    C111615   2.264   2.541   1.230 -0.8636  0.1342 -0.1093
  788MPD2    C211616   2.255   2.559   1.091 -0.0684 -0.3410  0.5220
  788MPD2    C311617   2.262   2.689   1.047 -1.3731 -1.2297  0.2232
  788MPD2    C411618   2.272   2.793   1.131  0.1074 -0.6536 -0.3317
  788MPD2    C511619   2.282   2.773   1.261 -0.5892  0.2756 -0.5819
  788MPD2     H11620   2.252   2.471   1.027 -1.7702  1.8512 -2.4104
  788MPD2    H111621   2.281   2.893   1.090  0.2897 -0.7105 -0.4330
  788MPD2    H211622   2.310   2.643   1.423 -3.3681 -0.6406  0.6720
  788MPD2    H311623   2.302   2.859   1.324  1.0765 -0.1127 -0.5862
  788MPD2     N11624   2.267   2.715   0.910 -0.3192 -0.0621 -0.3762
  788MPD2    H511625   2.289   2.810   0.883  0.0762 -0.3162 -0.9481
  788MPD2    N111626   2.279   2.406   1.272  0.2440 -0.5880 -0.1353
  788MPD2    H711627   2.237   2.332   1.217  0.0532 -0.0404 -0.7216
  789MPD2     C11628   2.742   2.684  17.034  0.3702  0.3853 -0.7271
  789MPD2    C111629   2.647   2.628  16.959 -0.3764  0.2797 -0.7933
  789MPD2    C211630   2.547   2.707  16.903 -0.2837  0.1474  0.4765
  789MPD2    C311631   2.537   2.843  16.935  0.3326 -0.3357  0.2324
  789MPD2    C411632   2.634   2.898  17.019  0.5570  0.2012 -0.3716
  789MPD2    C511633   2.736   2.821  17.065  0.3890  0.2624 -0.1960
  789MPD2     H11634   2.466   2.666  16.845  0.4128 -1.5514  0.6941
  789MPD2    H111635   2.632   3.001  17.053 -3.5980 -0.7568  2.2651
  789MPD2    H211636   2.822   2.621  17.073  0.1427 -1.0140 -2.5248
  789MPD2    H311637   2.811   2.859  17.132 -0.6313 -0.5962  1.4321
  789MPD2     N11638   2.418   2.923  16.915  0.4815 -0.1238  0.0484
  789MPD2    H511639   2.408   3.011  16.963 -2.9184 -0.6492  0.2766
  789MPD2    N111640   2.647   2.485  16.939  1.0255  0.3547  0.0505
  789MPD2    H711641   2.699   2.430  17.007  0.4150 -0.4203 -0.0998
  790MPD2     C11642   3.100   4.256  13.314  0.5250 -0.4120  0.4310
  790MPD2    C111643   3.188   4.165  13.368  0.7986  1.0492 -0.1410
  790MPD2    C211644   3.221   4.058  13.290  0.6308  0.1034 -0.3178
  790MPD2    C311645   3.166   4.048  13.158  0.2723 -0.5060  0.2135
  790MPD2    C411646   3.078   4.140  13.108 -0.0796 -0.8266  0.1500
  790MPD2    C511647   3.042   4.244  13.190 -0.9342 -0.0304  0.3780
  790MPD2     H11648   3.274   3.978  13.339  1.7824  1.0334 -0.0460
  790MPD2    H111649   3.031   4.125  13.011 -1.5175  0.8510  0.5907
  790MPD2    H211650   3.080   4.343  13.375 -0.0516 -0.1954 -0.0629
  790MPD2    H311651   2.970   4.319  13.160 -0.5786 -0.7751 -2.3103
  790MPD2     N11652   3.186   3.925  13.088  0.3702 -0.1166 -0.3803
  790MPD2    H511653   3.147   3.918  12.994  3.2493  1.0685 -1.6750
  790MPD2    N111654   3.260   4.197  13.488  0.1407  0.4268 -0.2848
  790MPD2    H711655   3.222   4.273  13.544 -0.6068 -0.1349 -0.0295
  791MPD2     C11656   2.747   3.626  12.892  0.5285 -0.2924  0.4410
  791MPD2    C111657   2.833   3.517  12.867 -0.3297 -0.2517 -0.3312
  791MPD2    C211658   2.774   3.401  12.826 -0.1180 -0.5091  0.3931
  791MPD2    C311659   2.637   3.402  12.784  0.6881 -0.0392 -0.3102
  791MPD2    C411660   2.562   3.514  12.804  0.8031 -0.7698 -0.1380
  791MPD2    C511661   2.615   3.629  12.863 -0.2730 -0.5438 -0.6205
  791MPD2     H11662   2.830   3.314  12.794 -3.0933 -1.7402 -1.5112
  791MPD2    H111663   2.461   3.514  12.766  0.9105 -0.8772 -0.4202
  791MPD2    H211664   2.792   3.716  12.933  2.2112  0.1144 -2.2562
  791MPD2    H311665   2.553   3.713  12.891 -0.6488 -0.8563 -0.5104
  791MPD2     N11666   2.579   3.289  12.731 -0.0280  0.2350  0.4664
  791MPD2    H511667   2.646   3.221  12.697  0.0051  0.9158 -0.8499
  791MPD2    N111668   2.967   3.541  12.907  0.0201  0.5487 -0.4848
  791MPD2    H711669   2.990   3.638  12.928 -1.6136  1.0215 -0.9005
  792MPD2     C11670   3.650   3.834  11.642  0.1145  0.0186 -0.3330
  792MPD2    C111671   3.571   3.875  11.536 -0.4716 -0.1036  0.0752
  792MPD2    C211672   3.486   3.790  11.474 -0.0258 -0.5079  0.0062
  792MPD2    C311673   3.482   3.653  11.520 -0.1329 -0.4609 -0.8960
  792MPD2    C411674   3.562   3.610  11.627  0.2508  0.1752 -0.4483
  792MPD2    C511675   3.656   3.697  11.677  0.2976 -0.3184  1.0720
  792MPD2     H11676   3.435   3.822  11.384 -1.1606  1.0730  1.2015
  792MPD2    H111677   3.555   3.511  11.669  0.1891  0.4417  0.1673
  792MPD2    H211678   3.716   3.902  11.696  0.2383  0.2348 -0.7622
  792MPD2    H311679   3.731   3.662  11.748  2.5240  1.2295 -0.5238
  792MPD2     N11680   3.379   3.561  11.470  0.0761  0.2790  0.7842
  792MPD2    H511681   3.387   3.462  11.491 -0.4766  0.0553 -0.0564
  792MPD2    N111682   3.597   4.005  11.483  1.0954  0.7773 -0.3370
  792MPD2    H711683   3.668   4.052  11.538 -0.2291  0.5812  1.5100
  793MPD2     C11684   2.851   3.543  10.550  0.2265  0.0136  0.0875
  793MPD2    C111685   2.986   3.510  10.546 -0.2129 -0.3545  0.0273
  793MPD2    C211686   3.055   3.485  10.668  0.4921  0.2496  0.1111
  793MPD2    C311687   2.992   3.488  10.790  0.3306  0.7588  1.2649
  793MPD2    C411688   2.859   3.518  10.792  0.2738 -0.5301  0.8364
  793MPD2    C511689   2.787   3.550  10.675  0.3287 -0.0955  0.1467
  793MPD2     H11690   3.163   3.474  10.661  0.4322 -1.3293  1.6482
  793MPD2    H111691   2.800   3.536  10.881  0.8895  0.1358  1.1128
  793MPD2    H211692   2.800   3.575  10.460 -0.1171 -1.8240 -0.3870
  793MPD2    H311693   2.683   3.580  10.684  0.2488 -0.3137 -0.0489
  793MPD2     N11694   3.070   3.463  10.908  0.5627 -0.0222  0.0092
  793MPD2    H511695   3.169   3.446  10.897  0.1326 -2.5212 -0.1220
  793MPD2    N111696   3.072   3.522  10.433 -0.6490  0.1187 -0.1300
  793MPD2    H711697   3.170   3.516  10.456 -1.1073 -1.6237  1.4131
  794MPD2     C11698   2.820   3.530  17.553  0.7642 -0.0814  0.5650
  794MPD2    C111699   2.771   3.435  17.469 -0.2609 -0.0480 -0.0825
  794MPD2    C211700   2.782   3.454  17.332 -1.2874  0.3421 -0.8360
  794MPD2    C311701   2.847   3.571  17.281  0.0565  0.0435 -1.0072
  794MPD2    C411702   2.886   3.668  17.367 -0.3805  1.2572 -0.4912
  794MPD2    C511703   2.877   3.642  17.500  0.2886 -1.1372  0.4763
  794MPD2     H11704   2.738   3.375  17.271  0.6738 -2.1558  0.9850
  794MPD2    H111705   2.922   3.765  17.333 -3.1805  1.9246 -1.6090
  794MPD2    H211706   2.828   3.518  17.660 -2.3326  1.3178  0.9641
  794MPD2    H311707   2.922   3.714  17.567  1.1598 -1.1278 -0.1244
  794MPD2     N11708   2.857   3.608  17.147  0.4150 -0.4758  0.5720
  794MPD2    H511709   2.901   3.698  17.128  2.1307 -1.6717 -1.1489
  794MPD2    N111710   2.709   3.315  17.516 -0.2732  0.0687 -1.1451
  794MPD2    H711711   2.683   3.247  17.446  0.2566  1.1035 -2.3442
  795MPD2     C11712   1.228   0.516  13.714 -0.1942 -0.0788 -0.9163
  795MPD2    C111713   1.248   0.379  13.712  0.1441  0.5552  0.1538
  795MPD2    C211714   1.365   0.322  13.765 -0.0140 -0.8288  0.5211
  795MPD2    C311715   1.452   0.406  13.825  0.1512 -0.4667 -0.0208
  795MPD2    C411716   1.433   0.546  13.824 -0.0768 -0.0122  0.5387
  795MPD2    C511717   1.318   0.599  13.774  0.4880  0.2136 -0.3622
  795MPD2     H11718   1.389   0.217  13.747  0.2076 -0.3789 -1.7499
  795MPD2    H111719   1.505   0.615  13.867  1.4530  1.2595 -4.0773
  795MPD2    H211720   1.139   0.563  13.673 -1.8366  0.0306  2.7400
  795MPD2    H311721   1.309   0.707  13.777  1.1845  0.2644 -0.0599
  795MPD2     N11722   1.570   0.344  13.873  0.4027  0.1090 -0.3110
  795MPD2    H511723   1.566   0.243  13.878 -0.2964  0.2049  0.9940
  795MPD2    N111724   1.144   0.304  13.650  0.5320 -0.5892  0.1894
  795MPD2    H711725   1.051   0.344  13.641  0.4231 -0.8355  0.2132
  796MPD2     C11726   0.485   2.747  16.195  0.4056  0.3776  0.2538
  796MPD2    C111727   0.568   2.803  16.288  1.1236 -0.0600  0.2188
  796MPD2    C211728   0.579   2.943  16.280  0.3232 -0.3288  0.5091
  796MPD2    C311729   0.507   3.022  16.201 -1.1552 -0.0707 -0.7085
  796MPD2    C411730   0.428   2.964  16.105  0.8138 -0.2184  0.2874
  796MPD2    C511731   0.414   2.822  16.099 -0.2890  0.1950  0.0409
  796MPD2     H11732   0.648   2.986  16.352 -0.4398  0.0029  1.0535
  796MPD2    H111733   0.369   3.029  16.041  0.4748  1.0395  1.8849
  796MPD2    H211734   0.473   2.640  16.193  1.4977  0.2376  1.0928
  796MPD2    H311735   0.334   2.787  16.035 -0.4878 -0.4795  0.6552
  796MPD2     N11736   0.513   3.160  16.219  0.3737 -0.1523 -0.0504
  796MPD2    H511737   0.568   3.191  16.298 -1.6911 -2.0906  2.1187
  796MPD2    N111738   0.637   2.717  16.378  0.5853 -0.2844 -0.6966
  796MPD2    H711739   0.603   2.622  16.384  0.3844 -0.2227 -0.8421
  797MPD2     C11740   1.583   2.150  17.559  0.3333 -0.6381 -0.5347
  797MPD2    C111741   1.701   2.221  17.570  0.7226 -0.3843  0.4247
  797MPD2    C211742   1.711   2.346  17.518 -0.0182 -0.5621 -0.0015
  797MPD2    C311743   1.606   2.402  17.435 -0.5869  0.5620  0.5457
  797MPD2    C411744   1.492   2.324  17.426 -0.5781 -0.1215 -0.2177
  797MPD2    C511745   1.482   2.204  17.491 -0.5392  0.4196 -0.0805
  797MPD2     H11746   1.804   2.401  17.526 -0.3502  0.1644 -1.0416
  797MPD2    H111747   1.405   2.350  17.367 -1.1869  0.7608  1.0741
  797MPD2    H211748   1.576   2.054  17.608 -0.7464 -0.9873 -1.3736
  797MPD2    H311749   1.391   2.147  17.484  0.0915 -0.4816 -0.9466
  797MPD2     N11750   1.633   2.513  17.352  0.1588 -0.7736  0.0115
  797MPD2    H511751   1.558   2.539  17.289  1.4017  0.0730 -1.0945
  797MPD2    N111752   1.818   2.161  17.634  0.1019 -0.2660  0.7820
  797MPD2    H711753   1.885   2.235  17.651 -1.2625  0.2176  4.1127
  798MPD2     C11754   2.358   2.502  17.230  0.2439 -0.5813  0.1715
  798MPD2    C111755   2.241   2.515  17.300 -0.5152  0.2476  0.7262
  798MPD2    C211756   2.218   2.432  17.407 -0.8376 -0.2588 -0.3855
  798MPD2    C311757   2.301   2.337  17.454 -0.6569  0.6131  0.1747
  798MPD2    C411758   2.423   2.320  17.388 -0.1318  0.2548 -0.7539
  798MPD2    C511759   2.438   2.402  17.278 -0.1109 -0.1409 -0.5345
  798MPD2     H11760   2.125   2.452  17.459  0.0184  0.8131  0.7591
  798MPD2    H111761   2.504   2.255  17.417 -2.1926 -1.7663  0.4307
  798MPD2    H211762   2.379   2.555  17.138 -0.3998 -1.0769 -0.2623
  798MPD2    H311763   2.529   2.388  17.220  1.0543  0.8612  1.0624
  798MPD2     N11764   2.249   2.250  17.555  0.4394  0.2001  0.5461
  798MPD2    H511765   2.155   2.275  17.584 -0.0948 -0.4822 -0.5735
  798MPD2    N111766   2.132   2.606  17.263  0.1628 -0.0354 -0.6922
  798MPD2    H711767   2.058   2.623  17.330  0.6643 -1.7706  0.2821
  799MPD2     C11768   0.234   3.314  14.835  0.6622 -0.3172  0.7202
  799MPD2    C111769   0.136   3.230  14.879 -0.2501  0.5198  0.7432
  799MPD2    C211770   0.005   3.261  14.832 -0.2451  0.5409  0.2236
  799MPD2    C311771   4.706   3.360  14.740  0.1214 -0.1101 -0.0061
  799MPD2    C411772   0.088   3.427  14.694  0.0511  0.0435  0.0801
  799MPD2    C511773   0.208   3.412  14.749 -0.2191  0.8278  0.6236
  799MPD2     H11774   4.643   3.209  14.874  0.1359 -0.4494 -0.2237
  799MPD2    H111775   0.083   3.511  14.625  2.0548  0.7325  0.7568
  799MPD2    H211776   0.338   3.299  14.863  0.9412 -1.8135 -1.0988
  799MPD2    H311777   0.286   3.479  14.714  1.7091 -1.4966  0.4140
  799MPD2     N11778   4.584   3.398  14.685  0.3312 -0.2163 -0.0054
  799MPD2    H511779   4.593   3.469  14.613  3.4604 -0.4116  0.1997
  799MPD2    N111780   0.151   3.123  14.965  0.6682 -0.3334 -0.0544
  799MPD2    H711781   0.066   3.069  14.983  1.2997 -1.8961 -1.7463
  800MPD2     C11782   0.911   0.042  14.337 -0.0386 -0.3801 -0.7799
  800MPD2    C111783   1.044   0.011  14.351  0.3724  0.2299 -0.0559
  800MPD2    C211784   1.083   4.608  14.302  0.7431 -0.2233  0.0757
  800MPD2    C311785   0.992   4.519  14.242  0.6531  0.4790  0.6774
  800MPD2    C411786   0.863   4.562  14.234  0.1229  0.7330 -0.4068
  800MPD2    C511787   0.818   4.680  14.290 -0.9260 -0.0952  0.2900
  800MPD2     H11788   1.180   4.563  14.313  0.3594 -0.7199  1.4360
  800MPD2    H111789   0.782   4.515  14.178  0.8880 -1.5336  0.3938
  800MPD2    H211790   0.866   0.135  14.371 -0.8378 -1.0688  0.0460
  800MPD2    H311791   0.717   4.717  14.282 -2.1638 -3.2477  1.0203
  800MPD2     N11792   1.033   4.398  14.188 -0.1507 -0.3314  0.0320
  800MPD2    H511793   1.132   4.378  14.198 -0.9352 -2.7005  2.9303
  800MPD2    N111794   1.128   0.108  14.398  0.6775 -0.1733 -0.0976
  800MPD2    H711795   1.078   0.184  14.442  1.5977 -0.0200  0.6821
  801MPD2     C11796   1.058   0.772  14.658  0.1771 -0.2276 -0.1397
  801MPD2    C111797   1.016   0.668  14.579 -0.1030 -0.2952  0.0325
  801MPD2    C211798   0.887   0.661  14.549  0.9407  0.5071  0.6749
  801MPD2    C311799   0.791   0.753  14.595  0.3317 -0.1446  0.0298
  801MPD2    C411800   0.831   0.859  14.673  0.0066  0.0027  0.4266
  801MPD2    C511801   0.964   0.871  14.692 -0.1231 -0.2969 -0.3022
  801MPD2     H11802   0.868   0.566  14.502 -1.0177  0.4436  1.5888
  801MPD2    H111803   0.764   0.929  14.723 -1.3145  0.8847 -2.6162
  801MPD2    H211804   1.161   0.789  14.683  0.0826  1.7934 -1.0746
  801MPD2    H311805   1.004   0.957  14.744 -0.9359 -0.4026  0.5078
  801MPD2     N11806   0.650   0.745  14.557 -0.1646  0.1852 -0.1783
  801MPD2    H511807   0.585   0.817  14.586  0.7135  0.8017  0.2654
  801MPD2    N111808   1.108   0.570  14.522 -0.0310 -0.3482  0.2819
  801MPD2    H711809   1.065   0.483  14.491  0.7372 -0.0947 -1.4745
  802MPD2     C11810   4.645   0.922   0.533  0.2125  0.2439 -0.3717
  802MPD2    C111811   4.653   1.047   0.487  0.5455 -0.1246  0.6720
  802MPD2    C211812   0.048   1.086   0.425 -0.1293  0.2726  0.1509
  802MPD2    C311813   0.155   1.007   0.419 -0.1688 -0.1962 -0.9705
  802MPD2    C411814   0.148   0.878   0.458 -0.2185 -0.3726 -0.2249
  802MPD2    C511815   0.028   0.840   0.509 -0.1903 -0.4283  0.3497
  802MPD2     H11816   0.061   1.186   0.386  1.3005 -0.1745 -0.5206
  802MPD2    H111817   0.230   0.807   0.453  0.4332  0.2237  2.0807
  802MPD2    H211818   4.553   0.879   0.571  0.0405  0.1523 -0.8992
  802MPD2    H311819   0.024   0.738   0.548 -0.5653 -0.0247  1.3682
  802MPD2     N11820   0.264   1.064   0.352  0.5390  0.4082 -0.0228
  802MPD2    H511821   0.243   1.151   0.305  1.0044  0.5040 -0.0582
  802MPD2    N111822   4.536   1.121   0.486  0.3951 -0.1652  0.2454
  802MPD2    H711823   4.459   1.071   0.529  0.8961 -1.8639 -0.8359
  803MPD2     C11824   1.552   3.689  11.631 -0.4619  0.0315  0.3029
  803MPD2    C111825   1.622   3.673  11.744 -0.1474 -0.7230  0.1039
  803MPD2    C211826   1.580   3.576  11.832  0.0929 -0.4170  0.5432
  803MPD2    C311827   1.472   3.496  11.810 -0.0309 -0.6228 -0.6247
  803MPD2    C411828   1.401   3.511  11.691 -0.8151 -0.2819  0.6066
  803MPD2    C511829   1.448   3.610  11.604 -0.1513  0.4487  0.2621
  803MPD2     H11830   1.638   3.563  11.923 -0.3211 -0.6735  0.7680
  803MPD2    H111831   1.314   3.453  11.661 -1.2456  1.8178 -2.2291
  803MPD2    H211832   1.581   3.769  11.565 -0.2334  0.1069  0.4947
  803MPD2    H311833   1.404   3.637  11.509 -1.1419 -3.0014 -0.2871
  803MPD2     N11834   1.415   3.411  11.906  0.0324 -0.7403 -0.2419
  803MPD2    H511835   1.323   3.377  11.883 -0.2623  0.6690 -1.1757
  803MPD2    N111836   1.738   3.748  11.785 -0.8984  0.2311 -0.1745
  803MPD2    H711837   1.758   3.747  11.884  0.2790 -0.6598 -0.4167
  804MPD2     C11838   0.887   0.705  17.013  0.9930  0.6294 -0.5926
  804MPD2    C111839   0.854   0.709  17.148 -0.2008  0.1711 -0.5235
  804MPD2    C211840   0.910   0.811  17.222 -0.7746 -0.3491  0.6433
  804MPD2    C311841   0.983   0.911  17.153 -0.1110  0.3098 -0.1511
  804MPD2    C411842   1.019   0.894  17.027 -0.2748  0.3265  0.4075
  804MPD2    C511843   0.972   0.794  16.951  0.5834  0.1141  0.1902
  804MPD2     H11844   0.871   0.821  17.323 -1.4152 -0.5352  0.4168
  804MPD2    H111845   1.067   0.980  16.982  0.8261 -0.0897  0.7841
  804MPD2    H211846   0.843   0.632  16.946 -2.1606  1.3489  0.6663
  804MPD2    H311847   0.996   0.796  16.846  1.4715  0.7090  0.4011
  804MPD2     N11848   1.020   1.034  17.217 -0.3389  0.0945 -0.3085
  804MPD2    H511849   1.069   1.105  17.164  1.4155 -2.7355 -2.5335
  804MPD2    N111850   0.779   0.614  17.216  0.7203  0.1327 -0.1965
  804MPD2    H711851   0.781   0.622  17.317  2.0042 -3.6065  0.0720
  805MPD2     C11852   4.641   3.961  15.591  0.0495 -0.6059 -0.5837
  805MPD2    C111853   0.028   3.923  15.515  0.3817 -0.0697  0.2181
  805MPD2    C211854   0.156   3.950  15.565 -0.3325 -0.3594  0.7007
  805MPD2    C311855   0.172   4.028  15.681  0.0484  0.8017 -0.2227
  805MPD2    C411856   0.063   4.071  15.750 -0.1817 -0.8723 -0.8257
  805MPD2    C511857   4.661   4.032  15.711 -0.0071 -0.0484  0.1965
  805MPD2     H11858   0.244   3.932  15.505 -1.1154  0.1343 -0.6161
  805MPD2    H111859   0.072   4.145  15.828  2.1264 -2.1384  0.1019
  805MPD2    H211860   4.538   3.937  15.570 -0.2035  0.8114 -0.9500
  805MPD2    H311861   4.578   4.065  15.773 -1.7050 -1.8614 -1.1311
  805MPD2     N11862   0.301   4.035  15.737  0.2663  0.1863  0.3085
  805MPD2    H511863   0.369   3.969  15.700  1.3798  0.7035  1.4648
  805MPD2    N111864   0.015   3.853  15.397 -0.2823 -0.3318 -0.4939
  805MPD2    H711865   0.096   3.834  15.339  1.3209  2.1719  0.8948
  806MPD2     C11866   0.154   2.689   0.216  0.2486  0.2177  0.6239
  806MPD2    C111867   0.275   2.670   0.283 -0.4410 -0.1085 -0.6472
  806MPD2    C211868   0.382   2.755   0.265 -0.0378 -0.2469 -0.1863
  806MPD2    C311869   0.364   2.869   0.188 -0.6989  0.6143  0.9505
  806MPD2    C411870   0.245   2.884   0.119 -0.0614  0.8952 -0.3704
  806MPD2    C511871   0.142   2.792   0.132 -0.4442  0.8092  0.2617
  806MPD2     H11872   0.465   2.747   0.333  0.0866 -0.0759 -0.3161
  806MPD2    H111873   0.227   2.967   0.053  3.0923  1.2451 -0.8219
  806MPD2    H211874   0.066   2.628   0.232 -0.8392  2.0089  1.4597
  806MPD2    H311875   0.049   2.809   0.080 -0.3000 -0.2883 -0.3600
  806MPD2     N11876   0.472   2.965   0.172 -0.0556 -0.4021  0.5581
  806MPD2    H511877   0.556   2.949   0.226  1.4191  1.1667 -1.2553
  806MPD2    N111878   0.282   2.548   0.365  0.5071 -0.2297 -0.8198
  806MPD2    H711879   0.197   2.493   0.362  0.6991 -0.5885  0.1950
  807MPD2     C11880   4.495   2.455   0.882  0.5239 -0.1559  0.3390
  807MPD2    C111881   4.571   2.339   0.867  0.2654  1.0236 -1.0444
  807MPD2    C211882   4.513   2.226   0.915 -0.0798 -0.7011  0.1053
  807MPD2    C311883   4.389   2.222   0.972 -0.3359 -0.1372 -0.3298
  807MPD2    C411884   4.311   2.340   0.975 -0.9074  0.0848 -0.2678
  807MPD2    C511885   4.367   2.451   0.934 -1.1085  0.0818  0.2972
  807MPD2     H11886   4.562   2.130   0.904  0.8279 -0.1280 -0.9845
  807MPD2    H111887   4.223   2.342   1.038 -0.5564  1.2121  0.1738
  807MPD2    H211888   4.525   2.552   0.846 -0.4473  0.3620  0.9390
  807MPD2    H311889   4.311   2.544   0.941 -0.7881  0.2921  0.0638
  807MPD2     N11890   4.348   2.091   1.015  0.3165  0.1985  0.7078
  807MPD2    H511891   4.424   2.024   1.014 -0.6384 -0.8762 -0.8467
  807MPD2    N111892   4.704   2.330   0.818 -0.0447  0.0218  0.1947
  807MPD2    H711893   0.039   2.247   0.818 -1.5047 -0.9927 -0.4767
  808MPD2     C11894   1.181   4.189   9.907 -0.4319  0.0697 -0.2031
  808MPD2    C111895   1.238   4.181  10.038 -0.2952 -0.1267  0.1975
  808MPD2    C211896   1.313   4.285  10.091  0.0707  0.3389  0.3405
  808MPD2    C311897   1.334   4.399  10.013 -1.3389  0.5129 -0.3376
  808MPD2    C411898   1.286   4.398   9.886 -0.2173  0.0020  0.2613
  808MPD2    C511899   1.218   4.295   9.829  0.1259  0.2628  0.1593
  808MPD2     H11900   1.345   4.278  10.194 -1.0741  1.0776  0.7465
  808MPD2    H111901   1.306   4.481   9.820 -1.5340 -1.4443 -1.9493
  808MPD2    H211902   1.125   4.106   9.864 -0.4071 -0.4165  0.7151
  808MPD2    H311903   1.197   4.287   9.723  0.6315  2.2937 -0.0920
  808MPD2     N11904   1.409   4.509  10.060 -0.3850  0.0740 -0.0180
  808MPD2    H511905   1.417   4.592  10.001  0.5802 -0.8404 -1.1820
  808MPD2    N111906   1.228   4.057  10.117 -0.2655 -0.1019 -0.4150
  808MPD2    H711907   1.287   4.044  10.198 -0.5606 -0.3426 -0.2386
  809MPD2     C11908   2.018   0.426   9.699  0.2459 -0.2355  1.2896
  809MPD2    C111909   2.035   0.291   9.725  0.4936 -0.3319  0.0043
  809MPD2    C211910   1.955   0.232   9.826  0.2752 -0.0061 -0.1139
  809MPD2    C311911   1.876   0.313   9.903 -0.3055 -0.0163 -0.0254
  809MPD2    C411912   1.875   0.446   9.891 -0.3699  0.8063  0.4204
  809MPD2    C511913   1.941   0.505   9.782 -0.3067 -0.0251  0.3955
  809MPD2     H11914   1.960   0.126   9.847 -0.4521 -0.4841 -2.3087
  809MPD2    H111915   1.819   0.514   9.955 -2.2654  0.5426 -0.9628
  809MPD2    H211916   2.077   0.477   9.624  1.5673 -1.6277  1.3913
  809MPD2    H311917   1.933   0.613   9.772  3.6657  0.2179 -0.2141
  809MPD2     N11918   1.783   0.252   9.999 -0.1219  0.1550 -0.0801
  809MPD2    H511919   1.736   0.311  10.067 -1.1375  0.3875 -0.9921
  809MPD2    N111920   2.127   0.204   9.658  0.5864  0.3921  0.0233
  809MPD2    H711921   2.121   0.109   9.693 -0.4492  0.6029  0.4143
  810MPD2     C11922   0.799   3.808  10.900  0.4402  0.1123  0.2051
  810MPD2    C111923   0.773   3.836  10.766  0.4155  0.0984 -0.2272
  810MPD2    C211924   0.768   3.966  10.718  0.0862 -0.3825 -0.0072
  810MPD2    C311925   0.760   4.069  10.810  0.6405 -0.0554 -0.6655
  810MPD2    C411926   0.765   4.035  10.941 -0.0825 -0.9068  0.1305
  810MPD2    C511927   0.800   3.908  10.989  0.6277  0.0200  0.2045
  810MPD2     H11928   0.735   3.992  10.618 -1.5300  0.8118  0.8231
  810MPD2    H111929   0.736   4.109  11.015 -1.3051 -1.3517  0.0974
  810MPD2    H211930   0.833   3.709  10.928  0.0593  0.0765  0.5468
  810MPD2    H311931   0.802   3.887  11.095  0.7930 -1.4437 -0.0890
  810MPD2     N11932   0.715   4.205  10.783  0.2298  0.2240 -0.1917
  810MPD2    H511933   0.727   4.275  10.856  1.3216 -0.7300  0.5562
  810MPD2    N111934   0.755   3.726  10.683 -0.1837  0.2775 -0.9922
  810MPD2    H711935   0.751   3.634  10.726 -1.2557  0.9616  0.3869
  811MPD2     C11936   0.095   3.608  10.070 -0.3539  0.3043 -1.0718
  811MPD2    C111937   0.205   3.663  10.135  0.3870  0.4085  0.0530
  811MPD2    C211938   0.231   3.797  10.138 -0.4694  0.1946 -0.2184
  811MPD2    C311939   0.171   3.871  10.047 -0.1446  0.4563 -0.6476
  811MPD2    C411940   0.069   3.822   9.965  0.2391  0.2048 -0.6053
  811MPD2    C511941   0.027   3.692   9.980  0.3839 -0.1258  0.2163
  811MPD2     H11942   0.314   3.835  10.196 -1.0731 -1.3799  1.6757
  811MPD2    H111943   0.016   3.881   9.892  0.7896 -0.0706 -1.2265
  811MPD2    H211944   0.067   3.507  10.097  0.7862  0.4641  0.7485
  811MPD2    H311945   4.666   3.653   9.925 -1.5730  1.2503  2.2118
  811MPD2     N11946   0.223   3.999  10.044 -0.1655 -0.2313  0.2032
  811MPD2    H511947   0.297   4.019  10.110 -0.1449  1.4666 -0.3231
  811MPD2    N111948   0.281   3.582  10.222 -0.0694 -0.1071 -0.1634
  811MPD2    H711949   0.234   3.512  10.279  0.4234 -0.5161 -0.2597
  812MPD2     C11950   4.399   3.364  12.409  0.6655  0.3076  0.2596
  812MPD2    C111951   4.275   3.411  12.451  0.2765 -0.2549 -0.2938
  812MPD2    C211952   4.199   3.337  12.547  0.9742 -0.2188  0.3641
  812MPD2    C311953   4.251   3.227  12.602  0.2896  0.0333 -0.4971
  812MPD2    C411954   4.369   3.178  12.559  0.0804 -0.2548 -0.0882
  812MPD2    C511955   4.441   3.241  12.456 -0.2495  0.4877 -0.3841
  812MPD2     H11956   4.101   3.371  12.580  0.9864  0.0317  0.1416
  812MPD2    H111957   4.404   3.083  12.597 -0.6202 -1.0613 -1.4665
  812MPD2    H211958   4.449   3.416  12.328  0.1703  1.1717  0.5076
  812MPD2    H311959   4.529   3.203  12.405 -0.6850 -0.4807 -0.4049
  812MPD2     N11960   4.182   3.176  12.721  0.2948 -0.2340 -0.0391
  812MPD2    H511961   4.094   3.224  12.734  0.8383  0.1646  2.1837
  812MPD2    N111962   4.219   3.523  12.387 -0.7553 -0.0926 -0.0869
  812MPD2    H711963   4.274   3.561  12.310  1.1023 -1.9987  0.2882
  813MPD2     C11964   3.315   0.682  12.855  0.1972 -0.4166 -0.0484
  813MPD2    C111965   3.409   0.782  12.820 -0.5180 -0.1121  0.0514
  813MPD2    C211966   3.393   0.904  12.880  0.0413 -0.6388 -0.7317
  813MPD2    C311967   3.283   0.932  12.958 -0.0080  0.6094  0.2293
  813MPD2    C411968   3.189   0.831  12.984  0.0297  0.2554 -0.1946
  813MPD2    C511969   3.212   0.704  12.939 -0.1612 -0.1087 -0.1169
  813MPD2     H11970   3.465   0.981  12.857  1.0956 -1.5569 -0.4722
  813MPD2    H111971   3.096   0.845  13.037 -0.2838  1.4012 -1.0435
  813MPD2    H211972   3.329   0.588  12.803 -2.1181 -0.9482  0.2789
  813MPD2    H311973   3.150   0.621  12.972 -1.9884  1.8223  1.2746
  813MPD2     N11974   3.269   1.060  13.011  0.6614 -0.0769  0.3271
  813MPD2    H511975   3.336   1.133  12.987 -0.4913  0.2608 -1.8825
  813MPD2    N111976   3.519   0.741  12.745 -0.7048 -0.3284 -0.8406
  813MPD2    H711977   3.506   0.661  12.684  3.0841 -1.7561  0.2169
  814MPD2     C11978   3.692   1.692  12.088  0.2720 -0.3314  0.8197
  814MPD2    C111979   3.733   1.787  11.999  0.0391  0.2438 -0.4109
  814MPD2    C211980   3.811   1.892  12.045 -0.3869 -0.1597  0.1346
  814MPD2    C311981   3.855   1.896  12.178  0.5515 -0.6256  0.3465
  814MPD2    C411982   3.813   1.799  12.262 -0.2699 -0.4809  0.0936
  814MPD2    C511983   3.728   1.702  12.221  0.1201 -0.5661 -0.0430
  814MPD2     H11984   3.823   1.975  11.977 -1.6042  0.7398  1.0152
  814MPD2    H111985   3.844   1.806  12.366 -2.3254 -0.7350  0.7381
  814MPD2    H211986   3.634   1.605  12.059  0.6983 -0.6470  0.9159
  814MPD2    H311987   3.698   1.623  12.290 -2.2325  0.2628 -0.1410
  814MPD2     N11988   3.931   1.999  12.226 -0.1388  0.0279 -0.1853
  814MPD2    H511989   3.930   2.023  12.324  3.7037  1.7558 -0.5832
  814MPD2    N111990   3.691   1.792  11.869 -0.2313  0.0338 -0.1676
  814MPD2    H711991   3.726   1.870  11.813 -0.5864  0.1581 -0.2159
  815MPD2     C11992   4.455   0.791  12.117  0.6942 -0.6497 -0.0186
  815MPD2    C111993   4.468   0.656  12.087  0.5988  0.1651  0.9028
  815MPD2    C211994   4.431   0.575  12.190 -0.3987 -0.1366  0.3384
  815MPD2    C311995   4.370   0.627  12.299  0.0430 -0.5992  0.8098
  815MPD2    C411996   4.365   0.757  12.330 -0.3809  0.4469  0.1919
  815MPD2    C511997   4.409   0.841  12.233 -0.4639 -0.5808 -0.3166
  815MPD2     H11998   4.444   0.468  12.181 -2.3541 -0.3586  0.1805
  815MPD2    H111999   4.321   0.790  12.423 -2.0405  0.2097 -0.5069
  815MPD2    H212000   4.484   0.860  12.039 -0.1597  0.6526  0.8256
  815MPD2    H312001   4.404   0.948  12.249  0.7167 -0.8022  1.4576
  815MPD2     N12002   4.304   0.527  12.375 -0.0210 -0.0087 -0.3191
  815MPD2    H512003   4.328   0.430  12.356  0.1855  0.2160 -1.2221
  815MPD2    N112004   4.514   0.615  11.956  0.4529  0.7137  0.0090
  815MPD2    H712005   4.534   0.686  11.885  1.9818  1.2918  1.0269
  816MPD2     C12006   0.048   0.353  17.599  0.1018 -0.1597  0.2509
  816MPD2    C112007   4.676   0.277  17.530  0.7742 -0.2751 -0.0049
  816MPD2    C212008   4.718   0.208  17.420 -0.5903 -0.7548  0.3246
  816MPD2    C312009   0.127   0.204  17.379 -0.6666 -0.4007 -0.2928
  816MPD2    C412010   0.222   0.287  17.441 -0.4398 -0.0672 -0.9318
  816MPD2    C512011   0.179   0.350  17.556  0.3770  0.0723  0.5428
  816MPD2     H12012   4.656   0.142  17.360  0.6921 -0.5270 -1.2673
  816MPD2    H112013   0.327   0.278  17.417 -0.3760  1.4200 -1.2156
  816MPD2    H212014   0.037   0.412  17.690 -0.8064 -0.7694  0.5404
  816MPD2    H312015   0.254   0.407  17.610  0.9332  0.1059 -0.2603
  816MPD2     N12016   0.155   0.122  17.264 -0.2153 -0.1563  0.5638
  816MPD2    H512017   0.072   0.096  17.212  1.2152  0.7000 -2.1151
  816MPD2    N112018   4.545   0.276  17.575 -0.6625 -0.5245 -0.7897
  816MPD2    H712019   4.525   0.337  17.653 -0.0477 -0.3134 -0.7935
  817MPD2     C12020   3.850   1.329   9.537 -0.0356  0.2407  0.8900
  817MPD2    C112021   3.729   1.257   9.524  1.0501  0.1299 -0.1715
  817MPD2    C212022   3.603   1.318   9.536 -0.0757  0.5083 -0.0864
  817MPD2    C312023   3.598   1.456   9.541 -0.4762 -0.9216  0.4455
  817MPD2    C412024   3.716   1.526   9.556  0.1662  0.2040  0.0243
  817MPD2    C512025   3.834   1.458   9.554 -0.8808 -0.3964 -0.5196
  817MPD2     H12026   3.512   1.260   9.546  0.1682  0.0555 -0.4927
  817MPD2    H112027   3.714   1.633   9.573 -0.7793  0.1030  0.5336
  817MPD2    H212028   3.946   1.280   9.534  1.0770  2.3667  1.9069
  817MPD2    H312029   3.922   1.517   9.577 -1.0147 -0.0729 -0.8225
  817MPD2     N12030   3.472   1.512   9.570  0.3342 -0.2040  0.3750
  817MPD2    H512031   3.389   1.454   9.561  1.0234 -1.1871  0.3890
  817MPD2    N112032   3.744   1.116   9.493  0.0800  0.2385  0.4716
  817MPD2    H712033   3.838   1.079   9.492  0.2662  0.7376 -0.5257
  818MPD2     C12034   2.563   0.990  10.113  0.0822 -0.7201  0.0513
  818MPD2    C112035   2.617   0.908  10.205  0.1733  0.2905  0.4047
  818MPD2    C212036   2.657   0.779  10.172 -0.5559 -0.8181 -0.4438
  818MPD2    C312037   2.646   0.743  10.037  0.8094 -0.2491 -0.7586
  818MPD2    C412038   2.587   0.830   9.944  0.0126 -0.5734  0.3360
  818MPD2    C512039   2.547   0.953   9.984 -0.3077  0.3045  0.3769
  818MPD2     H12040   2.709   0.717  10.243 -1.1616  0.9846  1.5861
  818MPD2    H112041   2.579   0.819   9.836 -1.2106 -0.1782  0.3883
  818MPD2    H212042   2.526   1.089  10.135 -0.8525 -0.9038 -0.7060
  818MPD2    H312043   2.505   1.021   9.911 -0.3862 -1.9207 -1.6514
  818MPD2     N12044   2.690   0.617  10.000 -0.6343 -0.0734 -0.0596
  818MPD2    H512045   2.761   0.572  10.056  0.5573 -0.6544 -2.0976
  818MPD2    N112046   2.627   0.954  10.347 -0.0471 -0.0861 -0.1150
  818MPD2    H712047   2.669   0.891  10.414 -0.6059 -1.2877 -0.9130
  819MPD2     C12048   0.757   3.430  15.817  0.8518  0.7133 -0.0644
  819MPD2    C112049   0.741   3.298  15.846 -0.0404 -0.2928  0.5279
  819MPD2    C212050   0.855   3.226  15.894 -0.0271  0.6010  0.1277
  819MPD2    C312051   0.973   3.288  15.908 -0.2682  0.3866 -0.1116
  819MPD2    C412052   0.990   3.416  15.859 -0.1583 -0.2343  0.6158
  819MPD2    C512053   0.880   3.489  15.833 -0.8406 -0.1153 -0.2880
  819MPD2     H12054   0.848   3.124  15.930 -0.2626  0.9088  0.9633
  819MPD2    H112055   1.087   3.462  15.844 -0.3541 -1.1790 -3.4603
  819MPD2    H212056   0.688   3.495  15.764 -0.3528 -0.2953  0.2598
  819MPD2    H312057   0.892   3.590  15.795 -0.3463 -0.6840 -1.6437
  819MPD2     N12058   1.084   3.207  15.953 -0.9520 -0.4951 -0.1561
  819MPD2    H512059   1.083   3.106  15.957 -0.7372 -0.5354 -1.0597
  819MPD2    N112060   0.618   3.237  15.810  0.0590 -0.2082 -0.3614
  819MPD2    H712061   0.544   3.294  15.770  0.7492  3.4333  3.5902
  820MPD2     C12062   4.538   3.153  15.174  0.1570 -0.4114 -0.2337
  820MPD2    C112063   4.640   3.247  15.193  0.0031 -0.7761 -0.2873
  820MPD2    C212064   0.005   3.228  15.304  0.1240 -0.3122 -0.3542
  820MPD2    C312065   4.719   3.115  15.378  0.2976 -0.2482 -0.6444
  820MPD2    C412066   4.619   3.026  15.359  0.0366 -1.5002  0.1383
  820MPD2    C512067   4.528   3.043  15.260  0.2846  0.0039  0.5383
  820MPD2     H12068   0.094   3.285  15.324  0.0351  0.0096 -0.8595
  820MPD2    H112069   4.607   2.932  15.413  0.8863  0.1859  3.2373
  820MPD2    H212070   4.455   3.172  15.106  2.7764  1.5850 -2.8701
  820MPD2    H312071   4.450   2.969  15.249 -0.4762  0.6476  1.4693
  820MPD2     N12072   0.079   3.082  15.482 -0.0937 -0.1433 -0.0915
  820MPD2    H512073   0.039   3.007  15.538  3.4109  0.0075  2.6242
  820MPD2    N112074   4.652   3.372  15.124  0.0844 -0.8041  0.1542
  820MPD2    H712075   4.563   3.389  15.078  0.1041  1.9161  1.1251
  821MPD2     C12076   0.859   3.755  13.655 -0.1274  0.1046 -1.0395
  821MPD2    C112077   0.993   3.759  13.704  0.1421  0.7396  0.6400
  821MPD2    C212078   1.096   3.719  13.625 -0.2118  0.2991 -0.0084
  821MPD2    C312079   1.075   3.671  13.495 -0.3085 -0.1848 -0.1002
  821MPD2    C412080   0.948   3.661  13.445 -0.3413  0.0096 -0.3539
  821MPD2    C512081   0.850   3.710  13.524 -0.0062  0.0951  0.1739
  821MPD2     H12082   1.197   3.730  13.661  0.5429  2.1403 -2.6064
  821MPD2    H112083   0.916   3.623  13.349  1.3880 -1.2159 -0.4412
  821MPD2    H212084   0.770   3.783  13.710  1.7998 -0.1144  2.2123
  821MPD2    H312085   0.750   3.700  13.483 -0.6750  1.7153  1.4032
  821MPD2     N12086   1.181   3.641  13.415  0.2505  0.0294 -0.1389
  821MPD2    H512087   1.163   3.605  13.322  2.4507 -0.0299 -0.5417
  821MPD2    N112088   1.035   3.827  13.824 -0.0395  0.0783 -0.2311
  821MPD2    H712089   1.133   3.834  13.850  0.2340  0.4723 -1.3727
  822MPD2     C12090   1.382   4.484  15.764  0.2545  0.9674  0.2391
  822MPD2    C112091   1.396   4.445  15.895  0.6124  1.1873 -0.3033
  822MPD2    C212092   1.324   4.511  15.990  0.3253 -0.4810 -0.3773
  822MPD2    C312093   1.247   4.623  15.961  0.8670 -0.6262  0.1972
  822MPD2    C412094   1.228   4.656  15.827  0.3278 -0.1801 -0.1345
  822MPD2    C512095   1.296   4.585  15.730  0.6261  0.4391  0.1849
  822MPD2     H12096   1.343   4.482  16.093  0.5206  2.9626  0.5554
  822MPD2    H112097   1.161   0.014  15.799  0.1518 -0.1434  0.3844
  822MPD2    H212098   1.441   4.447  15.680 -0.0492  0.8079  0.0977
  822MPD2    H312099   1.287   4.621  15.628  0.6584  1.3415  0.4980
  822MPD2     N12100   1.189   4.692  16.072 -0.0373 -0.0568  0.3417
  822MPD2    H512101   1.198   4.650  16.164  3.1996 -3.2109 -1.4200
  822MPD2    N112102   1.502   4.359  15.939  0.0772 -0.3153 -0.4220
  822MPD2    H712103   1.507   4.339  16.038 -1.7009  1.6397  0.0587
  823MPD2     C12104   0.918   0.324  16.811 -0.0890 -0.6614 -0.3024
  823MPD2    C112105   0.936   0.219  16.720  1.0987 -0.4490 -0.6952
  823MPD2    C212106   0.995   0.099  16.761 -0.5950  0.4820  0.0401
  823MPD2    C312107   1.015   0.081  16.896 -0.1889 -0.2396  0.7802
  823MPD2    C412108   0.978   0.173  16.989 -0.0765  0.0193  0.5958
  823MPD2    C512109   0.940   0.296  16.945 -0.0978  0.5465  0.5434
  823MPD2     H12110   1.004   0.020  16.687 -2.4906  0.2462  0.0794
  823MPD2    H112111   0.996   0.159  17.095 -1.5972  0.7444  0.9557
  823MPD2    H212112   0.893   0.427  16.788  0.4861 -1.2175 -3.3943
  823MPD2    H312113   0.915   0.381  17.007 -0.6696  1.2565 -0.6642
  823MPD2     N12114   1.080   4.694  16.951 -0.6656  0.1215  0.8336
  823MPD2    H512115   1.075   4.689  17.053 -1.4576  1.9361  0.8698
  823MPD2    N112116   0.920   0.248  16.580 -0.1503  0.3896  0.2134
  823MPD2    H712117   0.902   0.347  16.570  0.1322  0.2583 -1.7367
  824MPD2     C12118   1.677   3.640  15.693  0.2417  0.0309  0.1910
  824MPD2    C112119   1.785   3.707  15.756 -0.3366 -0.4429  0.7325
  824MPD2    C212120   1.911   3.655  15.730 -1.2987  0.3106 -0.6841
  824MPD2    C312121   1.929   3.555  15.639 -0.3048 -0.2030 -0.3718
  824MPD2    C412122   1.823   3.495  15.579  0.4888  0.1095  0.3446
  824MPD2    C512123   1.698   3.536  15.608  0.0898  0.1299  0.2255
  824MPD2     H12124   2.001   3.706  15.763 -0.6892 -1.9612  1.1997
  824MPD2    H112125   1.831   3.416  15.505 -1.1514  1.2263 -1.0387
  824MPD2    H212126   1.573   3.671  15.702  0.8829  2.1133  0.4697
  824MPD2    H312127   1.617   3.491  15.552 -0.0038 -0.2931  0.7038
  824MPD2     N12128   2.063   3.522  15.612 -0.5433  0.1228  0.4662
  824MPD2    H512129   2.130   3.573  15.669  0.6281 -1.3477  0.3922
  824MPD2    N112130   1.762   3.817  15.832 -0.6645 -0.4229  0.6347
  824MPD2    H712131   1.669   3.858  15.837 -1.5160 -2.0913 -1.6276
  825MPD2     C12132   2.785   3.590  15.083 -0.0715 -0.4146  0.3498
  825MPD2    C112133   2.672   3.641  15.133  0.2608 -0.2071 -0.3878
  825MPD2    C212134   2.646   3.778  15.112 -0.2449 -0.3437 -0.0135
  825MPD2    C312135   2.730   3.859  15.031 -0.3015  0.6539  0.0893
  825MPD2    C412136   2.835   3.798  14.970  0.3688  0.1777  0.3661
  825MPD2    C512137   2.873   3.665  15.002  0.0531 -0.2368  0.7118
  825MPD2     H12138   2.558   3.818  15.161  0.9103  1.9081  0.2235
  825MPD2    H112139   2.909   3.856  14.918 -0.9097  0.9738 -0.5789
  825MPD2    H212140   2.798   3.485  15.106  1.0254 -0.3593  0.0021
  825MPD2    H312141   2.955   3.623  14.944  0.1311 -0.3068  0.8760
  825MPD2     N12142   2.709   3.997  15.018  0.0836  0.6163  0.3833
  825MPD2    H512143   2.773   4.043  14.954 -1.2933 -0.1060 -1.5130
  825MPD2    N112144   2.600   3.555  15.226  0.1961 -0.2883  0.4386
  825MPD2    H712145   2.642   3.467  15.251  0.8736 -0.1993 -0.3997
  826MPD2     C12146   2.706   3.545  13.967 -0.2920  0.0833  0.1000
  826MPD2    C112147   2.594   3.472  13.965 -0.5132 -0.1218 -0.6373
  826MPD2    C212148   2.477   3.531  14.015  0.3456 -0.1243  0.5148
  826MPD2    C312149   2.477   3.652  14.085  0.0636 -0.0032  0.0907
  826MPD2    C412150   2.601   3.705  14.101 -0.4003 -0.1682 -0.4336
  826MPD2    C512151   2.708   3.655  14.042  0.2027  0.0103  0.4267
  826MPD2     H12152   2.384   3.475  14.013  0.9188 -0.9878 -1.4755
  826MPD2    H112153   2.611   3.796  14.159  0.2996 -0.1586 -0.5713
  826MPD2    H212154   2.787   3.506  13.908 -0.0658  1.2242 -0.3466
  826MPD2    H312155   2.803   3.708  14.045 -0.5451  1.3527  0.3266
  826MPD2     N12156   2.360   3.715  14.143  0.1227 -0.0632 -0.1447
  826MPD2    H512157   2.379   3.810  14.173  0.0443  0.2481 -1.0925
  826MPD2    N112158   2.593   3.348  13.899 -1.2647 -0.0424  0.2702
  826MPD2    H712159   2.680   3.328  13.850 -1.4565  1.0207 -0.5004
  827MPD2     C12160   3.657   0.150  10.401  0.3843  0.2729 -0.0464
  827MPD2    C112161   3.567   0.054  10.448  0.0718  0.0508 -0.3421
  827MPD2    C212162   3.510   4.691  10.357 -0.0253 -0.3102  0.1342
  827MPD2    C312163   3.560   4.694  10.227  0.3675  0.5294 -0.8643
  827MPD2    C412164   3.649   0.063  10.180  0.4768  0.3814 -0.4483
  827MPD2    C512165   3.691   0.156  10.271 -0.2697 -0.0893 -0.6174
  827MPD2     H12166   3.457   4.603  10.392 -0.2552  0.2732  1.2620
  827MPD2    H112167   3.690   0.058  10.080  0.6927 -0.3880 -0.3184
  827MPD2    H212168   3.709   0.217  10.469 -0.0761 -0.6817  1.2416
  827MPD2    H312169   3.758   0.236  10.240  1.8238 -0.6999  2.2912
  827MPD2     N12170   3.512   4.594  10.145 -0.1866  0.2552  0.1966
  827MPD2    H512171   3.422   4.549  10.163 -0.2678 -0.8980 -3.0922
  827MPD2    N112172   3.537   0.063  10.588  0.1672  0.9286 -0.2451
  827MPD2    H712173   3.595   0.118  10.650  0.9518 -2.1331  1.7511
  828MPD2     C12174   1.630   0.092  11.930 -0.1800 -0.0540  0.6756
  828MPD2    C112175   1.583   4.690  11.918  0.1667  0.0023  0.5892
  828MPD2    C212176   1.661   4.590  11.860  0.3844  0.2804  0.5458
  828MPD2    C312177   1.788   4.620  11.817  0.2648  0.8600  0.1071
  828MPD2    C412178   1.836   0.024  11.842  0.1245 -0.1305  0.0089
  828MPD2    C512179   1.759   0.119  11.896  0.0994  0.2457  0.2745
  828MPD2     H12180   1.620   4.493  11.836  0.7599  0.5779 -1.3234
  828MPD2    H112181   1.931   0.065  11.811 -0.6321  0.5545 -1.3931
  828MPD2    H212182   1.579   0.176  11.976  0.5776  0.0322  1.3678
  828MPD2    H312183   1.794   0.221  11.904 -1.1157  0.4896  2.2512
  828MPD2     N12184   1.864   4.519  11.749 -0.4334 -0.1021 -0.2477
  828MPD2    H512185   1.822   4.429  11.728  0.1576  0.0374 -2.0377
  828MPD2    N112186   1.453   4.655  11.960 -0.5954  0.5320  0.0800
  828MPD2    H712187   1.421   4.559  11.947  1.1122 -0.3908  2.7030
  829MPD2     C12188   0.880   4.640  11.291 -0.4605 -0.2340  0.0727
  829MPD2    C112189   0.789   4.624  11.394 -0.2255 -0.2052 -0.2624
  829MPD2    C212190   0.835   4.624  11.524  0.3537 -0.1281 -0.0769
  829MPD2    C312191   0.965   4.663  11.553 -0.3578 -0.5249 -0.1681
  829MPD2    C412192   1.051   4.684  11.451 -0.4031 -0.8273  0.6308
  829MPD2    C512193   1.012   4.669  11.321  0.2933  0.0258  0.2907
  829MPD2     H12194   0.764   4.621  11.606  0.3443  1.4119 -0.0133
  829MPD2    H112195   1.150   0.000  11.468  0.0199 -0.8269 -1.8766
  829MPD2    H212196   0.843   4.660  11.191  1.9813 -1.4274 -1.0636
  829MPD2    H312197   1.068   4.696  11.232 -0.0750  0.0030  0.0516
  829MPD2     N12198   1.020   4.685  11.680 -0.4872  0.4244  0.0943
  829MPD2    H512199   1.119   4.703  11.688 -0.6229  0.7827  1.0595
  829MPD2    N112200   0.649   4.627  11.358 -0.3393 -0.2830 -0.1583
  829MPD2    H712201   0.629   4.657  11.263  1.3185 -0.5361 -0.5828
  830MPD2     C12202   1.845   2.919  15.651 -0.2690  1.0089 -0.0604
  830MPD2    C112203   1.717   2.977  15.639 -0.8506  0.8901 -0.0428
  830MPD2    C212204   1.688   3.060  15.536 -0.6296  1.1631  0.4125
  830MPD2    C312205   1.787   3.089  15.448  1.2099  1.0060  0.6066
  830MPD2    C412206   1.911   3.044  15.463  0.5733 -0.1474 -0.3153
  830MPD2    C512207   1.939   2.947  15.558 -0.0120 -0.0069 -0.3611
  830MPD2     H12208   1.597   3.118  15.522 -1.6946  0.2246  3.4536
  830MPD2    H112209   1.983   3.062  15.383 -0.6204  1.4118 -1.0320
  830MPD2    H212210   1.870   2.837  15.718 -0.6955  2.0827  1.3979
  830MPD2    H312211   2.026   2.883  15.547 -1.1826 -1.1683 -2.8870
  830MPD2     N12212   1.763   3.175  15.340 -0.1526 -0.5039 -0.6221
  830MPD2    H512213   1.842   3.184  15.276 -0.7137  1.0646 -1.0925
  830MPD2    N112214   1.628   2.966  15.748 -0.2854  0.4946  0.4038
  830MPD2    H712215   1.668   2.930  15.834 -2.3118 -0.5414  0.9244
  831MPD2     C12216   1.479   0.188  16.350 -0.0656 -0.3480  0.0081
  831MPD2    C112217   1.485   0.064  16.288 -1.0554  0.1422 -0.5256
  831MPD2    C212218   1.391   4.691  16.321 -0.5632 -0.0041 -0.2498
  831MPD2    C312219   1.296   4.713  16.421  0.0810 -0.2477 -0.1950
  831MPD2    C412220   1.298   0.110  16.494  0.3738  0.7657 -0.2453
  831MPD2    C512221   1.385   0.208  16.457 -0.9842 -0.1346 -0.3020
  831MPD2     H12222   1.393   4.598  16.266  0.7548 -0.6563  0.9216
  831MPD2    H112223   1.234   0.133  16.578 -0.6449  0.8410 -1.0400
  831MPD2    H212224   1.553   0.265  16.332  0.1860 -0.8462 -1.0826
  831MPD2    H312225   1.373   0.305  16.505  1.9599 -0.3619  0.9121
  831MPD2     N12226   1.210   4.615  16.473 -0.3892 -0.1267 -0.6138
  831MPD2    H512227   1.171   4.629  16.566  0.8116 -1.6459  0.1144
  831MPD2    N112228   1.575   0.036  16.184 -0.3447 -0.2524  0.0011
  831MPD2    H712229   1.621   0.118  16.146  0.1135 -0.8579 -0.7388
  832MPD2     C12230   0.089   1.051  17.550  0.2217 -0.1156  0.3104
  832MPD2    C112231   0.047   1.172  17.500 -0.1920 -0.2825  0.3622
  832MPD2    C212232   4.643   1.181  17.437 -0.6463 -0.6931  0.6341
  832MPD2    C312233   4.556   1.081  17.439 -1.1639 -0.3038  0.2187
  832MPD2    C412234   4.600   0.967  17.490 -0.4630  0.6886  0.1201
  832MPD2    C512235   0.004   0.950  17.535  0.3622 -0.0836 -0.3195
  832MPD2     H12236   4.606   1.276  17.399 -1.0914 -0.2029  2.3123
  832MPD2    H112237   4.533   0.881  17.488  1.6512 -0.9217 -1.4831
  832MPD2    H212238   0.190   1.030  17.583  0.5966  0.2935 -0.5683
  832MPD2    H312239   0.040   0.854  17.570 -0.2131 -0.1105  0.2119
  832MPD2     N12240   4.417   1.083  17.390  0.1960 -0.5681  0.7307
  832MPD2    H512241   4.365   0.996  17.398  0.3482 -0.7780 -0.6348
  832MPD2    N112242   0.137   1.275  17.495  0.6422  0.2173 -0.0886
  832MPD2    H712243   0.231   1.250  17.527  0.6165  0.8416  0.4769
  833MPD2     C12244   1.705   2.244  12.931  0.2792  0.7196  0.2346
  833MPD2    C112245   1.762   2.333  12.844 -0.1372 -0.7423  0.0178
  833MPD2    C212246   1.876   2.293  12.782 -0.0238 -0.6201  0.5871
  833MPD2    C312247   1.934   2.175  12.808  0.3631  0.0210  0.0900
  833MPD2    C412248   1.883   2.087  12.902  0.0430  0.4670 -0.3691
  833MPD2    C512249   1.761   2.121  12.956 -0.7891  0.4421  0.4101
  833MPD2     H12250   1.918   2.355  12.704  0.3707 -1.2935  0.2582
  833MPD2    H112251   1.944   2.001  12.928  0.1637  0.6857  0.0542
  833MPD2    H212252   1.609   2.277  12.968  0.7254  3.3331 -0.9629
  833MPD2    H312253   1.716   2.049  13.024 -2.1532 -1.7550 -2.7828
  833MPD2     N12254   2.062   2.153  12.747  0.4861 -0.0977 -0.3642
  833MPD2    H512255   2.086   2.228  12.682 -0.3097  1.6519  1.3476
  833MPD2    N112256   1.686   2.445  12.810  0.4731  0.0964 -0.4332
  833MPD2    H712257   1.590   2.460  12.838  0.4723 -0.9939  0.1389
  834MPD2     C12258   2.551   1.584  12.012  0.2186 -0.3376 -0.2986
  834MPD2    C112259   2.435   1.643  11.972  0.7372 -0.5498  0.3361
  834MPD2    C212260   2.379   1.740  12.052 -0.4181 -0.4766  0.9914
  834MPD2    C312261   2.437   1.777  12.171  0.0518  0.2335  0.1475
  834MPD2    C412262   2.549   1.710  12.214 -0.3436  0.1081 -0.2416
  834MPD2    C512263   2.607   1.616  12.132  0.3579 -0.2202 -0.0261
  834MPD2     H12264   2.297   1.806  12.026 -0.7586 -1.4041 -0.3301
  834MPD2    H112265   2.603   1.735  12.304 -0.1020  3.7545 -1.3953
  834MPD2    H212266   2.604   1.520  11.942  0.1197 -1.0256  0.2644
  834MPD2    H312267   2.691   1.556  12.163  0.3167 -0.2968 -0.0644
  834MPD2     N12268   2.370   1.873  12.248  0.6249 -0.3285 -0.0819
  834MPD2    H512269   2.283   1.904  12.208  1.6262  3.1354  0.4373
  834MPD2    N112270   2.387   1.602  11.844 -0.1530 -0.2543 -0.2765
  834MPD2    H712271   2.435   1.539  11.781  0.2942  1.2506 -1.4410
  835MPD2     C12272   2.400   4.597  11.378  0.2165  0.1085  0.0603
  835MPD2    C112273   2.361   4.675  11.494 -0.0278 -0.4406 -0.3827
  835MPD2    C212274   2.439   4.665  11.605  0.0361  0.3373  0.2727
  835MPD2    C312275   2.546   4.572  11.613 -0.4897  0.1616 -0.2415
  835MPD2    C412276   2.583   4.516  11.496  0.0135 -0.4886  0.5625
  835MPD2    C512277   2.509   4.522  11.381  0.7650  0.0482  0.0274
  835MPD2     H12278   2.397   4.719  11.689 -1.2434  1.0100 -0.7966
  835MPD2    H112279   2.674   4.457  11.493  0.2641 -0.0846  0.2065
  835MPD2    H212280   2.348   4.597  11.283 -0.8940 -1.3038  0.6688
  835MPD2    H312281   2.544   4.473  11.291 -2.9651 -0.7396 -0.9790
  835MPD2     N12282   2.619   4.529  11.728  0.2828  0.7176 -0.2290
  835MPD2    H512283   2.684   4.452  11.720 -0.1098 -0.0020  3.3139
  835MPD2    N112284   2.242   0.028  11.498  0.1898 -0.0212  0.1809
  835MPD2    H712285   2.237   0.102  11.567 -0.0561 -2.9900  3.3761
  836MPD2     C12286   2.354   4.025  12.370 -0.3953 -0.4477 -0.5562
  836MPD2    C112287   2.315   4.145  12.329  0.3565 -0.1774  0.5430
  836MPD2    C212288   2.194   4.194  12.362  0.7342 -0.0606 -0.4673
  836MPD2    C312289   2.107   4.121  12.442 -0.4780 -0.8335 -0.0481
  836MPD2    C412290   2.147   3.998  12.487  0.1268 -0.2015  0.9142
  836MPD2    C512291   2.266   3.951  12.447  0.8597 -0.6854  0.4095
  836MPD2     H12292   2.165   4.284  12.308 -2.2235 -1.1335 -0.6994
  836MPD2    H112293   2.096   3.932  12.556 -2.3735 -1.3206 -2.0111
  836MPD2    H212294   2.453   3.984  12.349 -0.3025 -1.3647  1.7391
  836MPD2    H312295   2.291   3.848  12.468 -1.2669 -1.2925  0.0119
  836MPD2     N12296   1.979   4.174  12.473 -0.3342  1.0351 -0.0783
  836MPD2    H512297   1.930   4.128  12.549  1.0341 -0.5515 -0.1500
  836MPD2    N112298   2.408   4.211  12.249  0.1271 -0.1061  0.0323
  836MPD2    H712299   2.499   4.167  12.236  0.5234 -0.0313  2.6374
  837MPD2     C12300   0.799   4.454  10.335 -0.1406  0.8612 -0.2421
  837MPD2    C112301   0.717   4.518  10.244  0.0917 -0.5725  0.1870
  837MPD2    C212302   0.728   4.657  10.219 -0.3501 -0.2973  0.3010
  837MPD2    C312303   0.813   0.010  10.297 -0.3859  0.2946  0.1516
  837MPD2    C412304   0.897   4.675  10.389 -0.0952  0.0151 -0.5415
  837MPD2    C512305   0.883   4.536  10.408  0.3383  0.1094 -0.0003
  837MPD2     H12306   0.662   4.710  10.151 -1.0475  0.5101  1.6094
  837MPD2    H112307   0.931   0.016  10.469 -0.7769  0.0017 -0.2449
  837MPD2    H212308   0.792   4.349  10.360  2.2133  0.4537 -1.2606
  837MPD2    H312309   0.942   4.493  10.488 -0.7542 -1.1138  0.1641
  837MPD2     N12310   0.795   0.152  10.282  0.8558  0.0402  0.2288
  837MPD2    H512311   0.723   0.177  10.215 -1.1540 -0.2683  2.2663
  837MPD2    N112312   0.616   4.455  10.168  0.0390  0.4185 -0.4933
  837MPD2    H712313   0.580   4.509  10.090 -1.5596  1.4216  0.9433
  838MPD2     C12314   3.354   2.848  11.841  0.5690  0.3243 -0.1748
  838MPD2    C112315   3.366   2.709  11.819 -0.2114 -0.2804 -0.5829
  838MPD2    C212316   3.287   2.619  11.893  0.2046 -0.5695 -0.0029
  838MPD2    C312317   3.200   2.664  11.992  0.2060  0.2930  0.3337
  838MPD2    C412318   3.187   2.800  12.005 -0.4196 -0.3781 -0.5877
  838MPD2    C512319   3.263   2.888  11.926 -0.4961 -0.0969  0.9647
  838MPD2     H12320   3.299   2.512  11.898 -1.1116 -0.6901  0.6431
  838MPD2    H112321   3.115   2.848  12.069  0.5286 -0.1434  0.3126
  838MPD2    H212322   3.399   2.926  11.781 -0.7822  0.9343 -0.3964
  838MPD2    H312323   3.244   2.994  11.931 -1.5422 -0.2985  1.2912
  838MPD2     N12324   3.111   2.574  12.054  0.2421 -0.1333  0.1748
  838MPD2    H512325   3.126   2.475  12.035  0.2670  0.1276 -1.1461
  838MPD2    N112326   3.453   2.652  11.725  0.0437 -0.0720  0.2676
  838MPD2    H712327   3.449   2.551  11.723  0.0926 -0.0569 -0.8565
  839MPD2     C12328   3.196   1.955  11.474  0.2526  0.5817 -0.3220
  839MPD2    C112329   3.259   1.991  11.358  0.1084 -0.0188  0.2187
  839MPD2    C212330   3.369   2.085  11.356 -0.8594 -0.0729 -0.1644
  839MPD2    C312331   3.402   2.144  11.481 -0.2487  0.1382 -0.3043
  839MPD2    C412332   3.341   2.100  11.593  0.0944 -0.3934 -0.1613
  839MPD2    C512333   3.250   2.005  11.599  0.3989  0.0234  0.4113
  839MPD2     H12334   3.420   2.106  11.263  0.4326  1.6051  0.9372
  839MPD2    H112335   3.394   2.140  11.679  0.2613  0.7817 -0.8236
  839MPD2    H212336   3.126   1.873  11.479  0.4630  0.4182 -0.0626
  839MPD2    H312337   3.216   1.976  11.698 -0.2921  2.5319  0.8870
  839MPD2     N12338   3.492   2.256  11.491 -0.7230 -0.3485 -0.2275
  839MPD2    H512339   3.515   2.292  11.583 -0.9907 -0.0618 -0.2723
  839MPD2    N112340   3.214   1.949  11.236 -0.8365  0.3990 -0.2450
  839MPD2    H712341   3.269   1.970  11.153  3.3943 -4.2368  1.4229
  840MPD2     C12342   3.852   0.408  10.756  0.4206 -0.5922 -0.7536
  840MPD2    C112343   3.786   0.399  10.875 -0.1891 -0.1685 -0.1164
  840MPD2    C212344   3.824   0.489  10.973 -0.7918  0.6417  0.3573
  840MPD2    C312345   3.918   0.589  10.958 -0.2189  0.8503  0.2933
  840MPD2    C412346   3.981   0.585  10.834  0.7784  0.3217 -0.3739
  840MPD2    C512347   3.942   0.501  10.735  0.2222 -0.5366 -0.3352
  840MPD2     H12348   3.780   0.474  11.071  0.1593  0.9584  0.8347
  840MPD2    H112349   4.064   0.652  10.816  1.5419 -0.4557  0.2477
  840MPD2    H212350   3.839   0.339  10.674 -2.0203 -2.0486  0.8516
  840MPD2    H312351   3.988   0.508  10.637  0.2179  0.9412 -0.2412
  840MPD2     N12352   3.957   0.686  11.051  0.0576  0.1616  0.0673
  840MPD2    H512353   4.020   0.754  11.010  0.1785  0.5655  0.9319
  840MPD2    N112354   3.701   0.289  10.886  0.1839  1.3050 -0.1938
  840MPD2    H712355   3.715   0.230  10.805 -0.2517  1.0468 -0.0842
  841MPD2     C12356   3.205   0.217  14.608 -0.2809  0.0080  0.0188
  841MPD2    C112357   3.300   0.123  14.639 -0.3979 -0.2567 -0.1091
  841MPD2    C212358   3.388   0.141  14.745  0.4980 -0.4727 -0.5938
  841MPD2    C312359   3.396   0.270  14.804  0.1083 -0.0685 -1.0334
  841MPD2    C412360   3.299   0.366  14.768 -0.3389 -0.0263  0.7600
  841MPD2    C512361   3.204   0.340  14.672 -0.3298 -0.2628  0.7442
  841MPD2     H12362   3.456   0.059  14.767  2.2473  1.5615  1.6804
  841MPD2    H112363   3.301   0.465  14.813 -0.5797  0.2928  0.0692
  841MPD2    H212364   3.126   0.200  14.536 -2.0370  0.4924  1.8339
  841MPD2    H312365   3.136   0.419  14.642 -0.5466 -0.5587  0.4586
  841MPD2     N12366   3.496   0.295  14.903  0.5219 -0.1081 -0.0600
  841MPD2    H512367   3.512   0.389  14.939  1.1054 -0.9081  1.7425
  841MPD2    N112368   3.310   0.007  14.560  0.5408  0.3155  0.4860
  841MPD2    H712369   3.369   4.654  14.591  1.1062  1.5798  2.5284
  842MPD2     C12370   3.858   1.728  16.854 -0.3084  0.1075  0.1958
  842MPD2    C112371   3.785   1.628  16.912 -0.6147 -0.2586  0.8247
  842MPD2    C212372   3.818   1.593  17.043 -0.0479  0.3125  0.0322
  842MPD2    C312373   3.925   1.662  17.112  0.3884 -0.0489  0.0425
  842MPD2    C412374   3.988   1.766  17.054  0.1516  0.5141 -0.0260
  842MPD2    C512375   3.960   1.794  16.924  0.2170  0.0097 -0.3499
  842MPD2     H12376   3.757   1.521  17.096 -1.8366  1.0711 -1.0074
  842MPD2    H112377   4.066   1.816  17.111 -1.7816 -0.1677  3.2221
  842MPD2    H212378   3.847   1.756  16.750 -1.4142  0.7031  0.4797
  842MPD2    H312379   4.015   1.871  16.871 -0.5451  0.0186 -1.1283
  842MPD2     N12380   3.970   1.634  17.239 -0.8995 -0.0304  0.2672
  842MPD2    H512381   4.039   1.696  17.282 -1.7288 -0.5738  2.3400
  842MPD2    N112382   3.688   1.563  16.831 -0.4184  0.2532  0.1264
  842MPD2    H712383   3.682   1.598  16.736  1.1404 -1.5614 -0.6387
  843MPD2     C12384   1.715   1.089   0.003  0.3635 -0.8235  0.4592
  843MPD2    C112385   1.683   1.093   0.137  0.1254 -0.0507 -0.4661
  843MPD2    C212386   1.725   1.202   0.217  0.3852  0.0148  0.4215
  843MPD2    C312387   1.787   1.312   0.156  0.6641  0.2002 -0.1578
  843MPD2    C412388   1.812   1.304   0.020  0.0135  0.2443  0.1123
  843MPD2    C512389   1.781   1.195  17.639 -0.3825  0.5851  0.4709
  843MPD2     H12390   1.714   1.203   0.325 -1.3765 -1.4126  0.2669
  843MPD2    H112391   1.849   1.396  17.670  0.6624  0.1326  0.4209
  843MPD2    H212392   1.677   1.000  17.648 -0.0726  0.6260 -1.8782
  843MPD2    H312393   1.807   1.189  17.534  1.9032 -2.0254  1.1938
  843MPD2     N12394   1.828   1.427   0.226  0.2218  0.1480 -0.2773
  843MPD2    H512395   1.850   1.507   0.169 -0.9720 -1.3107 -2.7965
  843MPD2    N112396   1.600   0.992   0.195  0.0391  0.0617  0.6332
  843MPD2    H712397   1.560   0.923   0.132  0.3341  0.9063 -0.4938
  844MPD2     C12398   4.565   0.418  16.928 -0.0586  0.5114  0.1650
  844MPD2    C112399   4.486   0.523  16.881 -0.0654 -0.0634  0.0550
  844MPD2    C212400   4.505   0.649  16.938  0.1365  0.1425 -0.0691
  844MPD2    C312401   4.615   0.669  17.023 -0.7517 -0.2543  0.0911
  844MPD2    C412402   4.700   0.565  17.054  0.3804  0.5750  0.2492
  844MPD2    C512403   4.667   0.436  17.020  0.0808 -0.4207 -0.5367
  844MPD2     H12404   4.439   0.733  16.917  0.3832  0.1668 -0.7614
  844MPD2    H112405   0.063   0.592  17.115  0.3000  3.0898 -0.7234
  844MPD2    H212406   4.546   0.320  16.885  0.0739  1.0078 -1.0279
  844MPD2    H312407   0.014   0.358  17.050  0.7761  0.1204 -0.7539
  844MPD2     N12408   4.655   0.794  17.075 -0.0345 -0.1676 -0.1200
  844MPD2    H512409   0.023   0.803  17.119 -0.4302 -2.2784  1.1168
  844MPD2    N112410   4.388   0.508  16.783  0.0593  0.2070 -0.0535
  844MPD2    H712411   4.329   0.590  16.775  0.2097  0.2162 -1.0054
  845MPD2     C12412   4.552   1.885  16.990 -0.8124  0.5202 -0.4306
  845MPD2    C112413   4.633   1.859  17.093  0.0192  0.4091  0.0053
  845MPD2    C212414   4.661   1.725  17.125  0.0829 -0.0493  0.1796
  845MPD2    C312415   4.600   1.624  17.049 -0.4227  0.7564 -0.2733
  845MPD2    C412416   4.514   1.651  16.946  0.0478  0.1486  0.6410
  845MPD2    C512417   4.493   1.783  16.912  0.0748 -0.1029  0.7648
  845MPD2     H12418   0.010   1.702  17.203 -0.2615  5.7698  2.2418
  845MPD2    H112419   4.452   1.578  16.895 -0.0314  0.6409  0.0356
  845MPD2    H212420   4.530   1.988  16.965  0.8200  1.3819  1.7219
  845MPD2    H312421   4.440   1.802  16.819 -0.0257  2.0707  1.2536
  845MPD2     N12422   4.634   1.494  17.085 -0.4713  0.1060  0.1878
  845MPD2    H512423   4.708   1.476  17.152  1.1061  0.4166 -1.5002
  845MPD2    N112424   4.679   1.970  17.174  0.0623  0.2288 -0.1558
  845MPD2    H712425   4.663   2.057  17.125 -0.0826  0.6325  0.6172
  846MPD2     C12426   1.456   2.065  13.711  0.1923  0.0733  0.9268
  846MPD2    C112427   1.364   2.166  13.731  0.4268 -0.1328 -0.1909
  846MPD2    C212428   1.323   2.197  13.861 -0.4378 -0.5351 -0.6325
  846MPD2    C312429   1.365   2.120  13.969 -0.2617 -0.1718  0.5439
  846MPD2    C412430   1.456   2.015  13.944  0.7256 -0.1364 -0.5810
  846MPD2    C512431   1.498   1.986  13.815  0.0241 -0.5501  0.4276
  846MPD2     H12432   1.238   2.260  13.883 -0.8242 -1.4964  0.6248
  846MPD2    H112433   1.508   1.958  14.020  1.9449  0.7778 -0.7180
  846MPD2    H212434   1.512   2.054  13.618  0.0742 -0.4517  0.9206
  846MPD2    H312435   1.580   1.916  13.804 -0.2105 -0.6362 -0.7777
  846MPD2     N12436   1.307   2.153  14.096  0.2000  0.2943  0.0764
  846MPD2    H512437   1.234   2.224  14.101  0.3882  0.4296  0.8813
  846MPD2    N112438   1.327   2.250  13.627  0.1623 -0.0237  0.1173
  846MPD2    H712439   1.269   2.329  13.655  0.4428 -0.1015  0.8929
  847MPD2     C12440   1.555   3.087  14.202 -0.6095 -0.3919  0.2287
  847MPD2    C112441   1.672   3.144  14.244  0.3099  0.6911 -0.1306
  847MPD2    C212442   1.753   3.079  14.337 -0.2996 -0.2089  0.1101
  847MPD2    C312443   1.709   2.961  14.392 -0.5711  0.4984  0.1701
  847MPD2    C412444   1.591   2.898  14.348  0.3484 -0.8548  0.5571
  847MPD2    C512445   1.518   2.964  14.252  0.1670 -0.1327 -0.7176
  847MPD2     H12446   1.846   3.118  14.375  0.3958 -2.8130  1.0544
  847MPD2    H112447   1.550   2.805  14.384  0.4590 -0.5584  1.4591
  847MPD2    H212448   1.493   3.131  14.124 -0.6273 -1.7943 -0.5415
  847MPD2    H312449   1.426   2.927  14.207  0.5990 -1.8531 -0.1824
  847MPD2     N12450   1.791   2.910  14.496  0.1810 -0.2171 -0.4056
  847MPD2    H512451   1.870   2.971  14.516  0.2224 -0.4292  0.0813
  847MPD2    N112452   1.720   3.271  14.209  0.6070 -0.4969  0.8538
  847MPD2    H712453   1.805   3.298  14.259  1.4908 -1.3956 -0.1644
  848MPD2     C12454   3.946   1.229  16.747  0.7225 -0.6694  0.2713
  848MPD2    C112455   4.010   1.312  16.839  0.1723 -0.1193  0.0766
  848MPD2    C212456   4.071   1.427  16.787 -0.8728  0.4822  0.0577
  848MPD2    C312457   4.051   1.457  16.652  0.1847 -0.1925 -0.0195
  848MPD2    C412458   3.979   1.384  16.569 -0.0048 -0.2591  0.1811
  848MPD2    C512459   3.934   1.260  16.614 -0.3447  0.2468  0.8274
  848MPD2     H12460   4.109   1.502  16.855 -1.9702  1.2813 -0.2252
  848MPD2    H112461   3.957   1.415  16.467 -0.4018  1.4300  0.7929
  848MPD2    H212462   3.880   1.146  16.768  0.0024  0.1020  1.0907
  848MPD2    H312463   3.877   1.195  16.548  0.5522  1.6918 -1.3815
  848MPD2     N12464   4.106   1.571  16.592  0.8667  0.4152 -0.4831
  848MPD2    H512465   4.060   1.594  16.504 -1.8871 -1.9408  0.3379
  848MPD2    N112466   4.016   1.280  16.975  0.0071  0.5508  0.3690
  848MPD2    H712467   4.060   1.348  17.036 -0.9297  1.2747  0.2405
  849MPD2     C12468   3.601   0.145  14.398  0.2470  0.8300 -1.1743
  849MPD2    C112469   3.633   0.277  14.374  0.0090 -0.1197  0.3177
  849MPD2    C212470   3.714   0.348  14.463  0.3967  0.2250  0.2161
  849MPD2    C312471   3.753   0.277  14.575 -0.4402  0.0428 -0.0374
  849MPD2    C412472   3.716   0.149  14.594 -1.0124 -0.4489  0.8123
  849MPD2    C512473   3.646   0.076  14.504  0.6823  0.0587  0.2937
  849MPD2     H12474   3.758   0.444  14.439  1.1147 -0.1482  0.0430
  849MPD2    H112475   3.751   0.096  14.682 -2.1477  3.5551  3.6274
  849MPD2    H212476   3.534   0.097  14.328 -3.7281  2.4857  1.4438
  849MPD2    H312477   3.620   4.696  14.527 -0.0855  0.2654  0.3293
  849MPD2     N12478   3.854   0.332  14.654 -0.1933 -0.4649  0.7941
  849MPD2    H512479   3.903   0.280  14.726 -2.0567 -3.5758 -0.1927
  849MPD2    N112480   3.591   0.332  14.254 -0.3069 -0.4246  0.2775
  849MPD2    H712481   3.530   0.280  14.192 -0.9052  0.6933 -0.0779
  850MPD2     C12482   1.554   4.123  14.582  0.7545  0.1717  0.6017
  850MPD2    C112483   1.567   4.119  14.715 -0.8073 -0.1179 -0.0108
  850MPD2    C212484   1.674   4.064  14.780  0.0222 -0.6664  1.6016
  850MPD2    C312485   1.777   4.021  14.707  0.9496  0.7947  0.6066
  850MPD2    C412486   1.777   4.034  14.570 -0.6498 -0.0771 -0.6607
  850MPD2    C512487   1.665   4.080  14.512  0.6174  0.0532  0.1623
  850MPD2     H12488   1.673   4.061  14.888  0.8543  0.3965  1.6348
  850MPD2    H112489   1.860   3.997  14.511 -0.8580 -0.8892 -0.4468
  850MPD2    H212490   1.466   4.163  14.534  1.0696 -1.9749 -1.7998
  850MPD2    H312491   1.654   4.087  14.404  0.7111 -3.1356 -0.0484
  850MPD2     N12492   1.893   3.977  14.769 -0.5071 -0.5141 -0.4875
  850MPD2    H512493   1.978   3.991  14.716  1.1709 -0.9572  2.0430
  850MPD2    N112494   1.471   4.176  14.806  0.1345 -0.2031 -0.6098
  850MPD2    H712495   1.486   4.169  14.906 -3.5375  1.0960  0.0263
  851MPD2     C12496   1.646   4.041  15.448 -0.2833 -0.0773  0.3309
  851MPD2    C112497   1.590   4.034  15.324  0.8038  0.2556 -0.7160
  851MPD2    C212498   1.627   3.934  15.233 -0.9037  0.5583 -0.3848
  851MPD2    C312499   1.724   3.841  15.271 -0.3167  0.3509  0.0442
  851MPD2    C412500   1.789   3.860  15.392 -0.1589  0.4611  0.4052
  851MPD2    C512501   1.750   3.955  15.478 -0.7105 -0.4379 -0.3789
  851MPD2     H12502   1.583   3.932  15.134  0.6454  3.0768 -1.1276
  851MPD2    H112503   1.859   3.795  15.443 -0.0544 -0.9546 -1.5418
  851MPD2    H212504   1.615   4.105  15.530  1.8756  1.2406  0.1110
  851MPD2    H312505   1.792   3.954  15.578  0.6097 -0.2136 -0.9201
  851MPD2     N12506   1.742   3.734  15.180 -0.3368 -0.0833  0.4890
  851MPD2    H512507   1.687   3.737  15.095  3.4817 -1.0553 -2.0372
  851MPD2    N112508   1.482   4.124  15.295  0.4833 -0.2988 -0.1615
  851MPD2    H712509   1.442   4.181  15.369 -1.2093 -1.4692 -0.1826
  852MPD2     C12510   1.627   1.348   9.928 -0.1016 -0.3023 -0.2578
  852MPD2    C112511   1.583   1.434  10.024 -0.0127 -0.5187 -0.0229
  852MPD2    C212512   1.642   1.562  10.022  0.9175  0.4768  0.5486
  852MPD2    C312513   1.735   1.593   9.932 -1.0276  0.4284  0.0126
  852MPD2    C412514   1.783   1.500   9.835  0.0403 -0.1390  0.1249
  852MPD2    C512515   1.729   1.378   9.837  0.2727  0.2825 -0.2364
  852MPD2     H12516   1.593   1.637  10.083 -0.2016 -1.3686  1.9426
  852MPD2    H112517   1.846   1.521   9.750 -0.9817  1.5073 -0.2313
  852MPD2    H212518   1.606   1.241   9.928 -3.7145  0.4275  3.1972
  852MPD2    H312519   1.774   1.301   9.775 -0.2110 -0.7556  0.7019
  852MPD2     N12520   1.777   1.723   9.935  0.0535  0.6605  0.3690
  852MPD2    H512521   1.781   1.759  10.029 -0.3524  1.3001  0.1377
  852MPD2    N112522   1.480   1.398  10.113 -0.1767  0.1461  0.7273
  852MPD2    H712523   1.454   1.458  10.191 -0.1247 -0.7538  1.4350
  853MPD2     C12524   3.251   1.370  12.290  0.5152  0.2998  0.4583
  853MPD2    C112525   3.174   1.435  12.194 -0.2522 -0.3104  0.2683
  853MPD2    C212526   3.186   1.419  12.060  0.4673 -0.0617  0.0447
  853MPD2    C312527   3.279   1.322  12.019  0.1127  0.3546 -0.1679
  853MPD2    C412528   3.357   1.258  12.116 -0.1985 -0.0248 -0.1862
  853MPD2    C512529   3.342   1.281  12.247 -0.4083 -0.0901  0.6024
  853MPD2     H12530   3.145   1.482  11.982  0.3478  0.8486  0.8366
  853MPD2    H112531   3.433   1.185  12.089 -2.1633 -2.5424  1.0263
  853MPD2    H212532   3.246   1.396  12.395  0.4240 -1.4387  0.8712
  853MPD2    H312533   3.408   1.233  12.318  0.0200  2.5964  2.0276
  853MPD2     N12534   3.304   1.289  11.884  0.1580  0.0513  0.1938
  853MPD2    H512535   3.380   1.224  11.872 -1.2233 -1.0855 -2.3830
  853MPD2    N112536   3.092   1.532  12.259  0.7557  0.3683  0.0318
  853MPD2    H712537   3.093   1.536  12.361  0.0983  0.1409  0.0472
  854MPD2     C12538   4.593   0.530  12.866  0.0219 -0.1819  0.9103
  854MPD2    C112539   4.602   0.611  12.970 -0.4577  0.3605  0.2416
  854MPD2    C212540   4.694   0.572  13.068  0.4085  0.0929 -0.0853
  854MPD2    C312541   0.045   0.452  13.062  0.5308  0.0810 -0.4333
  854MPD2    C412542   0.027   0.371  12.951  0.4527  0.2846  0.5616
  854MPD2    C512543   4.660   0.406  12.860 -0.1790  0.0710 -0.5096
  854MPD2     H12544   4.702   0.643  13.149  0.3742  0.8495 -0.7412
  854MPD2    H112545   0.083   0.280  12.930 -0.0501  0.8808 -3.2175
  854MPD2    H212546   4.528   0.552  12.781  0.3880 -1.0560  0.3969
  854MPD2    H312547   4.637   0.339  12.778  1.3262  1.5049 -2.1077
  854MPD2     N12548   0.135   0.414  13.161 -0.4423 -0.1434  0.2151
  854MPD2    H512549   0.200   0.337  13.148  1.5175  1.8190 -1.7509
  854MPD2    N112550   4.532   0.735  12.970  0.8934  0.3250  0.7025
  854MPD2    H712551   4.472   0.760  12.893  0.6409  0.1206  0.8357
  855MPD2     C12552   0.246   0.783  14.137  0.1934 -0.2176  0.1231
  855MPD2    C112553   0.370   0.796  14.068  0.2327  0.0562  0.0375
  855MPD2    C212554   0.370   0.740  13.946  0.3241 -0.3817 -0.0876
  855MPD2    C312555   0.264   0.674  13.880 -0.2469 -0.2220 -0.3690
  855MPD2    C412556   0.144   0.657  13.949 -0.2016  1.0115  0.4726
  855MPD2    C512557   0.136   0.722  14.072 -0.2362  0.1862 -0.0904
  855MPD2     H12558   0.465   0.741  13.893 -0.0388 -0.3889 -0.7445
  855MPD2    H112559   0.055   0.602  13.921  0.3031  0.8918 -0.8937
  855MPD2    H212560   0.231   0.822  14.237  0.1888  0.4015 -0.1223
  855MPD2    H312561   0.046   0.709  14.133  2.2500 -1.4110  3.2459
  855MPD2     N12562   0.279   0.609  13.752 -0.3538  0.5829  0.1852
  855MPD2    H512563   0.197   0.563  13.715 -1.0156  1.1487  0.9661
  855MPD2    N112564   0.489   0.868  14.101  0.0327 -0.4255 -0.2112
  855MPD2    H712565   0.571   0.861  14.042  1.0239  2.4309  0.8264
  856MPD2     C12566   2.304   2.354  13.952 -0.2587  0.0037  0.2477
  856MPD2    C112567   2.386   2.454  13.902  0.3743 -0.5787 -0.7008
  856MPD2    C212568   2.325   2.582  13.884 -0.3293 -0.0608 -0.0531
  856MPD2    C312569   2.190   2.602  13.908 -0.7995  0.1227  0.0315
  856MPD2    C412570   2.111   2.494  13.934 -0.1030  0.2492  0.0042
  856MPD2    C512571   2.173   2.370  13.952 -0.6879  0.6358  0.6554
  856MPD2     H12572   2.391   2.664  13.860 -0.2960 -0.5952 -1.7585
  856MPD2    H112573   2.005   2.502  13.954  0.6439  2.6303  3.0451
  856MPD2    H212574   2.345   2.261  13.991 -2.3986 -2.3687 -3.1199
  856MPD2    H312575   2.107   2.285  13.964 -0.9418  0.6848 -0.4085
  856MPD2     N12576   2.134   2.732  13.919 -0.2727 -0.7842  0.3915
  856MPD2    H512577   2.036   2.730  13.947 -0.0637  0.5477  1.1978
  856MPD2    N112578   2.524   2.441  13.892 -0.3081 -0.5288  0.4521
  856MPD2    H712579   2.572   2.522  13.855  0.4670 -0.2918  2.0003
  857MPD2     C12580   4.365   4.102  13.213 -0.2448  0.0455  0.0681
  857MPD2    C112581   4.410   4.125  13.089  0.4606 -0.0949 -0.2584
  857MPD2    C212582   4.430   4.256  13.046 -0.0744 -0.2585  0.4755
  857MPD2    C312583   4.418   4.361  13.135 -1.1225 -0.2938  0.2468
  857MPD2    C412584   4.383   4.329  13.269  0.6323 -0.2936  0.2248
  857MPD2    C512585   4.350   4.205  13.301 -0.0502  0.8985 -0.1570
  857MPD2     H12586   4.464   4.283  12.947  0.6791 -2.6489  0.0931
  857MPD2    H112587   4.375   4.407  13.344 -0.4210  1.1929 -1.4375
  857MPD2    H212588   4.339   4.001  13.240 -3.4180  0.8260 -0.0075
  857MPD2    H312589   4.307   4.177  13.397  2.3214 -2.8023 -0.1582
  857MPD2     N12590   4.464   4.495  13.122  0.2494  0.0386  0.2646
  857MPD2    H512591   4.472   4.551  13.206 -0.2428  0.6444 -0.1011
  857MPD2    N112592   4.417   4.008  13.009 -0.2487  0.1249  0.6875
  857MPD2    H712593   4.387   3.916  13.041  1.3019 -0.3192  0.8631
  858MPD2     C12594   3.877   3.431  16.743  0.3339  0.1105 -0.4893
  858MPD2    C112595   4.011   3.454  16.754 -0.2430  0.5118 -0.6094
  858MPD2    C212596   4.054   3.574  16.799  1.0950 -0.6048  0.0175
  858MPD2    C312597   3.976   3.687  16.814  0.3322  1.0540 -0.8442
  858MPD2    C412598   3.836   3.672  16.811  0.0272 -0.3935 -0.0088
  858MPD2    C512599   3.795   3.541  16.776 -0.1601 -0.4561  0.4161
  858MPD2     H12600   4.160   3.592  16.808  1.2643 -1.3647 -0.4106
  858MPD2    H112601   3.768   3.754  16.832 -1.2035 -1.5291  0.4604
  858MPD2    H212602   3.837   3.336  16.709 -0.3579 -0.2477  1.3335
  858MPD2    H312603   3.689   3.524  16.767 -0.3403  0.2815  1.1162
  858MPD2     N12604   4.031   3.814  16.852  0.3665 -0.8721  0.0390
  858MPD2    H512605   3.958   3.880  16.878 -0.3556 -1.4734 -0.4869
  858MPD2    N112606   4.098   3.345  16.730  0.3484  0.3084  0.1423
  858MPD2    H712607   4.060   3.266  16.679  2.0270  0.4214 -1.2760
  859MPD2     C12608   3.079   0.941  15.968 -0.3058 -0.1594 -0.2931
  859MPD2    C112609   3.193   0.910  15.896  0.2437 -0.3099 -0.3557
  859MPD2    C212610   3.264   0.790  15.919  0.6282 -0.4173  0.1543
  859MPD2    C312611   3.215   0.700  16.011 -0.0079 -0.4870 -1.0833
  859MPD2    C412612   3.105   0.738  16.085  0.3231  0.7377  0.0702
  859MPD2    C512613   3.038   0.850  16.059 -0.2968 -0.3299  0.3169
  859MPD2     H12614   3.352   0.771  15.858 -0.5504 -1.8370 -1.1084
  859MPD2    H112615   3.064   0.674  16.162 -1.5517  0.5205 -1.1128
  859MPD2    H212616   3.027   1.034  15.948  0.2176  0.2724  0.3833
  859MPD2    H312617   2.957   0.880  16.124 -0.2450 -1.5765  0.9509
  859MPD2     N12618   3.288   0.586  16.053  0.3095 -0.3002 -0.2886
  859MPD2    H512619   3.240   0.523  16.115 -1.0978  2.0744  1.0181
  859MPD2    N112620   3.240   1.001  15.796 -0.1564 -0.3528 -0.2146
  859MPD2    H712621   3.333   0.993  15.755  1.2339 -1.1716  3.1469
  860MPD2     C12622   1.496   1.117  11.993 -0.1803 -0.0009 -0.7506
  860MPD2    C112623   1.464   1.223  12.068 -0.2288 -0.2803  0.1149
  860MPD2    C212624   1.361   1.206  12.160  0.7859  0.7515 -0.6763
  860MPD2    C312625   1.306   1.081  12.182  1.0357  0.3855  0.7847
  860MPD2    C412626   1.349   0.982  12.109 -0.1238 -0.1334  0.3425
  860MPD2    C512627   1.437   0.996  12.002 -0.2183 -0.0527 -0.2580
  860MPD2     H12628   1.343   1.292  12.224  3.2464  0.3145  0.6355
  860MPD2    H112629   1.320   0.878  12.115  0.3193 -0.4885 -3.1836
  860MPD2    H212630   1.565   1.130  11.910  0.3212  2.6177  0.0882
  860MPD2    H312631   1.468   0.908  11.946  1.2599  0.6301 -0.5135
  860MPD2     N12632   1.204   1.067  12.277 -1.0514 -0.1860 -0.0715
  860MPD2    H512633   1.176   1.151  12.327  4.1733  1.7861 -0.5574
  860MPD2    N112634   1.542   1.343  12.066  0.6883  0.5489  0.5440
  860MPD2    H712635   1.519   1.414  12.135 -1.3523  0.1177  0.3170
  861MPD2     C12636   0.011   4.224  10.921 -0.8537 -1.0230 -0.4081
  861MPD2    C112637   4.618   4.255  10.987 -0.5221 -0.0347  0.6037
  861MPD2    C212638   4.527   4.335  10.928 -0.0886  0.3899  0.1850
  861MPD2    C312639   4.551   4.401  10.809 -0.6444  0.0911  0.4960
  861MPD2    C412640   4.671   4.370  10.745 -0.4116 -0.5518  0.2701
  861MPD2    C512641   0.031   4.276  10.796 -0.4353  0.8262 -0.5023
  861MPD2     H12642   4.436   4.353  10.984  0.3311  0.1181  0.9513
  861MPD2    H112643   4.711   4.426  10.661 -0.7012  0.6622  0.9271
  861MPD2    H212644   0.086   4.157  10.962 -1.3156 -0.7065  0.9581
  861MPD2    H312645   0.114   4.246  10.733  0.6372  0.3868  1.1416
  861MPD2     N12646   4.466   4.502  10.763 -0.2959  0.1400 -0.0015
  861MPD2    H512647   4.503   4.560  10.688 -0.6323  0.9857  0.4805
  861MPD2    N112648   4.589   4.205  11.115  0.3832 -0.3827 -0.0696
  861MPD2    H712649   4.494   4.201  11.149 -0.2024  1.4320 -1.4389
  862MPD2     C12650   3.883   4.525  10.509 -0.1014 -0.0670 -0.3817
  862MPD2    C112651   4.016   4.514  10.533  0.1744  1.0393 -0.3041
  862MPD2    C212652   4.068   4.383  10.538 -0.1111 -0.7180 -0.6444
  862MPD2    C312653   3.987   4.273  10.541  0.5792 -0.5628 -0.3117
  862MPD2    C412654   3.852   4.287  10.524  0.6615 -0.1285  0.7181
  862MPD2    C512655   3.802   4.416  10.500 -0.1612  1.1737  0.6160
  862MPD2     H12656   4.176   4.375  10.536 -0.0887  0.3873 -3.0782
  862MPD2    H112657   3.779   4.207  10.523  0.7648 -0.2409  1.7859
  862MPD2    H212658   3.845   4.626  10.500  0.5526  0.1533 -0.7027
  862MPD2    H312659   3.697   4.438  10.490 -0.5825 -0.7422  0.8508
  862MPD2     N12660   4.036   4.144  10.559  0.0111 -0.1921  0.5387
  862MPD2    H512661   3.976   4.064  10.544  0.8141 -0.4288 -1.3799
  862MPD2    N112662   4.112   4.616  10.550  0.3862 -0.2224  0.6984
  862MPD2    H712663   4.208   4.585  10.561 -0.2853 -1.4159  3.1010
  863MPD2     C12664   3.006   2.272  16.807  0.4726  0.1785  0.9375
  863MPD2    C112665   3.003   2.411  16.796 -0.0536 -0.3452 -0.1544
  863MPD2    C212666   3.089   2.479  16.885  0.0997 -0.3886 -0.8049
  863MPD2    C312667   3.184   2.414  16.968 -0.4125  0.2120  0.2766
  863MPD2    C412668   3.183   2.277  16.967  0.6110  0.6412 -0.4130
  863MPD2    C512669   3.095   2.207  16.890  0.1828 -0.3895  0.3233
  863MPD2     H12670   3.087   2.587  16.887  2.8439 -0.3823  2.8515
  863MPD2    H112671   3.250   2.218  17.030  2.9821  0.4421 -3.1434
  863MPD2    H212672   2.928   2.219  16.752  2.4419 -1.9334  0.1925
  863MPD2    H312673   3.084   2.100  16.894 -1.3497 -0.3599 -3.0663
  863MPD2     N12674   3.279   2.474  17.055  0.6556 -0.5329  0.0531
  863MPD2    H512675   3.327   2.421  17.127  1.0056 -0.4901 -0.1487
  863MPD2    N112676   2.896   2.475  16.728 -0.4829  0.6901  0.4202
  863MPD2    H712677   2.833   2.415  16.677  2.2085  0.2643 -2.4175
  864MPD2     C12678   2.992   4.448  16.738 -0.0383  0.6191 -0.5208
  864MPD2    C112679   3.043   4.364  16.641  0.3377  0.1468  1.0579
  864MPD2    C212680   3.097   4.413  16.524 -0.2519 -0.0876 -0.1515
  864MPD2    C312681   3.137   4.542  16.519  0.6345 -0.6444 -0.0900
  864MPD2    C412682   3.102   4.628  16.622  0.2483  0.2695 -0.3481
  864MPD2    C512683   3.022   4.584  16.729 -0.2305 -1.1511  1.1655
  864MPD2     H12684   3.123   4.339  16.450 -3.2186 -0.6730 -0.6169
  864MPD2    H112685   3.133   0.008  16.611  1.7241 -0.2161 -0.7075
  864MPD2    H212686   2.932   4.414  16.821 -0.0930  0.8480 -0.4649
  864MPD2    H312687   2.986   4.658  16.799  0.1564  1.4427 -1.3638
  864MPD2     N12688   3.226   4.589  16.418 -0.2583 -0.6802  0.1907
  864MPD2    H512689   3.279   4.674  16.429 -1.3525  0.2294 -1.7179
  864MPD2    N112690   3.031   4.223  16.678  0.0361 -0.5645 -0.1904
  864MPD2    H712691   3.007   4.198  16.774 -0.4902  1.0523  0.1145
  865MPD2     C12692   3.215   4.092  15.573 -0.1432 -0.2677 -0.2393
  865MPD2    C112693   3.343   4.074  15.617  0.7771  0.5015 -0.1006
  865MPD2    C212694   3.378   4.167  15.715 -0.2871 -0.2021 -0.4257
  865MPD2    C312695   3.295   4.264  15.773 -0.7066 -0.3087 -0.2077
  865MPD2    C412696   3.165   4.272  15.726  0.1060  0.2846  0.2239
  865MPD2    C512697   3.133   4.194  15.613  0.2507  0.0538  0.2469
  865MPD2     H12698   3.478   4.150  15.755 -0.8526  1.8275  1.8605
  865MPD2    H112699   3.092   4.342  15.765  1.2914  1.8150 -0.3157
  865MPD2    H212700   3.161   4.031  15.502 -3.1096  0.9538  0.9611
  865MPD2    H312701   3.032   4.195  15.574  0.5883  1.3168 -0.5934
  865MPD2     N12702   3.327   4.339  15.892 -0.1694  0.1849 -0.3585
  865MPD2    H512703   3.250   4.385  15.940  0.1664 -1.4679  1.7894
  865MPD2    N112704   3.439   3.973  15.585 -0.7276 -0.6429  0.3961
  865MPD2    H712705   3.529   3.969  15.631  0.4602  2.4969 -1.7314
  866MPD2     C12706   0.659   4.226  11.252 -0.7906  0.0005 -0.3174
  866MPD2    C112707   0.670   4.341  11.169  0.2777  0.5359  0.3453
  866MPD2    C212708   0.554   4.387  11.118 -0.2541 -0.4789 -0.2910
  866MPD2    C312709   0.429   4.339  11.147  0.3099  0.7920  0.3484
  866MPD2    C412710   0.419   4.229  11.227 -0.6942 -0.2097  0.2514
  866MPD2    C512711   0.536   4.175  11.279 -1.0701  0.5259  0.7000
  866MPD2     H12712   0.567   4.473  11.053 -0.0593 -0.5516 -0.3483
  866MPD2    H112713   0.324   4.184  11.252 -0.5376 -0.5106  0.3008
  866MPD2    H212714   0.746   4.193  11.307 -0.5681  1.2636  0.0693
  866MPD2    H312715   0.529   4.090  11.347 -0.1110  0.1731  0.3545
  866MPD2     N12716   0.309   4.385  11.099  0.1834  0.0523  0.1433
  866MPD2    H512717   0.223   4.343  11.132 -1.1072  0.3728 -2.7689
  866MPD2    N112718   0.785   4.380  11.109  0.2507  0.1893  0.1123
  866MPD2    H712719   0.783   4.466  11.054  0.6611 -0.1571 -0.4499
  867MPD2     C12720   2.630   4.252  16.646 -0.2304 -0.3544 -0.1839
  867MPD2    C112721   2.687   4.201  16.761  0.6322 -0.4093 -0.1368
  867MPD2    C212722   2.707   4.288  16.864  0.3024  0.4328 -0.3685
  867MPD2    C312723   2.681   4.423  16.856  0.5123  0.0968 -0.0395
  867MPD2    C412724   2.624   4.473  16.742 -0.1461  0.2507  0.7544
  867MPD2    C512725   2.606   4.389  16.637 -1.1642  0.1987  0.0285
  867MPD2     H12726   2.752   4.253  16.957  0.0174 -0.3426 -0.5273
  867MPD2    H112727   2.599   4.576  16.720 -1.5137 -0.2044  0.1904
  867MPD2    H212728   2.598   4.185  16.567 -0.3908  1.0436 -1.2920
  867MPD2    H312729   2.567   4.430  16.545 -1.2644 -1.0374 -0.4810
  867MPD2     N12730   2.709   4.511  16.955  0.4540  0.0738  0.5058
  867MPD2    H512731   2.690   4.608  16.934  1.0848 -0.0301 -0.5919
  867MPD2    N112732   2.702   4.059  16.769  0.3641  0.2123  0.1706
  867MPD2    H712733   2.667   4.006  16.690  1.5970  0.1366 -0.3345
  868MPD2     C12734   4.436   2.206  13.398  0.0600  0.0319 -0.0663
  868MPD2    C112735   4.493   2.322  13.440  0.5842 -0.7365  0.0627
  868MPD2    C212736   4.444   2.400  13.539  0.1616 -0.5855 -1.0154
  868MPD2    C312737   4.316   2.378  13.581  0.7820 -0.0168 -0.2189
  868MPD2    C412738   4.248   2.268  13.539  0.1050  0.4201 -0.5196
  868MPD2    C512739   4.310   2.190  13.447  0.2384  0.5372  0.4441
  868MPD2     H12740   4.499   2.480  13.587 -1.1278  0.1917 -0.8341
  868MPD2    H112741   4.145   2.246  13.562 -0.8832  2.7821 -2.6763
  868MPD2    H212742   4.473   2.142  13.319 -0.6343  0.4355 -0.7146
  868MPD2    H312743   4.252   2.107  13.408 -0.5361 -0.4536  3.6467
  868MPD2     N12744   4.257   2.472  13.681 -0.1655  0.0325  0.1015
  868MPD2    H512745   4.319   2.536  13.730 -0.9640  1.4893 -0.8072
  868MPD2    N112746   4.623   2.336  13.391  0.0133  0.3471  0.3107
  868MPD2    H712747   4.661   2.267  13.327  0.5923  1.7938 -0.9079
  869MPD2     C12748   1.095   1.650   1.928  0.0426 -0.2229  0.2683
  869MPD2    C112749   1.116   1.510   1.906  0.3045  0.7269  0.4121
  869MPD2    C212750   1.093   1.457   1.778  0.4876  0.1774 -0.3636
  869MPD2    C312751   1.044   1.545   1.685 -0.3367 -0.0074 -0.4761
  869MPD2    C412752   1.015   1.683   1.711  0.5591  0.7458  0.2068
  869MPD2    C512753   1.052   1.735   1.831 -0.7549 -0.4806  0.4406
  869MPD2     H12754   1.091   1.349   1.768  1.5925  0.2852 -1.7566
  869MPD2    H112755   0.963   1.748   1.641 -1.9551 -1.0173  0.4307
  869MPD2    H212756   1.120   1.700   2.021 -1.4375  1.1927 -0.1010
  869MPD2    H312757   1.036   1.838   1.859  1.7425 -0.1389  0.5910
  869MPD2     N12758   1.004   1.503   1.556 -0.1664 -0.0157  0.0226
  869MPD2    H512759   0.949   1.568   1.502  1.0082  2.0469  1.3170
  869MPD2    N112760   1.157   1.430   2.021  0.2458  0.1643  0.0369
  869MPD2    H712761   1.190   1.477   2.104  0.1396  0.9576 -0.3692
  870MPD2     C12762   4.510   0.140   1.808  1.4370 -0.3224  0.1967
  870MPD2    C112763   4.625   0.189   1.863 -0.0528  0.7691  0.3409
  870MPD2    C212764   4.675   0.313   1.815 -0.5827  0.1216  0.1791
  870MPD2    C312765   4.603   0.384   1.716 -0.0360  0.2993  0.3412
  870MPD2    C412766   4.478   0.345   1.675  0.3720  0.0486  0.2037
  870MPD2    C512767   4.441   0.220   1.720 -0.2310 -0.3517 -0.0764
  870MPD2     H12768   0.056   0.331   1.839 -0.0588 -0.6992 -1.4889
  870MPD2    H112769   4.417   0.406   1.610 -1.3453 -1.3867  0.4864
  870MPD2    H212770   4.470   0.047   1.846  2.7852 -1.1745 -0.4849
  870MPD2    H312771   4.341   0.186   1.695 -0.0346 -1.2556  0.3815
  870MPD2     N12772   4.663   0.508   1.685 -0.4906  0.4161  0.9005
  870MPD2    H512773   0.032   0.520   1.726  0.9641 -1.6289 -1.6898
  870MPD2    N112774   4.699   0.103   1.948  0.9019 -0.1826  0.7380
  870MPD2    H712775   4.667   0.008   1.964  0.7186  0.0130  1.5075
  871MPD2     C12776   1.397   4.278  16.432  0.4073 -0.4437  0.1115
  871MPD2    C112777   1.375   4.203  16.545 -0.8341 -0.0535  0.2994
  871MPD2    C212778   1.378   4.065  16.535 -0.0152  0.0983  0.9918
  871MPD2    C312779   1.419   4.002  16.415 -0.3736 -0.3826  0.5178
  871MPD2    C412780   1.434   4.085  16.302 -0.3131 -0.6744  0.3186
  871MPD2    C512781   1.422   4.222  16.312  0.1196  0.0169 -0.1906
  871MPD2     H12782   1.361   3.994  16.615 -1.9546 -0.2291  0.2775
  871MPD2    H112783   1.463   4.048  16.204  1.8583 -0.2089  0.7833
  871MPD2    H212784   1.389   4.386  16.431  1.5290 -0.3570  0.0835
  871MPD2    H312785   1.432   4.283  16.222 -0.1290 -0.3905 -0.4974
  871MPD2     N12786   1.456   3.866  16.416 -0.0883  0.1494  0.4968
  871MPD2    H512787   1.435   3.818  16.503  0.4252 -1.0257 -0.0364
  871MPD2    N112788   1.347   4.274  16.674  0.4124  0.6092 -0.4201
  871MPD2    H712789   1.349   4.375  16.672 -0.6022  0.6601  1.2224
  872MPD2     C12790   2.518   1.801  13.540  0.4799 -0.5681 -0.6887
  872MPD2    C112791   2.604   1.806  13.648 -0.0233 -0.1502  0.1978
  872MPD2    C212792   2.562   1.777  13.775  0.4360  0.0613  0.7924
  872MPD2    C312793   2.435   1.725  13.788  0.1944 -0.6147  0.1625
  872MPD2    C412794   2.352   1.718  13.677  0.2184 -0.1619  0.3068
  872MPD2    C512795   2.390   1.769  13.558 -0.1358 -0.0484 -0.1854
  872MPD2     H12796   2.638   1.778  13.852 -1.0852  1.3394  2.2695
  872MPD2    H112797   2.248   1.688  13.686  0.1471 -0.3661 -1.2857
  872MPD2    H212798   2.542   1.826  13.437 -0.1481 -0.1746 -0.7376
  872MPD2    H312799   2.327   1.770  13.470 -0.2773  1.2986 -0.0725
  872MPD2     N12800   2.386   1.666  13.905  0.1175 -0.3519  0.6667
  872MPD2    H512801   2.296   1.624  13.888  0.1827  0.0757 -0.6798
  872MPD2    N112802   2.743   1.833  13.639 -0.2504 -0.1567 -0.3456
  872MPD2    H712803   2.810   1.793  13.704 -2.7800 -0.1274  2.2952
  873MPD2     C12804   3.675   0.143   0.556 -0.2815  0.3559 -0.5006
  873MPD2    C112805   3.595   0.252   0.553  0.5334  0.7660  0.6556
  873MPD2    C212806   3.465   0.240   0.503  0.0059  0.2449  0.0697
  873MPD2    C312807   3.412   0.116   0.460 -1.3512  0.2842  0.6967
  873MPD2    C412808   3.495   0.003   0.479  0.5332  0.0272  0.1593
  873MPD2    C512809   3.626   0.023   0.522 -0.3126  0.2838 -0.1723
  873MPD2     H12810   3.404   0.328   0.486  0.2343 -0.2620 -3.3677
  873MPD2    H112811   3.465   4.627   0.445 -0.2727  0.8266 -1.4884
  873MPD2    H212812   3.780   0.148   0.585 -1.0634 -1.8433  2.6950
  873MPD2    H312813   3.687   4.658   0.533  0.4873  0.4122 -3.5109
  873MPD2     N12814   3.281   0.096   0.413 -0.5344  0.0834  0.5418
  873MPD2    H512815   3.244   0.005   0.392  2.8999 -0.5731 -2.7406
  873MPD2    N112816   3.653   0.378   0.600  0.3958  0.3144 -0.3287
  873MPD2    H712817   3.742   0.377   0.648  0.9184  1.3492 -1.2930
  874MPD2     C12818   3.529   1.844  16.198 -0.2958  0.2357 -0.2842
  874MPD2    C112819   3.590   1.770  16.295 -0.0306  0.1390 -0.1299
  874MPD2    C212820   3.729   1.768  16.297 -0.0193 -0.3697 -0.2603
  874MPD2    C312821   3.803   1.859  16.225  0.6434 -0.0034  0.0918
  874MPD2    C412822   3.738   1.940  16.140  0.2384 -0.2625  0.4729
  874MPD2    C512823   3.604   1.931  16.129 -0.2288 -1.0758  0.5305
  874MPD2     H12824   3.776   1.709  16.375  0.0524  0.0453  0.0052
  874MPD2    H112825   3.793   2.003  16.071 -0.6738 -1.4307 -1.3190
  874MPD2    H212826   3.422   1.855  16.184 -0.1060 -0.8895 -2.6413
  874MPD2    H312827   3.566   2.000  16.055 -2.4481 -0.0544  2.6139
  874MPD2     N12828   3.945   1.878  16.239  0.0292  0.2067 -0.1140
  874MPD2    H512829   3.987   1.955  16.187  0.9384 -1.5763 -2.0079
  874MPD2    N112830   3.508   1.682  16.372 -0.4923 -0.1583  0.7210
  874MPD2    H712831   3.423   1.649  16.326 -0.6196  0.3907  0.5660
  875MPD2     C12832   0.380   0.470  14.776  0.1664  0.7558 -0.4937
  875MPD2    C112833   0.268   0.398  14.806  0.7660  0.1420 -0.1041
  875MPD2    C212834   0.189   0.438  14.916 -0.8546 -0.0787 -0.4412
  875MPD2    C312835   0.244   0.543  15.003  0.0658 -0.1511  0.0086
  875MPD2    C412836   0.366   0.599  14.969  0.5734 -0.8198  0.0520
  875MPD2    C512837   0.422   0.574  14.850 -0.2696 -0.1691 -0.9699
  875MPD2     H12838   0.087   0.401  14.926 -0.5965 -0.5955  0.3234
  875MPD2    H112839   0.406   0.691  15.010  2.4769 -1.0069 -1.3876
  875MPD2    H212840   0.427   0.463  14.678  1.4972  0.8590  0.1267
  875MPD2    H312841   0.512   0.621  14.814  0.4829 -1.6348 -1.0298
  875MPD2     N12842   0.174   0.597  15.119 -0.3930  0.2020  0.0232
  875MPD2    H512843   0.216   0.673  15.171  1.0994 -0.7550  0.2203
  875MPD2    N112844   0.210   0.310  14.709  0.0392 -0.2984 -0.1072
  875MPD2    H712845   0.114   0.287  14.733 -0.2987 -1.1892 -2.3178
  876MPD2     C12846   3.345   1.231  16.134  0.3095 -0.0930 -0.3351
  876MPD2    C112847   3.482   1.244  16.146  0.3241 -0.1709 -0.3109
  876MPD2    C212848   3.553   1.130  16.193  0.0198 -0.5280  0.8395
  876MPD2    C312849   3.487   1.010  16.219  0.6504 -0.3278  0.7595
  876MPD2    C412850   3.352   0.996  16.205  0.3328 -0.4533 -0.4402
  876MPD2    C512851   3.282   1.104  16.157 -0.3611 -0.1460  0.1607
  876MPD2     H12852   3.661   1.135  16.182 -0.4580  2.8572 -2.3828
  876MPD2    H112853   3.303   0.901  16.222 -1.0312  0.2669 -0.2929
  876MPD2    H212854   3.270   1.307  16.113 -0.7102 -0.0228  3.4337
  876MPD2    H312855   3.174   1.107  16.161 -0.2086 -0.0250  3.8285
  876MPD2     N12856   3.573   0.895  16.237  0.0918  0.0902 -0.8055
  876MPD2    H512857   3.673   0.910  16.236  0.1323 -0.2468 -1.7806
  876MPD2    N112858   3.537   1.369  16.095 -0.7311  0.3072 -0.2449
  876MPD2    H712859   3.477   1.436  16.047  0.4274  0.0717 -2.0528
  877MPD2     C12860   3.413   1.708  15.502  0.2581 -0.0508  0.4719
  877MPD2    C112861   3.552   1.701  15.522  0.1543  0.0096  0.5144
  877MPD2    C212862   3.635   1.710  15.412  0.2160 -0.3540  0.5089
  877MPD2    C312863   3.578   1.679  15.286  0.1555  0.0500  0.2724
  877MPD2    C412864   3.444   1.660  15.268  0.1237 -0.0652  0.0774
  877MPD2    C512865   3.365   1.685  15.374  0.0277  0.3872  0.2211
  877MPD2     H12866   3.742   1.726  15.422  0.1945 -0.8981  1.5989
  877MPD2    H112867   3.397   1.628  15.175  0.4904 -0.9436  0.1886
  877MPD2    H212868   3.348   1.736  15.583 -3.3013 -1.0688 -1.9951
  877MPD2    H312869   3.262   1.684  15.341  0.0135 -0.7077  0.2822
  877MPD2     N12870   3.653   1.676  15.165  0.4845  0.7628 -0.0752
  877MPD2    H512871   3.599   1.644  15.085 -0.8846 -0.3539  1.2896
  877MPD2    N112872   3.608   1.694  15.648  0.1462  0.3303  0.7530
  877MPD2    H712873   3.707   1.706  15.661  0.6755 -2.7334 -0.2676
  878MPD2     C12874   3.367   0.806  13.343 -0.6272 -0.6814  0.5023
  878MPD2    C112875   3.501   0.804  13.351  0.0484 -0.0091  0.0956
  878MPD2    C212876   3.561   0.790  13.477 -0.9392 -0.5742  0.0904
  878MPD2    C312877   3.490   0.779  13.588 -0.1497  0.3352  0.2332
  878MPD2    C412878   3.351   0.802  13.583 -0.3289  0.4496 -0.3846
  878MPD2    C512879   3.292   0.813  13.458 -0.5135 -0.5070 -1.1734
  878MPD2     H12880   3.670   0.790  13.476 -0.9460 -0.1472 -0.4033
  878MPD2    H112881   3.281   0.789  13.665  0.0099  1.1742  0.0217
  878MPD2    H212882   3.311   0.816  13.251  1.1117  0.0249 -0.4814
  878MPD2    H312883   3.185   0.821  13.445 -0.7453 -2.1519 -0.3971
  878MPD2     N12884   3.555   0.759  13.710 -0.6871  0.1603 -0.2510
  878MPD2    H512885   3.656   0.757  13.703 -0.5260  1.2696  1.8072
  878MPD2    N112886   3.581   0.814  13.230 -0.1841 -0.4796 -0.1138
  878MPD2    H712887   3.530   0.818  13.143 -0.5751 -1.8606  0.0587
  879MPD2     C12888   3.546   2.880  16.966 -0.2006 -0.7514  0.3734
  879MPD2    C112889   3.639   2.807  17.038 -0.5999  0.8525  0.5262
  879MPD2    C212890   3.681   2.683  16.990  0.0413  0.2724 -0.1803
  879MPD2    C312891   3.623   2.630  16.876  0.4433  0.2994  0.2561
  879MPD2    C412892   3.531   2.705  16.805 -0.1464 -0.1277  0.1384
  879MPD2    C512893   3.493   2.826  16.849 -0.0163  0.1401  0.6825
  879MPD2     H12894   3.754   2.622  17.041 -0.6288 -0.6963 -0.3532
  879MPD2    H112895   3.480   2.653  16.725 -2.3081 -0.4000  1.7049
  879MPD2    H212896   3.521   2.982  16.992  0.7259 -0.4410  0.0461
  879MPD2    H312897   3.409   2.868  16.795  0.7292 -1.5327 -1.7732
  879MPD2     N12898   3.615   2.495  16.850 -0.9733 -0.5248  0.3506
  879MPD2    H512899   3.567   2.464  16.767 -1.0723 -2.4423  1.1195
  879MPD2    N112900   3.697   2.869  17.148  0.2800  0.6409  0.1277
  879MPD2    H712901   3.675   2.967  17.162 -0.3678  0.5485 -0.2386
  880MPD2     C12902   0.651   4.543   0.674  0.3406  0.1313  0.2388
  880MPD2    C112903   0.561   4.620   0.746 -0.1773  0.0161  0.1608
  880MPD2    C212904   0.477   4.552   0.831  0.1669  0.1072 -0.5776
  880MPD2    C312905   0.483   4.423   0.851 -0.0928  0.8601 -0.6323
  880MPD2    C412906   0.579   4.352   0.781 -0.0610 -0.6795  0.5288
  880MPD2    C512907   0.671   4.406   0.700  0.1803  0.0533  0.3786
  880MPD2     H12908   0.388   4.605   0.866 -0.4212 -0.2294 -1.5670
  880MPD2    H112909   0.588   4.244   0.782 -0.6132 -0.7519 -2.4124
  880MPD2    H212910   0.706   4.593   0.595  2.3740 -1.4833  0.6219
  880MPD2    H312911   0.743   4.351   0.640  0.1829  2.3146 -1.7300
  880MPD2     N12912   0.391   4.357   0.938  0.0112  0.5036  0.4218
  880MPD2    H512913   0.339   4.415   1.003 -0.8183 -0.3873  0.5344
  880MPD2    N112914   0.559   0.036   0.730  0.1913  0.3997  0.0553
  880MPD2    H712915   0.602   0.075   0.646 -1.6608  1.1521 -0.5481
  881MPD2     C12916   0.704   0.726   0.097  0.3818 -0.2037  0.0668
  881MPD2    C112917   0.625   0.615   0.085 -0.0797 -0.8648 -0.2170
  881MPD2    C212918   0.579   0.558   0.205  0.3035 -0.0253  0.2781
  881MPD2    C312919   0.597   0.631   0.323  0.2217  0.1565 -0.1973
  881MPD2    C412920   0.652   0.758   0.320  0.5416 -0.4685  0.2898
  881MPD2    C512921   0.703   0.809   0.207 -1.1779  0.1356 -0.4230
  881MPD2     H12922   0.556   0.452   0.207 -1.1223  0.1935 -3.2820
  881MPD2    H112923   0.664   0.812   0.413  0.6326 -0.8255  0.4851
  881MPD2    H212924   0.740   0.778   0.009  0.1384  1.5013  0.9860
  881MPD2    H312925   0.737   0.912   0.198 -1.1688  0.1960  0.3266
  881MPD2     N12926   0.574   0.578   0.455 -0.0516 -0.5323 -0.6062
  881MPD2    H512927   0.575   0.643   0.532 -2.7798  0.8844 -1.7544
  881MPD2    N112928   0.651   0.534  17.667  0.5999  0.6768  0.8287
  881MPD2    H712929   0.703   0.580  17.592  0.8672  0.6653  1.0061
  882MPD2     C12930   3.699   1.367  14.422 -0.2847 -0.6780  0.1960
  882MPD2    C112931   3.655   1.477  14.487  0.7215  0.0010 -0.3427
  882MPD2    C212932   3.552   1.558  14.437 -0.6792  0.4445 -0.1225
  882MPD2    C312933   3.493   1.520  14.316  0.0423 -0.3247 -0.0421
  882MPD2    C412934   3.546   1.414  14.239 -0.1879 -0.0289  0.7095
  882MPD2    C512935   3.647   1.336  14.295 -0.2126  0.0660  0.0797
  882MPD2     H12936   3.535   1.653  14.485  1.0667 -0.1603  1.7049
  882MPD2    H112937   3.517   1.392  14.137  1.7497 -0.2787  0.2141
  882MPD2    H212938   3.786   1.317  14.462 -1.3039 -3.2110 -0.7420
  882MPD2    H312939   3.699   1.264  14.233 -2.2205 -0.7609 -0.6489
  882MPD2     N12940   3.383   1.595  14.260  0.0473  0.7291  0.1723
  882MPD2    H512941   3.343   1.553  14.176 -2.7303 -1.1384  2.4383
  882MPD2    N112942   3.726   1.490  14.611 -0.3243 -0.0308  0.2312
  882MPD2    H712943   3.794   1.420  14.640 -1.4671 -0.6755  1.3399
  883MPD2     C12944   1.438   2.420  15.968  0.3019 -0.0510  0.6983
  883MPD2    C112945   1.370   2.303  15.999  0.5032  0.1005  0.3210
  883MPD2    C212946   1.357   2.265  16.130 -0.0318  0.6051 -0.3237
  883MPD2    C312947   1.403   2.349  16.233 -0.2633  0.2006 -0.4912
  883MPD2    C412948   1.467   2.469  16.198  0.5086 -0.4210 -0.5618
  883MPD2    C512949   1.488   2.497  16.065 -0.1379 -0.0706 -0.4781
  883MPD2     H12950   1.314   2.167  16.145 -0.0939  0.5999 -0.5227
  883MPD2    H112951   1.510   2.541  16.266  0.0267  0.6742 -1.4329
  883MPD2    H212952   1.436   2.463  15.868  0.6114 -1.4073  0.1153
  883MPD2    H312953   1.534   2.593  16.044 -0.0986 -0.4880 -2.3581
  883MPD2     N12954   1.380   2.303  16.363  0.3374  0.2926 -0.1438
  883MPD2    H512955   1.329   2.217  16.375 -0.2772  1.3048  4.3478
  883MPD2    N112956   1.316   2.211  15.905  0.2242 -0.1785 -0.2096
  883MPD2    H712957   1.264   2.129  15.933  0.6050 -0.5735 -0.6404
  884MPD2     C12958   2.825   2.332  15.059  0.2905 -0.5009  0.3013
  884MPD2    C112959   2.828   2.470  15.048 -0.0521  0.1631  0.4880
  884MPD2    C212960   2.729   2.540  15.108  0.7861  0.0616  0.6399
  884MPD2    C312961   2.633   2.477  15.177  0.2575 -0.3038  0.4390
  884MPD2    C412962   2.637   2.339  15.194 -0.5060  0.4862  0.0149
  884MPD2    C512963   2.729   2.269  15.132 -0.1231 -0.2458  0.3179
  884MPD2     H12964   2.727   2.644  15.080  2.5506  0.1724  0.9851
  884MPD2    H112965   2.560   2.286  15.249  0.4547  0.5941  1.4627
  884MPD2    H212966   2.894   2.271  15.001  1.6735  1.4792 -0.1361
  884MPD2    H312967   2.710   2.163  15.127  1.8292 -0.5437 -0.5970
  884MPD2     N12968   2.515   2.548  15.206 -0.0854 -0.3593 -0.3873
  884MPD2    H512969   2.494   2.636  15.160  1.5119 -1.6746 -3.6284
  884MPD2    N112970   2.932   2.537  14.978 -0.4662 -0.0552 -0.0435
  884MPD2    H712971   2.919   2.637  14.973  0.7485 -0.0690 -3.3239
  885MPD2     C12972   1.299   2.120   0.194 -0.8079 -0.7468  0.2227
  885MPD2    C112973   1.342   2.234   0.253  0.3287 -0.0805 -0.1452
  885MPD2    C212974   1.358   2.351   0.180 -0.0676  0.6296  0.0425
  885MPD2    C312975   1.303   2.358   0.052 -0.1432  0.0851 -0.9914
  885MPD2    C412976   1.247   2.247  17.690  0.5925 -0.4940 -0.1186
  885MPD2    C512977   1.246   2.131   0.065  0.4985 -0.9534  0.4481
  885MPD2     H12978   1.403   2.437   0.229 -0.6284  1.1994 -0.4311
  885MPD2    H112979   1.192   2.248  17.596 -0.9045 -0.0879  0.7635
  885MPD2    H212980   1.288   2.025   0.245 -1.9357  0.3979  2.1436
  885MPD2    H312981   1.204   2.044   0.015  1.0869 -0.8845 -0.1610
  885MPD2     N12982   1.309   2.479  17.675  0.0554 -0.3772  0.3285
  885MPD2    H512983   1.378   2.543   0.021  0.7758  0.0933 -1.6963
  885MPD2    N112984   1.373   2.220   0.390  0.3674  0.1375 -0.4911
  885MPD2    H712985   1.362   2.128   0.430 -0.8837 -0.1671 -1.5249
  886MPD2     C12986   2.161   1.345  15.810 -0.3959 -0.0475  0.3272
  886MPD2    C112987   2.288   1.331  15.775  0.0006 -0.2517  0.3260
  886MPD2    C212988   2.327   1.365  15.650 -0.2567 -0.3385 -0.4915
  886MPD2    C312989   2.245   1.383  15.548 -0.2288  0.4361  0.3303
  886MPD2    C412990   2.114   1.385  15.579  0.0157  0.2805  0.6201
  886MPD2    C512991   2.072   1.366  15.703  0.5208 -0.4523 -0.4814
  886MPD2     H12992   2.432   1.357  15.625 -0.6239 -0.7369 -1.9311
  886MPD2    H112993   2.042   1.417  15.505 -0.2516 -0.1145  0.7106
  886MPD2    H212994   2.117   1.310  15.902 -3.3849 -0.4142 -1.2397
  886MPD2    H312995   1.964   1.354  15.711  0.5252 -0.2139 -0.0697
  886MPD2     N12996   2.302   1.421  15.427  0.4582  0.0270 -0.0357
  886MPD2    H512997   2.404   1.417  15.430  0.4324 -0.9564 -0.5968
  886MPD2    N112998   2.392   1.300  15.865  0.4081 -0.4039  0.6482
  886MPD2    H712999   2.487   1.286  15.832 -0.0164 -2.6767  0.4153
  887MPD2     C13000   3.040   1.471  15.786 -0.3726  0.2267  0.1273
  887MPD2    C113001   2.906   1.452  15.754 -0.7552  0.2100 -0.0492
  887MPD2    C213002   2.854   1.471  15.631 -0.2867  0.1586  0.4466
  887MPD2    C313003   2.930   1.538  15.536 -0.4800  0.5433  0.0946
  887MPD2    C413004   3.060   1.557  15.563  0.2801  0.4408 -0.0483
  887MPD2    C513005   3.119   1.522  15.686  0.4348  0.7238 -0.4221
  887MPD2     H13006   2.750   1.466  15.603 -0.5459  2.8472  0.9338
  887MPD2    H113007   3.130   1.602  15.494 -0.2563  3.4599  1.3647
  887MPD2    H213008   3.094   1.456  15.878  1.0594 -1.6705 -1.0250
  887MPD2    H313009   3.226   1.533  15.702  0.4566 -1.2651  0.7184
  887MPD2     N13010   2.865   1.583  15.419 -0.2063  0.5638  0.0483
  887MPD2    H513011   2.764   1.591  15.429 -0.4829 -1.0579 -1.4874
  887MPD2    N113012   2.824   1.392  15.859 -0.1429  0.2130 -0.7027
  887MPD2    H713013   2.731   1.372  15.825 -0.4579 -1.4611  1.1275
  888MPD2     C13014   0.406   1.428  15.188 -0.1722 -0.0882 -0.8648
  888MPD2    C113015   0.367   1.493  15.301 -0.6774  0.1883  0.3753
  888MPD2    C213016   0.402   1.625  15.316  0.1922  0.0200 -0.0118
  888MPD2    C313017   0.476   1.693  15.220  0.0313 -0.0548  0.4082
  888MPD2    C413018   0.523   1.631  15.109 -0.1188  0.2936 -0.4247
  888MPD2    C513019   0.488   1.496  15.098  0.0974  0.0373 -0.5734
  888MPD2     H13020   0.365   1.688  15.396  1.0365 -0.3061  0.6375
  888MPD2    H113021   0.600   1.681  15.050 -0.4076  0.9542 -0.2496
  888MPD2    H213022   0.408   1.320  15.177  1.4367 -0.3269  1.5626
  888MPD2    H313023   0.530   1.430  15.022  1.5406 -1.1217  1.2131
  888MPD2     N13024   0.492   1.833  15.243  0.6496  0.4303  0.5873
  888MPD2    H513025   0.451   1.866  15.330  1.7370 -0.4722  1.4313
  888MPD2    N113026   0.288   1.424  15.395 -0.0254  0.1001 -0.1977
  888MPD2    H713027   0.265   1.460  15.487 -2.3193  1.8471 -1.4950
  889MPD2     C13028   4.186   0.524  12.963 -0.0484 -0.3748 -0.1098
  889MPD2    C113029   4.279   0.513  13.065 -0.1005  0.2478  0.7339
  889MPD2    C213030   4.267   0.602  13.165  0.5955 -0.5726  0.0338
  889MPD2    C313031   4.205   0.727  13.160 -0.7189  0.0986 -0.5923
  889MPD2    C413032   4.132   0.752  13.042 -0.2634 -0.0610  0.0043
  889MPD2    C513033   4.128   0.650  12.943  0.3495 -0.0695 -0.4103
  889MPD2     H13034   4.355   0.603  13.227  0.2967 -1.7150  0.4903
  889MPD2    H113035   4.082   0.847  13.023  0.7471  0.4465 -0.1036
  889MPD2    H213036   4.182   0.448  12.885  0.5976  0.0981 -0.6084
  889MPD2    H313037   4.073   0.669  12.851 -0.6206  1.3414  0.4605
  889MPD2     N13038   4.233   0.818  13.259 -0.0330 -0.0343  0.1077
  889MPD2    H513039   4.288   0.786  13.338  0.0096  0.7094  0.3802
  889MPD2    N113040   4.344   0.388  13.097 -0.1632  0.3923  0.1808
  889MPD2    H713041   4.387   0.377  13.188  0.9452  1.0656 -0.2660
  890MPD2     C13042   3.736   2.464  14.682  0.5111 -0.1211  0.2699
  890MPD2    C113043   3.854   2.465  14.750  0.1510  0.2576  0.2251
  890MPD2    C213044   3.882   2.373  14.844 -0.0659  0.0381 -0.6372
  890MPD2    C313045   3.770   2.321  14.909  0.7242  0.1803  0.0590
  890MPD2    C413046   3.642   2.324  14.844 -0.9096 -0.2454  0.4829
  890MPD2    C513047   3.632   2.386  14.725 -0.1109  0.2704  0.1642
  890MPD2     H13048   3.982   2.359  14.883 -0.7960  1.6615  1.8284
  890MPD2    H113049   3.557   2.278  14.893  0.6185 -1.4625  2.0156
  890MPD2    H213050   3.718   2.537  14.603  2.2840  0.8369  0.7423
  890MPD2    H313051   3.534   2.399  14.679  0.3525 -2.4795 -1.5655
  890MPD2     N13052   3.790   2.254  15.034 -1.2266 -0.6211 -0.4585
  890MPD2    H513053   3.887   2.239  15.062 -1.1900 -1.1682 -0.8844
  890MPD2    N113054   3.953   2.550  14.707 -0.2954 -0.6630  0.3356
  890MPD2    H713055   3.920   2.622  14.642  0.5141 -2.0215 -1.5901
  891MPD2     C13056   1.980   0.941  16.603  0.0625 -0.4656  0.8527
  891MPD2    C113057   1.943   1.061  16.652 -0.2197  0.6096 -0.7785
  891MPD2    C213058   1.978   1.100  16.782 -0.2822  0.1156 -0.0591
  891MPD2    C313059   2.057   1.023  16.858 -0.3221  0.2407  0.5789
  891MPD2    C413060   2.110   0.907  16.803 -0.0406 -0.1100 -0.2450
  891MPD2    C513061   2.058   0.861  16.683 -0.4981  0.7626  0.5761
  891MPD2     H13062   1.950   1.196  16.824  1.0283  0.2940  0.4066
  891MPD2    H113063   2.183   0.848  16.857 -2.7927 -1.3480  2.1010
  891MPD2    H213064   1.963   0.904  16.502  2.4527  1.5403 -0.2662
  891MPD2    H313065   2.097   0.766  16.649 -0.7485  1.0767 -0.5885
  891MPD2     N13066   2.079   1.068  16.989 -0.7661 -0.9890 -0.1625
  891MPD2    H513067   2.034   1.157  17.008  0.8535  0.1752 -1.8043
  891MPD2    N113068   1.850   1.140  16.570  0.2329 -0.2635 -0.2007
  891MPD2    H713069   1.815   1.100  16.483 -0.7244 -1.1405  0.5806
  892MPD2     C13070   2.781   1.801  14.935 -0.0863  0.3612 -0.2775
  892MPD2    C113071   2.708   1.857  14.838  1.1017 -0.1136  0.1547
  892MPD2    C213072   2.741   1.839  14.707  0.6054 -0.4943 -0.0569
  892MPD2    C313073   2.847   1.758  14.675 -0.0825 -0.5511 -0.5508
  892MPD2    C413074   2.927   1.709  14.775  0.9591  0.5493  0.2014
  892MPD2    C513075   2.893   1.732  14.907 -0.1415 -0.5602  1.0101
  892MPD2     H13076   2.681   1.873  14.624  0.8545 -0.0402 -0.0572
  892MPD2    H113077   3.026   1.666  14.760  2.2068  2.0682  3.8708
  892MPD2    H213078   2.783   1.820  15.042 -1.2602  0.3494 -0.2562
  892MPD2    H313079   2.952   1.683  14.984 -0.6076 -0.3057  1.5283
  892MPD2     N13080   2.903   1.730  14.553  0.4415 -0.4876 -0.2728
  892MPD2    H513081   2.993   1.683  14.555  1.0348  0.6120 -0.7726
  892MPD2    N113082   2.587   1.937  14.867  0.0737 -0.6573  0.1450
  892MPD2    H713083   2.547   1.994  14.792  0.4125  0.2119  0.6317
  893MPD2     C13084   4.347   0.961   1.915 -0.3226  0.0011  0.5622
  893MPD2    C113085   4.458   0.885   1.960  0.9441 -0.1056 -0.6469
  893MPD2    C213086   4.443   0.747   1.966  0.0422 -0.2854  0.2999
  893MPD2    C313087   4.320   0.684   1.937  0.7488  0.4725 -0.1206
  893MPD2    C413088   4.217   0.760   1.887  0.1145 -0.3811  0.0557
  893MPD2    C513089   4.231   0.894   1.895  0.0054 -0.2326  0.2159
  893MPD2     H13090   4.527   0.687   1.997  1.4405  0.6093 -1.7641
  893MPD2    H113091   4.116   0.723   1.877 -0.2319  0.5106  0.2223
  893MPD2    H213092   4.350   1.069   1.915 -1.1404  0.0121  2.0028
  893MPD2    H313093   4.151   0.959   1.862  1.6747  1.2922 -0.8082
  893MPD2     N13094   4.291   0.545   1.955 -0.1484 -0.6134 -0.1516
  893MPD2    H513095   4.200   0.508   1.928  0.1472 -0.8265 -0.8305
  893MPD2    N113096   4.579   0.956   1.978  0.5700  0.3350  0.3908
  893MPD2    H713097   4.575   1.046   1.931  2.3144  0.2346  0.0535
  894MPD2     C13098   1.991   3.107   1.573  0.6296 -0.5995  0.3742
  894MPD2    C113099   2.107   3.142   1.638  0.1422  0.1098 -0.4131
  894MPD2    C213100   2.226   3.148   1.568  0.2984  0.5470  0.6308
  894MPD2    C313101   2.225   3.127   1.434  0.2820 -0.2922 -0.3241
  894MPD2    C413102   2.113   3.075   1.374 -0.3754  0.5416 -0.0112
  894MPD2    C513103   1.999   3.069   1.442  0.6308 -1.2028  0.1401
  894MPD2     H13104   2.316   3.186   1.615  0.0141 -0.1184  1.7174
  894MPD2    H113105   2.110   3.034   1.274  0.1649 -1.9999  1.0207
  894MPD2    H213106   1.895   3.081   1.617  1.0018 -0.1165  1.4618
  894MPD2    H313107   1.916   3.017   1.396  1.0529 -2.2894  0.6048
  894MPD2     N13108   2.347   3.154   1.361 -0.1209 -0.2082  0.2019
  894MPD2    H513109   2.423   3.188   1.419 -1.8822  2.9999  0.5824
  894MPD2    N113110   2.107   3.162   1.777 -0.2789  0.0811  0.7616
  894MPD2    H713111   2.201   3.176   1.813  0.0090  0.1008  0.0022
  895MPD2     C13112   1.983   0.978  13.458 -0.7179  0.2128 -0.4391
  895MPD2    C113113   1.874   0.936  13.382 -0.2899  0.6985  0.1739
  895MPD2    C213114   1.885   0.831  13.293 -0.1283  0.4358  0.3613
  895MPD2    C313115   2.006   0.767  13.272 -0.0502 -0.1873  0.1019
  895MPD2    C413116   2.115   0.811  13.340 -0.0950  0.2773 -0.2511
  895MPD2    C513117   2.106   0.911  13.434 -0.7701  0.3455  0.4120
  895MPD2     H13118   1.792   0.792  13.255  0.1198  0.7719 -0.5933
  895MPD2    H113119   2.220   0.785  13.332  0.1016  1.0319 -0.0903
  895MPD2    H213120   1.973   1.051  13.537  3.9613 -2.9067  3.0501
  895MPD2    H313121   2.189   0.938  13.498  0.4286 -0.2254 -0.9128
  895MPD2     N13122   2.023   0.663  13.168 -0.2346  0.6092 -0.4311
  895MPD2    H513123   2.108   0.608  13.159  0.1289  1.3099 -1.2575
  895MPD2    N113124   1.747   0.989  13.390 -0.2567  0.0559  0.0448
  895MPD2    H713125   1.668   0.940  13.348 -0.1519  0.0453 -0.1401
  896MPD2     C13126   3.955   4.419   1.479 -0.7009  0.0687 -0.2894
  896MPD2    C113127   4.014   4.331   1.393 -0.0181  0.4689  0.1786
  896MPD2    C213128   3.937   4.242   1.324  0.1159 -0.0280 -0.7144
  896MPD2    C313129   3.801   4.231   1.347  0.8826 -0.3948  0.5001
  896MPD2    C413130   3.745   4.316   1.438  1.0826  0.6954  0.6500
  896MPD2    C513131   3.826   4.411   1.503  0.7115  0.3900 -0.3667
  896MPD2     H13132   3.984   4.168   1.259  0.5991  2.3968 -3.1480
  896MPD2    H113133   3.639   4.317   1.462  1.2025  2.0114  1.1350
  896MPD2    H213134   4.002   4.503   1.530 -2.0852  1.5332 -1.4529
  896MPD2    H313135   3.775   4.488   1.560  1.0789  1.8261 -1.9790
  896MPD2     N13136   3.736   4.119   1.287  0.6086  0.0438  0.5830
  896MPD2    H513137   3.781   4.070   1.211 -0.6263  0.1584 -0.2187
  896MPD2    N113138   4.156   4.335   1.385  0.2237 -0.6358  0.1217
  896MPD2    H713139   4.209   4.404   1.438  0.1116 -2.5087  2.6474
  897MPD2     C13140   0.789   0.739  11.113  0.2851 -0.2240 -0.4807
  897MPD2    C113141   0.791   0.664  10.993  0.5794  0.0070 -0.1845
  897MPD2    C213142   0.675   0.662  10.916  0.1198  0.6387 -0.4873
  897MPD2    C313143   0.553   0.714  10.960  0.4265 -0.0770 -0.8942
  897MPD2    C413144   0.551   0.770  11.088  0.3157 -0.3050  0.2105
  897MPD2    C513145   0.669   0.793  11.153  0.5187  0.8858  0.2703
  897MPD2     H13146   0.677   0.605  10.825 -2.3636  0.6562 -0.5522
  897MPD2    H113147   0.461   0.815  11.127 -1.2331 -1.4698 -2.0550
  897MPD2    H213148   0.874   0.731  11.180 -2.0906  0.9314  2.6745
  897MPD2    H313149   0.669   0.843  11.249  0.6320 -0.6365  1.0762
  897MPD2     N13150   0.434   0.696  10.883 -0.4885  0.0674 -0.4824
  897MPD2    H513151   0.442   0.660  10.788  0.9436  1.0990 -0.7554
  897MPD2    N113152   0.911   0.597  10.959  0.2634  0.1547  0.4730
  897MPD2    H713153   0.993   0.610  11.018  0.2644  1.7381  0.1325
  898MPD2     C13154   2.456   2.070   0.651  0.4429  0.3127 -0.4711
  898MPD2    C113155   2.565   2.026   0.575 -0.1518 -0.6478  0.9122
  898MPD2    C213156   2.583   2.072   0.448  0.0965  0.4002  0.5528
  898MPD2    C313157   2.504   2.170   0.393  0.4449 -0.2207  0.0599
  898MPD2    C413158   2.403   2.227   0.474  0.2191  0.3112 -0.3713
  898MPD2    C513159   2.386   2.174   0.593  0.1961  0.3204 -0.3483
  898MPD2     H13160   2.673   2.046   0.393 -0.9412 -0.5004 -0.7187
  898MPD2    H113161   2.353   2.322   0.462 -1.4222 -0.7037 -1.4716
  898MPD2    H213162   2.414   2.033   0.744 -0.2704  2.5234  0.0901
  898MPD2    H313163   2.297   2.214   0.639 -0.4826  0.5881 -1.9053
  898MPD2     N13164   2.540   2.229   0.266  0.0943 -0.3204 -0.1028
  898MPD2    H513165   2.623   2.186   0.227  0.0339 -0.0160 -0.5651
  898MPD2    N113166   2.646   1.918   0.624 -0.0742 -0.3599  0.1759
  898MPD2    H713167   2.716   1.868   0.570 -0.4739 -0.1372 -0.5415
  899MPD2     C13168   3.819   2.346  17.362  0.8173 -0.1855  0.1521
  899MPD2    C113169   3.733   2.411  17.450 -0.1534 -0.0579  0.0691
  899MPD2    C213170   3.729   2.375  17.587 -0.3635 -0.4355  0.1182
  899MPD2    C313171   3.807   2.264  17.625  0.0248  0.3759  0.4750
  899MPD2    C413172   3.895   2.210  17.532 -0.0386  0.3144  0.1114
  899MPD2    C513173   3.903   2.247  17.406 -0.4104 -0.1494  0.6882
  899MPD2     H13174   3.670   2.425  17.662  0.0813 -0.2914  0.3719
  899MPD2    H113175   3.958   2.124  17.552  0.0543  1.0822  3.0828
  899MPD2    H213176   3.827   2.381  17.260  1.1619  0.9324  0.5541
  899MPD2    H313177   3.975   2.194  17.345 -0.7259  0.7633 -0.4738
  899MPD2     N13178   3.799   2.209   0.063  0.3874 -0.1303 -0.1501
  899MPD2    H513179   3.881   2.156   0.090 -1.1010 -2.3429  0.0779
  899MPD2    N113180   3.642   2.500  17.397  0.3338  0.2088  0.1063
  899MPD2    H713181   3.662   2.509  17.298 -0.6011  0.1122 -0.0953
  900MPD2     C13182   3.281   3.471  12.630 -0.4547 -0.0591  0.4659
  900MPD2    C113183   3.187   3.371  12.615  0.3166 -0.9898  0.0913
  900MPD2    C213184   3.056   3.399  12.573 -0.0345 -0.2680 -0.3838
  900MPD2    C313185   3.019   3.530  12.556  0.1736 -0.2535 -0.6989
  900MPD2    C413186   3.116   3.629  12.576  0.5120 -0.1845  0.2598
  900MPD2    C513187   3.243   3.601  12.613  0.6977 -0.0766  0.7975
  900MPD2     H13188   2.978   3.326  12.556  0.2109 -1.3934  3.3011
  900MPD2    H113189   3.098   3.735  12.581 -0.5115 -0.3580  0.2795
  900MPD2    H213190   3.387   3.452  12.646 -0.2935 -1.2389 -2.1441
  900MPD2    H313191   3.324   3.673  12.614  0.4291  0.2421 -0.1657
  900MPD2     N13192   2.892   3.564  12.509 -0.2942  0.5159  0.4075
  900MPD2    H513193   2.839   3.487  12.469 -1.4983  1.1797  0.7195
  900MPD2    N113194   3.231   3.237  12.637  0.0043 -0.1554 -0.0102
  900MPD2    H713195   3.329   3.224  12.662 -0.1570  0.4554  0.9167
  901MPD2     C13196   3.403   2.352  13.211  0.2173 -0.1343 -0.0653
  901MPD2    C113197   3.406   2.320  13.076  0.1286  0.2021 -0.2064
  901MPD2    C213198   3.352   2.405  12.985 -0.6250 -0.3511 -0.1752
  901MPD2    C313199   3.317   2.535  13.022 -0.5195 -0.1298 -0.1381
  901MPD2    C413200   3.327   2.576  13.155 -0.5388  0.5527 -0.4369
  901MPD2    C513201   3.367   2.482  13.246  0.6282 -0.2281  0.3728
  901MPD2     H13202   3.350   2.380  12.879  4.3735 -2.1838  0.1455
  901MPD2    H113203   3.300   2.676  13.186  2.0043  1.3135 -0.6852
  901MPD2    H213204   3.442   2.279  13.280  0.3219 -0.6677 -0.6882
  901MPD2    H313205   3.374   2.506  13.352  1.3127  2.6251 -0.3261
  901MPD2     N13206   3.284   2.620  12.914 -0.4275 -0.6020  0.5796
  901MPD2    H513207   3.299   2.596  12.816 -0.5186 -0.8135  0.6188
  901MPD2    N113208   3.466   2.199  13.043 -0.1639  0.0349  0.2993
  901MPD2    H713209   3.464   2.132  13.120  2.0625 -0.0750  0.2674
  902MPD2     C13210   2.240   1.151  13.110  0.1627 -0.3061  0.5479
  902MPD2    C113211   2.249   1.260  13.021  1.0083 -0.0890  0.5874
  902MPD2    C213212   2.356   1.280  12.935  0.8797 -0.3698  0.1492
  902MPD2    C313213   2.455   1.183  12.933  0.5902  0.0255  0.3860
  902MPD2    C413214   2.432   1.067  13.008  0.4642 -0.1699 -0.1977
  902MPD2    C513215   2.332   1.057  13.100  0.5286 -0.0307  0.6148
  902MPD2     H13216   2.362   1.359  12.861 -2.0516 -0.2424  0.0394
  902MPD2    H113217   2.506   0.988  13.002  2.5168  1.7724 -0.6535
  902MPD2    H213218   2.162   1.149  13.186  0.2746 -0.6865  0.6540
  902MPD2    H313219   2.328   0.968  13.162 -0.9272 -1.1936 -1.1187
  902MPD2     N13220   2.556   1.178  12.845  0.2526  0.6637 -0.1384
  902MPD2    H513221   2.591   1.089  12.813  1.8453  1.0659  0.4719
  902MPD2    N113222   2.137   1.345  13.026  0.0352 -0.2350 -0.6987
  902MPD2    H713223   2.076   1.327  13.106 -1.1994  0.7072 -1.4313
  903MPD2     C13224   2.235   1.586  12.517  0.3006  0.3814 -0.0278
  903MPD2    C113225   2.294   1.523  12.411 -0.0008 -0.0396 -0.1054
  903MPD2    C213226   2.240   1.524  12.282  0.1791 -0.0076 -0.3268
  903MPD2    C313227   2.116   1.596  12.271 -0.0959  0.8159 -0.2257
  903MPD2    C413228   2.054   1.666  12.379 -0.0173 -0.1025  0.3299
  903MPD2    C513229   2.123   1.659  12.500 -0.2176 -0.2369 -0.1423
  903MPD2     H13230   2.282   1.472  12.197  1.9990 -1.6817  1.6139
  903MPD2    H113231   1.967   1.729  12.363  0.1188 -0.2672 -1.0146
  903MPD2    H213232   2.283   1.573  12.613 -0.7069  2.0932  0.7062
  903MPD2    H313233   2.097   1.730  12.577 -0.3694  1.3970 -1.7133
  903MPD2     N13234   2.060   1.611  12.141  0.0201 -0.0780  0.2712
  903MPD2    H513235   2.084   1.540  12.071 -0.6654  1.8787 -1.9368
  903MPD2    N113236   2.407   1.444  12.442  0.3211  0.0345  0.4750
  903MPD2    H713237   2.433   1.447  12.540  1.9639  0.6065  0.0100
  904MPD2     C13238   2.259   0.533  13.454  0.2344 -0.2066 -0.6541
  904MPD2    C113239   2.176   0.589  13.549  0.4362  0.0503 -0.1530
  904MPD2    C213240   2.234   0.668  13.646 -0.4012  0.1150  0.4038
  904MPD2    C313241   2.363   0.698  13.646 -0.5356 -0.2775 -1.0840
  904MPD2    C413242   2.442   0.648  13.545  0.3135  0.3233  0.4416
  904MPD2    C513243   2.391   0.564  13.455  0.1312  0.3331 -0.7004
  904MPD2     H13244   2.177   0.697  13.733 -0.8006  0.3567  0.0615
  904MPD2    H113245   2.548   0.667  13.536  0.8100 -1.6610  2.1621
  904MPD2    H213246   2.225   0.471  13.372 -0.9737  1.2632 -1.2601
  904MPD2    H313247   2.454   0.514  13.382 -1.7397 -2.2147 -0.5611
  904MPD2     N13248   2.417   0.783  13.745  0.0335  0.1087  0.9529
  904MPD2    H513249   2.347   0.817  13.810  1.1964  2.0858  1.1678
  904MPD2    N113250   2.032   0.569  13.567  0.1274  0.4052 -0.2971
  904MPD2    H713251   1.990   0.600  13.654  2.2406  0.8988  0.5470
  905MPD2     C13252   1.391   0.668  12.970 -0.4811 -0.1881  0.0212
  905MPD2    C113253   1.488   0.575  13.007  0.4696 -0.4094  0.3197
  905MPD2    C213254   1.569   0.511  12.910  0.1895 -0.6610 -0.7025
  905MPD2    C313255   1.562   0.551  12.781 -1.0128  0.0336  0.3136
  905MPD2    C413256   1.472   0.644  12.747  0.5263  0.5749 -0.3135
  905MPD2    C513257   1.386   0.692  12.840 -0.2433 -0.5699 -0.3784
  905MPD2     H13258   1.633   0.426  12.930  2.3316  0.5510 -2.3537
  905MPD2    H113259   1.464   0.684  12.647 -1.2749  4.1658  1.2960
  905MPD2    H213260   1.335   0.729  13.040 -1.2353 -0.0932 -0.6703
  905MPD2    H313261   1.315   0.765  12.804  0.1409 -0.8238 -1.6519
  905MPD2     N13262   1.640   0.499  12.676 -0.0731 -0.5961 -0.1982
  905MPD2    H513263   1.609   0.521  12.582 -2.8502  3.0222  1.5755
  905MPD2    N113264   1.505   0.548  13.150  0.3175 -0.0837  0.8169
  905MPD2    H713265   1.435   0.589  13.211  0.8997 -1.3744  2.3556
  906MPD2     C13266   4.151   0.698  11.872 -0.4923  0.6748  1.1385
  906MPD2    C113267   4.134   0.621  11.759 -0.0205  0.3252  0.4071
  906MPD2    C213268   4.124   0.486  11.771  0.6156  0.1750 -0.3086
  906MPD2    C313269   4.125   0.416  11.889  0.3581  0.0345  0.1083
  906MPD2    C413270   4.143   0.494  12.003 -0.0184  0.0849 -0.0872
  906MPD2    C513271   4.155   0.630  11.997  0.2198  0.4018  0.3776
  906MPD2     H13272   4.118   0.439  11.674  1.2756  2.1259 -1.2858
  906MPD2    H113273   4.134   0.449  12.102  2.1950  1.6386  0.8211
  906MPD2    H213274   4.167   0.806  11.877 -3.1255  1.0977  0.5064
  906MPD2    H313275   4.165   0.699  12.080 -1.8503 -0.5666  1.4411
  906MPD2     N13276   4.118   0.275  11.903 -0.0689  0.1078 -0.3795
  906MPD2    H513277   4.105   0.233  11.994  0.5761  0.4084 -0.1536
  906MPD2    N113278   4.105   0.678  11.634 -0.3694 -0.3440 -0.2592
  906MPD2    H713279   4.080   0.615  11.559 -1.2739 -1.4292  0.9536
  907MPD2     C13280   2.412   0.050  15.334 -0.4105  0.3399 -0.6172
  907MPD2    C113281   2.534   0.040  15.267 -0.4827 -0.3115  0.0864
  907MPD2    C213282   2.593   0.159  15.232 -0.2838  0.4251  0.2091
  907MPD2    C313283   2.541   0.281  15.274 -0.1823 -0.2142  0.1517
  907MPD2    C413284   2.416   0.288  15.334 -0.0808  0.0530 -0.3090
  907MPD2    C513285   2.351   0.173  15.356 -0.3163  0.1096  0.6796
  907MPD2     H13286   2.691   0.166  15.187 -0.5232 -1.0315 -0.5361
  907MPD2    H113287   2.373   0.378  15.376 -1.8534 -1.0409  0.2204
  907MPD2    H213288   2.347   4.689  15.358  0.5346 -0.4304 -0.7390
  907MPD2    H313289   2.264   0.168  15.421 -0.2709  0.7358  0.7837
  907MPD2     N13290   2.627   0.396  15.250  0.5165  0.1079 -1.0415
  907MPD2    H513291   2.699   0.378  15.181  3.0290 -0.2118  1.6474
  907MPD2    N113292   2.586   4.645  15.216 -0.9599  0.0690 -0.2113
  907MPD2    H713293   2.683   4.655  15.190 -0.3589  0.0634  2.0206
  908MPD2     C13294   1.412   0.294  10.088  0.1313  0.1951 -0.1470
  908MPD2    C113295   1.323   0.207  10.149  0.5112 -0.2720 -0.9388
  908MPD2    C213296   1.274   0.231  10.275 -0.1730 -0.2595  0.3003
  908MPD2    C313297   1.315   0.347  10.347 -0.1810 -0.9136 -0.0864
  908MPD2    C413298   1.408   0.429  10.275  0.0786 -0.1055  0.1291
  908MPD2    C513299   1.461   0.403  10.153 -0.2728  0.3344 -1.1603
  908MPD2     H13300   1.202   0.167  10.324  0.0727 -0.5944  0.2237
  908MPD2    H113301   1.441   0.520  10.324 -0.6098 -1.3520  2.9203
  908MPD2    H213302   1.425   0.279   9.982  1.0271 -2.0921  0.2773
  908MPD2    H313303   1.525   0.479  10.110 -1.6838  1.3051 -1.5310
  908MPD2     N13304   1.262   0.376  10.470  0.3496 -0.0439 -0.3307
  908MPD2    H513305   1.191   0.318  10.514  0.2635  1.0041  0.9235
  908MPD2    N113306   1.266   0.115  10.062 -0.5537  0.1212 -0.7528
  908MPD2    H713307   1.294   0.113   9.965 -0.5776  0.9703 -0.7794
  909MPD2     C13308   1.023   2.909  11.871  0.7337  0.1563  0.0851
  909MPD2    C113309   1.010   3.022  11.805 -0.9423  0.1375  0.6545
  909MPD2    C213310   0.923   3.118  11.851 -0.3841 -0.0668 -0.4283
  909MPD2    C313311   0.850   3.107  11.968 -0.8931 -0.3120  0.0101
  909MPD2    C413312   0.874   2.993  12.044 -0.1597  0.8631 -0.8566
  909MPD2    C513313   0.959   2.893  11.990 -0.4839  0.4713  0.5098
  909MPD2     H13314   0.891   3.193  11.779 -2.2846 -1.6438 -1.2283
  909MPD2    H113315   0.814   2.962  12.129 -0.7181  0.3728 -1.4203
  909MPD2    H213316   1.089   2.828  11.841  1.7201  0.5685  1.1551
  909MPD2    H313317   0.976   2.798  12.039  1.0354  0.2349 -0.5058
  909MPD2     N13318   0.756   3.206  12.008 -0.1562  0.7350 -0.2891
  909MPD2    H513319   0.741   3.279  11.938 -1.7455  2.1169  1.4903
  909MPD2    N113320   1.078   3.050  11.685 -0.5367 -0.6883  0.9468
  909MPD2    H713321   1.047   3.127  11.626 -0.5023 -0.5926  1.0533
  910MPD2     C13322   1.894   0.353  15.762  0.3822  0.1273  0.0222
  910MPD2    C113323   1.995   0.376  15.680 -0.4865  0.1462 -0.3179
  910MPD2    C213324   1.972   0.430  15.555  0.9145  0.5475 -0.3037
  910MPD2    C313325   1.845   0.436  15.509 -0.3435 -0.1713 -0.2499
  910MPD2    C413326   1.740   0.393  15.587  0.3333 -0.0535  0.2817
  910MPD2    C513327   1.766   0.360  15.723 -0.4513 -0.5053  0.8420
  910MPD2     H13328   2.058   0.445  15.491  1.9881  0.2865  1.0566
  910MPD2    H113329   1.634   0.390  15.567  0.1905  2.2156  0.6402
  910MPD2    H213330   1.905   0.332  15.868  1.7250 -1.0022 -0.3362
  910MPD2    H313331   1.690   0.333  15.795  0.5457 -1.4679  1.5273
  910MPD2     N13332   1.809   0.512  15.385 -0.6055  0.0546  0.4198
  910MPD2    H513333   1.710   0.505  15.365 -1.3181  0.6221  3.7673
  910MPD2    N113334   2.136   0.374  15.725 -0.3590 -0.0801  0.2259
  910MPD2    H713335   2.211   0.414  15.670 -3.8136  3.0228 -2.1934
  911MPD2     C13336   0.028   0.817  16.729  0.3237  0.3659 -0.3162
  911MPD2    C113337   0.100   0.936  16.762 -0.3719  0.0833 -0.6366
  911MPD2    C213338   0.028   1.051  16.756 -0.3975  0.2934  0.8106
  911MPD2    C313339   4.620   1.053  16.708  0.5135  0.5361  0.4737
  911MPD2    C413340   4.553   0.938  16.680  0.6157 -0.4594 -0.2754
  911MPD2    C513341   4.622   0.815  16.686  0.8647 -0.1619  0.0587
  911MPD2     H13342   0.072   1.147  16.778 -2.8044  2.0110 -2.0194
  911MPD2    H113343   4.450   0.940  16.645  1.5687  1.1382 -3.0250
  911MPD2    H213344   0.080   0.723  16.736  1.4983  0.9573 -1.1486
  911MPD2    H313345   4.567   0.724  16.671  0.3907 -0.3283  2.8674
  911MPD2     N13346   4.554   1.170  16.684 -0.1905 -0.3058 -0.0542
  911MPD2    H513347   4.456   1.158  16.662 -0.6921  2.0923  0.8320
  911MPD2    N113348   0.238   0.916  16.786 -0.0375 -0.3389  0.1018
  911MPD2    H713349   0.272   0.821  16.780  0.8074 -0.0335 -0.0632
  912MPD2     C13350   4.252   1.086  16.166  1.3149  0.5571  0.1787
  912MPD2    C113351   4.241   1.075  16.297  0.4581  0.1528  0.1820
  912MPD2    C213352   4.245   0.949  16.356 -0.4294 -0.4317  0.1934
  912MPD2    C313353   4.283   0.840  16.287 -0.6537  0.3113  0.5166
  912MPD2    C413354   4.320   0.860  16.154 -1.1461  0.3387 -0.7070
  912MPD2    C513355   4.301   0.983  16.094 -0.0483 -0.4350 -0.2411
  912MPD2     H13356   4.215   0.924  16.457 -1.2368 -0.0669  0.0393
  912MPD2    H113357   4.372   0.790  16.090 -2.6365 -1.0778 -0.3506
  912MPD2    H213358   4.233   1.183  16.121  0.2027 -0.2311 -1.0628
  912MPD2    H313359   4.333   1.004  15.993 -1.1004 -1.3857 -0.7752
  912MPD2     N13360   4.271   0.715  16.350 -0.1588  0.4606 -0.2824
  912MPD2    H513361   4.225   0.708  16.440 -3.6068 -4.0199 -2.3380
  912MPD2    N113362   4.217   1.191  16.368 -0.9507 -0.0989 -0.5604
  912MPD2    H713363   4.180   1.272  16.319 -0.1306 -0.1649 -1.2930
  913MPD2     C13364   0.812   2.298  10.928  0.3304  0.5226  0.3200
  913MPD2    C113365   0.818   2.240  10.803 -0.3613  0.7252 -0.1568
  913MPD2    C213366   0.806   2.322  10.686  0.5674  0.6236  0.8137
  913MPD2    C313367   0.765   2.453  10.699 -0.4410 -0.3554 -0.0318
  913MPD2    C413368   0.763   2.512  10.828  0.1212 -0.0820 -0.5693
  913MPD2    C513369   0.791   2.430  10.939  0.4631  0.4949 -0.3892
  913MPD2     H13370   0.812   2.285  10.585  0.4426  1.0508  0.6511
  913MPD2    H113371   0.727   2.612  10.850  2.5570  0.6756 -0.1139
  913MPD2    H213372   0.818   2.234  11.016  1.7294 -0.6409 -0.6360
  913MPD2    H313373   0.776   2.472  11.037 -1.1745  0.2922 -0.5551
  913MPD2     N13374   0.735   2.537  10.587 -0.4409 -0.8602 -0.3723
  913MPD2    H513375   0.732   2.638  10.598  0.1829 -0.8452 -0.3327
  913MPD2    N113376   0.841   2.101  10.791 -0.8805 -0.4221 -0.2212
  913MPD2    H713377   0.847   2.061  10.884  0.6511 -0.4729 -0.3369
  914MPD2     C13378   3.290   1.864  12.135 -0.0964  0.0459  0.1257
  914MPD2    C113379   3.249   1.968  12.223 -0.0330  0.4411  0.8700
  914MPD2    C213380   3.306   1.977  12.348 -0.3545  0.1089  0.2641
  914MPD2    C313381   3.388   1.882  12.389  0.2869  0.5257 -0.2620
  914MPD2    C413382   3.424   1.772  12.311 -0.8378 -0.2266 -0.0873
  914MPD2    C513383   3.375   1.769  12.180  0.5614  0.0231 -0.0707
  914MPD2     H13384   3.307   2.064  12.413  0.9136 -0.8487  1.5485
  914MPD2    H113385   3.486   1.689  12.343  0.2563  1.2347  1.5829
  914MPD2    H213386   3.241   1.861  12.038  1.2371  3.4278 -0.6788
  914MPD2    H313387   3.402   1.685  12.117  2.0591 -0.4997  1.2696
  914MPD2     N13388   3.450   1.905  12.516  0.6109  0.1194  0.8006
  914MPD2    H513389   3.431   1.986  12.574 -0.3577 -0.0723  0.7433
  914MPD2    N113390   3.155   2.064  12.180 -0.9355  0.2044  0.5684
  914MPD2    H713391   3.130   2.053  12.082  0.8514 -1.5808  0.3140
  915MPD2     C13392   1.320   2.812  16.191  0.3089 -0.3583  0.0615
  915MPD2    C113393   1.203   2.758  16.217  0.2401 -0.1374 -0.3843
  915MPD2    C213394   1.124   2.818  16.308  0.1645  0.0626  0.0495
  915MPD2    C313395   1.154   2.938  16.364  0.8746 -1.0839 -0.4042
  915MPD2    C413396   1.277   2.992  16.348  0.1701 -0.5406 -0.8510
  915MPD2    C513397   1.357   2.921  16.259 -0.5185 -0.6828 -0.7917
  915MPD2     H13398   1.020   2.786  16.316  0.3475 -0.4932  0.1993
  915MPD2    H113399   1.328   3.076  16.396 -1.0487 -0.3134  0.0393
  915MPD2    H213400   1.378   2.779  16.106  0.6344 -2.8880  1.2836
  915MPD2    H313401   1.454   2.966  16.244 -0.8137  0.8185  1.7870
  915MPD2     N13402   1.046   3.007  16.416 -0.1856  0.3199 -0.2752
  915MPD2    H513403   0.958   2.958  16.429 -0.4998  1.1672  0.7615
  915MPD2    N113404   1.170   2.640  16.158 -0.2987 -0.0657  0.0319
  915MPD2    H713405   1.220   2.615  16.073  1.3747 -0.1498  1.0422
  916MPD2     C13406   4.146   0.772  15.874  0.3367 -0.1594  0.8684
  916MPD2    C113407   4.075   0.667  15.920 -0.4116  0.1520 -0.1461
  916MPD2    C213408   4.078   0.555  15.837 -0.7461  0.4935  0.0894
  916MPD2    C313409   4.149   0.549  15.721 -0.5454  0.3246  1.0610
  916MPD2    C413410   4.224   0.656  15.684  0.5717  0.5633 -0.0935
  916MPD2    C513411   4.232   0.767  15.767 -0.2684  0.3456 -0.2412
  916MPD2     H13412   4.011   0.473  15.862 -1.6618  1.2023 -0.0245
  916MPD2    H113413   4.285   0.657  15.595 -2.5786 -1.8901 -2.2839
  916MPD2    H213414   4.124   0.866  15.923 -0.1610 -0.4206  1.1448
  916MPD2    H313415   4.293   0.852  15.740 -0.2133  0.7586  1.1908
  916MPD2     N13416   4.139   0.427  15.646 -0.2085 -0.0282  0.2778
  916MPD2    H513417   4.079   0.351  15.676  1.0800 -1.4224 -0.6292
  916MPD2    N113418   3.998   0.682  16.038 -0.0964  0.9589  0.0983
  916MPD2    H713419   4.008   0.768  16.092  0.3880 -0.6897  2.6511
  917MPD2     C13420   4.429   2.704  10.917  0.2556 -0.0496  0.2847
  917MPD2    C113421   4.462   2.746  11.046 -0.5953 -0.1150 -0.3317
  917MPD2    C213422   4.577   2.826  11.058  0.3458 -0.0627  0.9244
  917MPD2    C313423   4.653   2.866  10.953 -0.2850  0.0549  0.8889
  917MPD2    C413424   4.613   2.823  10.826  0.9946  0.3269  0.5466
  917MPD2    C513425   4.510   2.737  10.813 -0.5728 -0.2074  0.2164
  917MPD2     H13426   4.614   2.865  11.152  1.1875  1.0324  0.1368
  917MPD2    H113427   4.671   2.849  10.738  1.1177  2.2019  1.1974
  917MPD2    H213428   4.338   2.648  10.901 -0.8848  0.9444  3.2273
  917MPD2    H313429   4.478   2.717  10.711 -2.7078  3.4515  0.1569
  917MPD2     N13430   0.034   2.953  10.955 -0.6803  0.1218  0.1282
  917MPD2    H513431   0.083   2.981  10.871 -2.7171  1.1253 -0.7249
  917MPD2    N113432   4.368   2.719  11.150 -0.1513 -0.0798 -0.3709
  917MPD2    H713433   4.299   2.647  11.131 -0.6916  0.3220  0.0700
  918MPD2     C13434   4.459   3.049  12.123  0.4104 -0.1535  0.1160
  918MPD2    C113435   4.511   2.931  12.088 -0.7670 -0.4968 -0.7702
  918MPD2    C213436   4.457   2.862  11.983 -0.3987  0.2016  0.0734
  918MPD2    C313437   4.363   2.927  11.901 -0.9020 -0.2009 -0.4984
  918MPD2    C413438   4.316   3.053  11.936 -0.8499  0.5665  0.1069
  918MPD2    C513439   4.361   3.117  12.048 -0.3960  0.1439 -0.7445
  918MPD2     H13440   4.493   2.764  11.955  1.5893  0.5717  1.2760
  918MPD2    H113441   4.237   3.092  11.873 -0.0464  2.2957  0.1915
  918MPD2    H213442   4.497   3.100  12.211  1.1408 -0.5652  0.0361
  918MPD2    H313443   4.309   3.206  12.080  0.3516 -0.1252  1.1751
  918MPD2     N13444   4.326   2.874  11.774 -0.5870  0.2668  0.3362
  918MPD2    H513445   4.280   2.940  11.712  0.9712 -0.2903 -1.4244
  918MPD2    N113446   4.613   2.862  12.162  0.1287  0.0130  0.6106
  918MPD2    H713447   4.633   2.767  12.134 -0.9570 -0.4146  1.2685
  919MPD2     C13448   0.527   1.847  11.901 -0.5156  0.1217  0.2277
  919MPD2    C113449   0.563   1.718  11.886  0.0612 -0.3170  0.2070
  919MPD2    C213450   0.610   1.674  11.763 -0.4946  0.1934  0.4103
  919MPD2    C313451   0.644   1.760  11.664 -0.4696  0.0770  0.4463
  919MPD2    C413452   0.609   1.893  11.677  0.9174  1.0748  0.0340
  919MPD2    C513453   0.558   1.940  11.797 -0.3676 -0.6450 -0.5526
  919MPD2     H13454   0.630   1.568  11.757 -2.5550 -0.1504 -0.4417
  919MPD2    H113455   0.627   1.962  11.596 -2.8753  2.6903  0.5871
  919MPD2    H213456   0.491   1.873  11.999  1.7039  0.1536  1.0317
  919MPD2    H313457   0.525   2.043  11.799  0.2477 -0.5047  2.5625
  919MPD2     N13458   0.707   1.717  11.545  0.7173  0.2075  0.0935
  919MPD2    H513459   0.742   1.792  11.486 -1.4453  0.8186 -0.3801
  919MPD2    N113460   0.545   1.614  11.983 -0.2866  0.3361  0.2482
  919MPD2    H713461   0.582   1.523  11.958 -2.7294  0.1624 -2.6673
  920MPD2     C13462   0.359   1.651  10.661  0.7251  0.1383 -0.5461
  920MPD2    C113463   0.424   1.528  10.657 -0.5097  0.3472 -0.0485
  920MPD2    C213464   0.541   1.501  10.730  0.1042 -0.1856  0.0945
  920MPD2    C313465   0.577   1.598  10.825  0.2270  0.0260 -0.3365
  920MPD2    C413466   0.505   1.720  10.828 -0.2624  0.4892 -0.0438
  920MPD2    C513467   0.398   1.748  10.753 -0.0624  0.0040 -0.3264
  920MPD2     H13468   0.592   1.406  10.728  1.4069  0.5121  0.0219
  920MPD2    H113469   0.533   1.794  10.902  1.4852 -2.3747  2.1443
  920MPD2    H213470   0.281   1.679  10.590  0.6555  0.0973 -0.4854
  920MPD2    H313471   0.363   1.851  10.761 -0.8499 -0.3872  1.2186
  920MPD2     N13472   0.672   1.564  10.925  0.8469  0.1162 -0.4217
  920MPD2    H513473   0.702   1.467  10.933  0.2783  0.3404  3.9953
  920MPD2    N113474   0.391   1.430  10.559 -0.3374  1.0061  0.6764
  920MPD2    H713475   0.456   1.353  10.549 -2.6355 -0.8615  0.1701
  921MPD2     C13476   1.207   1.401  16.973 -0.0184 -0.7058 -0.0291
  921MPD2    C113477   1.195   1.328  16.859  0.6041  0.3303  0.3493
  921MPD2    C213478   1.070   1.268  16.837  0.6424  0.2445  0.0234
  921MPD2    C313479   0.968   1.261  16.936  0.1166  0.7189  0.5426
  921MPD2    C413480   0.981   1.337  17.050 -0.5561  0.3544  0.1062
  921MPD2    C513481   1.105   1.399  17.065 -0.0090 -0.0593 -0.0602
  921MPD2     H13482   1.060   1.202  16.752  1.3500  2.7385 -2.0007
  921MPD2    H113483   0.915   1.342  17.136 -1.4775  0.8199 -0.6334
  921MPD2    H213484   1.302   1.446  17.001 -1.0905  2.0185 -0.7409
  921MPD2    H313485   1.121   1.456  17.156 -0.9847 -1.3905  0.9269
  921MPD2     N13486   0.859   1.184  16.897  0.0078 -0.0362 -0.2967
  921MPD2    H513487   0.868   1.145  16.804  0.4759  1.7828 -1.0107
  921MPD2    N113488   1.318   1.319  16.781 -0.3263 -0.2620  0.1077
  921MPD2    H713489   1.408   1.347  16.820 -1.9403  2.4843  1.8754
  922MPD2     C13490   1.818   3.623  17.131  0.0574 -0.0640  0.0415
  922MPD2    C113491   1.732   3.702  17.206 -0.3136  0.3104  0.0035
  922MPD2    C213492   1.624   3.641  17.266 -0.1426 -0.2060  0.3942
  922MPD2    C313493   1.596   3.503  17.248  0.0368  0.1979  0.1069
  922MPD2    C413494   1.687   3.426  17.178 -0.1748 -0.2645  0.1402
  922MPD2    C513495   1.797   3.483  17.117  0.2942  0.2445  0.1789
  922MPD2     H13496   1.549   3.696  17.321 -1.1013  0.8483 -1.9302
  922MPD2    H113497   1.667   3.321  17.159 -1.1877 -0.2332  1.0325
  922MPD2    H213498   1.901   3.661  17.073  1.0255 -1.3953  0.5633
  922MPD2    H313499   1.873   3.412  17.086 -1.4983 -1.5056 -0.1536
  922MPD2     N13500   1.473   3.455  17.306  0.3830  0.5256  0.1522
  922MPD2    H513501   1.415   3.521  17.358 -1.1137 -0.2398 -0.5589
  922MPD2    N113502   1.757   3.841  17.223 -0.3231  0.2800  0.1746
  922MPD2    H713503   1.715   3.887  17.303  1.6024  2.3032  0.0350
  923MPD2     C13504   2.471   0.660   9.376  0.1317 -0.5459 -0.3055
  923MPD2    C113505   2.566   0.742   9.436  0.1763  0.4341 -0.4109
  923MPD2    C213506   2.692   0.687   9.457  0.2285 -0.3379  0.3430
  923MPD2    C313507   2.719   0.557   9.429  0.0184 -0.1174  0.1042
  923MPD2    C413508   2.615   0.480   9.362 -0.1015  0.5067  0.2848
  923MPD2    C513509   2.497   0.534   9.340 -0.1208  0.0195  0.1835
  923MPD2     H13510   2.766   0.754   9.502 -2.4089  1.4181  2.0881
  923MPD2    H113511   2.628   0.374   9.345 -2.0777  0.4476 -0.8573
  923MPD2    H213512   2.367   0.690   9.373 -0.3733 -2.1915  1.1991
  923MPD2    H313513   2.421   0.464   9.309 -0.8895  0.8050  0.2875
  923MPD2     N13514   2.849   0.501   9.453  0.2699 -0.3296  0.2740
  923MPD2    H513515   2.857   0.401   9.437 -0.9412 -0.0528 -2.1374
  923MPD2    N113516   2.512   0.864   9.483 -0.0395  0.4566  0.5789
  923MPD2    H713517   2.416   0.888   9.462  0.3822 -0.4157 -2.4713
  924MPD2     C13518   3.098   0.058  14.934 -0.2684  0.3900 -0.4155
  924MPD2    C113519   3.152   0.113  15.044 -0.1163 -0.5432 -0.0401
  924MPD2    C213520   3.120   0.237  15.087  0.5860 -0.3813  0.3213
  924MPD2    C313521   3.037   0.315  15.010 -0.3154  0.0333  0.1017
  924MPD2    C413522   2.988   0.263  14.892  0.0816 -0.2365  0.6956
  924MPD2    C513523   3.019   0.131  14.856  0.2004  0.0654  0.4107
  924MPD2     H13524   3.161   0.272  15.181  0.2060  0.6323  0.1050
  924MPD2    H113525   2.925   0.322  14.828  0.0634  0.7823  1.6459
  924MPD2    H213526   3.127   4.685  14.893 -2.0469 -0.8906  1.3460
  924MPD2    H313527   2.985   0.093  14.760  0.3465 -1.0517  0.8071
  924MPD2     N13528   3.017   0.444  15.060 -0.0697  0.2459 -0.0365
  924MPD2    H513529   3.054   0.462  15.152 -0.8241  0.9042  0.1325
  924MPD2    N113530   3.245   0.026  15.114 -0.4704  0.4292 -0.4769
  924MPD2    H713531   3.248   4.652  15.081  0.2810  0.3436 -0.1533
  925MPD2     C13532   2.474   1.241  14.675 -0.2207 -0.1791 -0.1313
  925MPD2    C113533   2.358   1.311  14.657  0.4184  0.0398 -0.5581
  925MPD2    C213534   2.267   1.312  14.762  0.7586  0.2938  0.4887
  925MPD2    C313535   2.292   1.241  14.875 -0.4412  0.0745  0.3302
  925MPD2    C413536   2.414   1.182  14.896 -0.3316 -0.3124  1.1004
  925MPD2    C513537   2.504   1.178  14.792 -0.7038 -0.3683  0.3358
  925MPD2     H13538   2.173   1.362  14.744  1.6508  0.5969 -3.2610
  925MPD2    H113539   2.424   1.124  14.987 -1.8124  1.9681  2.7095
  925MPD2    H213540   2.555   1.238  14.604  1.2530 -1.3863  1.5853
  925MPD2    H313541   2.602   1.132  14.805 -0.6553 -0.2979  0.2184
  925MPD2     N13542   2.197   1.231  14.987 -0.1778 -0.1524 -0.2144
  925MPD2    H513543   2.222   1.182  15.072  1.0256  0.2338 -0.3556
  925MPD2    N113544   2.323   1.381  14.542  0.3340  0.0400 -0.0091
  925MPD2    H713545   2.229   1.420  14.546  0.0038 -0.8695  1.0559
  926MPD2     C13546   1.324   4.359  13.620 -0.9899 -0.0406 -0.1968
  926MPD2    C113547   1.345   4.491  13.615 -0.0716 -0.1181 -0.0116
  926MPD2    C213548   1.421   4.545  13.509  0.1256  0.3638 -0.2948
  926MPD2    C313549   1.464   4.461  13.399 -0.2341 -0.2300 -0.3006
  926MPD2    C413550   1.430   4.329  13.403 -0.3081  0.1935 -0.1244
  926MPD2    C513551   1.368   4.279  13.515  0.0482 -0.6799 -0.0813
  926MPD2     H13552   1.445   4.650  13.498  1.5858  0.0685  0.0110
  926MPD2    H113553   1.445   4.254  13.327 -1.6351  1.1262 -1.3110
  926MPD2    H213554   1.295   4.307  13.711  0.4678 -0.0258  0.2788
  926MPD2    H313555   1.336   4.175  13.515  1.6032 -1.1458 -0.0407
  926MPD2     N13556   1.544   4.506  13.292  0.0415  0.1136  0.3646
  926MPD2    H513557   1.542   4.446  13.210  0.2423  0.7370 -0.0930
  926MPD2    N113558   1.306   4.576  13.727 -0.4786 -0.5800  0.2920
  926MPD2    H713559   1.309   4.674  13.700  2.4170 -0.0318  2.6307
  927MPD2     C13560   4.384   2.600   0.012 -0.1905  0.1812  0.1588
  927MPD2    C113561   4.464   2.515   0.081  0.4606  0.9732  0.1351
  927MPD2    C213562   4.591   2.488   0.035 -0.0820  0.3078 -0.2480
  927MPD2    C313563   4.640   2.568  17.626 -0.1837 -0.2826  0.5272
  927MPD2    C413564   4.558   2.653  17.554 -0.2515 -0.6783 -0.3565
  927MPD2    C513565   4.435   2.673  17.598 -0.3212 -0.3625  0.4247
  927MPD2     H13566   4.658   2.415   0.079  0.0481 -0.3281 -1.4784
  927MPD2    H113567   4.590   2.707  17.466 -5.0077  0.3297 -1.4325
  927MPD2    H213568   4.280   2.615   0.035 -0.5702  1.0135 -2.0454
  927MPD2    H313569   4.363   2.729  17.539  0.9867 -0.1294 -0.9469
  927MPD2     N13570   0.046   2.547  17.591 -0.3237 -0.1666 -0.0558
  927MPD2    H513571   0.094   2.475  17.645  1.1283 -0.3288 -1.5750
  927MPD2    N113572   4.425   2.466   0.212  0.1154  0.0439  0.5098
  927MPD2    H713573   4.335   2.501   0.245 -0.5133 -1.8008  0.7722
  928MPD2     C13574   2.719   0.460   0.599 -0.3894 -0.8717 -0.1209
  928MPD2    C113575   2.635   0.562   0.588 -0.8223 -0.4605 -0.1095
  928MPD2    C213576   2.665   0.661   0.496 -0.0684  0.1730 -0.0493
  928MPD2    C313577   2.792   0.661   0.435 -0.8471 -0.1550 -0.0809
  928MPD2    C413578   2.887   0.561   0.464 -0.4186 -0.4472  0.3582
  928MPD2    C513579   2.847   0.462   0.544  0.1908  0.1373  0.6072
  928MPD2     H13580   2.593   0.738   0.471  0.3951  1.2453  1.9367
  928MPD2    H113581   2.985   0.546   0.421  0.0847  1.7957  0.7500
  928MPD2    H213582   2.698   0.379   0.668  0.5865 -2.1770 -1.3235
  928MPD2    H313583   2.910   0.375   0.553 -0.8647 -0.7996 -1.0845
  928MPD2     N13584   2.835   0.759   0.345 -0.2948 -0.1925  0.9668
  928MPD2    H513585   2.923   0.751   0.297  0.2064 -2.8733  2.3191
  928MPD2    N113586   2.514   0.565   0.672 -0.3123  0.2912  0.5118
  928MPD2    H713587   2.493   0.478   0.720  1.8436 -0.2719  0.4546
  929MPD2     C13588   3.358   0.768  10.309  0.2726 -0.1696  0.2510
  929MPD2    C113589   3.259   0.690  10.367 -0.0523 -0.4194 -0.0715
  929MPD2    C213590   3.179   0.611  10.281 -0.3595  0.2536  0.0579
  929MPD2    C313591   3.200   0.612  10.143  0.1044  1.0509  0.2163
  929MPD2    C413592   3.296   0.696  10.086 -0.0700 -0.3364 -0.0626
  929MPD2    C513593   3.375   0.769  10.171 -0.1747 -0.5872  0.1364
  929MPD2     H13594   3.108   0.539  10.320 -0.5198 -0.6945 -1.9952
  929MPD2    H113595   3.311   0.702   9.979 -1.0710  0.1740 -0.1685
  929MPD2    H213596   3.411   0.837  10.374 -0.9375  0.3999  0.6241
  929MPD2    H313597   3.450   0.833  10.128 -0.3236  0.8729  2.0468
  929MPD2     N13598   3.118   0.527  10.064 -0.6585 -0.3211  0.2723
  929MPD2    H513599   3.043   0.473  10.106 -0.7562 -0.8764 -0.6016
  929MPD2    N113600   3.231   0.703  10.503 -0.1399  0.3780  0.1776
  929MPD2    H713601   3.279   0.772  10.559  0.5938  0.2099 -0.2284
  930MPD2     C13602   4.555   2.572  14.706  0.2488 -0.7085  0.1494
  930MPD2    C113603   4.674   2.609  14.653  0.1715  0.1073 -0.3896
  930MPD2    C213604   4.713   2.559  14.528  0.4210  0.0135  0.4497
  930MPD2    C313605   4.626   2.468  14.465 -0.0020 -0.2978  0.0967
  930MPD2    C413606   4.507   2.431  14.525 -0.0410  0.1185 -0.2826
  930MPD2    C513607   4.474   2.487  14.643  0.1682 -0.1549  0.9735
  930MPD2     H13608   0.069   2.610  14.475 -1.3929 -0.3332 -2.6015
  930MPD2    H113609   4.439   2.361  14.478 -1.4951  0.5795  1.1510
  930MPD2    H213610   4.516   2.621  14.794 -0.7649  2.7201 -2.2111
  930MPD2    H313611   4.390   2.459  14.704 -1.0242  2.5626  0.5929
  930MPD2     N13612   4.650   2.406  14.338  0.6065  0.3918 -0.1215
  930MPD2    H513613   4.583   2.350  14.288  0.4323  1.0232 -0.5931
  930MPD2    N113614   0.019   2.718  14.714  0.6332 -0.6999  0.4594
  930MPD2    H713615   4.677   2.783  14.757 -0.8463 -0.4706 -2.1412
  931MPD2     C13616   4.092   1.859   0.809 -0.3915 -0.1520 -0.3269
  931MPD2    C113617   4.203   1.892   0.740 -0.6053  0.2367  0.0765
  931MPD2    C213618   4.295   1.796   0.740 -0.7544  0.3932 -0.7867
  931MPD2    C313619   4.281   1.675   0.808  0.2147  0.6889 -0.2965
  931MPD2    C413620   4.169   1.649   0.878 -0.5446 -0.3327 -0.1579
  931MPD2    C513621   4.074   1.743   0.877 -0.0598 -0.4135 -0.3470
  931MPD2     H13622   4.389   1.818   0.690  2.0483  0.0515  4.2795
  931MPD2    H113623   4.154   1.573   0.953 -1.4812  0.2731  0.2550
  931MPD2    H213624   4.014   1.933   0.825  1.1965  1.6276 -0.8985
  931MPD2    H313625   3.982   1.743   0.934  0.0200 -1.3045 -0.2250
  931MPD2     N13626   4.385   1.580   0.808  0.5386 -0.8207  0.4058
  931MPD2    H513627   4.375   1.497   0.866  0.5549 -0.6606  0.6389
  931MPD2    N113628   4.221   2.016   0.674 -0.1465  0.2496  0.2787
  931MPD2    H713629   4.137   2.072   0.666  1.0981  2.2059  0.9886
  932MPD2     C13630   1.835   1.080  11.647  0.0796  0.1567  0.1033
  932MPD2    C113631   1.966   1.098  11.611  0.3819 -0.2455 -0.9516
  932MPD2    C213632   2.039   0.982  11.607  0.7839  0.4666 -0.2654
  932MPD2    C313633   1.985   0.861  11.638  0.1842 -0.2956  0.3538
  932MPD2    C413634   1.853   0.843  11.664  0.1917  0.1620  0.0250
  932MPD2    C513635   1.775   0.957  11.670  0.3727 -0.0621 -0.4777
  932MPD2     H13636   2.147   0.984  11.603  0.7622  3.0466  0.2278
  932MPD2    H113637   1.810   0.744  11.680  2.5223 -1.0260 -1.0224
  932MPD2    H213638   1.765   1.163  11.642 -1.4134 -1.0659  0.5075
  932MPD2    H313639   1.669   0.952  11.693  0.1669  2.9560 -0.7329
  932MPD2     N13640   2.065   0.742  11.649 -0.9231  0.1842 -0.0436
  932MPD2    H513641   2.035   0.657  11.696 -2.9771  1.7506  1.5197
  932MPD2    N113642   2.028   1.221  11.593 -0.2509 -0.0564 -1.1235
  932MPD2    H713643   2.127   1.230  11.573 -0.6367  0.2130 -2.8697
  933MPD2     C13644   1.970   1.143   0.769 -0.6717 -0.0598  0.8498
  933MPD2    C113645   2.005   1.088   0.891 -0.0746  0.2532 -0.5636
  933MPD2    C213646   1.963   1.144   1.005 -0.3249  0.6466 -0.4708
  933MPD2    C313647   1.890   1.267   1.009 -0.2918 -0.2353  0.2133
  933MPD2    C413648   1.859   1.325   0.888  0.3980  0.5364 -0.8522
  933MPD2    C513649   1.898   1.263   0.776 -0.0240  0.0245 -0.2645
  933MPD2     H13650   1.983   1.096   1.100 -1.1847 -0.7540 -0.9981
  933MPD2    H113651   1.815   1.424   0.885  2.2520  1.3754 -0.3740
  933MPD2    H213652   1.992   1.096   0.674  0.5775  1.2739  0.4580
  933MPD2    H313653   1.880   1.307   0.679  2.6917  0.0261 -0.7779
  933MPD2     N13654   1.873   1.337   1.135 -0.1545  0.3197 -0.0822
  933MPD2    H513655   1.901   1.295   1.223  0.5745 -1.6444 -1.2334
  933MPD2    N113656   2.062   0.959   0.871  0.0962 -0.4456 -0.3382
  933MPD2    H713657   2.074   0.927   0.776 -1.5729  2.8499 -1.6757
  934MPD2     C13658   4.187   3.890   1.436 -0.1702  0.3655 -1.1569
  934MPD2    C113659   4.228   3.772   1.498 -0.2805  0.0099  0.2044
  934MPD2    C213660   4.131   3.664   1.498 -0.3038  0.1761 -0.0923
  934MPD2    C313661   4.014   3.677   1.417  0.6140 -0.3118 -0.3084
  934MPD2    C413662   4.000   3.790   1.341 -0.3881 -0.0422 -0.1652
  934MPD2    C513663   4.077   3.899   1.358 -0.3821 -0.0684 -0.0053
  934MPD2     H13664   4.141   3.575   1.560  1.6071  1.7618  1.8477
  934MPD2    H113665   3.908   3.799   1.285  0.5472 -1.1428 -1.8910
  934MPD2    H213666   4.249   3.979   1.431  1.1430 -0.5032 -0.4101
  934MPD2    H313667   4.061   3.994   1.309  0.9135  0.1659  0.0271
  934MPD2     N13668   3.903   3.592   1.418 -0.1249  0.1097 -0.3094
  934MPD2    H513669   3.824   3.626   1.363  0.5377  1.6466 -0.3203
  934MPD2    N113670   4.353   3.765   1.568 -0.3819 -0.5782  0.0049
  934MPD2    H713671   4.362   3.676   1.616  0.6014 -0.6471 -0.3099
  935MPD2     C13672   3.434   2.627   1.623 -0.5509 -0.2011  0.3201
  935MPD2    C113673   3.502   2.658   1.505  0.0192  0.1471 -0.0844
  935MPD2    C213674   3.538   2.789   1.476  0.5380 -0.0071 -0.2880
  935MPD2    C313675   3.503   2.892   1.564  0.1537  0.4698  0.0637
  935MPD2    C413676   3.430   2.861   1.675  0.7706  0.5538 -0.2100
  935MPD2    C513677   3.391   2.731   1.706  0.0567  0.5588 -0.3719
  935MPD2     H13678   3.574   2.823   1.379  2.5406 -2.0200 -0.2422
  935MPD2    H113679   3.410   2.940   1.746  1.3440  0.7347 -0.2546
  935MPD2    H213680   3.404   2.528   1.659  0.6859 -0.4682  0.6071
  935MPD2    H313681   3.336   2.715   1.798  1.2207 -0.0212  0.2274
  935MPD2     N13682   3.540   3.028   1.542 -0.7872  0.2563 -0.6236
  935MPD2    H513683   3.510   3.105   1.600 -1.0160 -1.3909  1.4210
  935MPD2    N113684   3.550   2.565   1.412 -0.6242 -0.4364 -0.5773
  935MPD2    H713685   3.606   2.597   1.333 -2.8572 -1.6982 -2.6996
  936MPD2     C13686   2.650   4.117  12.545  0.1468  0.8326 -0.1595
  936MPD2    C113687   2.619   4.200  12.645 -0.1156  0.0991  0.7933
  936MPD2    C213688   2.658   4.331  12.648  0.0217 -0.2990  0.8624
  936MPD2    C313689   2.746   4.374  12.553  0.0242 -0.4176  0.4201
  936MPD2    C413690   2.782   4.295  12.449 -0.3325  0.2875 -0.6496
  936MPD2    C513691   2.732   4.164  12.446 -0.2198  0.1532 -0.5150
  936MPD2     H13692   2.639   4.392  12.736  1.5388  1.5464 -0.0743
  936MPD2    H113693   2.854   4.318  12.372  1.3328 -1.3061  0.4267
  936MPD2    H213694   2.628   4.012  12.529  0.1419  1.0148 -1.3117
  936MPD2    H313695   2.762   4.097  12.367 -1.2746 -1.9987  0.9195
  936MPD2     N13696   2.803   4.494  12.574  0.0505  0.1030  0.3840
  936MPD2    H513697   2.777   4.533  12.664 -1.0339 -0.9092  0.5230
  936MPD2    N113698   2.559   4.156  12.765 -0.0562 -0.5623 -0.2275
  936MPD2    H713699   2.548   4.230  12.834 -2.4030 -0.5663 -0.5968
  937MPD2     C13700   0.858   1.018  12.094  0.9195 -0.1422 -0.1172
  937MPD2    C113701   0.879   1.158  12.095  0.0819 -0.0956 -0.0728
  937MPD2    C213702   0.969   1.215  12.007 -0.0819  0.3687 -0.3359
  937MPD2    C313703   1.057   1.132  11.945  0.1499 -0.3023  0.2181
  937MPD2    C413704   1.039   0.994  11.951  0.0449  0.3620 -0.0751
  937MPD2    C513705   0.940   0.939  12.027 -0.7689  0.0681 -0.0793
  937MPD2     H13706   0.969   1.323  11.997 -0.6860  0.3043 -1.0465
  937MPD2    H113707   1.102   0.927  11.895  1.6298 -1.1227  3.4871
  937MPD2    H213708   0.773   0.982  12.151 -0.6953  3.5846 -0.1677
  937MPD2    H313709   0.911   0.834  12.029 -0.8316  0.0300 -2.5606
  937MPD2     N13710   1.137   1.188  11.836  0.8359  0.1067 -0.0834
  937MPD2    H513711   1.141   1.290  11.836  0.2333  0.1416 -1.3378
  937MPD2    N113712   0.785   1.246  12.147  0.3357  0.6035  0.0566
  937MPD2    H713713   0.792   1.345  12.126  1.3717  0.7931  1.2751
  938MPD2     C13714   3.250   2.339   1.177  0.2501 -0.5671  0.4889
  938MPD2    C113715   3.201   2.389   1.290  0.1427  0.2023  0.4814
  938MPD2    C213716   3.157   2.305   1.386  0.9074  0.3092  0.2928
  938MPD2    C313717   3.152   2.170   1.367  0.2498  0.2888  1.0622
  938MPD2    C413718   3.207   2.120   1.250  0.2787 -0.2163 -0.3917
  938MPD2    C513719   3.257   2.206   1.153 -0.0092  0.3743  0.2869
  938MPD2     H13720   3.107   2.334   1.477 -0.1784  0.6899 -0.4312
  938MPD2    H113721   3.204   2.014   1.228 -2.8277  0.6144 -3.8921
  938MPD2    H213722   3.272   2.402   1.092 -2.0735 -0.3991  0.0142
  938MPD2    H313723   3.271   2.157   1.058  2.5391 -0.4839  1.1002
  938MPD2     N13724   3.092   2.082   1.462  0.3300  0.6716 -0.5321
  938MPD2    H513725   3.103   1.985   1.433 -0.4451  0.6380 -0.7104
  938MPD2    N113726   3.188   2.533   1.312 -0.5014  0.6882 -0.9413
  938MPD2    H713727   3.136   2.550   1.398  1.1081  1.9421 -0.2086
  939MPD2     C13728   4.549   4.217   0.653 -0.8814  0.6708  1.0268
  939MPD2    C113729   4.486   4.338   0.665  0.0923  0.2454  0.7207
  939MPD2    C213730   4.495   4.432   0.565 -0.4638 -0.0888 -0.1451
  939MPD2    C313731   4.579   4.408   0.464  0.2935 -0.6860 -0.1048
  939MPD2    C413732   4.655   4.295   0.456 -0.0215 -0.3449  0.9255
  939MPD2    C513733   4.630   4.199   0.546 -0.2560  0.1493 -0.3104
  939MPD2     H13734   4.428   4.517   0.555  2.7319  2.1718 -2.2236
  939MPD2    H113735   0.007   4.286   0.378 -0.5328 -1.8625  0.6074
  939MPD2    H213736   4.543   4.138   0.727 -0.3576  0.9681  1.3872
  939MPD2    H313737   4.693   4.111   0.550 -1.9144 -0.9677  1.1220
  939MPD2     N13738   4.594   4.506   0.359  0.0852 -0.2974 -0.0890
  939MPD2    H513739   4.552   4.596   0.378  0.1451  0.0610 -1.6175
  939MPD2    N113740   4.404   4.356   0.778  0.0802  0.8761 -0.6274
  939MPD2    H713741   4.363   4.274   0.822 -1.5205  0.7558 -2.3386
  940MPD2     C13742   3.240   4.367  12.727 -0.4149  0.5489 -0.0837
  940MPD2    C113743   3.343   4.349  12.810 -0.2578 -0.7327 -0.2034
  940MPD2    C213744   3.453   4.288  12.765 -0.2170  0.0460 -0.7247
  940MPD2    C313745   3.465   4.237  12.638  0.0241 -0.2996 -0.3114
  940MPD2    C413746   3.357   4.256  12.554  0.3653 -0.0359 -0.5484
  940MPD2    C513747   3.248   4.329  12.599 -0.2830 -0.3734  0.0590
  940MPD2     H13748   3.531   4.286  12.840 -1.0045  1.3097  0.1179
  940MPD2    H113749   3.364   4.235  12.448  0.4241 -0.6251 -0.4315
  940MPD2    H213750   3.146   4.412  12.758 -0.3681 -0.5783  1.7225
  940MPD2    H313751   3.169   4.349  12.528 -0.9551 -0.9510  0.6450
  940MPD2     N13752   3.577   4.179  12.581  0.3801  0.0598  0.3368
  940MPD2    H513753   3.565   4.147  12.485 -1.5035 -0.1177  0.6420
  940MPD2    N113754   3.330   4.387  12.946 -0.0773  0.5133 -0.4246
  940MPD2    H713755   3.417   4.368  12.995 -0.0843 -0.5635 -0.8308
  941MPD2     C13756   2.481   3.702   9.622 -1.0301 -0.3139  0.1901
  941MPD2    C113757   2.554   3.663   9.734 -0.1193 -0.0748  0.1370
  941MPD2    C213758   2.491   3.576   9.825  0.5100  0.2424  0.1528
  941MPD2    C313759   2.357   3.540   9.809  0.2865  0.1038  0.4063
  941MPD2    C413760   2.290   3.585   9.695  0.0784  0.1345 -0.0964
  941MPD2    C513761   2.350   3.666   9.601  0.1854 -0.2316  0.7946
  941MPD2     H13762   2.551   3.540   9.908  1.1251 -1.3416 -0.9648
  941MPD2    H113763   2.188   3.550   9.679  0.2139  0.5097 -1.7216
  941MPD2    H213764   2.528   3.767   9.549 -0.3923 -1.0326 -0.0453
  941MPD2    H313765   2.297   3.699   9.512 -0.8392 -2.2076  0.6861
  941MPD2     N13766   2.288   3.449   9.882 -0.1686 -0.3043 -0.2455
  941MPD2    H513767   2.191   3.445   9.853  0.2312 -0.1378 -1.5899
  941MPD2    N113768   2.687   3.695   9.761 -0.1757 -0.1640 -0.1727
  941MPD2    H713769   2.728   3.663   9.848 -2.1628  0.1204  0.8670
  942MPD2     C13770   2.277   4.711   9.986  0.7622 -0.7410  0.7214
  942MPD2    C113771   2.351   0.072   9.913 -1.6702  0.1789 -0.0258
  942MPD2    C213772   2.449   0.020   9.829  0.1049  0.3236 -0.2075
  942MPD2    C313773   2.478   4.606   9.823  0.0882  0.4481  0.2480
  942MPD2    C413774   2.399   4.522   9.897  0.5492 -0.2694 -0.1664
  942MPD2    C513775   2.306   4.577   9.985  0.0145  0.0518 -0.7197
  942MPD2     H13776   2.499   0.094   9.766 -0.6641  1.9596  1.1269
  942MPD2    H113777   2.420   4.416   9.898 -1.9859 -0.7812 -3.0423
  942MPD2    H213778   2.199   0.020  10.054 -0.2373  0.9922 -1.2325
  942MPD2    H313779   2.251   4.510  10.050 -1.5610  0.0255 -2.0538
  942MPD2     N13780   2.585   4.557   9.750  0.0428  0.2998  0.7072
  942MPD2    H513781   2.606   4.458   9.759  0.2181  0.2243 -0.4621
  942MPD2    N113782   2.328   0.213   9.926 -0.5679 -0.4026 -0.2008
  942MPD2    H713783   2.371   0.284   9.868 -1.0180 -0.0383 -0.0860
  943MPD2     C13784   1.090   4.001   9.619 -1.0308  0.9516 -0.6200
  943MPD2    C113785   1.035   3.880   9.646 -0.2326  0.5497  0.5690
  943MPD2    C213786   0.907   3.853   9.595 -0.3890 -0.6159 -0.2107
  943MPD2    C313787   0.833   3.962   9.550  0.9134  0.9543 -0.2833
  943MPD2    C413788   0.884   4.090   9.539 -0.7953  0.0510 -0.4790
  943MPD2    C513789   1.016   4.108   9.569  0.3727 -0.7070  0.2175
  943MPD2     H13790   0.871   3.751   9.583 -1.1050 -0.8020  3.5778
  943MPD2    H113791   0.819   4.174   9.516 -1.2232 -0.5557 -1.5068
  943MPD2    H213792   1.193   4.024   9.646 -0.2985 -1.8530 -1.0796
  943MPD2    H313793   1.057   4.208   9.560 -1.3542 -0.0222 -0.0802
  943MPD2     N13794   0.698   3.949   9.520 -0.0064 -0.4319 -0.0153
  943MPD2    H513795   0.649   4.024   9.472  1.0474 -0.3235 -0.9233
  943MPD2    N113796   1.113   3.790   9.716  0.0508 -0.1363  0.2879
  943MPD2    H713797   1.212   3.812   9.728  0.1187  0.3976 -1.2256
  944MPD2     C13798   1.162   2.168  11.026  0.6263 -0.0863 -0.3756
  944MPD2    C113799   1.208   2.298  11.042  0.8907 -0.2304  0.3960
  944MPD2    C213800   1.152   2.381  11.134 -0.6919 -0.1901 -0.6685
  944MPD2    C313801   1.057   2.338  11.222 -0.1109  0.7394  1.2692
  944MPD2    C413802   1.009   2.206  11.206  0.5119 -0.1208  0.6620
  944MPD2    C513803   1.056   2.126  11.102 -0.3644  0.3609 -0.7706
  944MPD2     H13804   1.185   2.484  11.144  2.4318 -1.2796  0.3128
  944MPD2    H113805   0.934   2.166  11.275  0.7103 -2.4675 -0.5015
  944MPD2    H213806   1.198   2.103  10.948  2.1605  0.1922  0.0834
  944MPD2    H313807   1.021   2.024  11.088  1.2955 -0.0127 -2.1664
  944MPD2     N13808   1.011   2.434  11.319  0.1655  0.1366  0.0997
  944MPD2    H513809   1.051   2.527  11.322  1.9691 -0.5931 -1.4534
  944MPD2    N113810   1.313   2.340  10.954  0.0144  0.3499  0.3887
  944MPD2    H713811   1.354   2.271  10.892  1.8908  1.0861  0.7947
    1TCq1    O113812   3.605   3.563  13.731 -0.7215 -0.1496 -0.5727
    1TCq1    C113813   3.584   3.515  13.857  0.2465 -0.3662 -0.6359
    1TCq1    O213814   3.625   3.414  13.911  0.5767 -0.2592 -0.4605
    1TCq1    C213815   3.551   3.630  13.939  0.5496  0.7463 -0.5443
    1TCq1    C313816   3.433   3.696  13.914 -0.7360  0.6384 -0.3241
    1TCq1    C413817   3.382   3.777  14.011  0.3324  0.7192 -0.1803
    1TCq1    C513818   3.450   3.814  14.122  0.4189  0.1107 -0.2254
    1TCq1    C613819   3.563   3.737  14.148  0.6033  0.5990 -0.0983
    1TCq1    C713820   3.611   3.637  14.064  0.6952  0.4395 -0.1676
    1TCq1    C813821   3.635   3.760  14.273 -0.2593  0.2900  0.1491
    1TCq1    O413822   3.719   3.677  14.306  0.0436 -0.3549 -0.5297
    1TCq1    C913823   3.244   3.825  13.997  0.5597 -0.3150 -0.7103
    1TCq1    O513824   3.191   3.792  13.884  0.5859 -0.2006 -0.0940
    1TCq1    O613825   3.188   3.878  14.093  0.2385 -0.7989 -0.2979
    1TCq1    H113826   3.578   3.657  13.726  1.0264  0.4149  0.5540
    1TCq1    H213827   3.369   3.675  13.829 -2.7472 -0.7809  1.5481
    1TCq1    H313828   3.404   3.891  14.182 -0.3916 -1.7588  1.5581
    1TCq1    H413829   3.699   3.581  14.094 -0.7054 -1.1037  1.0679
    2MPD2     C13830   3.779   4.087  14.628  0.0449  0.0586  0.0332
    2MPD2    C113831   3.734   4.158  14.517 -0.1559  0.4163  0.8747
    2MPD2    C213832   3.687   4.087  14.411  0.1734  0.9617  0.0365
    2MPD2    C313833   3.669   3.951  14.421  1.1436 -0.1074 -0.2283
    2MPD2    C413834   3.710   3.881  14.532  0.6124 -0.4029 -0.1328
    2MPD2    C513835   3.777   3.948  14.633  0.1860 -0.3226 -0.0423
    2MPD2     H13836   3.666   4.138  14.317  2.1830 -0.4416 -1.1649
    2MPD2    H113837   3.697   3.774  14.539  1.7506 -0.7775 -4.0850
    2MPD2    H213838   3.790   4.135  14.725 -4.3219  4.1265 -1.4932
    2MPD2    H313839   3.799   3.884  14.718  1.0360  0.6594  0.4875
    2MPD2     N13840   3.617   3.886  14.306 -0.3241  0.3367 -0.1266
    2MPD2    H513841   3.583   3.952  14.237  1.4206 -0.2748 -1.5436
    2MPD2    N113842   3.771   4.291  14.510  0.0508  0.3696  0.0851
    2MPD2    H713843   3.819   4.320  14.595 -0.2223  2.8725 -0.6220
    3TMC2    C113844   3.828   4.506  14.420  0.7665 -0.8377  0.0027
    3TMC2    C213845   3.879   4.539  14.548 -0.7509 -1.2552  0.6659
    3TMC2    C313846   3.966   4.643  14.548  0.3740 -1.1299  0.2602
    3TMC2    C413847   3.875   4.566  14.310  0.4664 -0.0373 -0.0509
    3TMC2    C513848   3.965   4.667  14.324 -0.2434 -0.5636 -0.2987
    3TMC2    C613849   4.009   4.710  14.439 -0.1372 -0.0799 -0.7297
    3TMC2     C13850   3.759   4.378  14.402 -0.2614 -0.3395 -0.1190
    3TMC2     O13851   3.720   4.355  14.291  0.1068  0.8583 -0.6022
    3TMC2     H13852   3.864   4.475  14.634 -3.0502 -0.3256  0.9411
    3TMC2    H113853   3.827   4.532  14.219  0.1983  0.6328 -0.1640
    3TMC2    H213854   4.099   0.046  14.436 -1.8201  2.4710 -1.2219
    3TMC2    C713855   4.054   4.663  14.206 -0.0616 -0.2204 -0.0122
    3TMC2    C813856   4.060   4.627  14.656  0.4524 -0.1954  0.3988
    3TMC2    O113857   4.176   4.656  14.226  0.1486  0.1269 -0.0801
    3TMC2    O213858   4.104   0.008  14.701  0.2064  0.2243  0.6316
    3TMC2    O513859   4.144   4.539  14.591  0.3281 -0.4444 -0.7809
    3TMC2    H513860   4.092   4.465  14.552 -0.6214 -0.9835  1.4888
    4MPD2     C13861   3.111   0.537  13.604 -0.5045  0.1686 -0.6468
    4MPD2    C113862   3.110   0.505  13.469  0.3197  0.4339 -0.4918
    4MPD2    C213863   3.222   0.445  13.410  0.0545  0.4187 -0.1836
    4MPD2    C313864   3.337   0.407  13.480 -0.4107  0.8070  0.3227
    4MPD2    C413865   3.333   0.448  13.607 -0.4360  0.3359 -0.4232
    4MPD2    C513866   3.232   0.519  13.664 -0.9044  0.3074 -0.2899
    4MPD2     H13867   3.222   0.420  13.305 -0.5656 -0.2113 -0.0326
    4MPD2    H113868   3.408   0.442  13.684  1.8746  0.0383 -2.6894
    4MPD2    H213869   3.038   0.601  13.653  0.4539  1.5372 -1.0112
    4MPD2    H313870   3.240   0.545  13.769  0.8534  0.9098 -0.5614
    4MPD2     N13871   3.445   0.345  13.416  0.3010  0.3673  0.1295
    4MPD2    H513872   3.443   0.336  13.315  0.4828 -2.3940  0.3788
    4MPD2    N113873   2.996   0.543  13.399 -0.5324 -0.0361  0.7453
    4MPD2    H713874   2.914   0.571  13.452  1.6071  0.4703  3.7978
    5TCq2    C113875   3.548   0.294  13.485 -0.4807  0.2396 -0.5261
    5TCq2    O213876   3.556   0.288  13.606 -0.3151 -0.6860 -0.4516
    5TCq2    C213877   3.645   0.215  13.417  0.0054  0.6548 -0.3273
    5TCq2    C313878   3.618   0.140  13.304 -0.9261 -0.9306 -0.7654
    5TCq2    C413879   3.684   0.022  13.281  0.0495 -0.0806  0.0855
    5TCq2    C513880   3.780   4.699  13.362  0.2512  0.0149 -0.1019
    5TCq2    C613881   3.808   0.056  13.470  0.3595  1.0844 -0.1214
    5TCq2    C713882   3.744   0.174  13.499  0.3055 -0.1359  0.2376
    5TCq2    C813883   3.832   4.706  13.589 -0.1232  0.2754  0.6548
    5TCq2    O413884   3.749   0.023  13.669  0.5498  0.0675  0.0474
    5TCq2    C913885   3.643   4.670  13.168  0.0574  0.0182 -0.2152
    5TCq2    O513886   3.542   4.703  13.102  1.0661 -0.0243  0.1462
    5TCq2    O613887   3.723   4.586  13.129  0.5217 -0.4420  0.4510
    5TCq2    H213888   3.584   0.199  13.220 -0.2559  0.0748 -0.3274
    5TCq2    H313889   3.819   4.598  13.349  0.5864 -0.2149  2.8088
    5TCq2    H413890   3.765   0.226  13.592 -0.7983  3.2236 -1.3783
    6MPD1     C13891   3.976   0.799  12.286 -0.0039  0.1044 -0.5991
    6MPD1    C113892   3.965   0.880  12.405  0.4891 -0.3157  0.4571
    6MPD1    C213893   3.837   0.938  12.424 -0.3353  0.7907  0.2967
    6MPD1    C313894   3.742   0.918  12.324  0.3853 -0.5041  0.4962
    6MPD1    C413895   3.763   0.847  12.207 -1.1764 -0.0140  0.6451
    6MPD1    C513896   3.884   0.794  12.183 -0.7003 -0.4179  0.0500
    6MPD1     H13897   3.807   0.990  12.514  0.7982 -0.0092  1.1463
    6MPD1    H113898   3.690   0.846  12.127 -0.3449 -1.9395 -0.0818
    6MPD1    H213899   4.062   0.734  12.279 -1.1671 -1.4827 -0.0388
    6MPD1    H313900   3.914   0.735  12.097  0.0322 -3.1875  2.1913
    6MPD1     N13901   3.604   0.939  12.359 -0.1374 -0.3370  0.0217
    6MPD1    H513902   3.534   0.900  12.297  1.7138  0.6748 -2.7037
    6MPD1    N113903   4.060   0.893  12.502 -0.5846 -0.2595  0.0812
    6MPD1    H613904   4.027   0.937  12.588 -1.7801 -1.1081  0.0671
    6MPD1    H713905   4.115   0.809  12.521 -2.5878 -1.7231 -0.5705
    7MPD2     C13906   2.969   1.240  12.919  0.0094 -0.4121  0.0465
    7MPD2    C113907   2.969   1.120  12.855  0.3874  0.0972 -0.1055
    7MPD2    C213908   2.897   1.014  12.902 -0.4225  0.1686  0.7028
    7MPD2    C313909   2.820   1.028  13.014  0.8314 -0.4541 -0.2553
    7MPD2    C413910   2.816   1.152  13.076 -0.1546 -0.7060  0.0768
    7MPD2    C513911   2.895   1.251  13.035  0.2993 -0.2801  0.5873
    7MPD2     H13912   2.898   0.919  12.850  0.5593  0.9901 -0.7907
    7MPD2    H113913   2.748   1.177  13.156  2.6807  0.1163  2.2326
    7MPD2    H213914   3.030   1.323  12.887  0.5958  0.2131  2.8263
    7MPD2    H313915   2.917   1.342  13.089 -0.6571 -1.1541  2.4759
    7MPD2     N13916   2.753   0.911  13.055 -0.0818  0.0156  0.3813
    7MPD2    H513917   2.757   0.836  12.987  0.2592 -0.2634  0.7085
    7MPD2    N113918   3.049   1.085  12.742 -0.3276  0.3546 -0.6238
    7MPD2    H713919   3.038   0.993  12.702  0.8536  0.1909 -0.5558
    8TMC3    C113920   2.685   0.743  13.195  0.3457 -0.5457 -0.2195
    8TMC3    C213921   2.790   0.694  13.265  0.4097  0.1104 -0.4992
    8TMC3    C313922   2.841   0.574  13.222  0.0710  0.0185  0.1119
    8TMC3    C413923   2.645   0.683  13.082  0.5020  0.2147 -0.0455
    8TMC3    C513924   2.708   0.566  13.035  0.6614  0.3540 -0.1268
    8TMC3    C613925   2.810   0.509  13.106 -0.4637 -0.6791 -0.2037
    8TMC3     C13926   2.702   0.891  13.185  0.2978  0.1148 -0.0316
    8TMC3     O13927   2.696   0.968  13.280  0.3827 -0.2861  0.1582
    8TMC3     H13928   2.844   0.750  13.340  0.6155  2.2688 -2.2584
    8TMC3    H113929   2.567   0.732  13.024  0.1970  0.6217  0.7068
    8TMC3    H213930   2.846   0.412  13.073  4.0040  0.9721 -0.1835
    8TMC3    C713931   2.750   0.586  12.893 -0.7585  0.0119  0.4827
    8TMC3    C813932   2.978   0.532  13.264 -0.5261  0.3806 -0.1907
    8TMC3    O113933   2.737   0.705  12.856 -0.1933  0.4091  0.4969
    8TMC3    O213934   3.057   0.490  13.179  0.1501 -0.3277  0.0092
    9TMC3    C113935   3.419   1.002  12.493  0.0248 -0.2912  0.1294
    9TMC3    C213936   3.353   0.904  12.425 -0.5644 -0.4721 -0.1099
    9TMC3    C313937   3.220   0.899  12.439  0.3665  1.1418 -0.7938
    9TMC3    C413938   3.356   1.092  12.582  0.2039 -0.0091 -0.4104
    9TMC3    C513939   3.224   1.080  12.590  0.2750 -0.0864  0.6208
    9TMC3    C613940   3.150   0.988  12.514 -0.8214  0.6969  0.3631
    9TMC3     C13941   3.562   1.011  12.467 -0.6027 -0.3468 -0.5053
    9TMC3     O13942   3.624   1.093  12.528 -0.1861 -0.3832  0.1975
    9TMC3     H13943   3.401   0.829  12.364 -0.7137 -0.8766  0.2715
    9TMC3    H113944   3.405   1.174  12.634 -1.1859  0.0599  0.7931
    9TMC3    H213945   3.042   0.984  12.518 -0.7718  0.6119  1.4981
    9TMC3    C713946   3.150   1.159  12.685  0.5192  0.2558  0.4599
    9TMC3    C813947   3.162   0.766  12.406  0.2787  0.3681  0.0605
    9TMC3    O113948   3.200   1.267  12.727 -0.2484 -0.6376 -0.7344
    9TMC3    O213949   3.225   0.688  12.340  0.2390  0.0795  0.5081
   10MPD2     C13950   2.960   0.373  12.683  0.0175 -0.4452 -0.4358
   10MPD2    C113951   2.908   0.492  12.727 -0.6663  0.1928 -0.0464
   10MPD2    C213952   2.948   0.612  12.667  0.0034 -0.1096  0.1958
   10MPD2    C313953   3.036   0.608  12.558 -0.0090  0.1584 -0.0500
   10MPD2    C413954   3.086   0.484  12.517  0.2606 -0.1836 -0.4904
   10MPD2    C513955   3.048   0.374  12.583 -0.2116 -0.1720  0.0862
   10MPD2     H13956   2.916   0.707  12.709 -0.6573  0.8713 -2.5140
   10MPD2    H113957   3.160   0.477  12.437  2.2583 -1.5461  1.4828
   10MPD2    H213958   2.931   0.284  12.737  0.4812 -0.3800 -0.0790
   10MPD2    H313959   3.087   0.278  12.553  1.1831  0.6365 -0.6709
   10MPD2     N13960   3.067   0.738  12.503  0.5681  0.0542  0.2374
   10MPD2    H513961   3.001   0.807  12.538  1.6094  0.7195  0.8710
   10MPD2    N113962   2.822   0.484  12.838  0.3311  0.1309  0.1710
   10MPD2    H713963   2.803   0.398  12.889  3.5180  0.1902  1.4680
   11MPD2     C13964   4.181   4.569  13.947  0.1561 -0.4111 -0.3693
   11MPD2    C113965   4.052   4.623  13.963 -0.5946  0.3176 -0.6816
   11MPD2    C213966   3.983   4.639  13.842  0.3583  0.6255 -0.0046
   11MPD2    C313967   4.029   4.605  13.718 -0.2353  0.3498 -0.2356
   11MPD2    C413968   4.156   4.545  13.705  0.3414 -0.7819  0.2609
   11MPD2    C513969   4.222   4.536  13.822 -0.2734 -0.3825  0.1723
   11MPD2     H13970   3.880   4.673  13.838  0.0983 -0.2257 -0.3946
   11MPD2    H113971   4.201   4.527  13.608 -0.1734  1.7103 -0.4550
   11MPD2    H213972   4.250   4.543  14.026 -0.2342 -0.7603 -0.1476
   11MPD2    H313973   4.321   4.492  13.818  0.1654  0.7033 -0.8123
   11MPD2     N13974   3.955   4.635  13.597  0.5736 -0.2893 -0.1010
   11MPD2    H513975   3.997   4.607  13.509 -2.6985  1.1066 -2.1139
   11MPD2    N113976   3.990   4.654  14.085  0.3392  0.3911 -0.4851
   11MPD2    H713977   3.896   4.692  14.080  1.3918  2.9878 -0.3148
    1MPD1     C13978   1.396   1.866  17.350  0.4158  0.1763  0.7754
    1MPD1    C113979   1.283   1.798  17.310  0.1024  0.1846  0.2330
    1MPD1    C213980   1.260   1.776  17.171 -0.2377 -0.6392 -0.1076
    1MPD1    C313981   1.341   1.838  17.077 -0.2321  0.0848  0.6689
    1MPD1    C413982   1.445   1.919  17.120  0.2187  0.2594  0.1621
    1MPD1    C513983   1.470   1.932  17.252 -0.1775 -0.0741 -0.5064
    1MPD1     H13984   1.175   1.713  17.151  0.9635 -2.4288  0.4131
    1MPD1    H113985   1.510   1.968  17.049  1.1652 -1.9683 -0.5033
    1MPD1    H213986   1.415   1.872  17.456  2.0429  1.6699  0.4026
    1MPD1    H313987   1.555   1.993  17.281 -0.3215 -0.9210  1.6755
    1MPD1     N13988   1.319   1.833  16.943 -0.3413  0.1411  0.2940
    1MPD1    H513989   1.399   1.850  16.882  0.1240 -1.6748  0.4179
    1MPD1    N113990   1.208   1.730  17.399 -0.5546  0.5122 -0.3724
    1MPD1    H613991   1.114   1.712  17.365 -0.9682 -2.9851  2.5939
    1MPD1    H713992   1.203   1.758  17.496  0.7722  0.4863 -0.2926
    2MPD1     C13993   1.961   1.578  16.456  0.5121 -0.3291 -0.1181
    2MPD1    C113994   1.939   1.632  16.581 -0.7844  0.8807  0.4068
    2MPD1    C213995   1.805   1.636  16.629 -0.2070  0.5751 -0.3893
    2MPD1    C313996   1.704   1.595  16.549  0.7729 -0.3155  0.4250
    2MPD1    C413997   1.733   1.543  16.427  0.3587 -0.4479 -0.5273
    2MPD1    C513998   1.859   1.525  16.383  0.2440 -0.3647 -0.0898
    2MPD1     H13999   1.786   1.649  16.735  1.5297  2.5380 -0.3288
    2MPD1    H114000   1.655   1.499  16.367  0.5313 -1.5789  0.0753
    2MPD1    H214001   2.061   1.556  16.420  1.0130  0.8368  0.5713
    2MPD1    H314002   1.883   1.470  16.292 -1.3674 -0.8480 -0.2302
    2MPD1     N14003   1.569   1.605  16.600  0.1775 -0.5571  0.4682
    2MPD1    H514004   1.559   1.663  16.683  0.4289 -0.2674  0.2914
    2MPD1    N114005   2.047   1.659  16.658  1.0918 -0.2428 -0.0690
    2MPD1    H614006   2.018   1.735  16.719  3.1578  0.8958 -0.4996
    2MPD1    H714007   2.133   1.693  16.616  1.5755  1.7799  2.5564
    3TMC3    C114008   1.330   1.607  16.606 -0.0178  0.0234  0.2098
    3TMC3    C214009   1.217   1.599  16.521  0.4309 -0.2544 -0.0452
    3TMC3    C314010   1.115   1.676  16.555  0.0293  0.3416  0.2359
    3TMC3    C414011   1.329   1.669  16.728 -0.8845 -0.0517  0.3920
    3TMC3    C514012   1.213   1.735  16.761  0.0016  0.6112 -0.2204
    3TMC3    C614013   1.108   1.738  16.673 -0.5076  0.3418 -0.6579
    3TMC3     C14014   1.454   1.566  16.539 -0.6160 -0.4551  0.4351
    3TMC3     O14015   1.441   1.496  16.440 -0.0298 -0.0578 -0.0447
    3TMC3     H14016   1.221   1.542  16.429 -1.1997 -0.6077  0.0875
    3TMC3    H114017   1.414   1.662  16.794  0.4536 -0.0407 -1.3263
    3TMC3    H214018   1.013   1.783  16.701  0.3880  0.9022  1.4850
    3TMC3    C714019   1.199   1.791  16.893  0.2117 -0.4527 -0.1378
    3TMC3    C814020   1.044   1.738  16.451  0.4288 -0.0342 -0.0531
    3TMC3    O114021   1.086   1.785  16.943  0.2660  0.5321  0.7120
    3TMC3    O214022   1.036   1.678  16.345  0.3579  0.2541  0.4908
    4MPD1     C14023   0.725   2.091  16.258 -0.2433  0.2198  0.4258
    4MPD1    C114024   0.758   2.125  16.391  0.7613  0.3256 -0.8981
    4MPD1    C214025   0.859   2.053  16.459 -0.3355  0.0700  0.6397
    4MPD1    C314026   0.902   1.934  16.403 -0.1682  0.0141  0.1506
    4MPD1    C414027   0.854   1.898  16.275  0.4445  0.1387 -0.2316
    4MPD1    C514028   0.773   1.977  16.203 -0.1769  0.0258  0.5445
    4MPD1     H14029   0.889   2.088  16.557  0.3012 -0.9971  0.8347
    4MPD1    H114030   0.901   1.815  16.224  1.1915  0.4242 -0.0128
    4MPD1    H214031   0.666   2.155  16.193  0.2614 -1.3219 -1.5688
    4MPD1    H314032   0.760   1.950  16.099 -0.4097 -0.8604  0.7963
    4MPD1     N14033   0.995   1.862  16.483 -0.3704 -0.0902  0.0283
    4MPD1    H514034   1.026   1.902  16.571  3.4811 -2.0626 -0.4286
    4MPD1    N114035   0.703   2.246  16.439  0.2907  0.0532 -0.0844
    4MPD1    H614036   0.701   2.248  16.540  2.1549  0.7545 -0.0542
    4MPD1    H714037   0.615   2.267  16.392 -0.0344  0.3900  0.6823
    1TCq1    O114038   3.339   0.269  11.847 -0.1552 -0.4276 -0.1680
    1TCq1    C114039   3.341   0.399  11.810  0.2378 -0.5661 -0.2723
    1TCq1    O214040   3.443   0.469  11.796  0.5274  0.1544  0.2726
    1TCq1    C214041   3.204   0.448  11.831  0.1504 -0.8594 -1.0465
    1TCq1    C314042   3.098   0.361  11.824  0.8091 -0.6090 -0.5378
    1TCq1    C414043   2.971   0.415  11.840  0.6785 -0.3441  0.4926
    1TCq1    C514044   2.958   0.543  11.889  0.4309 -0.5467 -0.1987
    1TCq1    C614045   3.072   0.627  11.895  0.7224  0.2195  0.4501
    1TCq1    C714046   3.192   0.579  11.870  0.1520  0.0391  0.5854
    1TCq1    C814047   3.075   0.745  11.978 -0.0655  0.5595  0.8194
    1TCq1    O414048   3.179   0.782  12.030 -0.2822 -0.8416  0.5341
    1TCq1    C914049   2.861   0.333  11.861 -0.0192  0.2079 -0.2731
    1TCq1    O514050   2.872   0.214  11.837 -0.5027  0.1642  0.3526
    1TCq1    O614051   2.748   0.388  11.871  0.4102  0.1975  0.7075
    1TCq1    H114052   3.258   0.239  11.893 -0.0169 -0.9847 -0.2872
    1TCq1    H214053   3.098   0.257  11.793  0.6968 -0.8460  0.2558
    1TCq1    H314054   2.859   0.577  11.917 -0.0561 -0.2254 -2.2876
    1TCq1    H414055   3.276   0.640  11.901 -1.8804  1.8790  2.4982
    2MPD1     C14056   2.889   1.194  12.133 -0.1017 -0.1968  0.1509
    2MPD1    C114057   2.787   1.126  12.071 -0.2418  0.2351  0.3287
    2MPD1    C214058   2.814   1.002  12.015 -0.5331  0.0336  0.0901
    2MPD1    C314059   2.935   0.943  12.033  0.6174  1.1599 -0.4320
    2MPD1    C414060   3.029   1.008  12.108  0.0542 -0.3287 -0.5048
    2MPD1    C514061   3.012   1.141  12.146  0.3146 -0.1425  0.3960
    2MPD1     H14062   2.739   0.945  11.961  0.2534  0.1436 -1.0981
    2MPD1    H114063   3.128   0.967  12.125  1.0266  1.3828 -1.9692
    2MPD1    H214064   2.862   1.294  12.166  1.2014  0.1674  0.0931
    2MPD1    H314065   3.083   1.204  12.198  0.1617  0.6627 -0.3748
    2MPD1     N14066   2.957   0.818  11.965 -0.2444  0.2418  0.2259
    2MPD1    H514067   2.881   0.785  11.906 -0.2892 -0.7553  0.8279
    2MPD1    N114068   2.662   1.182  12.055 -0.5517  0.0398 -0.3566
    2MPD1    H614069   2.581   1.121  12.044 -1.7845  1.8196 -1.2449
    2MPD1    H714070   2.639   1.243  12.133 -0.3794  0.5158 -0.6783
    1TCq1    O114071   4.124   1.293   0.947 -0.3619 -0.1364 -0.3524
    1TCq1    C114072   4.108   1.332   0.816 -0.0250  0.0885  0.4432
    1TCq1    O214073   4.174   1.295   0.721 -0.2901 -0.3922  0.0932
    1TCq1    C214074   3.977   1.387   0.808 -0.3732 -0.0613 -0.0029
    1TCq1    C314075   3.912   1.438   0.918  0.5449 -0.3814 -0.2221
    1TCq1    C414076   3.820   1.536   0.898  0.4204 -0.4973  0.3611
    1TCq1    C514077   3.800   1.603   0.779  0.5342  0.5588 -0.1194
    1TCq1    C614078   3.865   1.556   0.668 -1.1822  0.6841 -0.4412
    1TCq1    C714079   3.958   1.456   0.686  0.0912  0.3275  0.3150
    1TCq1    C814080   3.859   1.622   0.538 -0.4168  0.0680 -0.3427
    1TCq1    O414081   3.953   1.590   0.470 -0.6840  0.3911 -0.1264
    1TCq1    C914082   3.772   1.606   1.015 -0.2670  0.3557 -0.1185
    1TCq1    O514083   3.836   1.582   1.120 -0.3882  0.5816  0.3261
    1TCq1    O614084   3.698   1.705   1.008  0.0913 -0.2974 -0.2565
    1TCq1    H114085   4.070   1.334   1.018 -0.1855 -0.1387 -0.2199
    1TCq1    H214086   3.917   1.386   1.013 -0.1224 -1.1529 -0.6002
    1TCq1    H314087   3.738   1.692   0.774  0.5982  0.5075 -1.6733
    1TCq1    H414088   4.003   1.405   0.602 -1.9045 -1.4872  0.3282
    2MPD1     C14089   3.661   1.895   0.141  0.4210 -0.2012 -0.4685
    2MPD1    C114090   3.572   1.898   0.250  0.1429 -0.3919  0.3018
    2MPD1    C214091   3.603   1.829   0.366 -0.4165  0.7489  0.3778
    2MPD1    C314092   3.724   1.764   0.386  0.1360 -0.8333 -0.0808
    2MPD1    C414093   3.810   1.772   0.283 -0.0052 -0.2230 -0.2273
    2MPD1    C514094   3.783   1.843   0.170  0.4370 -0.6214  0.7125
    2MPD1     H14095   3.526   1.814   0.441 -0.3979  1.5765  0.5626
    2MPD1    H114096   3.910   1.731   0.292  0.2069  0.3196 -0.0867
    2MPD1    H214097   3.651   1.942   0.044  0.2136 -0.1699 -0.4313
    2MPD1    H314098   3.860   1.841   0.093 -1.2320  1.0813 -1.0126
    2MPD1     N14099   3.753   1.701   0.508 -0.1047  0.0194  0.0013
    2MPD1    H514100   3.680   1.709   0.578  2.1140 -0.1996  2.3345
    2MPD1    N114101   3.447   1.930   0.219 -0.0835 -0.5132  0.3545
    2MPD1    H614102   3.389   1.952   0.300  0.0263  2.7895 -0.4482
    2MPD1    H714103   3.453   2.012   0.159 -0.3733 -0.9666 -0.2902
    1MPD1     C14104   4.236   1.716  11.158  0.1800  0.3760  0.6088
    1MPD1    C114105   4.343   1.758  11.085 -0.5146 -0.2757  0.1180
    1MPD1    C214106   4.459   1.776  11.157 -0.3246  0.2471  0.3738
    1MPD1    C314107   4.478   1.716  11.278 -0.5930  0.3613 -0.0511
    1MPD1    C414108   4.368   1.674  11.351  1.0725  0.6528  0.1962
    1MPD1    C514109   4.245   1.683  11.293 -0.3174  0.6943 -0.3791
    1MPD1     H14110   4.545   1.828  11.117 -0.7526  0.4720 -0.2531
    1MPD1    H114111   4.357   1.644  11.454 -0.4360  0.8039  0.0853
    1MPD1    H214112   4.136   1.711  11.116 -0.1876 -0.9755  1.6573
    1MPD1    H314113   4.153   1.650  11.341 -0.9045 -2.1192 -3.4809
    1MPD1     N14114   4.605   1.732  11.333 -0.6305  0.1996 -0.6133
    1MPD1    H514115   4.679   1.768  11.274 -0.1155 -0.7224 -0.5228
    1MPD1    N114116   4.333   1.819  10.961  0.7896  0.0125  0.0077
    1MPD1    H614117   4.250   1.783  10.915  0.3457  3.2807 -1.7430
    1MPD1    H714118   4.417   1.799  10.906  1.0745  0.6418  0.2127
    2MPD1     C14119   3.990   1.248  11.508  0.0975  0.4622 -0.2783
    2MPD1    C114120   4.064   1.242  11.622 -0.1701  0.1917 -0.4807
    2MPD1    C214121   4.197   1.281  11.614 -0.6212  0.2054  0.6403
    2MPD1    C314122   4.261   1.304  11.489  0.3901 -0.7120  0.1355
    2MPD1    C414123   4.183   1.316  11.383  0.6377  0.8888  0.8566
    2MPD1    C514124   4.054   1.278  11.388  0.2206 -1.1539  0.8662
    2MPD1     H14125   4.257   1.284  11.704 -0.8646  1.4863  0.7551
    2MPD1    H114126   4.209   1.367  11.291  0.2028  0.5362  0.5332
    2MPD1    H214127   3.885   1.224  11.499  0.5757 -1.4170 -0.9550
    2MPD1    H314128   4.007   1.287  11.291  0.5528  0.8905  0.9074
    2MPD1     N14129   4.397   1.340  11.464 -0.1476 -0.4445  0.0498
    2MPD1    H514130   4.424   1.373  11.371  2.8747  1.6787  1.6427
    2MPD1    N114131   4.003   1.211  11.739 -0.0642 -0.3144 -0.5621
    2MPD1    H614132   3.917   1.164  11.712 -0.3529  1.3514 -2.5182
    2MPD1    H714133   4.057   1.165  11.813  0.9077 -0.8637 -1.6218
    3MPD1     C14134   0.294   1.168  10.780 -0.2843  0.6283 -0.1113
    3MPD1    C114135   0.372   1.125  10.882  0.5939  0.1049 -0.1769
    3MPD1    C214136   0.336   1.147  11.010  0.8446  0.0282 -0.4460
    3MPD1    C314137   0.227   1.229  11.035 -0.3325  0.0963 -0.0371
    3MPD1    C414138   0.143   1.267  10.935  0.0748 -0.1485  0.0070
    3MPD1    C514139   0.179   1.238  10.810  0.2313  0.2638 -0.9934
    3MPD1     H14140   0.369   1.083  11.091 -2.3030  3.5871  3.6781
    3MPD1    H114141   0.043   1.305  10.951  0.5567  0.6104  1.2445
    3MPD1    H214142   0.311   1.137  10.678 -0.7683  0.0492 -0.0139
    3MPD1    H314143   0.111   1.259  10.729 -2.8100 -0.1732  1.4306
    3MPD1     N14144   0.191   1.251  11.170  0.2680  0.5930 -0.2314
    3MPD1    H514145   0.253   1.220  11.244  2.9436 -1.4770 -3.3238
    3MPD1    N114146   0.490   1.053  10.856  0.1428  0.5940  0.6976
    3MPD1    H614147   0.491   1.006  10.765  3.3656  3.6989 -0.8796
    3MPD1    H714148   0.499   0.979  10.925 -1.0599  2.0363  2.3895
    4MPD2     C14149   0.511   1.342  11.246 -0.0663 -0.2015  0.2532
    4MPD2    C114150   0.479   1.380  11.378  0.2772 -0.6358 -0.3115
    4MPD2    C214151   0.499   1.297  11.480  0.4556  0.5330 -0.7766
    4MPD2    C314152   0.568   1.177  11.464 -0.6075 -0.7483  0.1390
    4MPD2    C414153   0.603   1.145  11.336  0.6718 -0.0641  0.6567
    4MPD2    C514154   0.573   1.218  11.229 -0.4854  0.4477 -0.8344
    4MPD2     H14155   0.459   1.324  11.577 -0.0684 -0.6458 -0.6663
    4MPD2    H114156   0.662   1.056  11.316  0.7485  0.7663 -2.8068
    4MPD2    H214157   0.484   1.402  11.160 -1.9874  0.6866  1.4463
    4MPD2    H314158   0.607   1.188  11.130  2.6078 -0.5914  0.5182
    4MPD2     N14159   0.591   1.091  11.576  0.1885 -0.5676  0.0121
    4MPD2    H514160   0.564   1.123  11.669  0.1412 -2.9987  0.8506
    4MPD2    N114161   0.403   1.493  11.411  0.0745 -0.1785  0.8886
    4MPD2    H714162   0.378   1.495  11.509  1.3090  0.0373  1.1942
    5TMC3    C114163   0.280   1.684  11.401 -0.8533 -0.7844 -0.1501
    5TMC3    C214164   0.151   1.699  11.371 -0.0919  0.5722  0.4341
    5TMC3    C314165   0.064   1.716  11.477  0.0333 -0.0620 -0.1245
    5TMC3    C414166   0.320   1.682  11.532  0.1188 -0.4340 -0.0616
    5TMC3    C514167   0.229   1.682  11.637  0.0895 -0.1524 -0.1539
    5TMC3    C614168   0.100   1.716  11.607  0.5100  0.0250  0.1014
    5TMC3     C14169   0.345   1.580  11.326  0.2395 -0.2507  0.2156
    5TMC3     O14170   0.327   1.577  11.204  0.5427  0.3756 -0.2629
    5TMC3     H14171   0.108   1.681  11.273  0.1203  0.3235  0.3863
    5TMC3    H114172   0.424   1.681  11.559  0.6016  2.3689 -1.8483
    5TMC3    H214173   0.023   1.715  11.684  1.7218 -1.8360  1.3054
    5TMC3    C714174   0.248   1.566  11.723 -0.5976 -0.6007  0.5171
    5TMC3    C814175   4.644   1.695  11.463  0.6456 -0.1964 -0.3847
    5TMC3    O114176   0.332   1.497  11.674 -0.2256  0.3547  0.4339
    5TMC3    O214177   4.570   1.665  11.556  0.1913 -0.9557 -0.0451
    6TMC3    C114178   4.628   1.367  11.525 -0.3626  0.3064 -0.3728
    6TMC3    C214179   4.667   1.375  11.397  0.0312 -0.5821  0.3566
    6TMC3    C314180   0.067   1.319  11.358  0.2717 -0.5863 -0.0304
    6TMC3    C414181   4.715   1.302  11.615  0.0707  0.7644  0.3982
    6TMC3    C514182   0.111   1.247  11.571  0.1024 -1.0159 -0.0703
    6TMC3    C614183   0.153   1.257  11.437  0.8606 -0.6047  0.2277
    6TMC3     C14184   4.496   1.345  11.562 -0.1547  0.1990  0.3724
    6TMC3     O14185   4.482   1.319  11.678  0.2192  0.2215  0.0988
    6TMC3     H14186   4.596   1.421  11.330  0.1487 -1.5093 -0.4132
    6TMC3    H114187   4.696   1.309  11.721 -0.8488 -0.2648  0.3039
    6TMC3    H214188   0.254   1.230  11.408  0.8387  0.3031 -0.7089
    6TMC3    C714189   0.172   1.144  11.650 -0.2583 -0.1779  0.9872
    6TMC3    C814190   0.092   1.334  11.214 -0.1432  0.1197 -0.3748
    6TMC3    O114191   0.263   1.081  11.598  0.0941  0.3023  0.0560
    6TMC3    O214192   0.015   1.406  11.144 -0.0663  0.2243  0.1526
    7MPD2     C14193   0.197   1.245  12.117 -0.5640 -0.1242  0.1096
    7MPD2    C114194   0.296   1.248  12.019 -0.2038  0.2394  0.1431
    7MPD2    C214195   0.273   1.350  11.927 -0.2630 -0.3367  0.9747
    7MPD2    C314196   0.176   1.448  11.930  0.4287 -0.7681 -0.0059
    7MPD2    C414197   0.089   1.448  12.043  0.5746  0.0512  0.0332
    7MPD2    C514198   0.098   1.338  12.130  0.3071  0.5154  0.3188
    7MPD2     H14199   0.332   1.353  11.836  0.4866  0.1778  1.4801
    7MPD2    H114200   0.006   1.517  12.048 -0.4271 -1.1115 -0.7481
    7MPD2    H214201   0.197   1.166  12.191 -0.9340 -0.5067 -0.2993
    7MPD2    H314202   0.018   1.342  12.203  1.9955  1.0581  2.1665
    7MPD2     N14203   0.157   1.542  11.824  0.1509  0.3511 -0.0233
    7MPD2    H514204   0.086   1.614  11.833 -2.8676 -2.8566  2.0957
    7MPD2    N114205   0.413   1.166  12.024  0.1655  0.4559  0.2514
    7MPD2    H714206   0.410   1.093  12.094  3.4964  0.6133  0.5555
    8TMC3    C114207   0.578   1.031  11.917  0.6325 -0.1627  0.1871
    8TMC3    C214208   0.508   0.917  11.960  0.1999 -0.1886 -1.1504
    8TMC3    C314209   0.510   0.817  11.868 -0.7068  0.7444  0.4752
    8TMC3    C414210   0.655   1.035  11.807  0.0917 -0.3525 -0.3292
    8TMC3    C514211   0.655   0.926  11.718  0.6006 -0.3106  0.1855
    8TMC3    C614212   0.583   0.818  11.751 -0.1161  0.5090 -1.1606
    8TMC3     C14213   0.505   1.158  11.925 -0.2632 -0.0916  0.4768
    8TMC3     O14214   0.528   1.239  11.831  0.4256 -0.3133  0.0525
    8TMC3     H14215   0.461   0.903  12.056  0.0490 -0.9536 -1.3357
    8TMC3    H114216   0.726   1.115  11.792 -1.0107  0.7385  0.2718
    8TMC3    H214217   0.579   0.730  11.687  0.1640  0.3092 -0.9017
    8TMC3    C714218   0.636   0.963  11.577 -0.2826 -0.1358 -0.0239
    8TMC3    C814219   0.434   0.689  11.899  0.3213  0.6524  0.3719
    8TMC3    O114220   0.660   0.886  11.487 -0.3887  0.5295 -0.1137
    8TMC3    O214221   0.500   0.587  11.877 -0.0546  0.3194 -0.0377
    9MPD2     C14222   0.129   0.827  12.056  0.4952  0.7403  0.4296
    9MPD2    C114223   0.219   0.815  11.950  0.1262 -0.0142 -0.6681
    9MPD2    C214224   0.213   0.916  11.849  0.6841  0.2271 -0.1406
    9MPD2    C314225   0.116   1.017  11.854  0.1092  0.1764  0.5322
    9MPD2    C414226   0.039   1.030  11.966  0.0227  0.4811  0.1912
    9MPD2    C514227   0.052   0.941  12.066  0.4597 -0.4196  0.0862
    9MPD2     H14228   0.286   0.921  11.770  0.3527 -2.1166 -0.5939
    9MPD2    H114229   4.688   1.109  11.958 -0.9882 -0.2601  2.3161
    9MPD2    H214230   0.117   0.756  12.138 -1.0064  0.6270  0.1070
    9MPD2    H314231   4.704   0.956  12.147 -1.2976  2.5280 -2.0135
    9MPD2     N14232   0.100   1.121  11.761 -0.3954  0.1273  0.2433
    9MPD2    H514233   0.025   1.186  11.784  0.9405  1.5027  0.6759
    9MPD2    N114234   0.309   0.709  11.956  0.8355 -0.2350  0.6537
    9MPD2    H714235   0.278   0.627  12.007 -2.3776  0.2931 -0.4297
    1MPD1     C14236   4.178   0.448  17.171 -1.0514 -0.0283 -0.4580
    1MPD1    C114237   4.293   0.365  17.165  0.0843 -0.1291 -0.3030
    1MPD1    C214238   4.295   0.263  17.069  0.3953 -0.3168  0.8421
    1MPD1    C314239   4.184   0.224  16.995 -0.5636 -0.3413 -0.5461
    1MPD1    C414240   4.070   0.300  17.019  0.0228 -0.2844  0.2815
    1MPD1    C514241   4.073   0.412  17.102  0.3114  0.6917  0.5585
    1MPD1     H14242   4.389   0.211  17.054  0.3944 -1.1155  3.6263
    1MPD1    H114243   3.975   0.267  16.979 -0.0765 -0.4698  0.6702
    1MPD1    H214244   4.172   0.534  17.235 -0.1468 -0.5056  0.2679
    1MPD1    H314245   3.991   0.483  17.101 -0.3383 -0.0285  1.9120
    1MPD1     N14246   4.182   0.112  16.921  0.2177  0.3028 -0.6191
    1MPD1    H514247   4.100   0.098  16.863  0.7349  0.2388 -1.3349
    1MPD1    N114248   4.412   0.401  17.230  0.4511  0.2391 -0.2431
    1MPD1    H614249   4.464   0.477  17.187 -0.4967  2.3296  2.2812
    1MPD1    H714250   4.475   0.322  17.240 -0.6581 -0.7011 -0.7779
    2MPD1     C14251   4.528   3.891  16.457  0.7837  0.2742  0.5681
    2MPD1    C114252   4.415   3.936  16.389  0.1329  0.3388  0.0752
    2MPD1    C214253   4.361   4.059  16.436  0.1729 -0.3127  0.2406
    2MPD1    C314254   4.417   4.137  16.536 -0.4497 -0.1601 -0.1167
    2MPD1    C414255   4.526   4.089  16.597  0.3788  0.3776  0.5843
    2MPD1    C514256   4.577   3.966  16.562  0.6990 -0.0628  0.3499
    2MPD1     H14257   4.268   4.089  16.389 -0.1384 -0.6876  0.6205
    2MPD1    H114258   4.567   4.141  16.683 -2.0703  1.2750  1.2090
    2MPD1    H214259   4.578   3.796  16.442 -0.3386 -0.3412  0.8053
    2MPD1    H314260   4.658   3.917  16.615  0.7490  0.4415  0.7394
    2MPD1     N14261   4.346   4.261  16.564 -0.3644  0.7852  0.3949
    2MPD1    H514262   4.266   4.272  16.502  0.0998  2.2505  0.0485
    2MPD1    N114263   4.352   3.847  16.291  0.2119  0.1310  0.3349
    2MPD1    H614264   4.310   3.888  16.208 -2.2203 -2.5523  0.2403
    2MPD1    H714265   4.409   3.766  16.265 -0.3109  0.8140 -2.9012
    3TCq2    C114266   4.376   4.351  16.667  0.5843 -0.0689 -0.1017
    3TCq2    O214267   4.467   4.336  16.743 -0.0394  0.6752 -0.0638
    3TCq2    C214268   4.318   4.478  16.653  0.3860 -0.4342 -0.0818
    3TCq2    C314269   4.218   4.495  16.568 -0.2512  0.0589 -0.7430
    3TCq2    C414270   4.133   4.596  16.602  0.3833 -0.4035 -0.1369
    3TCq2    C514271   4.156   4.691  16.695  0.4261 -0.6761  0.2145
    3TCq2    C614272   4.265   4.665  16.776 -0.6441  0.0040  0.0655
    3TCq2    C714273   4.343   4.551  16.762 -0.2367  0.8490  1.0689
    3TCq2    C814274   4.285   0.022  16.891 -0.4553 -0.8141  0.5195
    3TCq2    O414275   4.401   0.010  16.933  0.0252  0.2524 -0.1154
    3TCq2    C914276   4.037   4.631  16.495  1.1070 -0.3210 -0.3051
    3TCq2    O514277   3.957   0.001  16.526  0.3283  0.3814  0.0027
    3TCq2    O614278   4.032   4.570  16.383  0.1141  0.1364 -0.0621
    3TCq2    H214279   4.200   4.449  16.472 -1.4938  2.8472 -1.8370
    3TCq2    H314280   4.095   0.057  16.698  1.4189  0.1588 -4.4247
    3TCq2    H414281   4.426   4.524  16.827 -0.5301 -0.9118  0.7223
    1TCq1    O114282   2.085   3.476  13.079 -0.1605  0.0165 -0.1594
    1TCq1    C114283   2.125   3.422  13.193  0.1006  0.2176  0.7500
    1TCq1    O214284   2.057   3.330  13.242  0.0873 -1.3174  0.2130
    1TCq1    C214285   2.272   3.411  13.170 -0.5277  0.0028 -0.5172
    1TCq1    C314286   2.310   3.281  13.149 -0.0673  0.1322 -0.2121
    1TCq1    C414287   2.445   3.255  13.134 -0.3989  0.4072 -0.0138
    1TCq1    C514288   2.533   3.359  13.127  0.0140 -1.0127  0.3344
    1TCq1    C614289   2.492   3.486  13.161  0.2068  0.2070  0.0302
    1TCq1    C714290   2.362   3.511  13.190 -0.1617 -0.1531 -0.5984
    1TCq1    C814291   2.583   3.598  13.194 -0.6001 -0.0289 -0.9392
    1TCq1    O414292   2.540   3.713  13.176 -0.1019  0.0614 -0.2683
    1TCq1    C914293   2.488   3.125  13.110 -0.3663  0.1765  0.3489
    1TCq1    O514294   2.392   3.043  13.105 -0.0425  0.2089  0.3451
    1TCq1    O614295   2.604   3.094  13.138  0.2127 -0.3877 -0.0622
    1TCq1    H114296   2.157   3.518  13.028  0.2601  0.4171  0.7474
    1TCq1    H214297   2.240   3.206  13.112  0.9984 -0.2642 -1.3975
    1TCq1    H314298   2.634   3.331  13.098  0.3001  2.5528 -2.2115
    1TCq1    H414299   2.329   3.607  13.226  0.7943  0.3523 -1.0614
    2MPD2     C14300   2.802   3.789  13.266 -0.1455  0.1011  0.0589
    2MPD2    C114301   2.804   3.649  13.273 -0.9761  0.2563 -0.2808
    2MPD2    C214302   2.923   3.599  13.323 -0.2748 -0.0650 -0.5429
    2MPD2    C314303   3.025   3.679  13.369 -0.1842 -0.0886  0.3096
    2MPD2    C414304   3.016   3.816  13.370  0.1529 -0.1832 -0.5993
    2MPD2    C514305   2.902   3.866  13.315 -0.2251  0.7853 -0.6887
    2MPD2     H14306   2.911   3.491  13.323 -2.2911  0.1458  0.7852
    2MPD2    H114307   3.100   3.873  13.408 -0.0113 -0.5608  0.3189
    2MPD2    H214308   2.711   3.836  13.231 -0.2419  0.2587  0.5243
    2MPD2    H314309   2.888   3.974  13.320  1.0361  0.9886 -1.5214
    2MPD2     N14310   3.151   3.621  13.410  0.5035 -0.4935 -0.2265
    2MPD2    H514311   3.219   3.679  13.458  0.4172  0.3013 -1.0676
    2MPD2    N114312   2.701   3.558  13.247  0.0384  0.4281  0.4414
    2MPD2    H714313   2.716   3.459  13.263  0.4823  0.0266 -2.5535
    3TCq1    O114314   3.482   3.131  13.501  0.1030 -0.5928 -0.1894
    3TCq1    C114315   3.557   3.185  13.403 -1.0619  1.1125 -1.0868
    3TCq1    O214316   3.658   3.141  13.351  0.6260  0.0665  0.6868
    3TCq1    C214317   3.499   3.315  13.379  0.2425 -0.5627 -0.5712
    3TCq1    C314318   3.595   3.410  13.372 -0.1758 -0.4828 -0.1144
    3TCq1    C414319   3.555   3.538  13.385 -0.1687  0.0282  0.1455
    3TCq1    C514320   3.421   3.568  13.406 -0.7930 -0.6558  0.1046
    3TCq1    C614321   3.333   3.464  13.409 -0.8140 -0.0012  0.2306
    3TCq1    C714322   3.366   3.336  13.394  1.0874 -0.2687 -0.4859
    3TCq1    C814323   3.193   3.493  13.377  0.4351  0.3911  0.4107
    3TCq1    O414324   3.125   3.401  13.331 -0.1114 -0.3549 -0.0442
    3TCq1    C914325   3.661   3.639  13.395 -0.1088  0.2667  0.9080
    3TCq1    O514326   3.781   3.594  13.407 -0.6342 -0.1834  0.0567
    3TCq1    O614327   3.624   3.760  13.399  0.0181 -0.5968  0.1796
    3TCq1    H114328   3.427   3.195  13.552  0.6971 -1.9175  2.0770
    3TCq1    H214329   3.700   3.385  13.373  0.7613  3.5706  1.5137
    3TCq1    H314330   3.387   3.669  13.428  3.0327  0.1871  2.1390
    3TCq1    H414331   3.296   3.254  13.384  0.7456  0.0242 -0.5284
    1MPD2     C14332   1.849   0.544  14.852  0.3816 -0.7447  0.4304
    1MPD2    C114333   1.811   0.461  14.954  0.1780 -0.3660  0.0666
    1MPD2    C214334   1.906   0.383  15.026 -0.5950 -0.4868  0.4172
    1MPD2    C314335   2.033   0.397  14.987 -0.2871 -0.1266  0.4533
    1MPD2    C414336   2.068   0.486  14.887 -0.6685 -0.1631  0.3639
    1MPD2    C514337   1.975   0.560  14.823 -0.5679  0.2065  0.1670
    1MPD2     H14338   1.875   0.298  15.087 -1.8267  0.1945  0.7314
    1MPD2    H114339   2.172   0.508  14.861 -0.3187 -1.1452  0.9366
    1MPD2    H214340   1.775   0.600  14.796  1.0697 -0.8691 -0.5984
    1MPD2    H314341   2.003   0.634  14.748  1.0352 -0.3475  0.2134
    1MPD2     N14342   2.138   0.311  15.023  0.1631 -0.8783 -0.4402
    1MPD2    H514343   2.217   0.315  14.960  1.2137  1.7388  1.0508
    1MPD2    N114344   1.670   0.456  14.976 -0.1609  0.5236  0.7946
    1MPD2    H714345   1.616   0.507  14.906 -2.4404 -2.6666  0.2485
    2TMC3    C114346   1.485   0.305  15.004 -0.6177  0.4473 -0.1500
    2TMC3    C214347   1.488   0.166  15.006  0.2850 -0.1545  0.5997
    2TMC3    C314348   1.405   0.093  14.922  0.2603  0.8469 -0.4309
    2TMC3    C414349   1.396   0.372  14.933 -0.9214  0.2820  0.4200
    2TMC3    C514350   1.308   0.295  14.862 -0.8312 -0.5785 -0.1052
    2TMC3    C614351   1.322   0.162  14.840  0.0915  0.4620  0.1116
    2TMC3     C14352   1.603   0.376  15.067  1.1749  0.0205  0.5536
    2TMC3     O14353   1.648   0.316  15.165  0.0221  0.0245 -0.3073
    2TMC3     H14354   1.562   0.123  15.073 -0.8415  0.3806  2.1750
    2TMC3    H114355   1.383   0.479  14.949  0.7222  0.7671 -1.5360
    2TMC3    H214356   1.252   0.108  14.777 -1.2646  0.9047  1.2628
    2TMC3    C714357   1.172   0.338  14.861  0.0322 -0.2758  0.4513
    2TMC3    C814358   1.467   4.707  14.847 -0.3320  0.1537  0.6666
    2TMC3    O114359   1.109   0.276  14.780  0.2798  0.4140 -0.0002
    2TMC3    O214360   1.424   4.682  14.738  1.0161 -0.1375 -0.2971
    3TCq1    O114361   0.678   0.842  15.836  0.2350 -0.0897  0.2602
    3TCq1    C114362   0.634   0.801  15.714 -0.2739 -0.7554  0.3284
    3TCq1    O214363   0.545   0.716  15.687 -0.1285  0.1545  0.1646
    3TCq1    C214364   0.728   0.840  15.610  0.5703 -0.1038 -0.0575
    3TCq1    C314365   0.862   0.864  15.641 -0.4566  0.0197 -0.3514
    3TCq1    C414366   0.948   0.889  15.540 -0.7992  0.2085  0.1562
    3TCq1    C514367   0.906   0.882  15.411  0.3809 -0.0022  0.3008
    3TCq1    C614368   0.776   0.850  15.384 -0.4700 -0.5967  0.2187
    3TCq1    C714369   0.681   0.839  15.482  0.0399 -0.0516  0.3679
    3TCq1    C814370   0.748   0.787  15.257 -0.0462 -0.5766 -0.1829
    3TCq1    O414371   0.637   0.753  15.228 -0.2847  0.1619 -0.0725
    3TCq1    C914372   1.088   0.898  15.566  0.2750  0.5525  1.0163
    3TCq1    O514373   1.164   0.890  15.466 -0.0461  0.4128  0.0810
    3TCq1    O614374   1.123   0.887  15.683  0.1530  0.5376  0.2276
    3TCq1    H114375   0.767   0.885  15.831 -0.1462  0.3923 -2.2628
    3TCq1    H214376   0.903   0.876  15.741 -2.0155 -1.7636  0.4943
    3TCq1    H314377   0.985   0.882  15.337  0.6681 -1.6813  0.6273
    3TCq1    H414378   0.580   0.803  15.464  1.1550 -2.3804 -1.1884
    4MPD2     C14379   0.767   0.629  14.999 -0.2487 -0.1119  0.5724
    4MPD2    C114380   0.870   0.655  15.087 -0.4643  0.1964  0.3451
    4MPD2    C214381   0.992   0.605  15.049 -0.2915  0.6168  0.0601
    4MPD2    C314382   1.014   0.511  14.947 -0.1267 -0.2681  0.1558
    4MPD2    C414383   0.906   0.478  14.871 -0.5618  0.5295 -0.2620
    4MPD2    C514384   0.790   0.548  14.891  0.1632  0.0603 -0.5330
    4MPD2     H14385   1.074   0.645  15.108  0.6454  1.3423 -1.7211
    4MPD2    H114386   0.906   0.414  14.783  0.2092 -1.3088  1.0580
    4MPD2    H214387   0.670   0.675  15.013 -0.9818 -0.6465 -2.6394
    4MPD2    H314388   0.712   0.528  14.818  1.2170  1.6460 -2.1010
    4MPD2     N14389   1.142   0.442  14.944 -0.0204 -0.2376  0.3089
    4MPD2    H514390   1.213   0.469  15.013 -0.8267 -0.9877  1.4259
    4MPD2    N114391   0.862   0.726  15.206  0.3400 -0.4106 -0.7603
    4MPD2    H714392   0.948   0.740  15.258  0.8781 -2.0403 -1.2114
    5TMC2    C114393   2.166   4.583  15.084  0.3123  0.5931 -0.5646
    5TMC2    C214394   2.249   4.570  14.982 -0.4910  0.0560  0.2631
    5TMC2    C314395   2.312   4.683  14.929  0.7253  0.5408  0.6128
    5TMC2    C414396   2.154   4.701  15.148 -0.0989  0.0539  0.5951
    5TMC2    C514397   2.202   0.093  15.086 -0.2239 -0.3055  0.0891
    5TMC2    C614398   2.286   0.083  14.979 -0.0832  0.7557  0.1504
    5TMC2     C14399   2.041   4.510  15.060 -0.1851 -0.1470 -0.0677
    5TMC2     O14400   1.959   4.516  15.148  0.1800  0.4245 -0.5773
    5TMC2     H14401   2.280   4.468  14.961  0.2425  0.7185 -1.8758
    5TMC2    H114402   2.079   4.698  15.227  0.4558 -2.0880  1.0273
    5TMC2    H214403   2.336   0.169  14.936 -1.1510  0.6536 -1.2868
    5TMC2    C714404   2.112   0.207  15.109  0.8280 -0.5660 -0.1356
    5TMC2    C814405   2.436   4.658  14.860 -0.4669  0.0780  0.0971
    5TMC2    O114406   2.028   0.190  15.197 -0.4203  0.2118  0.0326
    5TMC2    O214407   2.534   0.004  14.886  0.1847 -0.5359  0.3510
    5TMC2    O514408   2.398   4.612  14.738 -0.3338  0.1735  1.1183
    5TMC2    H514409   2.315   4.560  14.734  0.5560 -1.1666 -0.0866
    6MPD2     C14410   1.647   4.482  14.746 -0.2746  0.1718 -0.3293
    6MPD2    C114411   1.671   4.556  14.863  0.3781 -0.0847 -0.0603
    6MPD2    C214412   1.790   4.539  14.926  0.1384 -0.4811 -0.2807
    6MPD2    C314413   1.889   4.462  14.877  0.2142  0.6063  0.4586
    6MPD2    C414414   1.869   4.397  14.758 -1.3056  0.1861 -0.0222
    6MPD2    C514415   1.747   4.404  14.692  0.1715  0.4636  1.0182
    6MPD2     H14416   1.799   4.596  15.018 -2.4754  0.3991 -0.5808
    6MPD2    H114417   1.941   4.331  14.711 -2.3859 -0.8242 -0.2843
    6MPD2    H214418   1.547   4.488  14.705 -1.1872 -3.3010  1.3443
    6MPD2    H314419   1.732   4.332  14.612  0.1068  0.3350  1.1479
    6MPD2     N14420   2.016   4.469  14.931  0.4329 -0.6851  0.1552
    6MPD2    H514421   2.098   4.455  14.871  1.1827 -0.8444  1.2203
    6MPD2    N114422   1.579   4.653  14.913 -0.3267 -1.0384 -0.7642
    6MPD2    H714423   1.601   4.697  15.001 -1.0422  1.1851 -1.6932
  945NH4     N114424   0.350   4.526  16.066  0.1316  0.4254 -0.9742
  945NH4     H214425   0.396   4.488  15.981 -1.0280 -2.1066 -0.4754
  945NH4     H314426   0.260   4.473  16.067 -0.4902  1.5274  2.5685
  945NH4     H414427   0.332   4.627  16.054 -0.7357  0.7702  3.2960
  945NH4     H514428   0.405   4.507  16.152 -1.5305  0.1927  0.0406
  946SOD     NA14429   2.350   1.456   1.399  0.5429  0.3043  0.3076
  947SOD     NA14430   0.732   3.623   9.799  0.0343  0.7791  0.4117
  948SOD     NA14431   2.511   3.831  11.581  0.3935  0.3259 -0.1222
  949SOD     NA14432   0.250   3.475  15.395 -0.1111 -0.2339  0.1546
  950SOD     NA14433   0.318   1.733   3.121  0.1064  0.0356  0.1215
  951SOD     NA14434   3.779   1.900   1.550 -0.1468 -0.0886  0.2508
  952SOD     NA14435   0.561   4.368  13.534  0.0438 -0.0784  0.0346
  953SOD     NA14436   3.103   4.407  11.124  0.5912  0.2785  0.0599
  954SOD     NA14437   2.534   4.016  11.923  0.0206  0.5146 -0.1723
  955SOD     NA14438   1.723   3.800  10.188  1.0355  0.0981 -0.1208
  956SOD     NA14439   0.196   3.083  13.087 -0.2955 -0.1264 -0.0125
  957SOD     NA14440   1.823   2.562  11.164  0.5529 -0.3008 -0.7846
  958SOD     NA14441   2.546   2.874  13.158 -0.1302  0.3849 -0.0000
  959SOD     NA14442   0.513   2.930  14.265 -0.3133 -0.4691 -0.3884
  960SOD     NA14443   4.648   0.777  13.422 -0.0352 -0.1558 -0.1147
  961SOD     NA14444   1.665   3.507  10.129  0.1785  0.0913 -0.0320
  962SOD     NA14445   2.808   2.855  12.072  0.6236 -0.6095 -0.1785
  963SOD     NA14446   1.318   2.949   5.184  0.1488 -0.4463 -0.4972
  964SOD     NA14447   1.628   2.146   3.609 -0.0937  0.4263 -0.0731
  965SOD     NA14448   4.713   2.955   2.112  0.7098  0.1254  0.2186
  966SOD     NA14449   3.461   4.151   7.462  0.2235  0.7732 -0.0942
  967SOD     NA14450   2.732   3.105  13.312  0.2338  0.1036  0.1559
  968SOD     NA14451   0.607   4.018  10.383 -0.2446 -0.1496 -0.0671
  969SOD     NA14452   3.963   4.480   5.245  0.0671  0.4474 -0.2775
  970SOD     NA14453   0.259   0.301   0.357 -0.1173  0.0232 -0.3181
  971SOD     NA14454   1.798   0.672   9.022 -0.1229 -0.0339  0.3019
  972SOD     NA14455   2.578   4.085  16.254 -0.3949 -0.4894  0.3297
  973SOD     NA14456   0.914   0.146  10.914  0.4190  0.1779 -0.4755
  974SOD     NA14457   2.280   2.778  10.689 -0.4179  0.2205  0.1573
  975SOD     NA14458   1.678   1.821  10.381  0.3745  0.0790  0.3999
  976SOD     NA14459   1.790   4.102  12.906  0.3462 -0.3350 -0.6433
  977SOD     NA14460   4.696   0.889   9.599  0.0379 -0.4038  0.2635
  978SOD     NA14461   3.552   3.932  13.306 -0.2252  0.0602  0.2261
  979SOD     NA14462   1.089   1.150   0.746 -0.2054  0.0101 -0.2538
  980SOD     NA14463   4.424   4.235  14.257 -0.3258  0.0413  0.2484
  981SOD     NA14464   2.495   3.728  11.847 -0.3427  0.3850 -0.2114
  982SOD     NA14465   3.609   1.882   0.940 -0.2055  0.2681  0.4822
  983SOD     NA14466   1.432   2.653  11.191 -0.0600 -0.0189 -0.4817
  984SOD     NA14467   1.650   3.102   9.945 -0.1365  0.1954 -0.1896
  985SOD     NA14468   2.413   0.141  11.987  0.5201  0.0192  0.0660
  986SOD     NA14469   3.762   0.911  14.401  0.1159  0.3282  0.2342
  987SOD     NA14470   3.196   4.061  14.589  0.6183 -0.1030 -0.4498
  988SOD     NA14471   1.545   4.628  17.431  0.1141 -0.5101 -0.1272
  989SOD     NA14472   3.989   1.699   1.702  0.2675  0.3085 -0.2584
  990SOD     NA14473   2.339   0.903  11.110  0.3278  0.1318  0.2337
  991SOD     NA14474   1.829   3.381   9.917  0.2417  0.0464  0.1347
  992SOD     NA14475   1.102   3.235  15.353  0.3457  0.4726 -0.3729
  993SOD     NA14476   3.198   4.042  14.244 -0.2629 -0.4706  0.3644
  994SOD     NA14477   3.817   4.701  16.348 -0.0315  0.5114 -0.3445
  995SOD     NA14478   4.269   3.221   6.389 -0.0596  0.3844  0.6432
  996SOD     NA14479   3.685   2.717  13.210  0.2160 -0.5138 -0.2131
  997SOD     NA14480   4.400   0.168   1.181  0.0071 -0.0325  0.5382
  998SOD     NA14481   2.645   0.186  11.766 -0.1969  0.2511  0.4516
  999SOD     NA14482   2.461   3.004   2.670  0.0893  0.0504 -0.2092
 1000SOD     NA14483   4.674   0.410   1.148 -0.2989  0.8258  0.2856
 1001SOD     NA14484   3.671   4.643  12.913  0.5860 -0.1593 -0.2661
 1002SOD     NA14485   1.838   4.372  15.316  0.1802  0.4318  0.1745
 1003SOD     NA14486   0.451   0.126   0.097  0.1254 -0.1994 -0.0221
 1004SOD     NA14487   1.936   3.011   0.802 -0.2992 -0.2257 -0.0257
 1005SOD     NA14488   1.276   0.911  15.278 -0.3380 -0.2275  0.2470
 1006SOD     NA14489   2.237   3.264  11.517  0.1731  0.2211 -0.3540
 1007SOD     NA14490   0.615   0.149   3.454  0.7632  0.4685  0.2319
 1008SOD     NA14491   3.419   4.046   1.608 -0.5027 -0.0837 -0.4945
 1009SOD     NA14492   3.046   3.082  16.931 -0.0433 -0.3679  1.2513
 1010SOD     NA14493   3.778   1.763   1.220 -0.1327  0.1811  0.0938
 1011SOL     OW14494   3.399   4.243   8.838 -0.7664 -0.2916  0.1890
 1011SOL    HW114495   3.357   4.210   8.918 -0.9004 -0.4014  0.0722
 1011SOL    HW214496   3.322   4.224   8.785 -0.2464  0.1271 -0.7174
 1012SOL     OW14497   2.427   0.225   2.198 -0.1199  0.4487  0.3128
 1012SOL    HW114498   2.370   0.287   2.244 -2.1855  0.0027 -1.6438
 1012SOL    HW214499   2.488   0.192   2.265  0.5433 -1.4501 -1.2250
 1013SOL     OW14500   0.809   4.199  12.711 -0.2512 -0.4824  0.0859
 1013SOL    HW114501   0.848   4.238  12.632  0.7142 -0.5678  0.5153
 1013SOL    HW214502   0.869   4.125  12.721  0.0878 -0.2533 -0.2324
 1014SOL     OW14503   0.393   1.396   3.331 -0.1103 -0.0360 -0.3365
 1014SOL    HW114504   0.397   1.317   3.385 -0.9685 -0.0808 -0.3353
 1014SOL    HW214505   0.428   1.365   3.248  1.5264 -1.4898  0.8832
 1015SOL     OW14506   2.122   2.680  10.158 -0.2312 -0.1871  0.1819
 1015SOL    HW114507   2.029   2.701  10.162 -0.4192 -0.6089 -2.0856
 1015SOL    HW214508   2.165   2.756  10.197  0.8086 -0.3571 -0.6448
 1016SOL     OW14509   1.456   0.454   6.303  0.1352  0.7012  0.9554
 1016SOL    HW114510   1.427   0.363   6.298  0.6535  0.5479  0.6744
 1016SOL    HW214511   1.471   0.467   6.396 -0.2648  1.5345  0.9024
 1017SOL     OW14512   2.735   0.271   2.843 -0.0653 -0.0287  0.1638
 1017SOL    HW114513   2.682   0.208   2.894  0.0269 -0.7912 -0.6872
 1017SOL    HW214514   2.666   0.323   2.802  0.3648  1.5949  1.4822
 1018SOL     OW14515   1.709   1.916   3.975  0.5398  0.0761 -0.1338
 1018SOL    HW114516   1.680   1.989   3.920  0.8657  0.9708  0.8823
 1018SOL    HW214517   1.677   1.947   4.059 -0.0284 -1.5590  0.2486
 1019SOL     OW14518   1.054   4.390  15.349 -0.0485 -0.0794  0.3969
 1019SOL    HW114519   1.054   4.483  15.373  1.8686 -0.1913  0.8252
 1019SOL    HW214520   1.032   4.393  15.256  0.3392  0.9984  0.3483
 1020SOL     OW14521   0.102   2.088   0.870  0.4037  0.4623 -0.3054
 1020SOL    HW114522   0.178   2.036   0.842 -0.6876 -1.7615  0.8038
 1020SOL    HW214523   0.040   2.014   0.864  0.9102 -0.1155  1.4584
 1021SOL     OW14524   3.259   4.069  14.839 -0.1401  0.6434  0.2466
 1021SOL    HW114525   3.352   4.093  14.832  0.1044 -0.6364 -0.7583
 1021SOL    HW214526   3.251   4.026  14.923  1.0223 -1.0284 -0.4922
 1022SOL     OW14527   2.394   4.599   3.913 -0.2581  0.6382  0.2955
 1022SOL    HW114528   2.306   4.574   3.942 -0.2482  0.7951  0.4570
 1022SOL    HW214529   2.423   4.512   3.884 -1.0045 -0.1165  1.8171
 1023SOL     OW14530   2.139   1.676  17.573 -0.3297  0.5423  0.5487
 1023SOL    HW114531   2.119   1.628  17.492 -1.4395  0.5631  0.8077
 1023SOL    HW214532   2.187   1.609  17.623  1.7230  1.8699  0.3342
 1024SOL     OW14533   4.027   1.296   8.195 -0.4252  0.3602  0.5676
 1024SOL    HW114534   3.950   1.346   8.168 -0.3322 -1.0563 -2.2642
 1024SOL    HW214535   4.021   1.309   8.290  2.4985 -0.2997  0.8450
 1025SOL     OW14536   2.198   0.872   4.825 -1.0584 -0.2381  0.2483
 1025SOL    HW114537   2.177   0.822   4.746  1.2899  1.4188 -1.4467
 1025SOL    HW214538   2.245   0.948   4.790 -1.7359  0.5168  0.9843
 1026SOL     OW14539   3.238   2.648   6.207 -0.7431  0.7906 -0.3215
 1026SOL    HW114540   3.278   2.591   6.274  1.1518 -0.9079 -2.9086
 1026SOL    HW214541   3.255   2.594   6.130 -1.0444  0.0834  0.1068
 1027SOL     OW14542   0.363   1.296   8.220  0.0614  0.3598  0.5073
 1027SOL    HW114543   0.390   1.209   8.193 -0.9151  0.1003  0.3584
 1027SOL    HW214544   0.268   1.284   8.217  0.3641 -0.8948 -4.1089
 1028SOL     OW14545   0.398   3.285   2.317  0.7451  0.0256 -0.2196
 1028SOL    HW114546   0.458   3.246   2.253 -1.5983 -2.7896 -0.7004
 1028SOL    HW214547   0.340   3.333   2.258  1.6881 -1.8979 -2.6745
 1029SOL     OW14548   4.398   4.704   6.743 -0.1780  0.2193 -0.9259
 1029SOL    HW114549   4.336   0.043   6.782 -0.5944  0.7416 -2.4241
 1029SOL    HW214550   4.427   0.033   6.668  2.3189 -0.4122 -0.4011
 1030SOL     OW14551   0.768   4.402   1.592  0.3480 -0.1037 -0.1831
 1030SOL    HW114552   0.782   4.367   1.504  1.1966 -3.4457  1.3021
 1030SOL    HW214553   0.733   4.488   1.567 -1.3329 -0.2389  1.7055
 1031SOL     OW14554   0.018   1.723   7.741  0.4387 -0.2574 -0.0943
 1031SOL    HW114555   4.648   1.728   7.717  0.7584 -0.9861 -1.5235
 1031SOL    HW214556   0.040   1.630   7.733 -0.2999 -0.2594 -2.1235
 1032SOL     OW14557   1.712   1.238   4.404 -0.4083  0.1442 -0.3608
 1032SOL    HW114558   1.649   1.243   4.476 -2.9758 -0.6737 -2.5623
 1032SOL    HW214559   1.793   1.256   4.452 -0.6088 -0.6988  0.3012
 1033SOL     OW14560   0.077   3.962   2.408  0.6713  0.1212  0.6026
 1033SOL    HW114561   0.143   4.022   2.374  0.3466  0.7252  1.0554
 1033SOL    HW214562   0.130   3.883   2.420 -0.1994 -0.5317  0.0744
 1034SOL     OW14563   3.390   2.706   7.616 -0.3292  0.0382 -0.3778
 1034SOL    HW114564   3.323   2.750   7.564  0.3418  1.2827 -0.1941
 1034SOL    HW214565   3.341   2.647   7.674  0.3229  2.7148  2.9118
 1035SOL     OW14566   1.020   2.341   2.280  0.4318  0.2015 -0.6377
 1035SOL    HW114567   1.030   2.304   2.193  3.7964  0.2067 -0.2449
 1035SOL    HW214568   0.940   2.293   2.301  0.0462  0.5257 -1.3671
 1036SOL     OW14569   3.586   2.597   3.506 -0.0754 -0.1939 -0.7656
 1036SOL    HW114570   3.595   2.565   3.416 -0.0936  0.1442 -0.8863
 1036SOL    HW214571   3.638   2.677   3.509  0.2017 -0.3971 -0.1476
 1037SOL     OW14572   4.202   1.427   8.032  0.0493 -0.2320  0.1787
 1037SOL    HW114573   4.282   1.374   8.030  1.1388  1.4726 -1.8699
 1037SOL    HW214574   4.145   1.376   8.089  0.1196  0.5075  0.9009
 1038SOL     OW14575   1.138   1.611  15.123  0.1785  0.0132  0.4778
 1038SOL    HW114576   1.216   1.627  15.177 -0.7168 -0.5609  1.9096
 1038SOL    HW214577   1.167   1.666  15.049  0.0816 -0.2658  0.2331
 1039SOL     OW14578   2.424   0.816  15.144 -0.2599 -0.2005  0.2900
 1039SOL    HW114579   2.375   0.733  15.136  0.2615 -0.2569 -2.0652
 1039SOL    HW214580   2.477   0.815  15.065  0.1637 -1.3438  0.5748
 1040SOL     OW14581   2.987   3.332   5.069  0.1768  0.5861 -0.0963
 1040SOL    HW114582   2.995   3.417   5.111  0.3950  1.0742 -1.1434
 1040SOL    HW214583   2.929   3.287   5.131 -0.1996  0.4562 -0.5374
 1041SOL     OW14584   2.619   0.264  13.702  0.0963 -0.4799  0.4549
 1041SOL    HW114585   2.538   0.218  13.680  2.3980 -4.4298  0.1767
 1041SOL    HW214586   2.585   0.332  13.759  1.5826  0.2148  0.5257
 1042SOL     OW14587   1.646   0.819  17.258  0.4957 -0.3239 -0.7073
 1042SOL    HW114588   1.707   0.782  17.322  1.9626  1.1575 -1.2613
 1042SOL    HW214589   1.610   0.740  17.217  2.2667 -0.9073 -1.1215
 1043SOL     OW14590   2.879   4.500   1.226  0.2867  0.3981 -0.3121
 1043SOL    HW114591   2.889   4.595   1.214  3.3780  0.1677  0.4547
 1043SOL    HW214592   2.970   4.472   1.239 -0.2914 -1.7610 -1.0164
 1044SOL     OW14593   2.230   1.485   9.344 -0.5256  0.1197 -0.1478
 1044SOL    HW114594   2.239   1.580   9.340 -0.8153  0.0680 -2.0979
 1044SOL    HW214595   2.137   1.476   9.364  0.2723 -0.8717  3.1572
 1045SOL     OW14596   0.377   2.995  13.800 -0.5405 -0.2285  0.2153
 1045SOL    HW114597   0.373   3.010  13.705  1.3549 -0.0123  0.1622
 1045SOL    HW214598   0.290   3.032  13.811 -1.3919 -2.6688  1.6458
 1046SOL     OW14599   3.842   3.785   8.542 -0.6084  0.3798 -0.4843
 1046SOL    HW114600   3.872   3.791   8.633  1.9457 -1.4527 -1.1923
 1046SOL    HW214601   3.792   3.866   8.536  0.0321  0.9300  1.5723
 1047SOL     OW14602   1.513   1.862   0.047 -1.0107 -0.6247 -0.3501
 1047SOL    HW114603   1.525   1.875   0.141 -1.5355  0.8972 -0.5018
 1047SOL    HW214604   1.602   1.854   0.012 -1.0637  0.9679 -0.8233
 1048SOL     OW14605   3.237   0.024   6.273  0.2199  0.6169 -1.0554
 1048SOL    HW114606   3.282   0.035   6.357 -0.2652  0.3704 -0.7644
 1048SOL    HW214607   3.188   0.104   6.253  1.5071  1.6059 -0.2710
 1049SOL     OW14608   4.057   1.443   1.186  0.1210  0.6094 -0.2832
 1049SOL    HW114609   3.992   1.508   1.160  0.1016  1.4698  1.9165
 1049SOL    HW214610   4.030   1.415   1.273 -0.1489  0.5014 -0.4026
 1050SOL     OW14611   2.262   2.501   2.691 -0.2525  0.0631 -0.4487
 1050SOL    HW114612   2.350   2.501   2.730 -1.0423 -0.5089  1.3475
 1050SOL    HW214613   2.211   2.453   2.756  0.3355  0.7674  0.5422
 1051SOL     OW14614   1.257   0.648  15.698 -0.5979 -1.0911  0.1693
 1051SOL    HW114615   1.308   0.655  15.617 -2.9688 -2.3399 -1.4424
 1051SOL    HW214616   1.222   0.736  15.706 -2.6209 -1.9570  0.8574
 1052SOL     OW14617   0.339   2.688   2.581  0.5419 -0.0438  0.5975
 1052SOL    HW114618   0.357   2.620   2.646  0.1964  0.5651  1.3170
 1052SOL    HW214619   0.316   2.631   2.507  1.4430  0.1848  0.1416
 1053SOL     OW14620   2.284   1.659  16.318 -0.1532  0.1177 -0.3647
 1053SOL    HW114621   2.318   1.728  16.261 -2.0411  0.2555 -1.3419
 1053SOL    HW214622   2.229   1.604  16.262  0.5104 -0.6718 -0.2511
 1054SOL     OW14623   2.989   1.203   7.218 -0.4560  0.0498 -0.1175
 1054SOL    HW114624   3.066   1.260   7.230 -1.8667  1.4778  2.1722
 1054SOL    HW214625   2.937   1.232   7.293  1.7557 -0.7223  1.7342
 1055SOL     OW14626   3.763   1.749  11.023  0.2412 -0.0467 -0.3650
 1055SOL    HW114627   3.742   1.792  11.105 -0.8464 -0.9718 -0.1542
 1055SOL    HW214628   3.676   1.712  11.004  0.0948  0.2713 -0.3083
 1056SOL     OW14629   1.795   1.964   9.503 -0.5877  0.2987 -0.2481
 1056SOL    HW114630   1.707   1.944   9.536  0.2270 -1.0139  1.1065
 1056SOL    HW214631   1.833   1.886   9.542  0.9868 -0.0731 -2.5985
 1057SOL     OW14632   2.498   1.693  10.214 -0.2597 -0.6660  0.0916
 1057SOL    HW114633   2.492   1.662  10.123 -0.9594 -1.2275  0.3294
 1057SOL    HW214634   2.475   1.616  10.265 -1.1391  0.4775  1.4329
 1058SOL     OW14635   0.635   3.437   2.386  0.1106 -0.3971 -0.5238
 1058SOL    HW114636   0.545   3.406   2.374 -0.0577  0.0314 -0.3761
 1058SOL    HW214637   0.668   3.367   2.442  3.5228  0.3655 -1.6099
 1059SOL     OW14638   4.653   4.596  15.949  0.2938 -0.0844  0.2541
 1059SOL    HW114639   4.609   4.663  16.002 -0.8087  0.1792 -1.0083
 1059SOL    HW214640   4.588   4.579  15.881 -2.1877  2.1842  2.0320
 1060SOL     OW14641   2.364   4.258  14.095  0.6222  0.6622 -0.1563
 1060SOL    HW114642   2.317   4.238  14.176 -0.8216  2.9826 -0.4177
 1060SOL    HW214643   2.453   4.225  14.108  1.1874  2.3654  0.2570
 1061SOL     OW14644   0.486   3.598  10.981  0.5701 -0.1105 -0.1754
 1061SOL    HW114645   0.477   3.692  11.001  0.2072 -0.4659  1.2878
 1061SOL    HW214646   0.540   3.559  11.049  2.4364  1.3124 -0.8387
 1062SOL     OW14647   0.704   1.714   5.377 -0.5687  0.3552 -0.0147
 1062SOL    HW114648   0.670   1.801   5.356 -0.4843  0.4727  0.3252
 1062SOL    HW214649   0.688   1.705   5.471  1.8662 -2.0332  0.2079
 1063SOL     OW14650   1.565   0.093   7.339 -0.1453 -0.3711  0.3219
 1063SOL    HW114651   1.563   0.181   7.378  1.3762 -0.0187 -0.3934
 1063SOL    HW214652   1.522   0.052   7.414  3.0988 -0.6501  2.0435
 1064SOL     OW14653   3.669   2.797   9.295  0.5615 -0.1783 -0.4861
 1064SOL    HW114654   3.728   2.723   9.283  0.2851 -0.1997 -1.7395
 1064SOL    HW214655   3.595   2.749   9.332  1.0212  1.3097  2.3693
 1065SOL     OW14656   0.194   0.685   2.926 -0.4533  0.3008  0.3776
 1065SOL    HW114657   0.238   0.601   2.941  0.0579  0.1145 -2.0935
 1065SOL    HW214658   0.210   0.710   3.017  0.3974 -0.3112  0.4034
 1066SOL     OW14659   3.263   3.841  10.907 -0.0298 -0.2777  0.2416
 1066SOL    HW114660   3.218   3.861  10.989 -1.1900  0.8464 -0.6524
 1066SOL    HW214661   3.213   3.901  10.851 -0.2260 -0.6619  0.0040
 1067SOL     OW14662   0.120   4.534   7.853 -0.2214 -0.0919 -0.3427
 1067SOL    HW114663   0.113   4.496   7.940  0.8855  0.7769  0.1303
 1067SOL    HW214664   0.036   4.579   7.848  1.4634  3.1195  0.4469
 1068SOL     OW14665   0.567   4.645  11.818 -0.0980 -0.5238  0.1774
 1068SOL    HW114666   0.539   4.643  11.726  1.6113 -3.8494 -0.2818
 1068SOL    HW214667   0.659   4.627  11.798  0.5218  0.5325  2.1427
 1069SOL     OW14668   3.290   0.995   1.535 -0.3590 -0.4034 -0.0201
 1069SOL    HW114669   3.305   0.900   1.537 -1.3433 -0.5691 -0.8636
 1069SOL    HW214670   3.202   0.999   1.498 -0.7590 -0.5112  0.9216
 1070SOL     OW14671   0.099   2.319   9.920 -0.2884 -0.4023 -0.4834
 1070SOL    HW114672   0.077   2.237   9.964  1.0761 -0.9419 -0.7839
 1070SOL    HW214673   0.013   2.346   9.888 -0.1921  1.8471  1.1422
 1071SOL     OW14674   3.482   1.137   3.289  0.0212  0.0933  0.4110
 1071SOL    HW114675   3.550   1.143   3.222 -0.4456  0.5154 -0.0174
 1071SOL    HW214676   3.534   1.098   3.359  0.3173 -0.9234 -0.3828
 1072SOL     OW14677   3.564   2.486   1.957  0.3827  0.0007  0.6259
 1072SOL    HW114678   3.476   2.522   1.957  0.8496  1.1160 -0.2717
 1072SOL    HW214679   3.563   2.398   1.918 -0.0751  1.0192 -1.6278
 1073SOL     OW14680   0.353   0.150  10.851  0.5707  0.2965  0.6631
 1073SOL    HW114681   0.401   0.075  10.887 -0.2643 -0.6744 -0.2309
 1073SOL    HW214682   0.407   0.226  10.873 -0.3124  0.4905  2.1115
 1074SOL     OW14683   0.500   0.925  16.124  0.3087  0.5301  0.2045
 1074SOL    HW114684   0.502   0.884  16.211 -1.9353  3.2844  1.5311
 1074SOL    HW214685   0.416   0.971  16.124 -0.9051 -1.6903 -0.1664
 1075SOL     OW14686   3.317   4.666  11.762  0.0085 -0.7970 -0.1850
 1075SOL    HW114687   3.272   4.723  11.824  2.7545 -0.7037  1.6997
 1075SOL    HW214688   3.290   4.583  11.800  1.6728  0.0821  2.9080
 1076SOL     OW14689   4.459   3.702   2.223  0.1425 -0.1055  0.6005
 1076SOL    HW114690   4.435   3.652   2.301 -1.5183  1.2157  0.9498
 1076SOL    HW214691   4.554   3.707   2.217 -0.0456 -0.9126 -3.4300
 1077SOL     OW14692   1.447   4.510   8.719 -0.3365  0.1896 -0.0323
 1077SOL    HW114693   1.356   4.488   8.697 -0.1617  1.6995 -2.1885
 1077SOL    HW214694   1.447   4.597   8.679  0.3723  0.6317  0.9271
 1078SOL     OW14695   0.508   3.422   1.925 -0.5044  0.0819  0.2013
 1078SOL    HW114696   0.484   3.338   1.885  0.5914 -0.0203 -0.2589
 1078SOL    HW214697   0.593   3.394   1.958 -0.3937  1.1683  0.8367
 1079SOL     OW14698   2.447   0.431   3.847  0.4159  0.2780 -0.3917
 1079SOL    HW114699   2.463   0.525   3.852  2.4701  0.0165 -2.2133
 1079SOL    HW214700   2.373   0.435   3.786  1.0061 -0.5737 -1.1629
 1080SOL     OW14701   3.670   1.605   2.544  0.3085 -0.6351 -0.0974
 1080SOL    HW114702   3.688   1.602   2.450  0.9596 -0.6129  0.0237
 1080SOL    HW214703   3.759   1.590   2.575  0.4534 -0.9931 -0.7038
 1081SOL     OW14704   2.617   4.276  16.121  0.1196  0.3489  0.5468
 1081SOL    HW114705   2.533   4.295  16.079  0.8025  2.7185  0.2691
 1081SOL    HW214706   2.645   4.365  16.144 -1.4712  1.2718 -1.1240
 1082SOL     OW14707   2.016   2.732  11.145  0.6176 -0.1507 -0.7138
 1082SOL    HW114708   1.956   2.748  11.072 -0.2014 -1.2125 -0.2737
 1082SOL    HW214709   2.095   2.728  11.090  1.2386 -0.5723  0.2054
 1083SOL     OW14710   3.606   2.834   8.145 -0.0308 -0.6177  0.3099
 1083SOL    HW114711   3.572   2.921   8.126  0.8752 -0.2356  0.4392
 1083SOL    HW214712   3.701   2.837   8.135  0.0154  1.4107  1.5061
 1084SOL     OW14713   0.542   2.174   1.409 -0.2013  0.1426 -0.5489
 1084SOL    HW114714   0.447   2.183   1.403 -0.3740 -1.1493  0.3652
 1084SOL    HW214715   0.580   2.168   1.321  1.7616  0.4449  0.2627
 1085SOL     OW14716   4.078   2.704  17.172 -0.4859  0.4606 -0.2200
 1085SOL    HW114717   4.059   2.707  17.078 -3.3784 -1.8066  0.2789
 1085SOL    HW214718   3.991   2.713  17.210 -0.9103  1.2491 -1.3552
 1086SOL     OW14719   0.112   3.482   3.754  0.1340 -0.6342 -0.2977
 1086SOL    HW114720   0.059   3.405   3.731 -1.0038  0.6194 -1.8540
 1086SOL    HW214721   0.187   3.481   3.694 -0.8355 -0.4997 -1.4963
 1087SOL     OW14722   4.074   4.439  12.755 -0.1950 -0.2003 -0.3556
 1087SOL    HW114723   4.169   4.442  12.765 -0.1328 -1.8970 -0.4161
 1087SOL    HW214724   4.049   4.520  12.800  0.3891 -0.9030  1.2443
 1088SOL     OW14725   1.996   2.488  16.225 -0.2385 -0.1258 -0.1486
 1088SOL    HW114726   1.966   2.399  16.206  0.8471 -0.4411 -0.4383
 1088SOL    HW214727   2.080   2.474  16.180 -1.3266 -0.9928 -1.9104
 1089SOL     OW14728   4.708   3.751   0.597 -0.2443  0.3764  0.6882
 1089SOL    HW114729   4.661   3.731   0.677  0.3424  1.9665  1.4357
 1089SOL    HW214730   0.032   3.668   0.588 -1.1894 -0.2547  1.7317
 1090SOL     OW14731   1.424   4.068   5.661 -0.6357 -0.1683 -0.4287
 1090SOL    HW114732   1.465   4.084   5.576  0.4208 -2.5427 -0.3780
 1090SOL    HW214733   1.400   4.158   5.684 -0.4405 -0.2779  0.2076
 1091SOL     OW14734   4.025   3.815   8.073  1.2036  0.4788 -0.1088
 1091SOL    HW114735   4.047   3.892   8.020  1.0534  0.4816 -0.1674
 1091SOL    HW214736   4.114   3.797   8.104  0.4224 -2.8634  0.1824
 1092SOL     OW14737   0.953   4.309   4.364  0.0902  0.1518 -0.2450
 1092SOL    HW114738   0.874   4.260   4.386 -0.1348  0.1626 -1.0302
 1092SOL    HW214739   0.977   4.271   4.280 -1.3864  0.2815 -0.7232
 1093SOL     OW14740   0.225   4.556  12.673 -0.7806  0.9839 -0.2881
 1093SOL    HW114741   0.304   4.505  12.691 -0.9497  0.2560 -1.6727
 1093SOL    HW214742   0.237   4.579  12.581  0.5723 -0.3714 -0.4638
 1094SOL     OW14743   1.648   0.331   7.474  0.2100 -0.0231 -0.4490
 1094SOL    HW114744   1.687   0.266   7.533  0.2128  0.7562  0.4139
 1094SOL    HW214745   1.728   0.381   7.457 -0.4574  1.2532  0.2367
 1095SOL     OW14746   4.533   3.725   4.411  0.4041 -0.1721 -0.2626
 1095SOL    HW114747   4.468   3.789   4.439  0.1083 -0.7709  0.4129
 1095SOL    HW214748   4.521   3.656   4.476 -1.7800  0.4072 -0.0495
 1096SOL     OW14749   0.249   1.908  13.490  0.1945 -0.3798  0.1115
 1096SOL    HW114750   0.221   1.998  13.508 -0.4514 -0.1508 -2.0234
 1096SOL    HW214751   0.296   1.919  13.407  0.9979 -0.3046  0.5719
 1097SOL     OW14752   4.251   0.964  16.868  0.2670  0.3030 -0.3906
 1097SOL    HW114753   4.323   0.954  16.930 -0.2207 -3.7664 -0.4697
 1097SOL    HW214754   4.256   1.057  16.845 -2.0585 -0.2604 -3.1337
 1098SOL     OW14755   2.957   3.364   6.367 -0.4851 -0.4127 -0.0987
 1098SOL    HW114756   2.904   3.300   6.320  1.7740 -1.3666 -1.3440
 1098SOL    HW214757   3.048   3.343   6.348 -0.4464  1.0098 -1.4992
 1099SOL     OW14758   2.167   1.370   6.069 -0.4689  0.3268 -0.1728
 1099SOL    HW114759   2.111   1.397   6.141 -2.2766  0.3354 -1.5718
 1099SOL    HW214760   2.228   1.312   6.114  1.1741  2.6088  0.5359
 1100SOL     OW14761   0.502   1.577   2.110  0.1323 -0.0491  0.1684
 1100SOL    HW114762   0.509   1.485   2.137 -2.7870 -0.2569  0.1252
 1100SOL    HW214763   0.450   1.572   2.030  0.5457 -1.2393 -0.0233
 1101SOL     OW14764   0.092   1.033   6.496  0.0089  0.3010  0.1905
 1101SOL    HW114765   0.048   1.114   6.523 -1.3005 -0.2739 -0.2467
 1101SOL    HW214766   0.147   1.018   6.573 -0.5147  1.5252  0.7958
 1102SOL     OW14767   2.335   1.075  11.831  0.2301 -0.0872  0.4290
 1102SOL    HW114768   2.352   1.155  11.881 -1.6886  0.4719  0.1685
 1102SOL    HW214769   2.301   1.026  11.906  0.6818 -0.8593  0.1201
 1103SOL     OW14770   1.093   2.490   6.179 -0.0060 -0.0361  0.3836
 1103SOL    HW114771   1.038   2.562   6.212  0.6775 -0.0434  1.5471
 1103SOL    HW214772   1.060   2.427   6.243 -1.2656 -0.5470 -0.7872
 1104SOL     OW14773   2.035   4.523  13.769 -0.2173  0.0473  0.3329
 1104SOL    HW114774   2.129   4.524  13.786 -0.5372  2.1107  2.0284
 1104SOL    HW214775   2.014   4.437  13.805 -0.4699  0.6500  1.6276
 1105SOL     OW14776   0.024   3.763   5.477  0.3996  0.2033  0.0002
 1105SOL    HW114777   0.085   3.702   5.519 -0.1039  0.5296  1.1956
 1105SOL    HW214778   4.670   3.707   5.477 -0.1206  0.9289  0.7660
 1106SOL     OW14779   1.349   2.600   6.174 -0.0548  0.4711  0.2915
 1106SOL    HW114780   1.307   2.686   6.178 -0.3866  0.3692 -1.3632
 1106SOL    HW214781   1.270   2.547   6.188  0.3712  0.3691  2.3803
 1107SOL     OW14782   3.173   2.111   6.102 -0.1898 -0.9075  0.7495
 1107SOL    HW114783   3.221   2.102   6.019 -0.7646 -0.6082  0.3783
 1107SOL    HW214784   3.081   2.094   6.080 -1.0545  3.2325  1.0169
 1108SOL     OW14785   0.722   2.092  11.373  0.0367 -0.0526  0.1363
 1108SOL    HW114786   0.742   2.184  11.391 -1.4872  1.1224 -4.2300
 1108SOL    HW214787   0.712   2.081  11.278  2.2001  1.4814 -0.2842
 1109SOL     OW14788   2.643   2.714   7.317  0.4489  0.1648 -0.2360
 1109SOL    HW114789   2.672   2.687   7.405 -0.2461  0.3885  0.0673
 1109SOL    HW214790   2.618   2.801   7.347 -1.3441 -0.9473  1.5103
 1110SOL     OW14791   4.260   4.606   3.539 -0.0568 -0.1812  0.2245
 1110SOL    HW114792   4.268   4.667   3.612 -0.2090 -1.4564  1.3024
 1110SOL    HW214793   4.224   4.531   3.587  0.9690 -1.0383 -0.3226
 1111SOL     OW14794   3.533   2.035  11.954  0.2008 -0.8561  0.0236
 1111SOL    HW114795   3.552   1.959  12.010  0.2170 -0.9002 -0.0414
 1111SOL    HW214796   3.616   2.083  11.958  0.3089 -0.8123 -2.7901
 1112SOL     OW14797   2.154   3.272   3.054 -0.0551  0.4993  0.3466
 1112SOL    HW114798   2.131   3.240   3.142 -0.1615 -0.8989 -0.1897
 1112SOL    HW214799   2.102   3.353   3.048 -0.0879  0.6156  2.1621
 1113SOL     OW14800   4.446   1.302   3.851 -0.0517  0.2574  0.4525
 1113SOL    HW114801   4.489   1.217   3.852  1.2134  0.9479  2.9568
 1113SOL    HW214802   4.516   1.366   3.862 -1.7295  2.4207 -1.4298
 1114SOL     OW14803   3.787   3.878  10.953  0.0651 -0.4935  0.0949
 1114SOL    HW114804   3.701   3.892  10.994  1.1022 -0.3417  2.2118
 1114SOL    HW214805   3.783   3.783  10.951 -1.0218 -0.4543  0.1247
 1115SOL     OW14806   1.842   2.089   8.353 -0.0637 -0.0490  0.1760
 1115SOL    HW114807   1.802   2.143   8.421 -0.5916  0.4800 -0.5542
 1115SOL    HW214808   1.824   1.999   8.380  2.2427 -0.2826  0.9257
 1116SOL     OW14809   1.379   3.572   9.515  0.3659 -0.6825 -0.2178
 1116SOL    HW114810   1.440   3.614   9.575 -0.6993 -0.0021  0.3939
 1116SOL    HW214811   1.376   3.640   9.448  1.5457 -0.4032  0.0180
 1117SOL     OW14812   0.062   0.094   0.525 -0.6843 -0.1348  0.2054
 1117SOL    HW114813   0.071   0.129   0.436  1.2740 -1.0131  0.0544
 1117SOL    HW214814   0.123   0.020   0.524 -1.2101 -0.5716  0.1747
 1118SOL     OW14815   2.758   4.358   4.140 -0.0418 -0.1702 -0.9472
 1118SOL    HW114816   2.704   4.338   4.064  1.6113 -1.1268 -1.8649
 1118SOL    HW214817   2.726   4.291   4.201  2.2811  0.6288  1.1650
 1119SOL     OW14818   0.554   3.340   0.471  0.0125 -0.0391  0.5549
 1119SOL    HW114819   0.495   3.412   0.452  0.1580 -0.6659 -2.2074
 1119SOL    HW214820   0.500   3.294   0.537  0.1123 -1.3888 -0.2967
 1120SOL     OW14821   3.896   4.306  13.339 -0.3418 -0.3845  0.1521
 1120SOL    HW114822   3.950   4.384  13.352 -2.7558  1.3250 -0.0421
 1120SOL    HW214823   3.945   4.255  13.276  0.1512  0.4280 -0.1260
 1121SOL     OW14824   0.817   2.735   7.019 -0.2819 -0.4499 -0.3363
 1121SOL    HW114825   0.856   2.653   6.989  1.6561  0.8839 -1.4525
 1121SOL    HW214826   0.727   2.731   6.988  0.0835 -0.8439 -1.3408
 1122SOL     OW14827   2.854   3.169  14.510 -0.2230  0.2824  0.1069
 1122SOL    HW114828   2.924   3.231  14.530 -0.5180  0.4392  0.6534
 1122SOL    HW214829   2.903   3.089  14.527  0.5865  0.6831 -0.3547
 1123SOL     OW14830   2.592   2.681   3.009 -0.5270  0.2691 -0.0475
 1123SOL    HW114831   2.650   2.605   3.016  0.1222  0.5103 -2.7423
 1123SOL    HW214832   2.635   2.733   3.077 -0.6622 -0.9875  1.0094
 1124SOL     OW14833   3.711   0.030   3.936  0.0510 -0.1264  0.1720
 1124SOL    HW114834   3.792   0.056   3.892  0.5016  0.2084  1.2032
 1124SOL    HW214835   3.738   4.683   3.995 -0.1016  0.5480  1.0366
 1125SOL     OW14836   2.791   2.423  13.528  0.0798  0.2104  0.2261
 1125SOL    HW114837   2.727   2.359  13.559 -1.6981  1.6944 -0.3823
 1125SOL    HW214838   2.874   2.379  13.512 -0.6978 -0.8022 -1.0331
 1126SOL     OW14839   4.264   0.152   2.595 -0.7623  0.2466  0.4911
 1126SOL    HW114840   4.294   0.092   2.526  1.4185 -0.7361  2.2885
 1126SOL    HW214841   4.236   0.095   2.666  0.1716 -1.1841 -0.2885
 1127SOL     OW14842   0.710   2.399  15.548  0.9957 -0.2865  0.2662
 1127SOL    HW114843   0.763   2.436  15.477 -1.9535  0.4310 -1.5292
 1127SOL    HW214844   0.623   2.417  15.514  1.8008 -0.3282 -1.8240
 1128SOL     OW14845   1.167   3.223   8.542  0.1266 -0.0934  0.3389
 1128SOL    HW114846   1.219   3.282   8.597 -0.3259 -0.1114  0.7921
 1128SOL    HW214847   1.088   3.207   8.594 -0.0543  1.2029  0.4645
 1129SOL     OW14848   3.075   0.826   1.442  0.0184 -0.3624 -0.2751
 1129SOL    HW114849   3.142   0.788   1.385 -1.6469 -1.6961 -1.3497
 1129SOL    HW214850   3.030   0.747   1.472  1.8178 -1.1831  0.2595
 1130SOL     OW14851   1.088   0.145   3.916  0.0524  0.4508  0.3095
 1130SOL    HW114852   1.130   0.075   3.966  2.0286  1.0363 -0.5494
 1130SOL    HW214853   1.144   0.222   3.909  0.7959 -0.0975  0.2990
 1131SOL     OW14854   4.702   0.416   7.056 -0.1576  0.0219 -0.2122
 1131SOL    HW114855   4.669   0.338   7.011 -0.6082 -1.1287  2.1320
 1131SOL    HW214856   4.706   0.388   7.148 -1.6520 -2.3557 -0.8507
 1132SOL     OW14857   0.895   0.784   3.973  0.6136  0.1488  0.1756
 1132SOL    HW114858   0.842   0.842   3.918  2.2794  0.7330 -0.8187
 1132SOL    HW214859   0.928   0.716   3.914  0.3322  0.4539 -0.3367
 1133SOL     OW14860   4.421   2.809  14.467 -0.6120 -0.3029  0.3630
 1133SOL    HW114861   4.502   2.777  14.428 -0.5617  1.0324 -0.6354
 1133SOL    HW214862   4.397   2.882  14.409  2.3746  0.1389 -0.3276
 1134SOL     OW14863   3.179   0.895   7.267 -0.2743 -0.1522 -0.6353
 1134SOL    HW114864   3.226   0.966   7.309 -3.3897  0.9557  0.9828
 1134SOL    HW214865   3.248   0.829   7.268  3.9509  4.2733 -0.1343
 1135SOL     OW14866   1.680   2.277   3.994  0.2432  0.1695  0.5640
 1135SOL    HW114867   1.773   2.276   4.017  0.0937 -2.2980  1.0659
 1135SOL    HW214868   1.646   2.292   4.082  1.9305  0.0790  1.2154
 1136SOL     OW14869   2.483   2.358   4.209 -0.1911  0.4614  0.0448
 1136SOL    HW114870   2.466   2.289   4.273  1.1163  0.3877  0.3016
 1136SOL    HW214871   2.527   2.420   4.267 -0.2280  0.1390  0.4197
 1137SOL     OW14872   3.077   0.592   4.913  0.3906  0.6306 -0.2706
 1137SOL    HW114873   3.032   0.561   4.835 -1.1006  0.4928  0.6429
 1137SOL    HW214874   3.047   0.679   4.936  1.0305  0.7172  0.2619
 1138SOL     OW14875   1.273   0.034  13.016  0.7106  0.6156 -0.2824
 1138SOL    HW114876   1.295   0.066  13.103  1.1878  0.2328 -0.2613
 1138SOL    HW214877   1.328   0.088  12.958  0.8163  1.0023  0.1792
 1139SOL     OW14878   4.340   1.663  17.239  0.4084  0.4734  0.1543
 1139SOL    HW114879   4.295   1.741  17.205  0.1605 -0.1388 -0.9191
 1139SOL    HW214880   4.301   1.593  17.187 -0.3764  0.0001  1.3836
 1140SOL     OW14881   2.413   1.496   2.644 -0.3192  0.3401  0.1785
 1140SOL    HW114882   2.415   1.549   2.565 -0.7827  0.6142  0.3501
 1140SOL    HW214883   2.368   1.553   2.707 -1.2868  0.7259 -0.8578
 1141SOL     OW14884   3.916   3.858   3.363 -0.5936 -0.0661 -0.3056
 1141SOL    HW114885   3.978   3.864   3.436  0.6112 -1.0410 -1.2251
 1141SOL    HW214886   3.846   3.808   3.405 -1.3330  0.4119 -0.9944
 1142SOL     OW14887   2.605   0.923   2.792 -0.4925 -0.1546  0.3364
 1142SOL    HW114888   2.664   0.969   2.852 -0.2434 -0.7651  0.5602
 1142SOL    HW214889   2.649   0.838   2.802  0.9433  0.4219 -1.0418
 1143SOL     OW14890   4.362   3.869   2.849  0.7863  0.1795  0.4610
 1143SOL    HW114891   4.284   3.892   2.901  1.7539 -0.3276  2.1405
 1143SOL    HW214892   4.389   3.957   2.821 -2.3250  1.3278  0.9882
 1144SOL     OW14893   3.983   3.325   1.801 -0.0949 -0.2586 -0.6959
 1144SOL    HW114894   3.923   3.397   1.783 -1.5031 -1.6611 -1.7537
 1144SOL    HW214895   3.999   3.289   1.714  0.1296  0.2305 -0.8540
 1145SOL     OW14896   4.304   4.359   8.100 -0.0426  0.2054 -0.4898
 1145SOL    HW114897   4.224   4.408   8.120  0.4474  0.9472 -0.3584
 1145SOL    HW214898   4.296   4.341   8.006  2.6868 -2.3394 -0.2474
 1146SOL     OW14899   1.329   2.831   3.378 -0.3084  0.7830  0.6375
 1146SOL    HW114900   1.402   2.886   3.407  0.4959 -0.9980  1.9929
 1146SOL    HW214901   1.326   2.759   3.440 -1.2484 -0.7566 -1.1801
 1147SOL     OW14902   0.830   2.843   7.729 -0.0384 -0.1133  0.2251
 1147SOL    HW114903   0.752   2.788   7.734 -0.4284  0.3512 -0.8286
 1147SOL    HW214904   0.799   2.919   7.680  3.8325  0.5967 -1.1786
 1148SOL     OW14905   1.137   0.943  16.691 -0.6225 -0.5570  0.3697
 1148SOL    HW114906   1.156   1.010  16.624 -0.9569 -0.6297  0.2008
 1148SOL    HW214907   1.093   0.877  16.638 -3.5226  1.4843  0.2215
 1149SOL     OW14908   1.662   0.706   9.999  0.0951  0.2835 -0.4054
 1149SOL    HW114909   1.678   0.768   9.928 -0.1802  0.7281 -0.0827
 1149SOL    HW214910   1.599   0.759  10.048  0.2959  0.2566 -0.1223
 1150SOL     OW14911   3.740   0.724   6.699 -0.1828 -0.1436 -0.2548
 1150SOL    HW114912   3.826   0.684   6.682 -0.4001 -0.0778 -1.5293
 1150SOL    HW214913   3.764   0.770   6.779 -1.4624  1.3743 -0.7415
 1151SOL     OW14914   1.637   3.632   0.805 -0.2682  0.1942 -0.1207
 1151SOL    HW114915   1.611   3.560   0.862  1.7391  1.7457  2.7843
 1151SOL    HW214916   1.629   3.702   0.870 -0.7374  0.1093 -0.0892
 1152SOL     OW14917   0.460   2.211  17.538 -0.3603  0.1878 -0.1700
 1152SOL    HW114918   0.522   2.276  17.570 -0.2353 -0.4089  0.7945
 1152SOL    HW214919   0.505   2.131  17.564 -1.0019  0.6410  2.4031
 1153SOL     OW14920   2.568   2.274  16.467 -0.1904  0.2761 -0.4966
 1153SOL    HW114921   2.485   2.319  16.482 -0.5588 -0.4118 -0.5006
 1153SOL    HW214922   2.536   2.192  16.431  0.9733  0.1123 -1.1649
 1154SOL     OW14923   3.641   3.896   3.511 -0.5948 -0.6141 -0.1002
 1154SOL    HW114924   3.574   3.964   3.504 -1.5062 -1.5217 -0.1915
 1154SOL    HW214925   3.672   3.909   3.600  0.5942  0.2422 -0.6523
 1155SOL     OW14926   3.339   4.365   5.897 -0.3640  0.3207  0.0728
 1155SOL    HW114927   3.257   4.322   5.874  1.6421 -1.9422 -2.9166
 1155SOL    HW214928   3.315   4.396   5.984  3.4054  1.4020  0.7275
 1156SOL     OW14929   4.454   1.340   9.405  0.2935  0.0572 -0.1776
 1156SOL    HW114930   4.517   1.386   9.350 -0.6527  2.2467  0.6082
 1156SOL    HW214931   4.501   1.360   9.486  0.6830 -1.3543 -0.0442
 1157SOL     OW14932   0.814   1.916   5.758 -0.1616  0.6550  0.0635
 1157SOL    HW114933   0.805   1.988   5.820  0.5155  1.7262 -1.0808
 1157SOL    HW214934   0.867   1.955   5.688  0.2224 -0.9863 -0.5630
 1158SOL     OW14935   4.127   3.668   5.939  0.2579 -0.1513  0.0667
 1158SOL    HW114936   4.091   3.598   5.885 -0.3963  0.2093  0.0300
 1158SOL    HW214937   4.058   3.733   5.928  1.1437  0.6865 -0.4926
 1159SOL     OW14938   3.991   4.068   7.268 -0.3336  0.1731 -0.2559
 1159SOL    HW114939   4.049   3.996   7.291 -0.6562  0.0203  0.0793
 1159SOL    HW214940   3.941   4.020   7.202  0.5374 -0.3110 -0.5531
 1160SOL     OW14941   1.264   2.719   2.947  0.3437  0.2001 -0.0490
 1160SOL    HW114942   1.271   2.649   2.882  1.8519 -0.5989  0.9721
 1160SOL    HW214943   1.351   2.759   2.943 -0.4059  1.8909  0.6740
 1161SOL     OW14944   0.719   0.120   4.645 -0.4873  0.4921 -0.0434
 1161SOL    HW114945   0.802   0.157   4.675 -0.8287 -0.6322  2.2591
 1161SOL    HW214946   0.685   0.183   4.582 -1.0934  0.4132  0.2144
 1162SOL     OW14947   3.255   0.583   0.430 -0.1765 -0.4129 -1.0220
 1162SOL    HW114948   3.331   0.565   0.487 -1.9969  0.6184  1.7333
 1162SOL    HW214949   3.250   0.496   0.391  0.5815 -1.2674  0.7598
 1163SOL     OW14950   3.753   4.360   3.816 -0.2129  0.0331  0.0544
 1163SOL    HW114951   3.817   4.380   3.885  0.6926 -0.2410 -0.7090
 1163SOL    HW214952   3.808   4.321   3.749  0.2294  1.3625 -0.3484
 1164SOL     OW14953   0.761   3.479  17.194 -0.2391  0.3868  0.3020
 1164SOL    HW114954   0.749   3.552  17.133 -0.8511  1.3084  1.5290
 1164SOL    HW214955   0.677   3.472  17.240  0.4964 -1.1258  1.4067
 1165SOL     OW14956   4.345   4.711   3.023  0.2632 -0.3312  0.7519
 1165SOL    HW114957   4.421   0.044   3.039  0.7554 -1.1630  1.3209
 1165SOL    HW214958   4.316   4.709   3.114  0.8596 -2.8333  0.8826
 1166SOL     OW14959   3.530   4.072   5.540  0.1892 -0.3683  0.1978
 1166SOL    HW114960   3.570   4.056   5.625 -2.8583  2.8414  2.1830
 1166SOL    HW214961   3.446   4.027   5.537 -1.6631  3.2610 -2.6785
 1167SOL     OW14962   1.740   3.517   5.616 -0.0530 -0.0008 -0.4491
 1167SOL    HW114963   1.682   3.590   5.594 -0.8021 -0.4715 -0.0236
 1167SOL    HW214964   1.817   3.547   5.568 -0.6575  2.2521 -0.0159
 1168SOL     OW14965   4.159   4.286   9.032 -0.2078 -0.3190 -0.2108
 1168SOL    HW114966   4.186   4.377   9.040  0.0966 -0.4955  0.8146
 1168SOL    HW214967   4.181   4.240   9.113  0.7754  0.8423  0.1660
 1169SOL     OW14968   3.728   1.323   8.522  0.2217  0.2180 -0.1669
 1169SOL    HW114969   3.777   1.367   8.452 -1.1563  0.9261 -0.6784
 1169SOL    HW214970   3.766   1.235   8.523  0.2145  0.1869 -2.4195
 1170SOL     OW14971   2.551   3.511   7.835  0.0346 -0.0924 -0.1364
 1170SOL    HW114972   2.596   3.595   7.845 -3.3030  1.7827 -1.0115
 1170SOL    HW214973   2.619   3.461   7.880  1.2626  0.5392 -1.2825
 1171SOL     OW14974   3.205   3.243  16.501  0.0121 -0.4166  0.1976
 1171SOL    HW114975   3.113   3.261  16.523 -0.6386 -0.8669 -2.1264
 1171SOL    HW214976   3.212   3.222  16.407 -1.6566 -1.2975  0.2582
 1172SOL     OW14977   2.235   0.954  11.314 -0.1644  0.1777  0.1481
 1172SOL    HW114978   2.299   1.019  11.345  0.0857  0.5761 -1.1693
 1172SOL    HW214979   2.247   0.893  11.387 -0.9795 -0.2934 -0.1097
 1173SOL     OW14980   0.374   1.025   6.945 -0.9298  0.2757  0.4390
 1173SOL    HW114981   0.302   0.993   6.999  0.4921 -1.5022  1.2783
 1173SOL    HW214982   0.398   1.109   6.985 -0.0893  0.0292  0.4394
 1174SOL     OW14983   4.612   0.444   3.177  0.0563  0.2992 -0.7805
 1174SOL    HW114984   4.601   0.371   3.237 -3.8783  1.8517  0.3754
 1174SOL    HW214985   4.706   0.437   3.160  0.6535  2.2087  1.7560
 1175SOL     OW14986   0.178   2.745   7.361  0.0076  0.2456  0.1097
 1175SOL    HW114987   0.208   2.698   7.439 -1.6907 -0.7538  0.1635
 1175SOL    HW214988   0.245   2.737   7.294  0.8282 -0.9624  1.0613
 1176SOL     OW14989   3.034   0.061   1.687 -0.1032 -0.0294 -0.4930
 1176SOL    HW114990   3.099   4.717   1.666  0.9364  2.0646 -3.9320
 1176SOL    HW214991   3.087   0.141   1.689  1.8489 -1.3705  0.6274
 1177SOL     OW14992   2.014   2.487  10.998 -0.2993 -0.2277 -0.5009
 1177SOL    HW114993   2.064   2.568  10.994  0.0108 -0.3222  1.7472
 1177SOL    HW214994   2.065   2.434  10.936  0.4752  0.3635 -0.3610
 1178SOL     OW14995   1.654   2.241  13.478 -0.2667 -0.1928 -0.6593
 1178SOL    HW114996   1.581   2.180  13.490 -2.4033  2.8445  1.8519
 1178SOL    HW214997   1.641   2.263  13.386 -0.4506 -0.6331 -0.7418
 1179SOL     OW14998   0.379   2.180  12.009 -0.3944  0.0878 -0.5593
 1179SOL    HW114999   0.349   2.125  11.936 -0.8975  0.9585 -0.9974
 1179SOL    HW215000   0.358   2.128  12.087 -0.6242  0.4605 -0.3773
 1180SOL     OW15001   2.766   2.117   3.804  0.1447 -0.0211  0.0734
 1180SOL    HW115002   2.693   2.072   3.846 -0.8403  1.7434  0.2296
 1180SOL    HW215003   2.810   2.039   3.769 -1.6404 -0.3342 -1.4245
 1181SOL     OW15004   2.953   2.987   9.448 -0.0165  0.5071 -0.9457
 1181SOL    HW115005   2.944   2.981   9.543 -0.7441  1.3995 -0.9636
 1181SOL    HW215006   2.993   3.074   9.450  1.3757 -0.1573  0.2080
 1182SOL     OW15007   1.918   4.037  12.728  0.0594 -0.1025 -0.3255
 1182SOL    HW115008   1.997   3.999  12.765 -0.0083  0.7073  0.6522
 1182SOL    HW215009   1.863   3.959  12.721  1.0459 -0.8679  0.5402
 1183SOL     OW15010   4.577   1.750   6.042  0.5645 -0.7266  0.0619
 1183SOL    HW115011   4.548   1.663   6.068  1.6713 -1.4932 -1.2802
 1183SOL    HW215012   4.555   1.745   5.949 -0.9830 -3.4296  0.5855
 1184SOL     OW15013   1.356   1.053   3.191  0.2167 -0.1492 -0.0353
 1184SOL    HW115014   1.374   1.124   3.253 -0.3198 -3.3976  3.9176
 1184SOL    HW215015   1.323   0.992   3.258 -1.0221 -0.3001 -0.7879
 1185SOL     OW15016   4.378   4.470  17.681  0.5249  0.5649 -0.3615
 1185SOL    HW115017   4.410   4.508  17.600 -1.7122  0.1826 -1.4199
 1185SOL    HW215018   4.290   4.440  17.659  0.6202  0.2462 -0.3081
 1186SOL     OW15019   3.666   2.265   5.381  0.0243  0.2244  0.0062
 1186SOL    HW115020   3.625   2.310   5.308 -0.5280 -0.9702 -0.4315
 1186SOL    HW215021   3.592   2.214   5.415 -0.8299  1.3347 -0.2147
 1187SOL     OW15022   3.202   1.264   3.327 -0.5050  0.2767 -0.2985
 1187SOL    HW115023   3.229   1.181   3.368  1.7320  0.5221 -1.3037
 1187SOL    HW215024   3.116   1.278   3.366 -0.4607  0.1607 -0.1598
 1188SOL     OW15025   4.052   3.600  11.767  0.1247 -0.0796  0.4453
 1188SOL    HW115026   4.030   3.652  11.690 -1.4662 -0.4087  0.6842
 1188SOL    HW215027   4.074   3.513  11.733  0.3616  0.0596  0.2408
 1189SOL     OW15028   1.254   3.399   7.666 -0.1126  0.4541  0.2802
 1189SOL    HW115029   1.191   3.329   7.683 -1.2264  1.0145 -1.5105
 1189SOL    HW215030   1.248   3.404   7.570 -0.2796  0.8701  0.3145
 1190SOL     OW15031   3.411   3.346   9.477 -0.2076  0.3596  0.2418
 1190SOL    HW115032   3.474   3.279   9.451 -1.2048 -1.1903  1.7354
 1190SOL    HW215033   3.371   3.361   9.391 -0.6925 -2.0817  0.0325
 1191SOL     OW15034   0.731   3.026   1.138 -0.1074 -0.2036 -0.5537
 1191SOL    HW115035   0.787   2.950   1.154  0.1602  0.6258  2.3002
 1191SOL    HW215036   0.722   3.053   1.229  0.5102 -2.7450  0.2471
 1192SOL     OW15037   2.441   2.866  17.256  0.4694 -0.2238 -0.1994
 1192SOL    HW115038   2.442   2.803  17.184 -0.5625 -0.3747 -0.0853
 1192SOL    HW215039   2.463   2.807  17.329 -1.0966  2.0356  2.1199
 1193SOL     OW15040   3.490   1.438   6.770  0.5089  0.5431  0.1629
 1193SOL    HW115041   3.414   1.390   6.802  1.9767 -2.3533 -0.6493
 1193SOL    HW215042   3.545   1.364   6.744 -0.4698 -0.6629  1.5696
 1194SOL     OW15043   1.121   2.441  15.441 -0.0680 -0.4837 -0.0777
 1194SOL    HW115044   1.075   2.517  15.477 -0.0224  0.0992 -1.2648
 1194SOL    HW215045   1.064   2.410  15.370  0.3480 -0.5088 -0.3992
 1195SOL     OW15046   4.055   3.319   3.054 -0.4957  0.0717 -0.8076
 1195SOL    HW115047   3.966   3.291   3.031 -0.6976  1.0031 -1.1841
 1195SOL    HW215048   4.082   3.247   3.111 -0.4521  0.8144  0.1059
 1196SOL     OW15049   0.314   3.907   7.423 -0.5753  0.2533  0.6222
 1196SOL    HW115050   0.272   3.906   7.337  2.0297 -1.5731 -0.6382
 1196SOL    HW215051   0.289   3.990   7.463  0.2662  1.3734 -1.1787
 1197SOL     OW15052   1.651   3.214   0.857  0.2036 -0.1242 -0.3550
 1197SOL    HW115053   1.717   3.250   0.798  1.8764  1.7024  2.6507
 1197SOL    HW215054   1.631   3.293   0.906  0.9755  0.4717 -1.0125
 1198SOL     OW15055   2.626   0.207   4.277  0.3377  0.4977 -0.4340
 1198SOL    HW115056   2.633   0.148   4.202  1.6046  0.8300 -0.5870
 1198SOL    HW215057   2.683   0.167   4.342  0.6109 -0.7658 -1.4410
 1199SOL     OW15058   3.961   0.048   9.025 -0.0963  0.4462  0.3255
 1199SOL    HW115059   3.912   0.120   9.065  1.2899  0.4964  1.8770
 1199SOL    HW215060   3.965   4.701   9.090  0.0607  0.9310  0.8341
 1200SOL     OW15061   3.427   0.183  14.067 -0.3822  0.1712  0.0035
 1200SOL    HW115062   3.477   0.172  13.986  0.4100 -0.9244  0.6423
 1200SOL    HW215063   3.336   0.181  14.039 -0.2775  1.6863 -0.4466
 1201SOL     OW15064   3.458   3.961   3.271  0.1865  0.0662  0.1679
 1201SOL    HW115065   3.528   3.896   3.281 -2.0632 -2.2990  0.4032
 1201SOL    HW215066   3.435   3.947   3.179  0.0821  0.1615  0.1792
 1202SOL     OW15067   3.908   2.282   3.858 -0.3457  0.2801 -0.6186
 1202SOL    HW115068   3.874   2.347   3.919 -0.0137 -0.7269  0.6396
 1202SOL    HW215069   3.849   2.208   3.873 -1.0299  0.9775  0.1620
 1203SOL     OW15070   3.503   3.142   7.749 -1.2350  0.8741 -0.4119
 1203SOL    HW115071   3.532   3.233   7.751  0.7776  0.1958  2.1649
 1203SOL    HW215072   3.550   3.099   7.821  1.1443  1.1508 -1.7976
 1204SOL     OW15073   2.927   0.730   4.284  0.6922  0.0257 -0.0863
 1204SOL    HW115074   2.912   0.801   4.347  0.1935  0.5324 -0.7874
 1204SOL    HW215075   3.016   0.699   4.302  0.3573 -1.0163 -0.2021
 1205SOL     OW15076   1.548   2.599   4.112  0.5593 -0.0260 -0.8416
 1205SOL    HW115077   1.562   2.581   4.205  1.0963  1.6469 -0.6042
 1205SOL    HW215078   1.637   2.613   4.079  0.5824  0.7377 -0.4508
 1206SOL     OW15079   4.042   0.009   5.712  0.4740  0.4236 -0.3690
 1206SOL    HW115080   3.994   4.655   5.681  0.6141  0.1083  0.1884
 1206SOL    HW215081   4.011   0.022   5.802 -1.6627  2.2722 -1.3826
 1207SOL     OW15082   3.764   2.275   9.442  0.2671 -0.2373  0.3660
 1207SOL    HW115083   3.805   2.306   9.522  0.8770 -3.1572  1.2024
 1207SOL    HW215084   3.839   2.294   9.386 -1.2384  2.6788 -0.6130
 1208SOL     OW15085   2.449   0.938   8.213  0.3209 -0.0926 -0.4861
 1208SOL    HW115086   2.446   1.010   8.150  2.7154 -0.7098 -1.2985
 1208SOL    HW215087   2.541   0.912   8.218 -0.2170 -1.6086  1.2883
 1209SOL     OW15088   0.300   0.430   2.923 -0.0617 -0.0366  0.0301
 1209SOL    HW115089   0.231   0.387   2.872 -0.4644 -0.9966  1.3740
 1209SOL    HW215090   0.376   0.417   2.866  0.7911 -2.3073  1.6991
 1210SOL     OW15091   4.415   3.570   7.313  0.6817  0.6605 -0.1927
 1210SOL    HW115092   4.436   3.651   7.360  0.5170  0.6059 -0.0259
 1210SOL    HW215093   4.422   3.606   7.225 -0.8957  3.0265  0.6271
 1211SOL     OW15094   3.037   2.145   2.676 -0.4406 -0.6177 -0.1850
 1211SOL    HW115095   3.090   2.142   2.596 -1.1553  0.5402 -0.7018
 1211SOL    HW215096   3.100   2.116   2.742  1.7756  2.0067 -1.1567
 1212SOL     OW15097   0.751   3.656   8.339 -0.0012  0.0252  0.3291
 1212SOL    HW115098   0.679   3.661   8.276 -0.3300 -0.2016  0.6845
 1212SOL    HW215099   0.825   3.680   8.283  0.7278  1.2963  1.8331
 1213SOL     OW15100   3.589   1.823   7.547 -0.0602  0.0517 -0.0492
 1213SOL    HW115101   3.621   1.802   7.634  1.7471 -0.9872 -0.9817
 1213SOL    HW215102   3.611   1.916   7.538 -0.0975  0.0375 -0.3058
 1214SOL     OW15103   3.440   0.802  12.127 -0.0375 -0.3513 -0.3065
 1214SOL    HW115104   3.354   0.766  12.104  0.6731 -1.8105 -0.6743
 1214SOL    HW215105   3.491   0.729  12.092 -0.1882 -0.0964 -1.0644
 1215SOL     OW15106   1.416   2.675   9.649  0.3015 -0.1402  0.2672
 1215SOL    HW115107   1.501   2.639   9.674  0.7380  0.8825  0.2720
 1215SOL    HW215108   1.448   2.753   9.603  1.0542 -1.6359 -1.7941
 1216SOL     OW15109   0.183   1.469   8.724  0.4282 -0.0403  0.0995
 1216SOL    HW115110   0.166   1.507   8.809  0.3674  0.4179 -0.1189
 1216SOL    HW215111   0.277   1.451   8.732  0.1313 -1.4595  0.3719
 1217SOL     OW15112   3.690   3.242  17.000 -0.7767 -0.3856  0.4940
 1217SOL    HW115113   3.662   3.222  16.910  0.9673 -0.2075 -0.0759
 1217SOL    HW215114   3.611   3.274  17.045 -1.8108 -1.6903 -0.3817
 1218SOL     OW15115   3.306   2.038   3.242 -0.4246  0.1833  0.0030
 1218SOL    HW115116   3.358   1.984   3.183  0.8899  1.5352 -0.0791
 1218SOL    HW215117   3.243   1.980   3.286 -0.5075  0.5477  0.3639
 1219SOL     OW15118   3.095   3.135   6.642 -0.0153  0.5861 -0.1284
 1219SOL    HW115119   3.077   3.049   6.605 -0.6455 -0.2191  2.0321
 1219SOL    HW215120   3.053   3.198   6.584 -1.4044 -0.0198  0.2381
 1220SOL     OW15121   4.119   2.300  10.864  0.2411 -0.0939  0.0552
 1220SOL    HW115122   4.084   2.224  10.817 -0.0943 -0.3304  0.6725
 1220SOL    HW215123   4.045   2.338  10.912 -0.3928  0.2661 -1.2217
 1221SOL     OW15124   0.979   3.631   9.085 -0.1248  0.1564  0.0537
 1221SOL    HW115125   0.977   3.537   9.067 -1.7056 -0.0722  1.3878
 1221SOL    HW215126   0.896   3.646   9.129 -1.2324 -2.6307 -1.1357
 1222SOL     OW15127   3.940   1.667   9.113 -0.0843 -0.6378 -0.5365
 1222SOL    HW115128   3.943   1.737   9.179 -1.1784 -0.8245 -0.2947
 1222SOL    HW215129   3.890   1.705   9.041  1.0649 -1.0138 -1.5294
 1223SOL     OW15130   4.677   2.178  12.752 -0.1555  0.8613 -0.3802
 1223SOL    HW115131   4.606   2.144  12.805  1.2440  0.4962  1.2600
 1223SOL    HW215132   4.705   2.257  12.798 -1.1492  0.9422  0.0902
 1224SOL     OW15133   2.497   2.109  16.024 -0.0390 -0.6876  0.8773
 1224SOL    HW115134   2.590   2.134  16.032 -0.1370  0.1032 -0.2957
 1224SOL    HW215135   2.469   2.156  15.946 -2.2136 -1.2096  1.3589
 1225SOL     OW15136   4.131   0.044  12.691  0.5124  0.0026  0.1337
 1225SOL    HW115137   4.065   4.723  12.638 -1.0082  0.8789  1.2829
 1225SOL    HW215138   4.100   0.009  12.775  2.7207  0.3066  1.0586
 1226SOL     OW15139   4.103   1.900   6.426 -0.3078  0.1673 -0.3903
 1226SOL    HW115140   4.085   1.906   6.332 -2.3443  1.7755  0.1205
 1226SOL    HW215141   4.191   1.932   6.445 -0.7769  1.3870 -0.3057
 1227SOL     OW15142   2.623   4.284   3.463  0.5697 -0.2869  0.2105
 1227SOL    HW115143   2.685   4.329   3.521  0.2904 -0.7082  0.8300
 1227SOL    HW215144   2.686   4.285   3.390  1.7933  0.1086  1.2808
 1228SOL     OW15145   3.294   3.624  14.986  0.0466 -0.4819  0.5271
 1228SOL    HW115146   3.218   3.671  15.020 -1.4858 -3.1075  0.7157
 1228SOL    HW215147   3.256   3.539  14.966  0.6749 -0.4056 -0.9864
 1229SOL     OW15148   0.627   1.540   6.935  0.3203  0.0477  0.3573
 1229SOL    HW115149   0.592   1.628   6.950  1.3143  0.3892  0.6757
 1229SOL    HW215150   0.592   1.524   6.848 -0.2542 -3.6173  1.2772
 1230SOL     OW15151   1.987   3.268   4.625 -0.3398  0.2447  0.5857
 1230SOL    HW115152   1.962   3.177   4.612  2.8850 -0.1262 -3.1458
 1230SOL    HW215153   1.923   3.311   4.569  1.0469  0.2207 -1.0189
 1231SOL     OW15154   2.221   0.063  11.891 -0.3887  0.3916  0.1354
 1231SOL    HW115155   2.157   0.009  11.845 -0.0087  0.6394 -0.6739
 1231SOL    HW215156   2.232   0.137  11.833  0.6861  0.5509  0.5400
 1232SOL     OW15157   3.321   0.664   7.808  0.0459 -0.1964  0.8080
 1232SOL    HW115158   3.360   0.751   7.806 -2.0442  0.7520  1.7811
 1232SOL    HW215159   3.353   0.632   7.892 -0.3194 -1.8286  0.3335
 1233SOL     OW15160   2.154   1.978   3.057 -0.3650 -0.0849  0.0693
 1233SOL    HW115161   2.215   1.930   3.112  0.7572  0.0296 -1.0649
 1233SOL    HW215162   2.154   1.915   2.985  0.6484  1.7816 -1.5438
 1234SOL     OW15163   3.846   1.550   3.480  0.1844 -0.3941 -0.0208
 1234SOL    HW115164   3.856   1.492   3.405 -0.1571 -2.0440  1.2081
 1234SOL    HW215165   3.915   1.520   3.538 -1.3054  2.4286  3.2392
 1235SOL     OW15166   0.408   3.297   4.565 -0.7183  0.4866 -0.0137
 1235SOL    HW115167   0.449   3.314   4.480  0.5262  0.1344  0.5047
 1235SOL    HW215168   0.442   3.375   4.610  0.8751  1.2943 -2.6151
 1236SOL     OW15169   2.083   3.370   2.615  0.5817 -0.0819 -0.0938
 1236SOL    HW115170   2.027   3.387   2.539 -1.0440 -0.4779  1.0435
 1236SOL    HW215171   2.015   3.395   2.677 -0.0588 -2.9089  0.3433
 1237SOL     OW15172   2.745   0.138   0.867 -0.4086  0.0946  0.3864
 1237SOL    HW115173   2.808   0.068   0.885 -0.3920 -0.1434 -0.6191
 1237SOL    HW215174   2.674   0.076   0.886 -0.0850  0.1638  1.8001
 1238SOL     OW15175   0.860   0.608   5.966  0.2148  0.9545 -0.1046
 1238SOL    HW115176   0.929   0.546   5.988  0.2862  1.7810  1.9790
 1238SOL    HW215177   0.851   0.657   6.048  1.9797 -2.2252  1.9881
 1239SOL     OW15178   0.019   2.172   2.770  0.2718  0.5185  0.1475
 1239SOL    HW115179   0.007   2.240   2.837  2.0908  0.6980  0.2882
 1239SOL    HW215180   4.661   2.121   2.766 -0.0190  1.0739 -0.9601
 1240SOL     OW15181   4.460   1.445   7.056  0.1110  0.0491  0.1687
 1240SOL    HW115182   4.467   1.515   6.990 -0.3271 -0.3589 -0.3107
 1240SOL    HW215183   4.552   1.421   7.053 -0.3060 -1.6859  1.2697
 1241SOL     OW15184   4.206   0.588  13.804  0.0093  0.0812 -0.3597
 1241SOL    HW115185   4.133   0.527  13.807  1.1892 -1.3299 -0.4780
 1241SOL    HW215186   4.214   0.615  13.896 -0.2284  1.0922 -0.6292
 1242SOL     OW15187   4.461   3.045  16.067 -0.2022 -0.0344 -0.3234
 1242SOL    HW115188   4.480   3.119  16.124  0.9868 -1.3492  1.0029
 1242SOL    HW215189   4.552   3.017  16.063 -0.4465 -0.6638 -1.4526
 1243SOL     OW15190   2.723   2.214  14.175  0.6281  0.8078  0.0452
 1243SOL    HW115191   2.646   2.222  14.231  0.2622  2.3693 -0.6812
 1243SOL    HW215192   2.707   2.126  14.142 -1.8750  0.2873  2.6926
 1244SOL     OW15193   2.506   2.118   2.140 -0.5934  0.5128  0.4033
 1244SOL    HW115194   2.448   2.066   2.196  0.6628 -1.3409 -0.0251
 1244SOL    HW215195   2.447   2.189   2.114 -2.3434 -0.1770  2.4639
 1245SOL     OW15196   2.127   3.437  15.187  0.0585 -0.3137  0.4887
 1245SOL    HW115197   2.053   3.484  15.225 -0.6400 -1.2351  0.2640
 1245SOL    HW215198   2.173   3.510  15.145  0.1198 -0.4282  0.3555
 1246SOL     OW15199   3.758   2.289   0.533  0.2183 -0.3755 -0.0626
 1246SOL    HW115200   3.697   2.217   0.547 -1.8655  1.3663 -0.2826
 1246SOL    HW215201   3.757   2.296   0.437 -2.0688  2.7003  0.1954
 1247SOL     OW15202   2.465   3.882   9.282  0.4292 -0.5239  0.1818
 1247SOL    HW115203   2.400   3.813   9.272 -0.1632  0.3192 -1.7160
 1247SOL    HW215204   2.540   3.834   9.248 -0.1888 -0.0597 -1.8485
 1248SOL     OW15205   2.680   4.387  13.774  0.0005  0.6900 -0.3913
 1248SOL    HW115206   2.748   4.349  13.829 -0.0677  2.2547  0.7667
 1248SOL    HW215207   2.643   4.455  13.830 -1.6045 -1.3392  0.9636
 1249SOL     OW15208   3.639   4.574   8.196 -0.3174 -0.7225  0.6569
 1249SOL    HW115209   3.716   4.528   8.164  1.2178  2.1762  0.1752
 1249SOL    HW215210   3.687   4.632   8.255 -0.9844 -0.8077  1.2874
 1250SOL     OW15211   4.025   0.036   9.719 -0.6385 -0.0571 -0.0216
 1250SOL    HW115212   3.992   4.676   9.682 -0.3338 -0.0674 -0.2657
 1250SOL    HW215213   4.025   0.015   9.813 -0.0402  0.0181 -0.0082
 1251SOL     OW15214   0.869   3.173   3.294  0.2081 -0.1636 -0.0360
 1251SOL    HW115215   0.884   3.196   3.385 -0.1510 -0.3995  0.0841
 1251SOL    HW215216   0.956   3.151   3.261  1.6451  3.2625  1.4957
 1252SOL     OW15217   0.615   1.973   6.732  0.0542 -0.2178 -0.1418
 1252SOL    HW115218   0.565   1.903   6.689 -0.9009 -0.5279  1.4855
 1252SOL    HW215219   0.660   1.938   6.809  1.1354  0.3237 -0.5260
 1253SOL     OW15220   2.539   1.845  15.993  0.2064  0.0819  0.1442
 1253SOL    HW115221   2.602   1.836  15.921  0.9952 -2.5629  1.1660
 1253SOL    HW215222   2.541   1.940  16.000 -1.6117  0.0426  1.2239
 1254SOL     OW15223   1.244   1.084  14.073 -0.4751 -0.1167 -0.1025
 1254SOL    HW115224   1.255   1.056  14.164  1.3178 -3.8640 -1.5029
 1254SOL    HW215225   1.207   1.172  14.086  1.9426  0.9114 -0.1545
 1255SOL     OW15226   2.706   3.714  16.030  0.5799  0.0653 -0.3038
 1255SOL    HW115227   2.734   3.785  15.972  0.1259  1.2365  0.8903
 1255SOL    HW215228   2.679   3.655  15.960 -2.3042  1.0769 -0.0245
 1256SOL     OW15229   1.892   0.809   3.340  0.2577 -0.1813  0.8010
 1256SOL    HW115230   1.898   0.875   3.271 -3.0602 -1.6523 -0.8673
 1256SOL    HW215231   1.869   0.733   3.288 -2.9956  0.7659  0.8211
 1257SOL     OW15232   1.237   0.453   4.776  0.6392 -0.0318  0.2825
 1257SOL    HW115233   1.265   0.472   4.865  0.3473  1.1905  0.1096
 1257SOL    HW215234   1.322   0.462   4.735  1.2563 -2.0020  1.1291
 1258SOL     OW15235   0.723   3.831   8.525  0.3186 -0.2017  0.1041
 1258SOL    HW115236   0.787   3.901   8.516 -1.1502  1.1004 -0.2117
 1258SOL    HW215237   0.747   3.766   8.458  1.3650 -0.1393  0.4148
 1259SOL     OW15238   1.042   3.493   6.377  0.4540 -0.6579 -0.1904
 1259SOL    HW115239   1.098   3.552   6.428 -0.8741  1.1835 -0.8618
 1259SOL    HW215240   1.082   3.409   6.402 -0.7051 -0.5424  2.0419
 1260SOL     OW15241   0.939   0.813   3.582  0.0012  0.3080  0.1258
 1260SOL    HW115242   0.911   0.904   3.583  2.2570  0.9745  0.9615
 1260SOL    HW215243   0.948   0.813   3.486 -0.7667  0.1027  0.0484
 1261SOL     OW15244   3.270   3.539   6.238  0.8339 -0.1886  0.0215
 1261SOL    HW115245   3.314   3.485   6.303  1.7771  0.4733 -0.0676
 1261SOL    HW215246   3.348   3.577   6.196  2.7745 -4.1897 -0.0298
 1262SOL     OW15247   4.194   3.316   4.633  0.1485  0.2813 -0.0812
 1262SOL    HW115248   4.190   3.230   4.675 -2.4487  0.1752 -0.5635
 1262SOL    HW215249   4.205   3.299   4.539 -1.7474 -1.2823 -0.0250
 1263SOL     OW15250   3.758   3.808   4.224 -0.0452  0.0476 -0.0754
 1263SOL    HW115251   3.792   3.889   4.261  0.4621 -0.9841  1.6738
 1263SOL    HW215252   3.794   3.734   4.273  0.6809 -0.9518 -2.1230
 1264SOL     OW15253   3.466   0.828  16.599 -0.5358  0.0187 -0.4082
 1264SOL    HW115254   3.484   0.753  16.543 -1.4806  1.5074 -2.6982
 1264SOL    HW215255   3.384   0.810  16.644 -0.4309  0.3386 -0.0790
 1265SOL     OW15256   4.129   0.122   4.710  0.3298 -0.3175  0.0407
 1265SOL    HW115257   4.065   0.089   4.647 -0.1001  0.0050  0.3132
 1265SOL    HW215258   4.199   0.056   4.711  0.1060 -0.5511  0.1492
 1266SOL     OW15259   4.096   4.422   6.699  0.1294  0.4685  0.1488
 1266SOL    HW115260   4.172   4.453   6.748 -0.3897 -0.8432  1.8105
 1266SOL    HW215261   4.037   4.398   6.771  0.2092 -0.4383 -0.0853
 1267SOL     OW15262   2.467   0.452  14.948  0.0966  0.3030 -0.2709
 1267SOL    HW115263   2.538   0.389  14.964 -0.8557 -0.8682 -0.6554
 1267SOL    HW215264   2.431   0.417  14.866 -1.1981  0.6876  0.1270
 1268SOL     OW15265   0.157   2.967  10.702 -0.5314 -0.0555  0.3296
 1268SOL    HW115266   0.129   2.892  10.650  0.5502 -0.6185  0.5525
 1268SOL    HW215267   0.183   3.023  10.629 -1.2799  0.2163  0.2654
 1269SOL     OW15268   1.351   3.409  15.355 -0.5641 -0.0844 -0.7034
 1269SOL    HW115269   1.393   3.339  15.305 -0.6912 -1.0314  0.5004
 1269SOL    HW215270   1.291   3.445  15.290 -1.3729  0.5712  0.3988
 1270SOL     OW15271   3.232   0.045   7.299 -0.0586 -0.1454  0.0763
 1270SOL    HW115272   3.240   0.081   7.388 -2.0079  0.0494  0.1712
 1270SOL    HW215273   3.164   0.106   7.269 -0.3512 -1.3316 -1.6517
 1271SOL     OW15274   3.197   3.579   3.585  0.4589  0.2569  0.3945
 1271SOL    HW115275   3.271   3.540   3.631 -0.6595 -0.5766  1.4728
 1271SOL    HW215276   3.135   3.591   3.657  1.2545  0.3083  1.0581
 1272SOL     OW15277   3.409   2.600  12.300 -0.1778 -0.1042 -0.0680
 1272SOL    HW115278   3.471   2.672  12.293  0.1465 -0.5083 -1.4451
 1272SOL    HW215279   3.448   2.556  12.376 -1.8806 -2.2556 -0.4560
 1273SOL     OW15280   3.200   1.802  15.108  0.7190 -0.4507 -0.2693
 1273SOL    HW115281   3.193   1.885  15.155 -0.6308 -0.0273 -1.2193
 1273SOL    HW215282   3.148   1.738  15.156 -1.7732  2.1407  0.4586
 1274SOL     OW15283   4.439   0.017   0.363  0.1097 -0.7239  0.0280
 1274SOL    HW115284   4.481   0.101   0.345  2.7307 -1.6639  1.7407
 1274SOL    HW215285   4.366   0.009   0.302  0.5510  2.6492 -0.9756
 1275SOL     OW15286   3.955   3.634   7.174 -0.3918  0.6416  0.2410
 1275SOL    HW115287   3.967   3.605   7.265 -2.2493 -0.1091  0.2606
 1275SOL    HW215288   3.863   3.607   7.166  0.3219 -2.1132  1.3205
 1276SOL     OW15289   1.556   0.393   7.964 -0.1337 -0.2593  0.6013
 1276SOL    HW115290   1.584   0.404   8.055 -0.1982 -2.1514  0.8649
 1276SOL    HW215291   1.521   0.479   7.942 -0.5729 -0.0254  2.2449
 1277SOL     OW15292   1.621   0.070   6.488  0.0206  0.1510 -0.3578
 1277SOL    HW115293   1.526   0.060   6.486  0.0922 -0.5467 -0.0917
 1277SOL    HW215294   1.655   0.005   6.549  0.3396 -1.3227 -2.0925
 1278SOL     OW15295   2.946   2.336   5.460  0.4391  0.1127 -0.0116
 1278SOL    HW115296   3.040   2.358   5.462  0.2707  0.8012  0.5459
 1278SOL    HW215297   2.947   2.241   5.465 -1.4085  0.2748  3.0472
 1279SOL     OW15298   1.305   2.927   1.776 -0.3439  0.1864  0.3232
 1279SOL    HW115299   1.249   2.944   1.701  0.3908 -2.6290 -0.8847
 1279SOL    HW215300   1.367   2.868   1.734 -0.1329  0.7265 -0.1263
 1280SOL     OW15301   2.949   4.044   8.580 -0.5646 -0.0348  0.0348
 1280SOL    HW115302   2.874   4.007   8.534 -0.5033 -0.5877  0.3700
 1280SOL    HW215303   2.916   4.133   8.588  3.0641  1.3893 -0.4692
 1281SOL     OW15304   3.468   0.770   1.580  0.1796  0.2383  0.2422
 1281SOL    HW115305   3.548   0.759   1.529  1.0101 -1.2362  1.8938
 1281SOL    HW215306   3.500   0.754   1.668  0.7773  0.7758  0.1250
 1282SOL     OW15307   3.730   4.184   4.520 -0.1520  0.4525 -0.4944
 1282SOL    HW115308   3.792   4.254   4.541 -1.2609  1.4001 -0.3346
 1282SOL    HW215309   3.646   4.205   4.561 -0.3134 -0.5241 -0.3302
 1283SOL     OW15310   4.402   0.238   3.867  0.1494  0.2599  0.3403
 1283SOL    HW115311   4.355   0.159   3.839  1.5921  0.3436 -2.3172
 1283SOL    HW215312   4.364   0.261   3.952 -0.5023 -0.6669  0.3062
 1284SOL     OW15313   1.699   4.137   1.726  0.3908  0.1595 -0.0611
 1284SOL    HW115314   1.715   4.174   1.812  2.9931 -0.5285 -0.2597
 1284SOL    HW215315   1.648   4.061   1.753  1.6143 -1.2482 -1.6737
 1285SOL     OW15316   1.690   4.200   3.819  0.0266  0.5669  0.3271
 1285SOL    HW115317   1.756   4.203   3.888  2.1956  0.2314 -1.7209
 1285SOL    HW215318   1.722   4.259   3.751 -2.2329  0.8192 -0.5414
 1286SOL     OW15319   3.867   3.152  14.779  0.5544 -0.1660  0.5055
 1286SOL    HW115320   3.799   3.139  14.712  1.2840  0.3148 -0.3246
 1286SOL    HW215321   3.856   3.076  14.837 -3.1172 -0.9586 -1.1713
 1287SOL     OW15322   4.010   1.629   4.392  0.5822 -0.4191 -0.0151
 1287SOL    HW115323   4.048   1.634   4.304 -0.5968  3.8240 -0.2976
 1287SOL    HW215324   3.929   1.579   4.383 -0.6923  1.5068  0.6445
 1288SOL     OW15325   1.266   1.910   3.559  0.1598  0.0501 -0.1734
 1288SOL    HW115326   1.231   1.967   3.626  2.2635  2.0296 -0.7727
 1288SOL    HW215327   1.295   1.835   3.611 -1.0905  0.3023  0.8911
 1289SOL     OW15328   4.294   2.420   6.727  0.5640 -0.4814 -0.3935
 1289SOL    HW115329   4.299   2.342   6.782  0.6992  0.4635  0.9050
 1289SOL    HW215330   4.336   2.487   6.780 -1.4756 -0.1006  0.7151
 1290SOL     OW15331   1.718   0.319   5.090 -0.4271 -0.1497 -0.8983
 1290SOL    HW115332   1.752   0.273   5.013 -0.5057  0.6018 -1.3850
 1290SOL    HW215333   1.665   0.394   5.062  1.5529  1.7928  0.5681
 1291SOL     OW15334   0.727   2.806  10.687 -0.4304  0.7685 -0.2792
 1291SOL    HW115335   0.809   2.827  10.731 -1.5952 -1.5288  2.9418
 1291SOL    HW215336   0.686   2.891  10.703  0.2315  0.4309  3.0802
 1292SOL     OW15337   1.731   3.441   1.691 -0.4190  0.2837 -0.1348
 1292SOL    HW115338   1.761   3.355   1.719 -1.2683  0.2576  0.6887
 1292SOL    HW215339   1.712   3.493   1.769  1.4288  0.6398  0.0702
 1293SOL     OW15340   4.302   4.703   3.816 -0.3772 -0.0622 -0.1025
 1293SOL    HW115341   4.391   4.667   3.821 -0.2564  0.3318  0.5504
 1293SOL    HW215342   4.277   4.712   3.907 -0.0057 -1.7735  0.1652
 1294SOL     OW15343   3.480   0.573  14.999  0.6487 -0.2292  0.2165
 1294SOL    HW115344   3.392   0.609  14.983  1.2494  2.1457  2.2050
 1294SOL    HW215345   3.483   0.572  15.095 -2.3276 -1.1171  0.3163
 1295SOL     OW15346   3.762   3.787   3.047  0.7635 -0.3029  0.3190
 1295SOL    HW115347   3.753   3.701   3.004 -1.8310  0.2500 -0.2162
 1295SOL    HW215348   3.670   3.814   3.044  0.4188 -1.3422  1.4379
 1296SOL     OW15349   1.924   3.585  16.105  0.8245  0.2422 -0.2539
 1296SOL    HW115350   2.010   3.553  16.078  0.4243 -0.2475 -0.9506
 1296SOL    HW215351   1.918   3.664  16.050 -2.9689  1.1201  1.4337
 1297SOL     OW15352   1.257   4.493  13.115 -0.0288  0.1755  0.6711
 1297SOL    HW115353   1.229   4.561  13.054  0.2074  1.2410  1.7464
 1297SOL    HW215354   1.209   4.518  13.194 -0.7395  1.2239 -0.0914
 1298SOL     OW15355   0.582   3.911  10.185 -0.5853  0.1085 -0.6552
 1298SOL    HW115356   0.539   3.829  10.161  2.1083 -1.2328 -0.8677
 1298SOL    HW215357   0.642   3.918  10.111  0.3683  0.7952  0.1957
 1299SOL     OW15358   2.320   0.084   1.392 -0.3071  0.0084 -0.3317
 1299SOL    HW115359   2.300   0.000   1.350  0.2340 -0.5859  0.6093
 1299SOL    HW215360   2.404   0.068   1.434  0.3898  2.6101 -0.7514
 1300SOL     OW15361   0.373   2.557   5.225 -0.1698  0.0473  0.1226
 1300SOL    HW115362   0.352   2.634   5.278 -2.5545  0.8386 -1.9798
 1300SOL    HW215363   0.295   2.542   5.172 -0.0400 -0.0876 -0.0288
 1301SOL     OW15364   2.253   3.691   3.404 -0.2514  0.5796  0.1121
 1301SOL    HW115365   2.336   3.696   3.451 -1.9607  0.4279  3.2127
 1301SOL    HW215366   2.274   3.665   3.315 -0.2884  0.5541  0.1108
 1302SOL     OW15367   2.671   1.404   6.040 -0.6554 -0.7407 -0.1614
 1302SOL    HW115368   2.688   1.395   6.134  1.2813 -0.1666 -0.4726
 1302SOL    HW215369   2.585   1.362   6.035 -0.8337 -0.6009  1.6170
 1303SOL     OW15370   2.311   3.359   8.362  0.3880  0.5369  0.1223
 1303SOL    HW115371   2.330   3.377   8.270 -1.6629 -0.0123 -0.4117
 1303SOL    HW215372   2.366   3.432   8.391 -0.7423  2.0654 -1.6764
 1304SOL     OW15373   0.618   0.937   7.267  0.3227  0.0559 -0.5668
 1304SOL    HW115374   0.668   0.998   7.321  0.1962 -0.8843  0.5895
 1304SOL    HW215375   0.602   0.867   7.330  0.1960  0.2364 -0.4015
 1305SOL     OW15376   0.474   4.033   0.002  0.2773  0.1600  0.3271
 1305SOL    HW115377   0.415   4.048  17.621 -1.9086 -1.5352  1.7254
 1305SOL    HW215378   0.443   3.946   0.024 -0.6679  0.8631  1.7518
 1306SOL     OW15379   4.402   3.661   0.409 -0.2253 -0.3821  0.1713
 1306SOL    HW115380   4.431   3.604   0.481  2.9446  2.0616  0.8195
 1306SOL    HW215381   4.327   3.610   0.378 -0.2045 -1.2690  1.5482
 1307SOL     OW15382   1.810   1.335  16.990  0.0081 -0.6081  0.5003
 1307SOL    HW115383   1.800   1.365  16.899 -2.0763 -3.4959 -0.1856
 1307SOL    HW215384   1.893   1.377  17.013  1.1525 -1.5220 -1.9047
 1308SOL     OW15385   1.088   1.419   8.122  0.5719  0.2406  0.2310
 1308SOL    HW115386   1.182   1.409   8.107  0.4549  1.0430 -1.0955
 1308SOL    HW215387   1.093   1.499   8.174  1.5229 -0.8016  1.7447
 1309SOL     OW15388   3.814   1.064   7.507  0.3970  0.2104  0.5809
 1309SOL    HW115389   3.844   0.983   7.548 -1.7718 -0.7786  0.2246
 1309SOL    HW215390   3.810   1.119   7.585  1.7410  2.9355 -1.2868
 1310SOL     OW15391   0.217   0.864   7.138  0.4770 -0.7018 -0.5139
 1310SOL    HW115392   0.290   0.812   7.170  0.0927 -1.4900 -0.9303
 1310SOL    HW215393   0.158   0.798   7.102 -1.6029 -0.0434  1.6021
 1311SOL     OW15394   0.728   0.968   3.797 -0.1576 -0.0724 -0.2563
 1311SOL    HW115395   0.656   0.928   3.747 -1.4150 -1.9045  3.0021
 1311SOL    HW215396   0.792   0.977   3.727 -1.3694  0.2836 -1.3358
 1312SOL     OW15397   3.774   1.259   5.196 -0.3985  0.1803 -0.2138
 1312SOL    HW115398   3.855   1.208   5.197 -0.1761  0.5335 -0.5301
 1312SOL    HW215399   3.786   1.318   5.122  0.2905 -1.1585 -1.1634
 1313SOL     OW15400   1.346   3.679  13.865  0.4488 -0.1211  0.1531
 1313SOL    HW115401   1.332   3.622  13.789 -2.9728  3.1605 -1.6379
 1313SOL    HW215402   1.432   3.714  13.842  0.1222  0.3032 -0.4107
 1314SOL     OW15403   1.744   2.239   8.590  0.4149  0.0018  0.0404
 1314SOL    HW115404   1.691   2.309   8.628  1.4578  1.0327 -0.4058
 1314SOL    HW215405   1.739   2.178   8.663 -0.5739  0.5691  0.4566
 1315SOL     OW15406   4.610   2.595  16.553 -0.0773 -0.6696 -0.0763
 1315SOL    HW115407   4.529   2.600  16.502 -2.1014 -0.6222  3.1403
 1315SOL    HW215408   4.646   2.682  16.537 -2.2050  0.3860  0.7702
 1316SOL     OW15409   0.571   1.534   6.389  0.1204 -0.2742 -0.4591
 1316SOL    HW115410   0.573   1.611   6.331 -2.2259  0.2717  0.1828
 1316SOL    HW215411   0.654   1.489   6.375  0.2261 -0.5694  1.1417
 1317SOL     OW15412   0.206   1.843   1.567 -0.3396 -0.7510  0.3112
 1317SOL    HW115413   0.292   1.887   1.568 -0.6560 -0.1062 -0.8736
 1317SOL    HW215414   0.165   1.871   1.649 -1.9690 -1.4438 -0.2779
 1318SOL     OW15415   1.596   0.514   1.280  0.4418  0.4132 -0.3010
 1318SOL    HW115416   1.536   0.451   1.240  0.2536  0.0282  0.5776
 1318SOL    HW215417   1.534   0.568   1.328 -1.0502 -1.6323  0.0447
 1319SOL     OW15418   1.913   4.211   4.000  0.7160  0.1353 -0.2377
 1319SOL    HW115419   1.934   4.120   4.021 -0.1731 -0.2480 -1.0208
 1319SOL    HW215420   1.932   4.251   4.085  1.6040  2.0359 -1.3290
 1320SOL     OW15421   2.374   3.183   1.886  0.1080  0.2261  0.0974
 1320SOL    HW115422   2.386   3.259   1.942  0.9427  1.5391 -1.8741
 1320SOL    HW215423   2.447   3.126   1.911  1.7638  1.3288 -2.1801
 1321SOL     OW15424   1.090   2.299   5.691  0.0146  0.0079 -0.2679
 1321SOL    HW115425   1.089   2.393   5.676  3.3791  0.3244  1.5852
 1321SOL    HW215426   1.114   2.303   5.784  0.7650 -0.4429 -0.4459
 1322SOL     OW15427   1.350   3.234   9.757 -0.6741  0.5125 -0.6303
 1322SOL    HW115428   1.358   3.205   9.847 -1.2583  4.0331  0.5533
 1322SOL    HW215429   1.442   3.220   9.732 -1.5399 -1.5146 -2.6512
 1323SOL     OW15430   0.459   2.487   6.865  0.1009 -0.7798 -0.1390
 1323SOL    HW115431   0.513   2.415   6.833 -1.5230 -1.8936 -0.4140
 1323SOL    HW215432   0.490   2.558   6.809  0.5660  0.0174  1.1351
 1324SOL     OW15433   2.671   3.845  10.613 -0.5571 -0.0917  0.1536
 1324SOL    HW115434   2.681   3.940  10.600  0.4244 -0.1333  0.5665
 1324SOL    HW215435   2.703   3.810  10.530  2.0265  0.0371  1.0736
 1325SOL     OW15436   1.100   3.079   5.084  0.1296  0.0539 -0.1858
 1325SOL    HW115437   1.006   3.086   5.070 -0.2733 -2.9144  1.0515
 1325SOL    HW215438   1.114   3.113   5.172 -0.3386  0.2534 -0.1890
 1326SOL     OW15439   2.016   3.167   6.515  0.3382  0.1582  0.1403
 1326SOL    HW115440   2.049   3.217   6.441 -1.0330  1.2851  0.3043
 1326SOL    HW215441   2.093   3.113   6.532  0.1141 -1.2683 -3.2757
 1327SOL     OW15442   4.035   3.947   3.802  0.0663 -0.2750  0.1102
 1327SOL    HW115443   4.115   3.952   3.750  1.6265 -1.9330  2.3923
 1327SOL    HW215444   4.069   3.979   3.885 -1.1045 -0.3495  0.6157
 1328SOL     OW15445   0.696   3.162   1.387  0.4678 -0.0976  0.1045
 1328SOL    HW115446   0.614   3.175   1.433  1.8410  1.1600  2.2014
 1328SOL    HW215447   0.718   3.087   1.443  0.3487 -0.3963 -0.2443
 1329SOL     OW15448   0.576   3.502   5.715  0.0046 -0.6957  0.1991
 1329SOL    HW115449   0.590   3.597   5.709 -1.9190 -0.5803 -2.6365
 1329SOL    HW215450   0.666   3.474   5.696 -0.2893 -1.6128  0.1539
 1330SOL     OW15451   0.973   3.692   5.820 -0.3651  0.0025 -0.0289
 1330SOL    HW115452   0.940   3.632   5.887  2.4412 -2.2050 -0.6446
 1330SOL    HW215453   1.019   3.638   5.757  1.3356  3.1051 -1.4756
 1331SOL     OW15454   2.916   3.801  11.127  0.3252 -0.2061 -0.1376
 1331SOL    HW115455   2.937   3.712  11.098 -0.6442 -0.6116  0.4081
 1331SOL    HW215456   2.830   3.792  11.169 -0.1472  0.4587 -0.9528
 1332SOL     OW15457   4.619   3.059  10.346  0.5385 -0.3232 -0.4641
 1332SOL    HW115458   4.659   3.099  10.269  1.1441 -0.8770 -0.4399
 1332SOL    HW215459   4.552   3.125  10.362 -0.0885 -1.5380  1.9352
 1333SOL     OW15460   2.683   3.748  10.108 -0.3010  0.2627  0.0402
 1333SOL    HW115461   2.644   3.707  10.186 -0.5847  0.9849  0.2749
 1333SOL    HW215462   2.756   3.806  10.131  1.6132 -1.3799 -1.9079
 1334SOL     OW15463   2.817   3.532   2.249 -0.2979 -0.0200 -0.3378
 1334SOL    HW115464   2.897   3.571   2.284 -0.1209 -0.8153  0.1642
 1334SOL    HW215465   2.760   3.520   2.325 -2.1170  2.7298 -1.3034
 1335SOL     OW15466   1.478   0.926   7.466 -0.8382 -0.2243  0.1847
 1335SOL    HW115467   1.570   0.919   7.495 -0.8978  0.2855  0.4973
 1335SOL    HW215468   1.479   1.002   7.409  0.3501 -1.3032 -1.2466
 1336SOL     OW15469   2.453   2.506   6.194 -0.0714 -0.1057  0.4063
 1336SOL    HW115470   2.536   2.458   6.186 -0.5184 -1.1420  1.9675
 1336SOL    HW215471   2.479   2.565   6.265  1.1084 -0.4156  0.2432
 1337SOL     OW15472   4.400   3.435   4.285  0.1291  0.3433  0.2512
 1337SOL    HW115473   4.360   3.458   4.369  0.0945  1.4031 -0.0520
 1337SOL    HW215474   4.395   3.342   4.306 -1.0363 -0.1801 -2.2414
 1338SOL     OW15475   3.651   4.578   5.810 -0.2841 -0.1315 -1.0125
 1338SOL    HW115476   3.681   4.648   5.751  1.1627 -1.4091 -1.8082
 1338SOL    HW215477   3.582   4.621   5.859  0.0492  2.1828 -2.5788
 1339SOL     OW15478   0.679   0.366   5.401 -0.3317 -0.1919 -0.0885
 1339SOL    HW115479   0.638   0.390   5.318  1.4733 -0.1381 -0.9438
 1339SOL    HW215480   0.604   0.317   5.435  0.7294 -0.3096  2.1128
 1340SOL     OW15481   0.614   1.389   5.823 -0.0338  0.5435 -0.4652
 1340SOL    HW115482   0.649   1.343   5.747 -0.4779 -2.1871  0.9885
 1340SOL    HW215483   0.684   1.454   5.827 -0.9351  1.5438 -0.8539
 1341SOL     OW15484   1.503   4.238  17.180  0.2815 -0.1634  0.6459
 1341SOL    HW115485   1.550   4.241  17.097  3.2938  1.2210  2.4036
 1341SOL    HW215486   1.463   4.151  17.174  1.7281 -0.8901  1.3205
 1342SOL     OW15487   2.481   2.949   4.072  0.0922  0.1767  0.2742
 1342SOL    HW115488   2.411   2.968   4.008 -1.1675 -0.9718  1.3127
 1342SOL    HW215489   2.429   2.954   4.152 -1.5493 -2.0815 -0.6305
 1343SOL     OW15490   2.162   2.829   8.874  0.4223  0.0850 -0.4698
 1343SOL    HW115491   2.132   2.743   8.906  1.8702 -1.1413 -2.4069
 1343SOL    HW215492   2.106   2.891   8.919 -0.8641 -1.5642  0.1978
 1344SOL     OW15493   0.907   1.205   6.483  0.5369  0.4792  0.4670
 1344SOL    HW115494   0.992   1.168   6.464 -0.3989 -2.2959  1.7446
 1344SOL    HW215495   0.855   1.150   6.425  1.4051  0.0597  0.0895
 1345SOL     OW15496   3.495   4.351   4.615  0.3407  0.4506  0.0837
 1345SOL    HW115497   3.517   4.443   4.630 -0.9813  0.9397 -1.0215
 1345SOL    HW215498   3.458   4.355   4.527  0.1776  2.1877  0.2326
 1346SOL     OW15499   0.809   0.471   9.563 -0.1375 -0.1466  0.3789
 1346SOL    HW115500   0.887   0.438   9.518 -1.9851  0.4517 -3.2435
 1346SOL    HW215501   0.744   0.489   9.495  0.5254  1.7559  0.2340
 1347SOL     OW15502   2.015   1.621  13.595  0.3820 -0.0236 -0.0577
 1347SOL    HW115503   2.026   1.653  13.506 -0.2108 -1.6530 -0.7154
 1347SOL    HW215504   1.970   1.695  13.636 -1.2833 -0.6857 -0.6676
 1348SOL     OW15505   2.043   3.527   7.185 -0.2648 -0.0019 -0.0681
 1348SOL    HW115506   1.969   3.467   7.188 -0.5896  0.4671  1.2823
 1348SOL    HW215507   2.003   3.601   7.138 -3.7980 -2.2938 -0.6277
 1349SOL     OW15508   3.408   0.834   2.993 -0.4201  0.2770 -0.1988
 1349SOL    HW115509   3.376   0.826   3.083  0.3704 -2.5212 -0.1616
 1349SOL    HW215510   3.323   0.811   2.955 -0.7832  1.1357  0.0922
 1350SOL     OW15511   1.493   1.519  12.288 -0.3704 -0.4898  0.5182
 1350SOL    HW115512   1.558   1.581  12.322  0.0192 -0.8160  0.3792
 1350SOL    HW215513   1.461   1.468  12.363  1.1842 -0.2770  1.3376
 1351SOL     OW15514   1.244   1.786  14.058  0.0308 -0.1010 -0.5222
 1351SOL    HW115515   1.287   1.866  14.027 -0.0853 -0.2658 -1.1034
 1351SOL    HW215516   1.273   1.724  13.992  0.0726 -0.8701  0.2135
 1352SOL     OW15517   3.011   4.199  14.582  0.3641  0.0359 -0.3646
 1352SOL    HW115518   3.011   4.220  14.489  0.6675 -0.8952 -0.5694
 1352SOL    HW215519   2.942   4.262  14.605  0.2707  0.8092 -2.7170
 1353SOL     OW15520   0.956   2.521   5.332 -0.5275  0.2159  0.1030
 1353SOL    HW115521   0.931   2.588   5.268  0.8770  0.6236 -0.0097
 1353SOL    HW215522   1.041   2.553   5.362 -0.3131 -0.9701  0.7565
 1354SOL     OW15523   3.553   4.153   6.035 -0.0545  0.3265  0.3714
 1354SOL    HW115524   3.480   4.202   5.995  1.0398  1.0226 -0.7613
 1354SOL    HW215525   3.511   4.076   6.073 -3.4205  1.0951 -1.7182
 1355SOL     OW15526   3.273   0.167   7.743 -0.3026  0.2543  0.3724
 1355SOL    HW115527   3.325   0.228   7.794  2.7140 -0.5354 -1.7564
 1355SOL    HW215528   3.293   0.090   7.796  0.3275 -1.9419 -3.0689
 1356SOL     OW15529   3.748   4.173  15.293  0.1310  0.7517 -0.0133
 1356SOL    HW115530   3.823   4.156  15.349  0.2554 -0.8901 -0.6701
 1356SOL    HW215531   3.755   4.268  15.296  0.3743  0.8065 -1.8680
 1357SOL     OW15532   0.790   3.821  13.016 -0.0817  0.3306  0.0579
 1357SOL    HW115533   0.743   3.738  13.006  1.1325  0.0458 -3.1692
 1357SOL    HW215534   0.723   3.878  13.053  2.0561  1.2410  2.5337
 1358SOL     OW15535   2.447   2.127  14.252 -0.5841  0.1041 -0.4814
 1358SOL    HW115536   2.453   2.072  14.174 -1.1700 -0.9009  0.1811
 1358SOL    HW215537   2.352   2.140  14.256 -0.4764  1.5401 -2.8321
 1359SOL     OW15538   0.291   4.076  11.504 -0.0164  0.0071  0.3706
 1359SOL    HW115539   0.282   4.032  11.420  2.5409 -2.2078  1.2653
 1359SOL    HW215540   0.226   4.146  11.499 -0.0128 -0.2913 -4.2100
 1360SOL     OW15541   1.545   2.709   2.909  0.1392 -0.0497 -0.1465
 1360SOL    HW115542   1.598   2.691   2.831 -2.9088 -2.4146 -1.6698
 1360SOL    HW215543   1.568   2.802   2.909 -3.5492  0.8537 -0.7256
 1361SOL     OW15544   1.207   0.082   2.513  0.0313 -0.5467 -0.3832
 1361SOL    HW115545   1.172   0.152   2.569  0.7344 -1.9730  1.8058
 1361SOL    HW215546   1.127   0.046   2.474  0.7785  0.3995 -2.8273
 1362SOL     OW15547   0.019   2.301   1.351 -0.3036  0.1008  0.0339
 1362SOL    HW115548   4.649   2.320   1.347 -0.5564 -1.5699 -1.9026
 1362SOL    HW215549   0.052   2.314   1.262 -1.2935  2.1656 -0.0136
 1363SOL     OW15550   4.298   2.906   7.078  0.3122 -0.0022 -0.2073
 1363SOL    HW115551   4.224   2.929   7.021 -1.4833  0.2404  2.1938
 1363SOL    HW215552   4.323   2.995   7.102 -0.1302 -0.6579  2.6008
 1364SOL     OW15553   2.389   4.611   3.029  0.3190  0.2638 -0.4324
 1364SOL    HW115554   2.403   4.630   2.937  1.5071 -0.7790 -0.4672
 1364SOL    HW215555   2.453   4.678   3.054  1.3505 -1.0071  0.3390
 1365SOL     OW15556   3.502   0.890   8.115 -0.2605  0.2198 -0.3668
 1365SOL    HW115557   3.455   0.932   8.187  1.5586  1.7730 -0.0742
 1365SOL    HW215558   3.588   0.864   8.149 -1.1245  0.8750  2.3610
 1366SOL     OW15559   2.737   2.214  13.111  0.1431  0.1330  0.2911
 1366SOL    HW115560   2.696   2.239  13.028 -0.2418 -0.5946  0.2555
 1366SOL    HW215561   2.675   2.150  13.144  0.0403 -0.3589 -0.8414
 1367SOL     OW15562   0.376   1.630   3.926  0.2821  0.1052 -0.3467
 1367SOL    HW115563   0.327   1.584   3.994 -0.8517  1.3019 -0.3565
 1367SOL    HW215564   0.442   1.680   3.974 -1.0836  2.0359 -0.5160
 1368SOL     OW15565   0.171   3.412   4.304  0.6106  0.0891  0.1586
 1368SOL    HW115566   0.195   3.382   4.217  0.2065  0.1649  0.0185
 1368SOL    HW215567   0.084   3.450   4.292  0.8033  0.2101 -0.7744
 1369SOL     OW15568   0.647   0.490  16.729 -0.2534 -0.8023 -0.0109
 1369SOL    HW115569   0.613   0.545  16.800 -0.0077 -1.2468  0.4472
 1369SOL    HW215570   0.566   0.471  16.681  0.1451 -0.9718 -0.6080
 1370SOL     OW15571   0.946   1.422   2.794  0.0377  0.2614  0.2180
 1370SOL    HW115572   0.954   1.384   2.881  1.4393 -0.8809 -0.4111
 1370SOL    HW215573   0.959   1.357   2.725 -3.3853  1.4555 -1.5461
 1371SOL     OW15574   4.141   4.405   3.671  0.3294 -0.3238 -0.0929
 1371SOL    HW115575   4.057   4.385   3.712 -1.4116  4.1679 -1.4252
 1371SOL    HW215576   4.124   4.378   3.581  0.2904  1.7595 -0.7076
 1372SOL     OW15577   0.823   3.924   5.734  0.0494 -0.8671 -0.0770
 1372SOL    HW115578   0.868   3.840   5.742  0.1168 -0.9129 -0.9568
 1372SOL    HW215579   0.730   3.911   5.717  0.1348 -1.4055 -0.1211
 1373SOL     OW15580   3.054   2.123   7.385  0.3859 -0.4216  0.2270
 1373SOL    HW115581   3.002   2.197   7.415  2.5670  1.3042 -0.2167
 1373SOL    HW215582   3.140   2.165   7.390  0.2740 -0.4567  2.2905
 1374SOL     OW15583   4.446   0.889   6.398  0.0538  0.7275 -0.3652
 1374SOL    HW115584   4.360   0.877   6.358  1.1749 -0.8107 -2.3029
 1374SOL    HW215585   4.478   0.971   6.359  1.5607 -0.1709 -1.0253
 1375SOL     OW15586   3.060   2.008   0.268 -0.6212  0.5263  0.7989
 1375SOL    HW115587   3.049   1.916   0.244 -2.0163  0.4264  1.7815
 1375SOL    HW215588   3.139   2.013   0.322  0.3055  1.6667 -0.6452
 1376SOL     OW15589   4.201   3.301   2.202  0.1574 -0.7615 -0.3246
 1376SOL    HW115590   4.179   3.349   2.281  1.0073 -2.0549  0.6960
 1376SOL    HW215591   4.146   3.347   2.137  0.5582 -0.8862 -0.7514
 1377SOL     OW15592   4.436   0.373  13.393 -0.4622 -0.4734  0.0908
 1377SOL    HW115593   4.370   0.312  13.427  0.9389 -1.6427  0.7270
 1377SOL    HW215594   4.512   0.317  13.410 -0.2075 -0.5407 -1.3327
 1378SOL     OW15595   4.246   1.449   5.174  0.0082 -0.2920  0.0968
 1378SOL    HW115596   4.328   1.476   5.132 -0.7256  0.0125 -1.1326
 1378SOL    HW215597   4.276   1.418   5.260 -0.1419  0.4584  0.4193
 1379SOL     OW15598   3.936   3.867   7.759 -0.2424  0.2374 -0.1624
 1379SOL    HW115599   3.892   3.950   7.781 -0.5543  0.1582 -0.4854
 1379SOL    HW215600   4.020   3.870   7.805 -0.3329  2.6313 -0.1128
 1380SOL     OW15601   2.220   4.021   0.614  0.6740  0.3701  0.2632
 1380SOL    HW115602   2.244   3.942   0.663 -0.8596 -0.5896 -0.5568
 1380SOL    HW215603   2.164   4.071   0.674  1.0646 -0.3782  1.2630
 1381SOL     OW15604   4.430   0.065   0.640 -0.3341  0.3372  0.3521
 1381SOL    HW115605   4.415   0.038   0.550  1.3170  0.1154  0.1396
 1381SOL    HW215606   4.440   4.704   0.685 -0.6702  0.9274  1.5288
 1382SOL     OW15607   2.041   1.048  12.755  0.7239 -0.3077  0.2894
 1382SOL    HW115608   2.006   0.966  12.721  0.3259 -0.9232  2.2231
 1382SOL    HW215609   2.130   1.063  12.723  0.7163 -0.7115  0.0743
 1383SOL     OW15610   1.190   2.703   2.280  0.0202  0.3984 -0.0614
 1383SOL    HW115611   1.251   2.777   2.289 -1.3331  1.2431  2.2420
 1383SOL    HW215612   1.173   2.683   2.372 -1.9138  2.0368 -0.0562
 1384SOL     OW15613   0.695   1.590   8.543  0.1314 -0.2160 -0.6356
 1384SOL    HW115614   0.775   1.549   8.576 -1.4679 -1.4507  1.7816
 1384SOL    HW215615   0.695   1.555   8.454 -0.8479 -0.8756 -0.3855
 1385SOL     OW15616   0.096   3.361  10.339 -0.2311 -0.2386  0.3536
 1385SOL    HW115617   0.049   3.408  10.408 -4.3834 -2.3378 -1.0306
 1385SOL    HW215618   0.022   3.337  10.283  0.0321  0.7807 -0.4330
 1386SOL     OW15619   1.381   2.325   8.002 -0.3130 -0.0111  0.1917
 1386SOL    HW115620   1.321   2.380   8.053  0.3463  0.3083  0.6183
 1386SOL    HW215621   1.409   2.260   8.066 -0.5538  0.6604  0.9876
 1387SOL     OW15622   1.250   3.424   3.527  0.4149  0.1405  0.1493
 1387SOL    HW115623   1.187   3.474   3.474 -1.5387 -2.1619  0.2871
 1387SOL    HW215624   1.205   3.425   3.611  0.4004  2.0257  0.1164
 1388SOL     OW15625   3.326   3.406  10.473 -0.3528  0.1283 -0.3666
 1388SOL    HW115626   3.362   3.318  10.480  0.1354  0.2984 -0.7427
 1388SOL    HW215627   3.409   3.452  10.466  0.0980 -0.2902  2.1638
 1389SOL     OW15628   4.500   4.589   7.261  0.2354  0.2776  0.1777
 1389SOL    HW115629   4.517   4.543   7.344  0.1735  2.1825  1.2503
 1389SOL    HW215630   4.489   4.524   7.192  1.5434  0.8469 -0.5569
 1390SOL     OW15631   2.396   3.029  16.195  0.1002 -0.0429  0.1063
 1390SOL    HW115632   2.450   3.016  16.273  0.4259  1.3463  0.1077
 1390SOL    HW215633   2.365   2.941  16.173 -0.6263  0.4722 -0.9610
 1391SOL     OW15634   1.986   3.196  15.139 -0.1740  0.0350  0.1479
 1391SOL    HW115635   2.042   3.273  15.138 -0.0733 -0.0368  0.2873
 1391SOL    HW215636   2.060   3.141  15.164  1.4326  1.6874 -0.9669
 1392SOL     OW15637   0.987   3.748   8.233 -0.0653 -0.0801  0.1204
 1392SOL    HW115638   0.955   3.806   8.302 -0.6387 -1.3876  0.9533
 1392SOL    HW215639   1.046   3.803   8.182  0.1396 -1.6502 -1.3434
 1393SOL     OW15640   4.332   2.353   8.410  0.1036  0.4928  0.3440
 1393SOL    HW115641   4.305   2.329   8.321 -1.5905 -0.3525  1.0925
 1393SOL    HW215642   4.402   2.294   8.438 -0.9876  0.2284  2.4773
 1394SOL     OW15643   3.723   2.685   6.893 -0.2813  0.5025  0.3787
 1394SOL    HW115644   3.702   2.632   6.970 -1.7488 -0.1677 -0.4900
 1394SOL    HW215645   3.746   2.767   6.937 -1.7523  0.9031  0.4310
 1395SOL     OW15646   2.852   3.779   5.816 -0.4606  0.6591 -0.1972
 1395SOL    HW115647   2.834   3.868   5.847  0.5362  0.0439  2.1353
 1395SOL    HW215648   2.847   3.734   5.900  0.8773  0.1200 -0.4026
 1396SOL     OW15649   1.073   1.139   5.856  0.1520  0.1757  0.3715
 1396SOL    HW115650   1.088   1.086   5.934 -0.5941 -0.8219 -0.1622
 1396SOL    HW215651   1.035   1.064   5.810 -2.4200  1.1244  0.9723
 1397SOL     OW15652   1.971   1.683   8.256  0.9361 -0.9220 -0.8254
 1397SOL    HW115653   1.983   1.593   8.286  1.1979 -0.8144 -0.6013
 1397SOL    HW215654   2.059   1.712   8.235 -0.0337  2.4614 -0.3557
 1398SOL     OW15655   4.023   4.126  12.027 -0.0988 -0.6277  0.4666
 1398SOL    HW115656   4.111   4.145  12.058 -0.4330 -0.5137  1.3625
 1398SOL    HW215657   4.024   4.142  11.933  1.9145 -0.8747  0.4487
 1399SOL     OW15658   0.893   3.419   8.125 -0.0263  0.1234 -0.5536
 1399SOL    HW115659   0.930   3.458   8.046  0.6483  1.4289  0.4074
 1399SOL    HW215660   0.975   3.412   8.175  0.2438 -1.6520 -1.2365
 1400SOL     OW15661   1.136   2.270   5.142  0.4038 -0.3227  0.1080
 1400SOL    HW115662   1.078   2.262   5.218  1.4832  1.5591  1.1205
 1400SOL    HW215663   1.211   2.214   5.162 -0.4109 -0.9417  1.4403
 1401SOL     OW15664   2.388   1.334   8.397  0.4440  0.0040  0.0883
 1401SOL    HW115665   2.370   1.428   8.399  0.5205 -0.0111  1.2481
 1401SOL    HW215666   2.474   1.330   8.355  1.3993  2.2399  1.8482
 1402SOL     OW15667   4.302   3.211   7.824 -0.2630  0.0273  0.0796
 1402SOL    HW115668   4.373   3.235   7.765 -0.7335 -0.1176 -0.5478
 1402SOL    HW215669   4.324   3.252   7.908  0.1924  0.7917 -0.4211
 1403SOL     OW15670   0.973   1.420   7.643 -0.0342  0.4045 -0.5228
 1403SOL    HW115671   1.042   1.479   7.674 -2.0489  2.1184  0.7040
 1403SOL    HW215672   0.923   1.406   7.724 -0.2263 -0.8257 -0.8520
 1404SOL     OW15673   2.991   2.444   7.226  0.0182  0.1954  0.0778
 1404SOL    HW115674   3.004   2.438   7.321  0.0101  0.4225  0.0928
 1404SOL    HW215675   3.008   2.537   7.214 -0.5929  0.6492  2.6095
 1405SOL     OW15676   4.172   1.300   4.206 -0.3704  0.1129  0.2433
 1405SOL    HW115677   4.086   1.280   4.170  0.1626 -1.5140 -0.1051
 1405SOL    HW215678   4.165   1.263   4.294 -1.8431  2.4093  1.1039
 1406SOL     OW15679   3.936   0.454   1.996 -0.2651 -0.0325  0.2145
 1406SOL    HW115680   3.933   0.361   1.974  3.1141 -0.2316  0.5516
 1406SOL    HW215681   3.987   0.454   2.078 -0.3401 -2.0115  0.2665
 1407SOL     OW15682   0.203   1.566  16.584 -0.2280 -0.1888 -0.2827
 1407SOL    HW115683   0.223   1.473  16.575  3.0714  0.4406  0.4345
 1407SOL    HW215684   0.159   1.574  16.668  0.2583 -0.0493 -0.0409
 1408SOL     OW15685   3.182   4.132  16.229  0.1543  0.2353  0.0420
 1408SOL    HW115686   3.178   4.228  16.222 -1.8356  0.2833  1.8555
 1408SOL    HW215687   3.119   4.125  16.300 -0.2506 -0.0622 -0.3414
 1409SOL     OW15688   3.159   2.540   5.426  0.0116  0.0439 -0.4783
 1409SOL    HW115689   3.103   2.614   5.448  0.2245 -0.5290  1.9801
 1409SOL    HW215690   3.189   2.568   5.340  0.3198 -1.1724 -0.7653
 1410SOL     OW15691   0.862   2.715   7.324  0.7830 -0.5357 -0.5310
 1410SOL    HW115692   0.837   2.724   7.232 -1.9250 -2.6431 -0.0148
 1410SOL    HW215693   0.912   2.796   7.329 -0.3414  0.1567 -0.6045
 1411SOL     OW15694   0.647   1.384   1.476  0.0662  0.5848 -0.5164
 1411SOL    HW115695   0.696   1.323   1.531 -1.7852 -0.3166  0.1489
 1411SOL    HW215696   0.599   1.320   1.423 -0.6249 -0.2537  1.1284
 1412SOL     OW15697   0.220   0.908   8.493  0.0675  0.3037  0.4058
 1412SOL    HW115698   0.165   0.981   8.463 -0.2976  0.3844  1.2441
 1412SOL    HW215699   0.153   0.857   8.539  0.7532 -1.5068 -0.6512
 1413SOL     OW15700   3.547   2.365   7.884  0.1229  0.5088  0.1812
 1413SOL    HW115701   3.534   2.454   7.917  1.4739  0.8775 -0.2881
 1413SOL    HW215702   3.462   2.341   7.845  0.7449 -2.1359  0.4293
 1414SOL     OW15703   2.514   3.027   2.447  0.1367  0.1157  0.1530
 1414SOL    HW115704   2.594   3.004   2.399 -2.1245 -3.4705 -1.9063
 1414SOL    HW215705   2.449   3.059   2.383  1.3193  0.3424 -0.9372
 1415SOL     OW15706   3.275   1.178   5.136 -0.5557  0.3151 -0.0538
 1415SOL    HW115707   3.355   1.148   5.177 -0.1841  2.4195  0.7186
 1415SOL    HW215708   3.231   1.238   5.196 -0.7636 -0.7990  0.8921
 1416SOL     OW15709   4.011   0.212   2.494 -0.3629 -0.0708 -0.5685
 1416SOL    HW115710   4.011   0.284   2.432 -2.2672 -0.5621 -1.1329
 1416SOL    HW215711   4.102   0.201   2.520 -0.1526 -1.1922 -1.7538
 1417SOL     OW15712   3.485   1.907  17.560 -0.5766  0.0128 -0.6854
 1417SOL    HW115713   3.520   1.874  17.477  0.3154 -1.6618  0.3833
 1417SOL    HW215714   3.454   1.827  17.602 -1.7466  1.0012  0.3212
 1418SOL     OW15715   3.532   3.756  17.440 -0.0922 -0.4179  0.4480
 1418SOL    HW115716   3.437   3.757  17.447 -0.1567 -0.7231 -0.3427
 1418SOL    HW215717   3.545   3.846  17.470 -2.1546  0.0894 -0.1929
 1419SOL     OW15718   3.844   2.173   6.080  0.0200 -0.0457  0.1978
 1419SOL    HW115719   3.850   2.251   6.024 -1.1572  0.9823  1.4960
 1419SOL    HW215720   3.791   2.114   6.027 -0.7850 -0.0625  1.0038
 1420SOL     OW15721   1.751   1.114   2.511 -0.4314  0.2185 -0.8425
 1420SOL    HW115722   1.752   1.052   2.438 -2.0392  0.3305 -0.9642
 1420SOL    HW215723   1.773   1.190   2.456 -0.4032 -0.4053 -1.6997
 1421SOL     OW15724   2.851   3.653   6.070 -0.5127 -0.4546 -0.2026
 1421SOL    HW115725   2.836   3.741   6.103 -1.4443 -0.2976 -1.0467
 1421SOL    HW215726   2.904   3.618   6.141 -1.7811 -1.1927  0.3667
 1422SOL     OW15727   1.847   0.248   8.092  0.4300  0.2240  0.0333
 1422SOL    HW115728   1.865   0.256   8.186 -0.2860 -1.1593  0.2871
 1422SOL    HW215729   1.866   0.338   8.066  0.9971 -0.2466 -1.1713
 1423SOL     OW15730   2.394   3.410   6.362  0.4727 -0.3364  0.2152
 1423SOL    HW115731   2.442   3.380   6.285 -2.0586 -0.6367 -1.2677
 1423SOL    HW215732   2.430   3.352   6.430  0.9433  1.2109  1.2726
 1424SOL     OW15733   1.664   2.414   0.911 -0.5695  1.0123 -0.1765
 1424SOL    HW115734   1.664   2.502   0.947 -1.7121  1.0370 -0.2378
 1424SOL    HW215735   1.645   2.373   0.995  3.7501 -1.7871 -0.5430
 1425SOL     OW15736   2.918   2.790   5.092 -0.2505 -0.2596  0.1507
 1425SOL    HW115737   2.904   2.713   5.148  0.6640  0.4703  1.3842
 1425SOL    HW215738   3.004   2.781   5.051 -0.7193  1.1116 -1.1007
 1426SOL     OW15739   0.914   1.295   3.343  0.4813  0.0146  0.0564
 1426SOL    HW115740   0.889   1.320   3.255  1.3167  0.7183  0.0200
 1426SOL    HW215741   0.930   1.380   3.384  0.4985  0.9728 -1.9849
 1427SOL     OW15742   1.344   1.232  15.782 -0.4120  0.3495 -0.0445
 1427SOL    HW115743   1.420   1.177  15.763 -1.0091 -0.2334 -0.7156
 1427SOL    HW215744   1.394   1.312  15.800  0.2594  0.5742 -2.9464
 1428SOL     OW15745   4.285   4.469   5.680  1.0122 -0.3394  0.1026
 1428SOL    HW115746   4.192   4.452   5.696  0.7349  1.4803  0.3910
 1428SOL    HW215747   4.307   4.449   5.771 -4.5894 -1.4011  1.2427
 1429SOL     OW15748   1.450   4.340  13.055  0.0751  0.1618 -0.2172
 1429SOL    HW115749   1.383   4.399  13.088  0.8782  0.4921  0.8358
 1429SOL    HW215750   1.417   4.293  12.979 -1.1932 -0.3267  0.6358
 1430SOL     OW15751   1.188   3.994  13.259 -0.0798  0.3555 -0.4070
 1430SOL    HW115752   1.175   4.084  13.229  1.3685  1.1489  1.4075
 1430SOL    HW215753   1.134   3.989  13.338  0.2427  2.6060 -0.0486
 1431SOL     OW15754   1.867   4.674   5.564 -0.1087  0.5233  0.6785
 1431SOL    HW115755   1.900   4.718   5.642  0.0956 -2.1659  2.1182
 1431SOL    HW215756   1.775   4.700   5.554 -0.4278 -0.4379  1.1006
 1432SOL     OW15757   4.526   2.933   2.243 -0.2093  0.2066 -0.1070
 1432SOL    HW115758   4.454   2.982   2.204  0.7877  2.1742  0.5347
 1432SOL    HW215759   4.525   2.961   2.335  1.5731  0.5390 -0.1803
 1433SOL     OW15760   0.312   2.979   5.872  0.2941  0.0651 -0.3430
 1433SOL    HW115761   0.259   3.056   5.848 -1.4864 -0.9776  0.2224
 1433SOL    HW215762   0.401   3.014   5.878  0.9106 -1.6665  0.5231
 1434SOL     OW15763   4.483   2.988   9.098 -0.1505 -0.1322 -0.3513
 1434SOL    HW115764   4.527   2.969   9.015  0.0090 -1.8671  0.1397
 1434SOL    HW215765   4.533   2.945   9.167  1.0521  1.9499  0.0839
 1435SOL     OW15766   1.596   2.400   3.622 -0.7445 -0.0937  0.0347
 1435SOL    HW115767   1.579   2.403   3.528  2.0317 -0.3044 -0.4561
 1435SOL    HW215768   1.681   2.437   3.642 -0.2743 -0.8099 -0.6361
 1436SOL     OW15769   3.184   0.892  15.488 -0.4083  0.4728  0.2826
 1436SOL    HW115770   3.238   0.872  15.564  0.8447  1.0605 -0.4596
 1436SOL    HW215771   3.224   0.837  15.421 -1.1311  0.6818 -0.3255
 1437SOL     OW15772   3.358   0.580   3.900 -0.0536 -0.5446  0.2463
 1437SOL    HW115773   3.322   0.492   3.885  3.3168 -1.2262 -4.0230
 1437SOL    HW215774   3.324   0.631   3.827 -2.3336 -0.1193  1.6072
 1438SOL     OW15775   0.277   0.318  11.989 -0.5548  0.6473 -0.1493
 1438SOL    HW115776   0.371   0.302  11.985 -0.4616  1.9652 -3.6391
 1438SOL    HW215777   0.252   0.261  11.916  1.6672 -1.8683  1.0727
 1439SOL     OW15778   3.447   3.473   0.406  0.2772  0.2496  0.1071
 1439SOL    HW115779   3.495   3.399   0.444  1.0085  0.7761  0.2151
 1439SOL    HW215780   3.405   3.508   0.485 -0.4916 -0.7556  0.1444
 1440SOL     OW15781   1.465   3.486   7.018 -0.3667 -0.3431  0.6731
 1440SOL    HW115782   1.406   3.546   6.972  0.4612  0.3456  0.5225
 1440SOL    HW215783   1.414   3.408   7.042 -0.7652 -0.3598 -0.2091
 1441SOL     OW15784   3.046   1.058   8.750  0.3020 -0.2904  0.5466
 1441SOL    HW115785   3.096   0.991   8.797  0.3095 -0.5925  0.1007
 1441SOL    HW215786   2.973   1.012   8.708 -0.9504  0.6401  1.6890
 1442SOL     OW15787   0.275   3.134   6.689  0.4131  0.3606 -0.2379
 1442SOL    HW115788   0.311   3.047   6.705  0.1611  0.7329  2.3797
 1442SOL    HW215789   0.257   3.167   6.777 -2.6612  0.6673 -0.9782
 1443SOL     OW15790   4.687   2.074   0.133 -0.2441  0.1916  0.3297
 1443SOL    HW115791   4.653   2.160   0.160 -0.6990  0.8100 -2.1986
 1443SOL    HW215792   4.672   2.025   0.214 -2.1317  0.3703  0.0803
 1444SOL     OW15793   2.080   2.613   4.422 -0.0399 -0.4584  0.1670
 1444SOL    HW115794   2.049   2.532   4.381  0.3228 -0.6412  0.2466
 1444SOL    HW215795   2.133   2.588   4.498  1.9525 -1.7315 -1.6236
 1445SOL     OW15796   0.000   0.474   2.173  0.4349 -0.6883 -0.0711
 1445SOL    HW115797   4.647   0.507   2.125 -0.6833 -2.4887  0.4699
 1445SOL    HW215798   0.011   0.400   2.113  2.6923  0.1125 -0.6662
 1446SOL     OW15799   3.224   2.976   8.286 -0.1413 -0.2298 -0.1752
 1446SOL    HW115800   3.217   3.058   8.335  1.9950  0.9127 -1.8113
 1446SOL    HW215801   3.134   2.968   8.254  0.7765 -2.3584 -2.2535
 1447SOL     OW15802   0.516   3.458   9.392  0.6360  0.4052 -0.4315
 1447SOL    HW115803   0.497   3.425   9.480  1.3053  1.6314  0.1731
 1447SOL    HW215804   0.593   3.407   9.370  1.2228  0.8773  0.5123
 1448SOL     OW15805   0.420   1.716   7.882  0.6195  0.6696 -0.1096
 1448SOL    HW115806   0.373   1.677   7.956  0.9495  2.6220  1.1324
 1448SOL    HW215807   0.492   1.763   7.923  2.2962  1.1105 -3.6184
 1449SOL     OW15808   0.025   2.194  11.678  0.1145 -0.1273 -0.5311
 1449SOL    HW115809   4.691   2.140  11.623 -0.9452 -1.0405  1.4554
 1449SOL    HW215810   0.005   2.154  11.762 -2.3223 -0.3736 -1.2288
 1450SOL     OW15811   0.638   2.651   7.711 -0.3260  0.1031 -0.2551
 1450SOL    HW115812   0.577   2.580   7.731  1.1984 -1.4695 -1.1895
 1450SOL    HW215813   0.716   2.597   7.694  0.7160  1.2478  0.9528
 1451SOL     OW15814   4.545   0.041   7.979 -0.2883 -0.2649 -0.4043
 1451SOL    HW115815   4.475   0.036   7.913  0.4257 -1.9759 -1.0314
 1451SOL    HW215816   4.549   4.670   8.000  3.3543 -0.2716 -1.2670
 1452SOL     OW15817   3.784   0.513   8.016  0.0724 -0.1100  0.3832
 1452SOL    HW115818   3.866   0.543   7.977  1.2476 -1.5580  1.7668
 1452SOL    HW215819   3.717   0.535   7.950 -1.2198 -2.7240  0.8287
 1453SOL     OW15820   2.024   0.234   1.456 -0.1489 -0.0814 -0.0564
 1453SOL    HW115821   2.045   0.194   1.372  1.7577  0.7209  0.0552
 1453SOL    HW215822   1.953   0.295   1.437  0.6370  1.5219  2.0812
 1454SOL     OW15823   0.521   1.714  14.647  0.2142  0.2281 -0.1405
 1454SOL    HW115824   0.477   1.742  14.566 -0.0286 -0.8680 -0.3841
 1454SOL    HW215825   0.489   1.780  14.708  0.2320 -0.1632  0.2898
 1455SOL     OW15826   1.978   2.334   4.504 -0.0027 -0.1597 -0.2042
 1455SOL    HW115827   2.066   2.296   4.509 -0.4957 -1.1477  0.9552
 1455SOL    HW215828   1.956   2.299   4.591 -2.2985  2.9503  0.4826
 1456SOL     OW15829   3.838   0.401   3.481  0.4151  0.3032 -0.3198
 1456SOL    HW115830   3.866   0.475   3.536  3.4763  0.1152 -1.6684
 1456SOL    HW215831   3.853   0.430   3.391 -0.7508 -0.7021 -0.8346
 1457SOL     OW15832   3.504   2.912   2.399  0.1714 -0.4669 -0.5697
 1457SOL    HW115833   3.452   2.840   2.362  0.9305 -0.1962 -2.1708
 1457SOL    HW215834   3.580   2.899   2.342  0.4281 -1.9310  0.0998
 1458SOL     OW15835   4.029   2.648   5.332 -0.1756  0.5589  0.5204
 1458SOL    HW115836   3.991   2.579   5.279  0.0058  0.7981  0.0814
 1458SOL    HW215837   4.067   2.592   5.399 -1.5480 -0.3676  0.5223
 1459SOL     OW15838   2.918   2.863   7.858  0.6447 -0.0697  0.3211
 1459SOL    HW115839   2.914   2.802   7.784  1.5978  0.0207  0.1891
 1459SOL    HW215840   2.954   2.795   7.916 -1.8338 -0.8083  0.9676
 1460SOL     OW15841   1.104   1.262  15.542  0.0111 -0.3283 -0.3801
 1460SOL    HW115842   1.116   1.245  15.636 -0.1412 -0.7259 -0.4295
 1460SOL    HW215843   1.147   1.346  15.532  0.9217 -0.9930 -1.9224
 1461SOL     OW15844   3.276   0.387   8.759  0.2894 -0.2665 -0.1131
 1461SOL    HW115845   3.362   0.428   8.750 -0.2628  0.2363 -3.0161
 1461SOL    HW215846   3.279   0.348   8.846  0.7025 -1.0578 -0.4777
 1462SOL     OW15847   2.755   3.073  12.628 -0.1204  0.3730 -0.2930
 1462SOL    HW115848   2.847   3.090  12.650 -0.3119  0.2458  0.5969
 1462SOL    HW215849   2.761   2.991  12.578 -0.8634  0.6699 -0.8678
 1463SOL     OW15850   0.041   2.110   0.510 -0.6193 -0.0145 -0.1512
 1463SOL    HW115851   4.717   2.047   0.456  0.1613  0.0440 -0.8992
 1463SOL    HW215852   4.693   2.136   0.570  1.7676  1.0025  2.2185
 1464SOL     OW15853   0.485   1.133   3.397  0.1729  0.2160  0.0409
 1464SOL    HW115854   0.579   1.143   3.377  0.2143  1.4330  0.8572
 1464SOL    HW215855   0.494   1.066   3.465  0.0467 -0.7986 -0.9381
 1465SOL     OW15856   1.332   1.764  15.203  0.1130 -0.4367 -0.1744
 1465SOL    HW115857   1.334   1.741  15.296  1.9907 -1.6715 -0.5141
 1465SOL    HW215858   1.391   1.839  15.196  0.4439 -0.5928  0.8721
 1466SOL     OW15859   2.449   3.618  10.604 -0.3376 -0.0382 -0.7731
 1466SOL    HW115860   2.465   3.683  10.535 -0.1793 -0.3543 -1.0321
 1466SOL    HW215861   2.456   3.536  10.556  1.2707 -0.4801  0.1963
 1467SOL     OW15862   0.037   2.435   6.327  0.0203 -0.0903  0.1308
 1467SOL    HW115863   0.094   2.482   6.266 -2.4984 -0.5630 -2.5801
 1467SOL    HW215864   4.683   2.491   6.322 -0.5129 -0.7541  1.0136
 1468SOL     OW15865   3.094   3.756  15.292  0.0756 -0.2809  0.3623
 1468SOL    HW115866   3.161   3.784  15.355  1.2234  1.6756 -1.6994
 1468SOL    HW215867   3.096   3.828  15.229  0.3972  1.1470  2.0143
 1469SOL     OW15868   0.044   4.279   6.384 -0.1331  0.7277  0.1701
 1469SOL    HW115869   0.057   4.352   6.445 -2.7493  0.8837  0.5729
 1469SOL    HW215870   0.100   4.300   6.310 -0.2859  0.0401 -0.1342
 1470SOL     OW15871   3.725   2.853   3.496  0.4473 -0.2319  0.7688
 1470SOL    HW115872   3.766   2.818   3.417  2.2530  0.6636  1.3048
 1470SOL    HW215873   3.712   2.946   3.475  1.1993  0.3868  2.9938
 1471SOL     OW15874   1.683   2.292   5.782 -0.4056  0.3784  0.0986
 1471SOL    HW115875   1.751   2.228   5.762  1.3549  2.0157  0.9487
 1471SOL    HW215876   1.599   2.249   5.762 -1.1496  1.3685  1.0902
 1472SOL     OW15877   3.772   1.592   7.282 -0.0766 -0.4794 -0.1582
 1472SOL    HW115878   3.780   1.499   7.304 -0.1240 -0.5765 -0.5454
 1472SOL    HW215879   3.714   1.629   7.348 -0.9692 -1.5199 -0.3641
 1473SOL     OW15880   0.065   4.029   5.441 -0.1885 -0.2675 -0.7628
 1473SOL    HW115881   0.146   4.025   5.391 -0.0540  0.1057 -0.5812
 1473SOL    HW215882   0.056   3.937   5.465  0.1558 -0.7116 -2.3607
 1474SOL     OW15883   3.790   3.988   3.734 -0.5831 -0.0887  0.3513
 1474SOL    HW115884   3.784   3.987   3.829  1.0678  0.7338  0.4636
 1474SOL    HW215885   3.886   3.985   3.735 -0.6113 -0.0435  2.6069
 1475SOL     OW15886   0.561   3.938  12.230 -1.0147 -0.2095  0.3173
 1475SOL    HW115887   0.506   4.000  12.181 -2.0375 -1.7408 -0.4992
 1475SOL    HW215888   0.554   3.983  12.314 -3.2968  0.3485 -0.1558
 1476SOL     OW15889   2.872   3.428   6.628 -0.2295  1.1986  0.1935
 1476SOL    HW115890   2.882   3.442   6.534 -0.0870  0.4101  0.0910
 1476SOL    HW215891   2.825   3.345   6.619  1.5288  0.3602 -1.3841
 1477SOL     OW15892   0.045   1.924  11.163 -0.1637  0.0141  0.0689
 1477SOL    HW115893   0.138   1.940  11.176  0.0042 -2.2668  1.7263
 1477SOL    HW215894   0.011   2.013  11.175  0.6883  0.1602  1.3663
 1478SOL     OW15895   3.494   0.208  17.395  0.2208 -0.8615 -0.2675
 1478SOL    HW115896   3.444   0.135  17.431 -0.3729 -0.4156 -0.2007
 1478SOL    HW215897   3.568   0.169  17.347  0.3824 -0.6778 -0.1658
 1479SOL     OW15898   3.922   2.651   8.952 -0.1915  0.0677 -0.0396
 1479SOL    HW115899   3.899   2.713   8.884 -0.3414 -1.1120 -1.0658
 1479SOL    HW215900   3.966   2.708   9.015 -1.4969  2.1377 -1.0103
 1480SOL     OW15901   2.801   3.273  10.041 -0.1353 -0.3180 -0.2045
 1480SOL    HW115902   2.809   3.262  10.136 -0.2627 -0.0697 -0.1663
 1480SOL    HW215903   2.891   3.256  10.015  0.4185 -1.1814  2.2278
 1481SOL     OW15904   2.921   0.974   0.547 -0.4403 -0.3487 -0.5888
 1481SOL    HW115905   2.858   0.910   0.580 -0.4248  0.4110  0.8823
 1481SOL    HW215906   3.003   0.925   0.553 -0.9132 -1.0056  0.5352
 1482SOL     OW15907   2.163   3.279  15.854 -1.5011  0.4990 -0.0118
 1482SOL    HW115908   2.181   3.189  15.881 -0.8017  0.5682 -0.2641
 1482SOL    HW215909   2.070   3.272  15.834 -1.1267  0.3194 -1.6479
 1483SOL     OW15910   4.125   3.309  17.209  0.2801 -0.2770 -0.1683
 1483SOL    HW115911   4.173   3.349  17.281  1.4820  0.6490 -1.4743
 1483SOL    HW215912   4.040   3.285  17.245  0.7448  1.5249  2.1136
 1484SOL     OW15913   4.523   1.227   4.972  0.1792 -0.1231 -0.4250
 1484SOL    HW115914   4.511   1.301   5.031 -0.1095  0.0620 -0.7198
 1484SOL    HW215915   4.440   1.182   4.986 -0.8901  1.1961 -2.7755
 1485SOL     OW15916   4.609   1.027   4.530 -0.3030 -0.0088 -0.5099
 1485SOL    HW115917   4.558   1.043   4.451 -0.0532 -4.1099 -1.5376
 1485SOL    HW215918   4.540   1.048   4.594  0.9405  1.8629  0.2125
 1486SOL     OW15919   2.355   1.321  11.992 -0.0693 -0.5858 -0.2981
 1486SOL    HW115920   2.401   1.305  12.074 -1.6826 -3.1919  0.0808
 1486SOL    HW215921   2.395   1.407  11.975  0.3182 -0.8449 -0.7008
 1487SOL     OW15922   3.109   4.587   5.760  0.3716 -0.2206  0.5068
 1487SOL    HW115923   3.100   4.493   5.744  0.7833 -0.1455 -0.1775
 1487SOL    HW215924   3.024   4.609   5.800 -0.0723 -1.5672  0.2993
 1488SOL     OW15925   3.644   1.510  11.290  0.3054  0.0363  0.5142
 1488SOL    HW115926   3.668   1.461  11.211  0.0702  1.7064 -0.5993
 1488SOL    HW215927   3.548   1.516  11.292  0.2216 -1.6521  1.4471
 1489SOL     OW15928   3.483   3.327   9.716 -0.0380  0.6311 -0.1710
 1489SOL    HW115929   3.440   3.410   9.736 -2.0025 -0.9053  1.9897
 1489SOL    HW215930   3.467   3.331   9.621 -3.3559  2.1222  0.4437
 1490SOL     OW15931   2.753   1.755  11.821  0.0002  0.1211 -0.1168
 1490SOL    HW115932   2.806   1.675  11.828  0.0827  0.1947  0.0981
 1490SOL    HW215933   2.674   1.707  11.845 -0.3159  0.8814  0.3724
 1491SOL     OW15934   0.762   4.312   5.318 -0.0480  0.3308 -0.3962
 1491SOL    HW115935   0.816   4.385   5.289 -0.0442  0.6046  0.2947
 1491SOL    HW215936   0.800   4.280   5.400  2.5716 -2.5411 -2.7161
 1492SOL     OW15937   3.513   1.225  12.969  0.3040 -0.2595 -0.0046
 1492SOL    HW115938   3.565   1.206  13.047  0.7265  0.6371 -0.0633
 1492SOL    HW215939   3.582   1.246  12.906  1.1018  1.6247  1.5064
 1493SOL     OW15940   3.823   2.361   4.373 -0.4286 -0.1593  0.0398
 1493SOL    HW115941   3.875   2.353   4.452 -0.6911 -1.6572  0.0608
 1493SOL    HW215942   3.771   2.439   4.394  0.4383  0.8483 -1.4794
 1494SOL     OW15943   2.132   0.270   4.512 -0.2532 -0.1780 -0.3831
 1494SOL    HW115944   2.221   0.303   4.521 -0.4478  0.2032  0.1606
 1494SOL    HW215945   2.158   0.178   4.508 -2.6366 -0.8351 -0.6515
 1495SOL     OW15946   3.134   0.509   1.263  0.0577 -0.4004 -0.3511
 1495SOL    HW115947   3.127   0.491   1.169  1.7259  0.0333 -0.5669
 1495SOL    HW215948   3.123   0.604   1.265 -0.7023 -0.4534 -1.9200
 1496SOL     OW15949   1.270   0.269   5.621 -0.1225  1.0090  0.2520
 1496SOL    HW115950   1.356   0.258   5.661  0.2878  3.6655  0.0858
 1496SOL    HW215951   1.290   0.301   5.534 -0.0915  1.5759  0.4708
 1497SOL     OW15952   3.728   0.455   7.709 -0.1831  0.4070  0.1122
 1497SOL    HW115953   3.791   0.525   7.692  0.0830 -0.2186 -1.5299
 1497SOL    HW215954   3.648   0.477   7.662 -1.2489  0.8676  2.1253
 1498SOL     OW15955   1.415   2.294   4.336  0.2103 -0.3660 -0.5881
 1498SOL    HW115956   1.472   2.369   4.353 -0.2979 -0.4585  1.5151
 1498SOL    HW215957   1.338   2.339   4.302 -0.0377 -2.4532 -2.7667
 1499SOL     OW15958   2.552   2.835  13.390 -0.7799  0.3803  0.3739
 1499SOL    HW115959   2.527   2.743  13.380 -0.6553  0.2012  1.7287
 1499SOL    HW215960   2.626   2.823  13.449 -0.5258  1.8512  0.3391
 1500SOL     OW15961   3.369   2.392  12.125  0.6229 -0.0626 -0.4016
 1500SOL    HW115962   3.425   2.354  12.192 -0.6181 -0.0655  0.6237
 1500SOL    HW215963   3.376   2.482  12.154  2.9247  0.2170 -1.8249
 1501SOL     OW15964   2.004   2.913   9.069 -0.4839 -0.1075  0.1317
 1501SOL    HW115965   1.915   2.937   9.042 -0.1223  1.4507  0.3331
 1501SOL    HW215966   2.005   2.896   9.163 -1.5047 -1.3252 -0.0775
 1502SOL     OW15967   4.665   2.618   6.816 -0.6795 -0.2892  0.4043
 1502SOL    HW115968   0.022   2.570   6.793  0.7566  2.0434  0.5760
 1502SOL    HW215969   4.700   2.689   6.870 -0.7916  0.9994 -1.2499
 1503SOL     OW15970   0.944   4.626   8.433  0.5398  0.5948  0.4225
 1503SOL    HW115971   0.861   4.598   8.394  1.2307 -0.1758 -0.4791
 1503SOL    HW215972   0.920   4.674   8.512  0.9333 -1.8190  2.0190
 1504SOL     OW15973   4.632   3.847   2.596 -0.1064 -0.6103  0.0616
 1504SOL    HW115974   4.678   3.892   2.525 -1.4435 -0.4675 -0.6927
 1504SOL    HW215975   4.701   3.857   2.663 -0.6196 -0.4976  0.5716
 1505SOL     OW15976   0.594   3.884   3.053 -0.2117  0.2376 -0.6055
 1505SOL    HW115977   0.562   3.808   3.102 -2.5932  0.1133 -2.3566
 1505SOL    HW215978   0.508   3.897   3.012  0.4897  1.5977 -1.6443
 1506SOL     OW15979   4.021   1.967  15.226  0.5377 -0.0091 -0.0341
 1506SOL    HW115980   3.935   1.926  15.231  1.2290 -2.0003 -4.8820
 1506SOL    HW215981   4.011   2.019  15.147  0.1770  1.4289  0.9441
 1507SOL     OW15982   3.591   2.178   4.962  0.5492  0.7664 -0.3188
 1507SOL    HW115983   3.610   2.172   4.868  1.8840  0.2988 -0.0100
 1507SOL    HW215984   3.497   2.170   4.946  0.8037 -0.3922 -1.2014
 1508SOL     OW15985   0.255   1.459   6.195  0.0769  0.2490 -0.0954
 1508SOL    HW115986   0.306   1.504   6.128  3.3459  0.2565  2.3462
 1508SOL    HW215987   0.226   1.533   6.249  0.0455 -0.3997  0.7822
 1509SOL     OW15988   0.766   0.114   5.226 -0.6398  0.6000 -0.1132
 1509SOL    HW115989   0.778   0.071   5.311  3.4175 -2.6902 -2.3080
 1509SOL    HW215990   0.672   0.129   5.227 -0.6207  0.5568  1.7600
 1510SOL     OW15991   3.269   4.059   8.034 -0.1757 -0.0848  0.5766
 1510SOL    HW115992   3.364   4.044   8.039  0.2039  0.6565 -4.4158
 1510SOL    HW215993   3.258   4.131   8.096  0.4866  0.2264  0.3309
 1511SOL     OW15994   2.082   4.682   2.137 -0.1327  0.2311  0.3387
 1511SOL    HW115995   2.024   0.017   2.187 -0.5509  0.9767 -1.0202
 1511SOL    HW215996   2.139   0.026   2.101  0.1017  0.8325  1.8435
 1512SOL     OW15997   2.901   1.233   4.757  0.3325 -1.1019  0.2865
 1512SOL    HW115998   2.983   1.195   4.791  0.2124  0.3131  2.1666
 1512SOL    HW215999   2.915   1.211   4.665  1.3990  2.0004 -0.2816
 1513SOL     OW16000   2.712   1.502   3.821  0.3617 -0.3881 -0.0312
 1513SOL    HW116001   2.757   1.559   3.883 -0.0280  1.0634 -1.0818
 1513SOL    HW216002   2.625   1.513   3.860  0.4694  0.6206 -0.0776
 1514SOL     OW16003   3.285   1.051   3.474 -0.5262 -0.0831 -0.3716
 1514SOL    HW116004   3.239   0.977   3.513  0.0955 -0.2934 -0.0342
 1514SOL    HW216005   3.366   1.011   3.444 -0.5216  0.5693 -1.2476
 1515SOL     OW16006   1.983   4.035  13.026  0.0720  0.1180  0.1534
 1515SOL    HW116007   2.052   3.972  13.049 -1.3204 -0.8660  1.6278
 1515SOL    HW216008   1.986   4.098  13.098  0.1603  0.8816 -0.5170
 1516SOL     OW16009   0.183   1.165   2.680  0.5648  0.4311  0.0904
 1516SOL    HW116010   0.227   1.098   2.629  1.0661 -0.5769  1.8713
 1516SOL    HW216011   0.196   1.125   2.766 -0.9984 -0.8773 -0.2789
 1517SOL     OW16012   2.777   3.474   3.065 -0.0249  0.8778 -0.1989
 1517SOL    HW116013   2.726   3.428   3.132 -0.6554  3.7074  1.2809
 1517SOL    HW216014   2.805   3.403   3.007 -0.6304  0.0023  0.5809
 1518SOL     OW16015   3.479   0.551   7.609 -0.1842 -0.1390 -0.3501
 1518SOL    HW116016   3.413   0.572   7.675  0.3657 -2.7826  1.0087
 1518SOL    HW216017   3.494   0.642   7.581 -0.4481  0.2029  0.6092
 1519SOL     OW16018   2.206   1.839   8.202  0.7019  0.1458 -0.2445
 1519SOL    HW116019   2.298   1.859   8.187  1.3609 -1.5918  1.4480
 1519SOL    HW216020   2.183   1.925   8.239  0.3284 -0.8703  1.9053
 1520SOL     OW16021   3.764   0.892   1.799  0.3070  0.4011 -0.5713
 1520SOL    HW116022   3.765   0.824   1.867  0.6729  1.4177  0.4404
 1520SOL    HW216023   3.823   0.852   1.735 -0.0603 -0.1405 -0.5717
 1521SOL     OW16024   0.880   2.055   6.266 -0.1469 -0.3425  0.3660
 1521SOL    HW116025   0.939   1.981   6.281  0.7445  0.2768 -0.0747
 1521SOL    HW216026   0.855   2.066   6.358  1.0268 -0.1643  0.6669
 1522SOL     OW16027   3.745   3.005  10.213  0.2286 -0.4686 -0.2586
 1522SOL    HW116028   3.803   2.929  10.213  0.9472  0.0868  1.2812
 1522SOL    HW216029   3.796   3.056  10.149  0.5340 -1.5494 -0.8802
 1523SOL     OW16030   2.759   3.262   1.830 -0.1057  0.6270 -0.2602
 1523SOL    HW116031   2.752   3.170   1.806 -0.6537  0.0166  2.1996
 1523SOL    HW216032   2.726   3.304   1.752 -1.5420  0.3332  0.1890
 1524SOL     OW16033   3.513   2.118   6.136 -0.1164 -0.7201 -0.7149
 1524SOL    HW116034   3.588   2.073   6.173  0.7690 -0.4745 -2.1994
 1524SOL    HW216035   3.518   2.207   6.172 -0.2224 -1.2208  0.5069
 1525SOL     OW16036   1.868   2.776  10.154  0.1665 -0.0041  0.5037
 1525SOL    HW116037   1.825   2.840  10.211  0.4492 -0.5129  1.2899
 1525SOL    HW216038   1.882   2.837  10.081 -0.2658 -0.3144  0.1601
 1526SOL     OW16039   4.417   1.436  12.876  0.3628 -0.1480 -0.4507
 1526SOL    HW116040   4.455   1.515  12.839  0.4325 -0.6281 -1.4161
 1526SOL    HW216041   4.377   1.465  12.958 -2.6823 -1.8578 -1.3358
 1527SOL     OW16042   2.414   1.157  11.181 -0.3148 -0.7843 -0.4735
 1527SOL    HW116043   2.363   1.208  11.243 -1.0518 -0.5719 -1.2660
 1527SOL    HW216044   2.358   1.171  11.105 -1.6852  1.9580  1.0404
 1528SOL     OW16045   3.896   4.279   5.167  0.1911 -0.3953 -0.1670
 1528SOL    HW116046   3.863   4.253   5.081 -0.5674  1.7550 -0.5098
 1528SOL    HW216047   3.956   4.208   5.192  1.9546 -0.8264 -5.7016
 1529SOL     OW16048   1.831   4.210   0.782 -0.1976  0.6854  0.1231
 1529SOL    HW116049   1.852   4.208   0.876 -0.1717 -1.4118  0.0770
 1529SOL    HW216050   1.736   4.207   0.798 -0.0193 -1.1824  0.9179
 1530SOL     OW16051   2.835   0.149  12.186 -0.3270 -0.3797 -0.3030
 1530SOL    HW116052   2.921   0.183  12.210 -0.1563 -1.1274  0.1257
 1530SOL    HW216053   2.791   0.137  12.270  0.5489 -2.5347 -0.1653
 1531SOL     OW16054   0.796   0.595   3.075  0.1709  0.1203 -0.2797
 1531SOL    HW116055   0.806   0.633   2.987 -0.4255 -1.5445 -1.0579
 1531SOL    HW216056   0.804   0.503   3.050  1.1915  0.1072  0.0974
 1532SOL     OW16057   1.851   0.882  14.508  0.3721  0.1099 -0.3662
 1532SOL    HW116058   1.900   0.956  14.473 -0.7225  0.6125 -0.8337
 1532SOL    HW216059   1.819   0.841  14.428  0.3914  0.5809 -0.6162
 1533SOL     OW16060   1.642   4.064  17.571  0.2351  0.0292 -0.1558
 1533SOL    HW116061   1.629   4.159  17.580 -0.4477 -0.0819  0.0235
 1533SOL    HW216062   1.581   4.042  17.501  0.2334  0.6815 -0.3606
 1534SOL     OW16063   2.374   1.488   7.438  0.0337 -0.0397 -0.6551
 1534SOL    HW116064   2.418   1.568   7.468  1.8409 -1.4307  0.4285
 1534SOL    HW216065   2.409   1.483   7.349 -2.0309 -1.5253 -1.3655
 1535SOL     OW16066   1.242   1.284   3.518  0.3922 -0.1946 -0.3963
 1535SOL    HW116067   1.198   1.256   3.438  1.3544  1.3477 -1.4804
 1535SOL    HW216068   1.325   1.239   3.504 -0.7725 -2.9880  1.8222
 1536SOL     OW16069   2.864   1.236  16.665  0.1903 -0.8894  0.7161
 1536SOL    HW116070   2.891   1.319  16.704  2.2772 -0.5420 -1.4676
 1536SOL    HW216071   2.921   1.219  16.590  0.0395  2.3631 -0.1059
 1537SOL     OW16072   0.709   0.907   4.200  0.2199  0.0664 -0.4236
 1537SOL    HW116073   0.765   0.845   4.154  0.0090 -1.1415  0.9752
 1537SOL    HW216074   0.677   0.958   4.125 -1.3463  0.9005  0.8173
 1538SOL     OW16075   4.555   1.835   8.497 -0.0579  0.3700  0.3266
 1538SOL    HW116076   4.631   1.857   8.442 -0.1318  0.1483  0.1331
 1538SOL    HW216077   4.591   1.794   8.575  0.3391  2.2803  1.1521
 1539SOL     OW16078   3.158   0.743   5.252 -0.2921  0.2943 -0.0529
 1539SOL    HW116079   3.093   0.756   5.183 -0.8518  0.4785  0.5093
 1539SOL    HW216080   3.106   0.694   5.315  2.6384 -3.1170 -0.2690
 1540SOL     OW16081   1.242   2.977  14.403  0.1111  0.1386 -0.2093
 1540SOL    HW116082   1.283   2.999  14.320  0.2204 -0.4962 -0.3250
 1540SOL    HW216083   1.317   2.948  14.456  0.8052 -0.8927 -1.7547
 1541SOL     OW16084   0.858   4.595  17.603  0.4713 -0.0228 -0.0047
 1541SOL    HW116085   0.803   4.650  17.547 -0.8175 -0.7030  0.6112
 1541SOL    HW216086   0.802   4.520  17.621 -1.3342  0.5240 -3.5239
 1542SOL     OW16087   4.004   4.432   0.347  0.1061 -0.2583  0.2264
 1542SOL    HW116088   4.012   4.412   0.441 -0.5785  1.0554  0.5601
 1542SOL    HW216089   4.029   4.349   0.306  0.6652 -0.7194  1.4976
 1543SOL     OW16090   0.602   1.200  10.529 -0.3709  0.0298  0.0847
 1543SOL    HW116091   0.698   1.205  10.523 -0.2217  0.3721  2.6414
 1543SOL    HW216092   0.592   1.146  10.607  1.2695 -2.4676 -1.4177
 1544SOL     OW16093   4.100   0.062   7.596 -0.1786  0.1563 -0.3883
 1544SOL    HW116094   4.007   0.048   7.612  0.4189 -3.1270  0.2207
 1544SOL    HW216095   4.107   0.048   7.502  0.9084  2.3005 -0.6151
 1545SOL     OW16096   1.000   4.298  13.487  0.1705  0.1143  0.1654
 1545SOL    HW116097   1.070   4.236  13.508 -1.4747 -1.8393 -0.0017
 1545SOL    HW216098   1.042   4.368  13.438  1.8970 -1.5230 -0.7181
 1546SOL     OW16099   4.535   4.582   5.354 -0.4536 -0.2222  1.2161
 1546SOL    HW116100   4.547   4.597   5.448  1.3339 -1.1901  1.1431
 1546SOL    HW216101   4.510   4.490   5.353  0.0794 -0.3550  0.2276
 1547SOL     OW16102   2.772   0.560   7.068 -0.2567  0.4771  0.5276
 1547SOL    HW116103   2.759   0.465   7.062 -0.1167  0.4990 -0.1138
 1547SOL    HW216104   2.779   0.579   6.974  1.3759  0.0941  0.5842
 1548SOL     OW16105   2.758   0.522   4.270  0.1233 -0.2118  0.3866
 1548SOL    HW116106   2.802   0.468   4.204 -0.7385  1.2080 -1.3774
 1548SOL    HW216107   2.830   0.582   4.290  0.4800 -1.3051  2.3315
 1549SOL     OW16108   1.182   2.689   0.913 -0.6086  0.3378 -0.2520
 1549SOL    HW116109   1.266   2.652   0.884 -0.6078  1.0198 -1.1158
 1549SOL    HW216110   1.133   2.698   0.831  0.9218 -0.5273 -1.2631
 1550SOL     OW16111   1.936   2.429  11.294  0.1977 -0.5597 -0.1164
 1550SOL    HW116112   1.917   2.412  11.386  0.5139 -1.8109 -0.2678
 1550SOL    HW216113   2.025   2.392  11.289  0.3784  0.0531 -1.4447
 1551SOL     OW16114   1.765   1.354   2.405  0.0926  0.3731  0.3267
 1551SOL    HW116115   1.732   1.362   2.495  1.9933 -0.0598  1.0817
 1551SOL    HW216116   1.712   1.411   2.350  0.8677  1.2517  0.4929
 1552SOL     OW16117   0.135   1.924   6.402 -0.0209  0.3075  0.1465
 1552SOL    HW116118   0.145   1.931   6.496 -0.2598 -0.8674  0.2605
 1552SOL    HW216119   0.070   1.992   6.385  0.4877  0.7389 -0.1109
 1553SOL     OW16120   3.093   2.405  14.579 -0.4622  0.6790 -0.3545
 1553SOL    HW116121   3.159   2.340  14.554 -2.4520 -2.0631  1.6183
 1553SOL    HW216122   3.073   2.367  14.664  0.7070  0.2040 -0.2983
 1554SOL     OW16123   2.885   2.308   6.729 -0.0592  0.1401  0.4894
 1554SOL    HW116124   2.896   2.213   6.723 -0.3474  0.1023  0.5647
 1554SOL    HW216125   2.954   2.335   6.668 -0.2137  0.5760  0.5033
 1555SOL     OW16126   0.563   1.165   6.341  0.5897 -0.1168  0.2951
 1555SOL    HW116127   0.494   1.223   6.372  1.7794  1.4196  0.0639
 1555SOL    HW216128   0.582   1.205   6.256  1.4975  1.1071  1.0748
 1556SOL     OW16129   1.860   3.795   0.531 -0.7805 -0.2179  0.5043
 1556SOL    HW116130   1.878   3.784   0.438 -1.9139 -1.3224  0.4080
 1556SOL    HW216131   1.775   3.837   0.545 -1.3809 -1.7723  1.5025
 1557SOL     OW16132   3.459   0.303   7.889  0.0715  0.3142 -0.3126
 1557SOL    HW116133   3.478   0.397   7.878 -2.3896  0.9647  1.0627
 1557SOL    HW216134   3.530   0.281   7.949 -0.2810 -1.9637 -0.7301
 1558SOL     OW16135   1.817   4.508   8.721  0.0207 -0.2769 -0.1265
 1558SOL    HW116136   1.901   4.551   8.703 -0.1905  0.8780  1.6267
 1558SOL    HW216137   1.821   4.505   8.816  0.2117  1.3140 -0.0918
 1559SOL     OW16138   3.530   1.097   4.174  0.3436  0.0705 -0.5212
 1559SOL    HW116139   3.461   1.054   4.123 -1.5057 -0.1256  2.1181
 1559SOL    HW216140   3.585   1.020   4.181 -0.1954 -0.1829  0.9010
 1560SOL     OW16141   2.114   0.191   5.698 -0.0809  0.0713  0.1205
 1560SOL    HW116142   2.022   0.174   5.718 -1.2520  3.2384 -2.5496
 1560SOL    HW216143   2.146   0.184   5.788 -0.6782  2.9710  0.5472
 1561SOL     OW16144   1.459   0.694   5.849  0.1448  0.1317  0.8559
 1561SOL    HW116145   1.487   0.693   5.940  0.7282 -2.6607  0.6272
 1561SOL    HW216146   1.364   0.702   5.864 -0.3192  0.7934 -2.3986
 1562SOL     OW16147   4.448   2.380  10.641 -0.0906 -0.2349 -0.4876
 1562SOL    HW116148   4.542   2.366  10.657  0.3834  1.8457 -1.4689
 1562SOL    HW216149   4.425   2.385  10.734  1.5607 -1.9788  0.0186
 1563SOL     OW16150   3.345   2.664   5.771 -0.1484  0.0064 -0.4269
 1563SOL    HW116151   3.292   2.744   5.769  0.8163  0.6139 -1.5252
 1563SOL    HW216152   3.370   2.657   5.863 -2.0608 -2.1260 -0.0469
 1564SOL     OW16153   1.866   1.226   9.373  0.5924 -0.2196  0.1529
 1564SOL    HW116154   1.771   1.230   9.364  0.4743  0.8334  1.9157
 1564SOL    HW216155   1.889   1.318   9.360 -1.0773  0.4609  2.1507
 1565SOL     OW16156   4.319   2.107   1.384  0.1456  0.1775  0.2887
 1565SOL    HW116157   4.379   2.174   1.353  0.2194 -0.4951 -1.0378
 1565SOL    HW216158   4.379   2.032   1.391 -2.2103 -1.6860  0.7541
 1566SOL     OW16159   2.870   2.272   8.161 -0.3842 -0.2266 -0.0143
 1566SOL    HW116160   2.835   2.321   8.236  2.1555 -1.2011  1.8315
 1566SOL    HW216161   2.960   2.302   8.169  0.7452 -3.4954 -0.5145
 1567SOL     OW16162   3.451   1.106  17.283  0.0490  0.2345 -0.1370
 1567SOL    HW116163   3.501   1.063  17.353 -0.9247  0.9175  0.9726
 1567SOL    HW216164   3.514   1.175  17.262 -0.0283  0.0095 -1.1092
 1568SOL     OW16165   1.466   1.584   0.918 -0.0726  0.4711 -0.2180
 1568SOL    HW116166   1.441   1.494   0.942  1.6758 -0.5803 -2.3399
 1568SOL    HW216167   1.544   1.587   0.973 -0.2074  0.7316 -0.0426
 1569SOL     OW16168   2.850   2.152   8.539  0.6108  0.1168  0.5781
 1569SOL    HW116169   2.775   2.180   8.592  1.7018 -1.1537  2.7757
 1569SOL    HW216170   2.809   2.152   8.452  0.8057  0.7163  0.4846
 1570SOL     OW16171   4.070   4.354   0.605  0.6053 -0.4254  0.2618
 1570SOL    HW116172   4.149   4.303   0.586  1.3322  0.0958  1.9710
 1570SOL    HW216173   4.033   4.297   0.673  0.8753 -1.2227 -0.2542
 1571SOL     OW16174   3.285   1.224  10.786  0.0610 -0.9527 -0.4527
 1571SOL    HW116175   3.299   1.132  10.807 -2.2179 -1.1844  0.0525
 1571SOL    HW216176   3.358   1.230  10.725 -0.4862  0.1513 -1.0077
 1572SOL     OW16177   1.321   1.254   9.107  0.0786 -0.6411 -0.2068
 1572SOL    HW116178   1.229   1.280   9.098  0.2657 -0.1632 -0.7408
 1572SOL    HW216179   1.345   1.287   9.194 -0.9605  0.4202 -0.3243
 1573SOL     OW16180   4.421   2.211  11.187  0.3418  0.2213 -0.1558
 1573SOL    HW116181   4.406   2.130  11.236 -1.1300  0.7989  0.3590
 1573SOL    HW216182   4.434   2.269  11.261  1.2685 -1.2443  0.8216
 1574SOL     OW16183   0.577   3.774   5.170 -0.0104 -0.6310 -0.1225
 1574SOL    HW116184   0.558   3.693   5.124  1.9440 -1.1112 -0.0789
 1574SOL    HW216185   0.573   3.840   5.101 -1.5513  0.4093  0.9676
 1575SOL     OW16186   1.249   4.137  11.836 -0.4057  0.3963 -0.1483
 1575SOL    HW116187   1.313   4.130  11.766 -0.1022 -2.0301  0.3808
 1575SOL    HW216188   1.216   4.051  11.862  0.2624  0.1966  0.0346
 1576SOL     OW16189   4.679   1.988   8.805 -0.0033  0.4209 -0.0077
 1576SOL    HW116190   4.698   1.909   8.754  2.2573 -0.2805  1.9756
 1576SOL    HW216191   0.038   2.037   8.801  0.9011 -0.9848  1.1440
 1577SOL     OW16192   4.126   0.958   3.108 -0.2210 -0.2023 -0.1268
 1577SOL    HW116193   4.171   1.024   3.055 -1.7987 -0.2643 -1.5648
 1577SOL    HW216194   4.194   0.897   3.136  0.2657  1.0076  1.3640
 1578SOL     OW16195   3.319   1.119   9.270  0.3638  0.6524 -0.5584
 1578SOL    HW116196   3.384   1.106   9.339  2.7520  2.5806 -2.4586
 1578SOL    HW216197   3.380   1.106   9.197  1.7564 -1.2697  0.9305
 1579SOL     OW16198   2.534   1.587  15.750  0.5443 -0.0588 -0.4084
 1579SOL    HW116199   2.488   1.598  15.667 -0.9311 -2.6003  0.0970
 1579SOL    HW216200   2.578   1.671  15.760 -1.2564  0.8678 -0.1951
 1580SOL     OW16201   0.577   2.689   1.810 -0.5551 -0.2618  0.3520
 1580SOL    HW116202   0.643   2.706   1.877  0.8096  1.8838 -1.5286
 1580SOL    HW216203   0.494   2.682   1.858 -0.3469  1.6561  0.9998
 1581SOL     OW16204   0.480   2.008   4.438  0.5233 -0.7073  0.2189
 1581SOL    HW116205   0.532   1.949   4.492  2.5217  3.2357  2.6130
 1581SOL    HW216206   0.395   1.978   4.471  0.3958 -1.6359 -0.9631
 1582SOL     OW16207   1.846   1.128   2.989  0.0820  0.5911 -0.7262
 1582SOL    HW116208   1.840   1.051   2.933 -0.8582  0.8045 -0.9160
 1582SOL    HW216209   1.922   1.175   2.956  0.2734  0.8264  0.0316
 1583SOL     OW16210   4.261   3.536  13.401  0.0237 -0.2703 -0.5593
 1583SOL    HW116211   4.179   3.561  13.443  0.3078  1.7502 -1.2104
 1583SOL    HW216212   4.273   3.452  13.446 -1.3565 -1.1963 -1.9218
 1584SOL     OW16213   1.187   1.648   4.367 -0.0120  0.5164 -0.0489
 1584SOL    HW116214   1.205   1.603   4.285 -2.6583 -0.1219 -0.2853
 1584SOL    HW216215   1.262   1.612   4.413  0.0027  0.1269 -0.3817
 1585SOL     OW16216   2.941   3.584   2.796 -0.5714  0.0571  0.3051
 1585SOL    HW116217   2.887   3.529   2.739 -0.1515  0.5657 -0.5753
 1585SOL    HW216218   2.959   3.530   2.873 -1.7910 -2.1563 -0.9412
 1586SOL     OW16219   0.711   1.015   8.404 -0.1726 -0.4016  0.3114
 1586SOL    HW116220   0.683   1.055   8.486 -0.6160 -0.8797  0.3904
 1586SOL    HW216221   0.724   0.924   8.431  2.6713  0.3695  1.5958
 1587SOL     OW16222   1.634   3.122   5.520 -0.1122 -0.2910  0.1787
 1587SOL    HW116223   1.602   3.049   5.574 -1.6725 -0.5674 -1.1149
 1587SOL    HW216224   1.589   3.192   5.567  2.1474 -0.7056  2.9547
 1588SOL     OW16225   1.487   3.181   0.133  0.1945 -0.2644 -0.3026
 1588SOL    HW116226   1.517   3.091   0.145 -0.9773 -0.5314  0.6537
 1588SOL    HW216227   1.535   3.228   0.200 -0.9974  1.3561 -0.5756
 1589SOL     OW16228   1.089   1.523   9.938 -0.7038  0.3247  0.7521
 1589SOL    HW116229   1.045   1.470   9.872  0.5377 -0.2885  0.4235
 1589SOL    HW216230   1.172   1.530   9.891 -1.2504 -2.9383 -0.6447
 1590SOL     OW16231   4.543   3.550  11.086  0.8578  0.4196  0.4361
 1590SOL    HW116232   4.626   3.517  11.050  0.3471 -2.5264  1.9136
 1590SOL    HW216233   4.503   3.587  11.007  0.8807 -0.0907  0.1853
 1591SOL     OW16234   2.255   2.538   4.978 -0.4416  0.1102 -0.2503
 1591SOL    HW116235   2.258   2.444   4.994 -0.7555  0.2522  0.6502
 1591SOL    HW216236   2.222   2.576   5.059 -1.0492  1.7858 -1.2729
 1592SOL     OW16237   2.609   4.634   7.031 -0.0497  0.2968  0.1466
 1592SOL    HW116238   2.587   4.632   6.938 -1.0206  1.1822  0.3542
 1592SOL    HW216239   2.603   0.004   7.055 -0.7810  0.5976 -1.1585
 1593SOL     OW16240   0.012   1.749   8.668 -0.2837 -0.1389 -0.4794
 1593SOL    HW116241   0.012   1.678   8.604 -2.8008 -0.9512  0.4065
 1593SOL    HW216242   0.080   1.723   8.730 -1.6449  0.3148  1.2204
 1594SOL     OW16243   2.424   4.205  11.880  0.4359  0.5653 -0.5819
 1594SOL    HW116244   2.428   4.234  11.788  0.7990 -2.1475 -1.4242
 1594SOL    HW216245   2.332   4.226  11.897  0.3651 -0.2216 -0.0053
 1595SOL     OW16246   3.802   0.886   5.332 -0.0509  0.3965  0.0669
 1595SOL    HW116247   3.830   0.851   5.248 -0.1678 -0.9454  0.5813
 1595SOL    HW216248   3.889   0.893   5.373  1.3631 -1.0691 -2.6745
 1596SOL     OW16249   0.640   1.253   2.200  0.0471  0.3623  1.1208
 1596SOL    HW116250   0.712   1.265   2.139 -1.2649 -1.0870 -0.7107
 1596SOL    HW216251   0.592   1.187   2.151 -1.1753  2.2439 -0.1894
 1597SOL     OW16252   1.958   4.329   7.927  0.3800 -0.5054 -0.3045
 1597SOL    HW116253   1.945   4.323   7.833 -3.2732 -0.1493  0.1808
 1597SOL    HW216254   1.886   4.385   7.955  0.2893  0.4714 -2.5497
 1598SOL     OW16255   2.714   1.376   6.318  0.4966  0.1120 -0.1535
 1598SOL    HW116256   2.775   1.310   6.350  0.9222  1.1784  1.2243
 1598SOL    HW216257   2.755   1.444   6.370 -0.2003  0.5327 -0.1534
 1599SOL     OW16258   3.632   4.306  17.156  0.4618  0.2269 -0.0029
 1599SOL    HW116259   3.616   4.386  17.206 -0.1268  0.2038 -0.1578
 1599SOL    HW216260   3.562   4.246  17.183 -0.4324  1.2598 -0.0467
 1600SOL     OW16261   1.029   4.479   4.768 -0.3462  0.0988 -0.0096
 1600SOL    HW116262   1.060   4.400   4.725 -1.9380 -1.2087  1.2433
 1600SOL    HW216263   1.035   4.534   4.690 -0.8622 -0.1085 -0.1991
 1601SOL     OW16264   0.252   4.329   2.983 -0.2864  0.0456 -0.1988
 1601SOL    HW116265   0.306   4.267   2.935  0.6321  2.2390 -1.9599
 1601SOL    HW216266   0.181   4.352   2.924 -0.0307 -0.5779 -0.7428
 1602SOL     OW16267   2.088   1.555   8.719  0.0812  0.0739  0.3369
 1602SOL    HW116268   2.017   1.586   8.774  1.6286  1.1905  1.7254
 1602SOL    HW216269   2.060   1.472   8.682  0.3803 -0.3666  1.0962
 1603SOL     OW16270   2.855   3.071  16.758 -0.0607 -0.1877  0.8373
 1603SOL    HW116271   2.860   3.164  16.736  0.1530 -0.1146  1.1836
 1603SOL    HW216272   2.887   3.032  16.677 -1.4521  1.2280 -0.4129
 1604SOL     OW16273   2.096   2.006   4.659  0.1848 -0.0981 -0.3539
 1604SOL    HW116274   2.137   1.920   4.672  0.8838  0.6670  2.5332
 1604SOL    HW216275   2.073   1.999   4.566  1.3269 -0.4056 -0.6239
 1605SOL     OW16276   3.979   0.067   1.480  0.1165 -0.0387 -0.4101
 1605SOL    HW116277   3.994   0.019   1.399 -0.2334 -0.3529 -0.2923
 1605SOL    HW216278   3.982   0.158   1.451  0.6979 -0.2695 -1.0654
 1606SOL     OW16279   1.946   0.800   5.652 -0.1548 -0.6040  0.0594
 1606SOL    HW116280   1.935   0.789   5.558  1.2883 -1.8118  0.0269
 1606SOL    HW216281   1.947   0.710   5.684  1.1701  0.0632  1.9105
 1607SOL     OW16282   3.886   3.691   9.308  0.1770  0.0520  0.1654
 1607SOL    HW116283   3.940   3.750   9.360 -1.0889  1.1479  0.2420
 1607SOL    HW216284   3.819   3.658   9.368 -0.2416  1.8484  0.6888
 1608SOL     OW16285   1.468   0.763  10.672 -0.3409  0.0059 -0.1194
 1608SOL    HW116286   1.472   0.841  10.617  0.8476  1.6057  2.2140
 1608SOL    HW216287   1.430   0.702  10.610  0.9533 -1.9132  0.9671
 1609SOL     OW16288   4.614   4.354   8.901  0.6028 -0.5221 -0.7439
 1609SOL    HW116289   4.676   4.283   8.913  1.4678  0.2581 -0.5994
 1609SOL    HW216290   4.576   4.332   8.816 -1.2801  0.3222 -0.1301
 1610SOL     OW16291   0.013   3.035   5.356  0.2335 -0.1249 -0.4560
 1610SOL    HW116292   0.055   3.079   5.282  2.0702  0.0425  0.6749
 1610SOL    HW216293   0.080   3.044   5.425 -0.7743  3.2754  0.1074
 1611SOL     OW16294   1.317   1.042   9.889 -0.3990  0.2512 -0.5684
 1611SOL    HW116295   1.308   1.080   9.977  1.5264 -0.7476  0.0702
 1611SOL    HW216296   1.229   1.026   9.855 -0.8039 -0.7527  0.9266
 1612SOL     OW16297   4.259   2.864  16.056  0.1389 -0.5776  0.1645
 1612SOL    HW116298   4.182   2.912  16.086 -0.2719 -2.3688  2.0000
 1612SOL    HW216299   4.328   2.929  16.047 -0.2635  0.0865  1.9082
 1613SOL     OW16300   3.642   0.074  16.468  0.0407 -0.3800  0.0349
 1613SOL    HW116301   3.630   0.093  16.561 -2.6062  3.5171 -1.1130
 1613SOL    HW216302   3.553   0.087  16.437  0.2047  0.7658  0.0547
 1614SOL     OW16303   1.250   2.190   3.313 -0.4943  0.9264 -0.1163
 1614SOL    HW116304   1.180   2.132   3.283  1.7891 -1.6132 -0.4891
 1614SOL    HW216305   1.217   2.279   3.299  2.7457  2.1796  0.2796
 1615SOL     OW16306   4.662   3.292   6.793  0.1778 -0.7790 -0.6101
 1615SOL    HW116307   4.666   3.207   6.749  2.1362 -0.9095 -0.1756
 1615SOL    HW216308   0.001   3.283   6.866  0.4935  0.5903 -0.7235
 1616SOL     OW16309   0.898   3.404   8.690  0.2524 -0.0956 -0.2861
 1616SOL    HW116310   0.847   3.391   8.610  2.8381  1.0259 -2.1135
 1616SOL    HW216311   0.836   3.452   8.745 -0.4035  0.3531 -1.4147
 1617SOL     OW16312   4.242   3.456   9.042  0.1876 -0.0933 -0.2367
 1617SOL    HW116313   4.255   3.529   8.981  1.5268  0.1991  0.3816
 1617SOL    HW216314   4.300   3.394   8.999  0.7152 -0.7790  1.4605
 1618SOL     OW16315   2.063   3.447   5.146 -0.1824  1.0504  0.5610
 1618SOL    HW116316   1.983   3.476   5.102 -0.0666  1.7180  0.7825
 1618SOL    HW216317   2.104   3.400   5.074  1.6580  2.3051  0.7812
 1619SOL     OW16318   3.096   0.227   7.532  0.8322  0.6058  0.0486
 1619SOL    HW116319   3.153   0.200   7.604 -0.6355  1.3213  1.4807
 1619SOL    HW216320   3.113   0.320   7.516  0.0985  0.5623 -0.9547
 1620SOL     OW16321   4.431   1.892  11.979  0.4212  0.4458  0.0708
 1620SOL    HW116322   4.416   1.805  12.016  1.0164 -0.3855 -1.5926
 1620SOL    HW216323   4.433   1.869  11.886 -0.4320  1.6075 -0.2264
 1621SOL     OW16324   4.325   0.921   0.475 -0.8237  0.6768 -0.0094
 1621SOL    HW116325   4.372   0.853   0.426 -1.8260  2.7320 -3.9004
 1621SOL    HW216326   4.237   0.884   0.477  0.1099 -1.4605  0.6180
 1622SOL     OW16327   2.621   0.242  12.051 -0.7839 -0.9927 -0.2646
 1622SOL    HW116328   2.690   0.216  12.111 -0.8809  0.0214  0.2882
 1622SOL    HW216329   2.676   0.308  12.009 -2.4693  0.1817 -0.6303
 1623SOL     OW16330   2.195   0.868   9.390  0.3993  0.3660  0.0766
 1623SOL    HW116331   2.115   0.823   9.416  0.3883 -0.2159 -0.9752
 1623SOL    HW216332   2.162   0.958   9.382 -3.9326 -1.1689  0.6230
 1624SOL     OW16333   0.584   2.590   7.083  0.2053 -0.0592  0.4321
 1624SOL    HW116334   0.645   2.519   7.101 -0.3269 -0.4603  0.6449
 1624SOL    HW216335   0.534   2.540   7.018  0.3143 -1.0711  1.1400
 1625SOL     OW16336   1.288   0.345   5.046 -0.0560  0.3923  0.5189
 1625SOL    HW116337   1.208   0.309   5.085 -1.2416  1.6585 -0.7701
 1625SOL    HW216338   1.339   0.264   5.040 -1.1974 -0.3076  0.0904
 1626SOL     OW16339   3.453   2.445  16.597  0.3260 -0.2604  0.0593
 1626SOL    HW116340   3.364   2.482  16.598  0.2227 -0.5100 -0.1192
 1626SOL    HW216341   3.431   2.357  16.568 -0.7877  0.3934 -1.1183
 1627SOL     OW16342   0.884   1.228  10.556  0.1599  0.1740  0.3647
 1627SOL    HW116343   0.893   1.323  10.544  2.6170 -0.0950  0.1352
 1627SOL    HW216344   0.921   1.222  10.644  0.3311 -0.1219  0.2722
 1628SOL     OW16345   0.569   3.813   2.324 -0.1888 -0.2971 -0.2256
 1628SOL    HW116346   0.655   3.788   2.360  0.3977  0.5496 -1.0354
 1628SOL    HW216347   0.571   3.772   2.238  1.4256  0.1489 -0.4002
 1629SOL     OW16348   3.026   0.096   8.898 -0.1857  0.1156 -0.1389
 1629SOL    HW116349   2.995   0.011   8.928 -1.9110  0.8862  0.2481
 1629SOL    HW216350   3.019   0.083   8.804 -0.9289 -2.6467  0.2804
 1630SOL     OW16351   2.711   3.934  13.547  0.2778  0.2745 -0.9843
 1630SOL    HW116352   2.719   4.017  13.501 -0.4740  0.8858 -0.0193
 1630SOL    HW216353   2.633   3.892  13.509 -0.3213 -0.5529  1.1785
 1631SOL     OW16354   2.479   3.449   4.641 -0.5099 -0.0617 -0.5655
 1631SOL    HW116355   2.556   3.405   4.676  2.1113  0.7467 -5.3134
 1631SOL    HW216356   2.420   3.378   4.616  0.6359 -1.3327  0.3365
 1632SOL     OW16357   2.831   3.270  10.316 -0.0855 -0.2330  0.2984
 1632SOL    HW116358   2.894   3.224  10.371 -2.1750 -1.2041  1.9132
 1632SOL    HW216359   2.860   3.362  10.316 -3.6123  0.9060  0.6464
 1633SOL     OW16360   0.536   0.716   2.851 -0.3401 -0.6413 -0.0001
 1633SOL    HW116361   0.463   0.742   2.796  0.9134  1.1157 -0.8015
 1633SOL    HW216362   0.544   0.624   2.824  0.7422 -0.4066 -0.4569
 1634SOL     OW16363   3.801   3.832   9.037  0.1869 -0.6861  0.4172
 1634SOL    HW116364   3.855   3.781   9.098  1.3980 -0.8517 -0.7938
 1634SOL    HW216365   3.792   3.919   9.076 -2.2865 -1.9213  2.6065
 1635SOL     OW16366   0.274   2.006  17.613  0.0688 -0.3169 -0.3910
 1635SOL    HW116367   0.326   1.957  17.678  1.0703 -0.8728 -1.6120
 1635SOL    HW216368   0.316   1.977  17.532  0.4412 -2.5724  0.6005
 1636SOL     OW16369   0.847   3.490   0.938  0.0132  0.4338  0.1941
 1636SOL    HW116370   0.803   3.435   1.003 -1.0106  0.1787 -0.7055
 1636SOL    HW216371   0.860   3.417   0.878  0.6935  0.5457  0.2139
 1637SOL     OW16372   2.162   2.896  17.359 -0.0809  0.1478  0.0053
 1637SOL    HW116373   2.255   2.877  17.349  0.3157  1.3913  1.3572
 1637SOL    HW216374   2.162   2.992  17.358  1.0561  0.1590  1.1972
 1638SOL     OW16375   1.179   0.451   8.423 -0.4162 -0.3567 -0.5792
 1638SOL    HW116376   1.097   0.428   8.380 -0.7225  1.5264 -1.0211
 1638SOL    HW216377   1.158   0.434   8.515  1.1030  3.9340  0.5669
 1639SOL     OW16378   2.709   0.984  15.837  0.0355  0.0493 -0.1143
 1639SOL    HW116379   2.728   0.993  15.930  2.3609  1.2556 -0.6885
 1639SOL    HW216380   2.705   0.891  15.817 -1.1095  0.1290 -0.2603
 1640SOL     OW16381   4.165   0.671   0.501  0.0509  0.1377  0.5308
 1640SOL    HW116382   4.243   0.616   0.501 -0.2463 -0.2824 -1.5013
 1640SOL    HW216383   4.147   0.670   0.595  0.7146  0.8834  0.6691
 1641SOL     OW16384   3.097   4.438   3.301 -0.2404 -0.0296  0.1797
 1641SOL    HW116385   3.036   4.489   3.248 -1.6970  0.1889  2.0474
 1641SOL    HW216386   3.068   4.352   3.273 -0.1429 -0.2777  0.8363
 1642SOL     OW16387   3.621   1.785  13.364  0.2716 -0.3128 -0.7621
 1642SOL    HW116388   3.590   1.708  13.316  1.1276 -1.1953  0.0937
 1642SOL    HW216389   3.715   1.772  13.382 -0.3076  0.4367  2.6131
 1643SOL     OW16390   4.635   0.204   0.715 -0.4019  0.0732  0.2753
 1643SOL    HW116391   4.686   0.162   0.645 -1.4520 -0.9454  0.1271
 1643SOL    HW216392   4.558   0.150   0.697 -0.0327 -0.9119  1.6933
 1644SOL     OW16393   3.901   1.882   9.285 -0.1558  0.0958  0.7254
 1644SOL    HW116394   3.915   1.924   9.370 -1.1749  1.1924  0.3584
 1644SOL    HW216395   3.819   1.834   9.292 -0.4902  0.2963 -1.8962
 1645SOL     OW16396   3.688   2.671   7.463 -0.0066 -0.3112 -0.0327
 1645SOL    HW116397   3.770   2.631   7.495 -0.2679 -0.4795  0.4350
 1645SOL    HW216398   3.718   2.755   7.428 -2.1747  1.0990  1.5411
 1646SOL     OW16399   3.196   1.352   2.638  0.3109  0.4383 -0.4071
 1646SOL    HW116400   3.271   1.405   2.614  0.8840 -0.8278 -1.3885
 1646SOL    HW216401   3.218   1.267   2.599 -0.5402  0.2271 -0.4379
 1647SOL     OW16402   0.871   0.703   3.322 -0.0839  0.3278  0.2224
 1647SOL    HW116403   0.836   0.779   3.276  0.1598  0.6785  0.6131
 1647SOL    HW216404   0.873   0.638   3.252 -1.0723  0.3430  0.1791
 1648SOL     OW16405   3.092   2.467  10.915  0.0186  0.2622 -0.1352
 1648SOL    HW116406   3.144   2.429  10.844  0.7156  1.4252 -0.2380
 1648SOL    HW216407   3.145   2.440  10.991 -3.8945 -1.5968  1.9237
 1649SOL     OW16408   3.248   4.108   7.330  0.1843  0.3943 -0.6911
 1649SOL    HW116409   3.210   4.024   7.356  1.1183 -0.4134 -1.9229
 1649SOL    HW216410   3.179   4.173   7.322  2.0107  2.6174  1.4337
 1650SOL     OW16411   3.273   0.203   4.092  0.0484 -0.6280  0.1601
 1650SOL    HW116412   3.199   0.156   4.130 -0.9165  1.3360  0.7103
 1650SOL    HW216413   3.347   0.145   4.111  0.0532  0.0973  2.4118
 1651SOL     OW16414   0.486   4.319  11.697 -0.1368  0.4239  0.7472
 1651SOL    HW116415   0.574   4.297  11.726  0.3404  0.9282 -0.3301
 1651SOL    HW216416   0.514   4.392  11.643  0.1547  1.5784  2.4538
 1652SOL     OW16417   4.289   0.117  12.216  0.2949 -0.2469  0.0078
 1652SOL    HW116418   4.358   0.050  12.210  0.1781  0.0277 -4.1559
 1652SOL    HW216419   4.336   0.179  12.272 -0.6455  0.3050  0.1857
 1653SOL     OW16420   4.121   3.372  10.706 -0.1129 -0.5429  0.1925
 1653SOL    HW116421   4.141   3.434  10.635 -1.1848 -0.2021  0.1808
 1653SOL    HW216422   4.047   3.331  10.662  2.7813 -2.9911 -2.3932
 1654SOL     OW16423   2.843   3.145   6.269  0.2921 -0.3061  0.1493
 1654SOL    HW116424   2.878   3.063   6.303 -0.0824 -0.4664  0.1399
 1654SOL    HW216425   2.848   3.123   6.176  0.3967 -3.0754  0.8129
 1655SOL     OW16426   1.426   0.272  13.467 -0.1825  0.3989 -0.6033
 1655SOL    HW116427   1.513   0.237  13.485  0.0098  0.7986 -0.7664
 1655SOL    HW216428   1.374   0.232  13.537 -0.1124  1.5565  0.1100
 1656SOL     OW16429   0.341   3.900   5.660  0.0246 -0.2682  0.1219
 1656SOL    HW116430   0.361   3.993   5.658  1.0123 -0.4792  0.1594
 1656SOL    HW216431   0.245   3.906   5.652  0.2508  2.2398 -0.7327
 1657SOL     OW16432   0.031   4.623   3.768  0.3554  0.4442 -0.4197
 1657SOL    HW116433   0.092   4.624   3.695  1.1939 -2.3402  0.2400
 1657SOL    HW216434   4.688   4.688   3.744 -0.1896  0.7163  1.7846
 1658SOL     OW16435   4.369   2.849   3.327 -0.1294  0.1227  0.0669
 1658SOL    HW116436   4.304   2.898   3.377 -1.1721 -1.1815 -0.0091
 1658SOL    HW216437   4.334   2.840   3.238  1.3421 -0.5575 -0.4417
 1659SOL     OW16438   1.365   3.630   1.391  0.4210  0.6457 -0.3611
 1659SOL    HW116439   1.403   3.619   1.477  0.4217  0.9683 -0.3187
 1659SOL    HW216440   1.348   3.724   1.393  0.2217  0.5902  0.5646
 1660SOL     OW16441   4.072   4.032   6.752 -0.4291  0.5861 -0.3109
 1660SOL    HW116442   4.081   4.117   6.708  0.8073  0.5862 -0.0559
 1660SOL    HW216443   4.151   3.990   6.719 -1.4640 -1.3715 -0.3032
 1661SOL     OW16444   0.151   3.583   4.776 -0.1827  0.1600 -0.0139
 1661SOL    HW116445   0.185   3.506   4.821 -1.5589  0.6214  1.8156
 1661SOL    HW216446   0.167   3.571   4.683  0.4871 -1.0716  0.2600
 1662SOL     OW16447   3.901   3.295  10.584 -0.1206 -0.3995 -0.0372
 1662SOL    HW116448   3.871   3.212  10.548 -0.6942 -0.0355 -0.3992
 1662SOL    HW216449   3.869   3.359  10.520 -1.1267 -2.0015 -1.1190
 1663SOL     OW16450   0.697   1.430  16.836 -0.2657  0.1491  0.2226
 1663SOL    HW116451   0.688   1.522  16.811 -0.5796 -0.1652 -0.8092
 1663SOL    HW216452   0.758   1.441  16.909  0.4940 -0.0698 -0.3759
 1664SOL     OW16453   2.871   1.554  13.378  0.3082  0.6716 -0.3279
 1664SOL    HW116454   2.905   1.500  13.449 -1.6315 -0.1254 -0.0087
 1664SOL    HW216455   2.778   1.535  13.389  0.5467 -1.6949 -2.4557
 1665SOL     OW16456   1.155   0.095   2.900 -0.4916 -0.6194  0.5838
 1665SOL    HW116457   1.247   0.070   2.912 -0.6551 -2.4371 -1.9097
 1665SOL    HW216458   1.140   0.124   2.990 -1.7134 -0.8458  0.4461
 1666SOL     OW16459   3.468   3.999   2.307  0.3990 -0.0997 -0.1401
 1666SOL    HW116460   3.541   4.059   2.318 -0.9605  1.1813  1.9730
 1666SOL    HW216461   3.438   3.990   2.397 -2.0087  0.7604 -0.8492
 1667SOL     OW16462   2.557   2.998   1.938  0.3337 -0.0353 -1.1539
 1667SOL    HW116463   2.568   2.907   1.967  0.1711  1.2119  2.7737
 1667SOL    HW216464   2.617   2.999   1.863  1.2362 -1.1284 -0.4521
 1668SOL     OW16465   2.897   3.357   7.652 -0.0844  0.6811  0.4052
 1668SOL    HW116466   2.891   3.284   7.590  2.9496  2.1754 -1.6334
 1668SOL    HW216467   2.972   3.336   7.707 -0.0001  1.1782  0.4820
 1669SOL     OW16468   2.388   3.769  14.516  0.3346  0.1214 -0.6767
 1669SOL    HW116469   2.438   3.833  14.466  0.1364  0.3621 -0.5693
 1669SOL    HW216470   2.402   3.692  14.460 -0.5398  0.0641 -0.8321
 1670SOL     OW16471   2.307   3.883   3.122  0.0135 -0.1770 -0.6688
 1670SOL    HW116472   2.399   3.874   3.147 -0.2455  0.1552  0.3987
 1670SOL    HW216473   2.295   3.788   3.127 -0.6820 -0.1030 -0.8943
 1671SOL     OW16474   1.192   4.090   8.711  0.2543  0.0930  0.2917
 1671SOL    HW116475   1.284   4.069   8.695 -0.3927 -1.1341 -1.8653
 1671SOL    HW216476   1.186   4.184   8.693  0.6798  0.2368  0.9044
 1672SOL     OW16477   1.413   0.623   2.192 -0.2056 -0.4610  0.1936
 1672SOL    HW116478   1.424   0.692   2.127  1.2920 -0.2565  0.6628
 1672SOL    HW216479   1.318   0.633   2.200 -0.1036  1.0978 -0.6118
 1673SOL     OW16480   4.343   4.408   6.408 -0.1173 -0.7615  0.2384
 1673SOL    HW116481   4.347   4.502   6.394 -1.7032 -0.7236  0.1105
 1673SOL    HW216482   4.255   4.393   6.442 -1.5151  2.5067 -2.0178
 1674SOL     OW16483   3.480   1.227   4.432  0.3803 -0.5817 -0.4480
 1674SOL    HW116484   3.392   1.210   4.466  0.3525 -0.6785 -0.5717
 1674SOL    HW216485   3.478   1.177   4.351 -1.3582 -1.3874  0.0708
 1675SOL     OW16486   1.993   0.279   7.006  0.5276 -0.3049  0.2160
 1675SOL    HW116487   2.020   0.260   7.096  1.3127  2.6407  0.6126
 1675SOL    HW216488   1.910   0.310   7.042  0.3259 -2.0839  1.2859
 1676SOL     OW16489   0.147   1.657   6.375 -0.0185 -0.7848 -0.8615
 1676SOL    HW116490   0.195   1.659   6.457  1.2974 -0.5273 -1.6434
 1676SOL    HW216491   0.162   1.749   6.354  2.2560 -1.1748 -0.9851
 1677SOL     OW16492   3.046   3.014   5.164 -0.4425 -0.0387 -0.1830
 1677SOL    HW116493   2.992   2.938   5.143  0.2806 -0.7316  0.4331
 1677SOL    HW216494   2.979   3.077   5.189 -2.3056 -1.5698 -1.2601
 1678SOL     OW16495   2.725   2.517   8.022  0.2460 -0.0589  0.3576
 1678SOL    HW116496   2.645   2.465   8.018 -0.6242  1.3260 -0.3936
 1678SOL    HW216497   2.684   2.586   8.075  0.9404  1.4722 -1.1025
 1679SOL     OW16498   4.704   3.005   3.062 -0.2911  0.2547 -0.4294
 1679SOL    HW116499   0.023   3.090   3.070  1.0027 -0.2815 -1.5755
 1679SOL    HW216500   4.676   3.002   2.970 -0.0894  0.5318 -0.5002
 1680SOL     OW16501   0.119   3.064  13.879 -0.0507  0.6797  0.2424
 1680SOL    HW116502   0.085   3.130  13.939 -1.2586 -1.4513  1.9347
 1680SOL    HW216503   0.044   3.044  13.823  1.0436  0.0196 -1.0050
 1681SOL     OW16504   3.189   3.832   0.534 -0.1894  0.2435  0.4398
 1681SOL    HW116505   3.221   3.893   0.601  1.4423  0.2807 -0.3782
 1681SOL    HW216506   3.263   3.817   0.476 -0.6534  1.6697 -0.5200
 1682SOL     OW16507   3.199   2.073   2.936 -0.1683 -0.2032 -0.3737
 1682SOL    HW116508   3.143   1.997   2.917  1.8290 -1.3163 -1.8460
 1682SOL    HW216509   3.181   2.094   3.028  1.7150 -1.6393  0.3384
 1683SOL     OW16510   0.796   2.710  15.108  0.2834 -0.4348  0.2520
 1683SOL    HW116511   0.862   2.663  15.057 -0.2308 -0.6083 -0.2540
 1683SOL    HW216512   0.851   2.781  15.141 -1.0152  0.7331 -0.0829
 1684SOL     OW16513   1.478   3.320   1.603  0.0786 -0.5894 -0.2097
 1684SOL    HW116514   1.565   3.355   1.618 -0.4053  0.8268 -0.7086
 1684SOL    HW216515   1.430   3.399   1.627  0.2034  0.2385 -2.6517
 1685SOL     OW16516   3.778   1.488   8.279 -0.2095  0.1366 -0.0078
 1685SOL    HW116517   3.854   1.542   8.299  0.8389 -1.8893  1.4463
 1685SOL    HW216518   3.712   1.547   8.242 -0.5634  0.3293  0.9530
 1686SOL     OW16519   2.435   4.447   5.240 -0.0031  0.3226  0.1636
 1686SOL    HW116520   2.339   4.444   5.243 -0.0525 -0.7780 -2.7354
 1686SOL    HW216521   2.450   4.358   5.209  1.6050  0.9147 -0.7322
 1687SOL     OW16522   2.646   0.918   6.845  0.5261  0.7570  0.9961
 1687SOL    HW116523   2.727   0.945   6.889  1.3335  0.9683 -0.6149
 1687SOL    HW216524   2.593   0.918   6.925  0.4959  0.3918  0.9768
 1688SOL     OW16525   2.866   0.961  16.778 -1.1808 -0.2355  0.1270
 1688SOL    HW116526   2.923   0.991  16.849 -0.5192 -0.7925 -0.1724
 1688SOL    HW216527   2.856   1.042  16.728 -0.0644 -0.3691 -0.2896
 1689SOL     OW16528   1.969   0.137   7.828  0.1028  0.4741 -0.1617
 1689SOL    HW116529   1.920   0.095   7.757 -1.9770  1.8839  0.4234
 1689SOL    HW216530   1.901   0.189   7.871  0.0979 -0.5372  1.0607
 1690SOL     OW16531   1.755   3.979   5.952 -0.3647 -0.2709  0.2724
 1690SOL    HW116532   1.689   4.039   5.987 -0.4183 -0.5344  0.6228
 1690SOL    HW216533   1.771   3.931   6.033  0.5625 -0.4474 -0.0186
 1691SOL     OW16534   3.807   4.212   0.093  0.1422 -0.2726  0.6288
 1691SOL    HW116535   3.902   4.224   0.090 -0.1193  1.5767  0.3102
 1691SOL    HW216536   3.775   4.286   0.042  2.2284  0.0343 -0.2476
 1692SOL     OW16537   3.531   3.209   9.104  0.1470  0.1535 -0.4410
 1692SOL    HW116538   3.456   3.163   9.143 -0.8133  1.5783 -0.6138
 1692SOL    HW216539   3.584   3.130   9.100 -0.9038 -0.5780 -0.0756
 1693SOL     OW16540   1.044   2.933   2.014 -0.1053  0.3177 -0.4671
 1693SOL    HW116541   1.022   2.947   2.106 -0.1382 -0.8467 -0.2998
 1693SOL    HW216542   0.993   3.000   1.968 -0.1346  1.5099  1.3246
 1694SOL     OW16543   1.742   2.870   7.980  0.6240  0.2205  0.0767
 1694SOL    HW116544   1.733   2.911   8.066  1.7985 -0.3967  0.4927
 1694SOL    HW216545   1.652   2.870   7.949  0.7037 -1.3193 -0.1876
 1695SOL     OW16546   2.761   3.272  15.215 -0.5716 -0.0144  0.2495
 1695SOL    HW116547   2.768   3.183  15.251 -1.3512 -0.3574 -0.4351
 1695SOL    HW216548   2.852   3.301  15.220 -0.1125 -1.2825 -0.7152
 1696SOL     OW16549   0.710   1.591   2.808 -0.1863 -0.2608 -0.5338
 1696SOL    HW116550   0.747   1.652   2.744  1.8951  0.1298  1.0460
 1696SOL    HW216551   0.785   1.533   2.822 -0.2138 -0.5230 -1.4804
 1697SOL     OW16552   4.478   3.918   1.137 -0.3684  1.2029 -0.2815
 1697SOL    HW116553   4.527   3.976   1.078  2.6112 -0.9852  0.0200
 1697SOL    HW216554   4.397   3.916   1.086  0.1168  0.6603 -1.0277
 1698SOL     OW16555   2.594   3.387   8.690  0.4059 -0.1936  0.0197
 1698SOL    HW116556   2.662   3.412   8.752 -1.5581  0.7470  1.8185
 1698SOL    HW216557   2.628   3.301   8.665  1.0195  0.4850 -1.4886
 1699SOL     OW16558   0.066   3.264   3.016  0.2764 -0.1103  0.0626
 1699SOL    HW116559   0.117   3.288   2.939 -0.1249  0.6811  0.0442
 1699SOL    HW216560   4.708   3.305   2.987  0.8990  1.4429  0.5174
 1700SOL     OW16561   2.790   4.346   1.713 -0.2969  0.5847 -0.0423
 1700SOL    HW116562   2.742   4.355   1.796  0.1544  0.7879  0.1968
 1700SOL    HW216563   2.717   4.325   1.655  1.1663 -2.4934 -0.7627
 1701SOL     OW16564   3.376   1.171  16.485 -0.1695  0.6775 -0.5556
 1701SOL    HW116565   3.377   1.225  16.406  2.6262  0.3181 -0.7781
 1701SOL    HW216566   3.468   1.147  16.501 -0.2886 -0.1302 -1.1150
 1702SOL     OW16567   2.367   3.771  14.794  0.1999 -0.5016 -0.2058
 1702SOL    HW116568   2.430   3.706  14.823  1.7923  0.9915 -0.3462
 1702SOL    HW216569   2.380   3.772  14.699 -1.7219  2.4589 -0.4568
 1703SOL     OW16570   3.815   2.513   8.696 -0.0193 -0.1851  0.2157
 1703SOL    HW116571   3.879   2.552   8.755 -0.9818 -2.0052  2.4965
 1703SOL    HW216572   3.847   2.523   8.607  2.0512  2.2161  1.2543
 1704SOL     OW16573   2.984   1.929  16.083 -0.2022  0.2364 -0.0436
 1704SOL    HW116574   2.981   1.833  16.089  0.7122  0.3072  1.8466
 1704SOL    HW216575   3.073   1.943  16.117 -0.9253 -1.4254  2.5285
 1705SOL     OW16576   1.575   0.739   3.356 -0.2496 -0.2877  0.1644
 1705SOL    HW116577   1.612   0.818   3.316 -1.0330  0.2671  0.5205
 1705SOL    HW216578   1.483   0.732   3.331 -0.7011 -0.3134  1.8515
 1706SOL     OW16579   3.865   4.167   8.812 -0.6708 -0.3118 -0.1930
 1706SOL    HW116580   3.932   4.172   8.744 -3.6137 -0.7949 -3.0868
 1706SOL    HW216581   3.892   4.230   8.879  0.9771 -3.1824  1.8689
 1707SOL     OW16582   1.144   4.719   7.906  0.6449 -0.1822 -0.0433
 1707SOL    HW116583   1.105   0.017   7.821  0.9529 -3.2582 -0.9483
 1707SOL    HW216584   1.211   0.063   7.895 -0.5383  1.2888  1.6102
 1708SOL     OW16585   3.742   1.823   8.970 -0.2786  0.5948  0.1642
 1708SOL    HW116586   3.692   1.844   9.049 -0.4754  0.4250  0.0856
 1708SOL    HW216587   3.670   1.819   8.907  0.0788 -0.9467 -0.1600
 1709SOL     OW16588   3.658   3.584   9.402 -0.3940  0.1496 -0.2928
 1709SOL    HW116589   3.569   3.617   9.414 -0.7038 -1.7703  2.5043
 1709SOL    HW216590   3.654   3.530   9.323 -0.9616  1.2115 -1.0060
 1710SOL     OW16591   0.250   1.065   2.928  0.1441 -0.2233 -0.3031
 1710SOL    HW116592   0.172   1.073   2.983  0.0024 -0.2530 -0.4995
 1710SOL    HW216593   0.301   0.999   2.975  0.8964  0.2539 -0.4574
 1711SOL     OW16594   0.604   3.702   5.425 -0.2221 -0.2870  0.2980
 1711SOL    HW116595   0.589   3.739   5.338  0.8176  0.4176  0.4192
 1711SOL    HW216596   0.601   3.775   5.486  0.1828 -1.6624  1.9826
 1712SOL     OW16597   1.574   0.271   3.788 -0.4208  0.1002  0.7055
 1712SOL    HW116598   1.589   0.364   3.806 -0.0331 -0.0552  1.2012
 1712SOL    HW216599   1.589   0.241   3.878  1.1421  0.4394  0.5518
 1713SOL     OW16600   4.229   4.394  14.894  1.2946  0.0688  0.6372
 1713SOL    HW116601   4.265   4.474  14.856  0.3466 -0.3574 -1.1653
 1713SOL    HW216602   4.179   4.351  14.825 -1.3167  2.6899  0.9344
 1714SOL     OW16603   1.263   3.648   6.860  0.5219 -0.3366 -0.2683
 1714SOL    HW116604   1.234   3.561   6.885  0.3890 -0.8251 -2.1705
 1714SOL    HW216605   1.220   3.700   6.928  1.8442  0.4448 -0.0198
 1715SOL     OW16606   0.058   0.243   8.525 -0.2297 -0.1464 -0.4327
 1715SOL    HW116607   0.001   0.219   8.452  1.7320  1.1035 -2.4076
 1715SOL    HW216608   0.016   0.242   8.610  1.6011  0.4890  0.4935
 1716SOL     OW16609   4.410   1.349  11.148 -0.5465 -0.5567 -0.0427
 1716SOL    HW116610   4.388   1.265  11.108 -1.9593  0.0819 -0.6068
 1716SOL    HW216611   4.502   1.365  11.125  0.2791  1.4246  4.5275
 1717SOL     OW16612   0.421   2.338   8.010  0.3849 -0.0281  0.0715
 1717SOL    HW116613   0.416   2.323   8.104  0.5334  0.8238  0.2184
 1717SOL    HW216614   0.328   2.353   7.997  0.0204 -1.3207  1.1696
 1718SOL     OW16615   1.225   1.675  12.945 -0.0204  0.3508 -0.1460
 1718SOL    HW116616   1.181   1.759  12.936 -2.5451 -1.0061 -0.6257
 1718SOL    HW216617   1.249   1.665  13.037 -0.8345 -1.3281 -0.0980
 1719SOL     OW16618   2.646   3.100   2.210  0.3679 -0.0511 -0.5871
 1719SOL    HW116619   2.726   3.147   2.188  0.2452  1.6744  2.7307
 1719SOL    HW216620   2.608   3.087   2.123 -0.6611 -1.5573  0.1011
 1720SOL     OW16621   3.154   3.312   6.120  0.1845  0.0138  0.1808
 1720SOL    HW116622   3.079   3.367   6.097  0.4489  0.1161 -0.4322
 1720SOL    HW216623   3.223   3.378   6.123 -0.0669  0.2784  0.1812
 1721SOL     OW16624   3.213   0.113   2.198  0.5193  0.1778  0.1845
 1721SOL    HW116625   3.201   0.180   2.130 -0.1502  1.3982  1.4870
 1721SOL    HW216626   3.169   0.154   2.273  2.5144 -0.0361  1.4761
 1722SOL     OW16627   4.076   4.235   8.644 -0.3159 -0.0862 -0.1003
 1722SOL    HW116628   4.120   4.203   8.565  0.0497 -0.6910  0.3507
 1722SOL    HW216629   4.146   4.264   8.702 -0.1899  0.1361 -0.3628
 1723SOL     OW16630   3.248   3.602   0.277 -0.1319 -0.1314 -0.6176
 1723SOL    HW116631   3.316   3.536   0.287  0.9511  1.2740  1.5435
 1723SOL    HW216632   3.219   3.609   0.369  1.5414  1.0702 -0.1936
 1724SOL     OW16633   3.447   1.736   5.022  0.4115  0.4735  0.1159
 1724SOL    HW116634   3.506   1.806   5.051  1.2519 -0.7860  1.4389
 1724SOL    HW216635   3.417   1.777   4.941 -2.5857 -1.9100  0.0381
 1725SOL     OW16636   1.614   2.619  15.527 -0.4368  0.1791 -0.0502
 1725SOL    HW116637   1.538   2.565  15.508 -0.8073  0.6689  0.0414
 1725SOL    HW216638   1.665   2.555  15.577  1.6821  1.1883 -0.9188
 1726SOL     OW16639   3.189   3.769   8.336 -0.1513 -0.0749  0.6420
 1726SOL    HW116640   3.255   3.712   8.298 -1.0656  0.4033 -1.6630
 1726SOL    HW216641   3.243   3.843   8.366 -0.3079  0.7363 -1.1208
 1727SOL     OW16642   1.041   2.442   9.366 -0.0184  0.8977  0.3677
 1727SOL    HW116643   1.004   2.363   9.326 -1.1328  2.2948 -1.3861
 1727SOL    HW216644   1.123   2.417   9.408  1.0503 -1.1398 -2.9120
 1728SOL     OW16645   3.213   4.088   1.497 -0.3424 -0.1492  0.0757
 1728SOL    HW116646   3.138   4.126   1.544  0.0875  2.1136 -1.0596
 1728SOL    HW216647   3.157   4.058   1.426  0.5590  0.9106 -1.0867
 1729SOL     OW16648   3.054   0.770   5.672  0.1377 -0.3134 -0.3065
 1729SOL    HW116649   3.074   0.697   5.613 -1.1275  1.0670 -2.4283
 1729SOL    HW216650   2.995   0.734   5.738  1.4912  0.0217  1.0763
 1730SOL     OW16651   3.776   0.915   8.214  0.9184 -0.1674  0.5806
 1730SOL    HW116652   3.863   0.915   8.174  1.1780 -0.1786  1.1433
 1730SOL    HW216653   3.790   0.962   8.296 -0.9777  1.7110 -0.1586
 1731SOL     OW16654   1.542   0.029   0.602 -0.9751  0.1747  0.4754
 1731SOL    HW116655   1.581   4.702   0.674 -2.0331  1.5644  2.0145
 1731SOL    HW216656   1.474   4.691   0.572 -0.3072 -0.7533  0.8678
 1732SOL     OW16657   3.273   3.797   0.073 -0.0450 -0.0409  0.1575
 1732SOL    HW116658   3.228   3.860   0.129 -2.1164 -0.3841 -1.1061
 1732SOL    HW216659   3.366   3.811   0.089  0.0018 -0.8447  0.5897
 1733SOL     OW16660   4.390   3.387   8.486  0.4546  0.6895  0.0789
 1733SOL    HW116661   4.311   3.348   8.447  0.8905  1.1944 -1.3354
 1733SOL    HW216662   4.434   3.313   8.528  1.3994  1.8414  1.1166
 1734SOL     OW16663   3.696   2.583   4.791  0.0295  0.1586 -0.1704
 1734SOL    HW116664   3.645   2.654   4.829  0.8873  0.9713 -0.5436
 1734SOL    HW216665   3.643   2.564   4.713  1.0670 -0.4272 -0.7259
 1735SOL     OW16666   4.020   0.400  11.465  0.7788 -0.4143 -0.0964
 1735SOL    HW116667   4.049   0.309  11.468  2.3909  0.0515 -1.3371
 1735SOL    HW216668   3.955   0.386  11.396  0.3753 -0.2166  0.2477
 1736SOL     OW16669   2.653   1.991  12.649  0.0416  0.1837  0.0552
 1736SOL    HW116670   2.604   1.948  12.578  1.5512  1.7628 -1.9264
 1736SOL    HW216671   2.601   1.949  12.718 -0.5493  1.6984  0.5383
 1737SOL     OW16672   0.328   3.977  16.416  0.1720  0.2675  0.3353
 1737SOL    HW116673   0.278   4.046  16.457  0.1758 -0.4868  1.5972
 1737SOL    HW216674   0.390   4.014  16.353  0.8706  1.8024  1.9322
 1738SOL     OW16675   1.004   1.944   7.492  0.2655 -0.1997  0.4609
 1738SOL    HW116676   0.978   1.976   7.578 -1.4169  0.5882 -0.3244
 1738SOL    HW216677   1.017   2.026   7.444  0.5631 -1.0581 -0.9505
 1739SOL     OW16678   3.339   1.134  16.944  0.1073  0.1034  0.3247
 1739SOL    HW116679   3.434   1.141  16.941  0.3461 -2.8959  0.9951
 1739SOL    HW216680   3.316   1.143  16.851  1.4642  2.1027  0.1795
 1740SOL     OW16681   0.749   0.585   8.189  0.3789  0.2225 -0.1768
 1740SOL    HW116682   0.798   0.513   8.148  0.3460  0.4093 -0.5367
 1740SOL    HW216683   0.662   0.574   8.152  1.0178  0.3614 -1.7175
 1741SOL     OW16684   1.122   3.384   6.862  0.3820  0.0327  0.2329
 1741SOL    HW116685   1.034   3.416   6.842  1.0324  0.6497 -1.6890
 1741SOL    HW216686   1.108   3.290   6.855 -1.2309  0.3206 -0.3394
 1742SOL     OW16687   2.757   2.173   4.213 -0.3403 -0.6126  0.6023
 1742SOL    HW116688   2.689   2.194   4.276 -0.6353  1.9271 -0.5537
 1742SOL    HW216689   2.766   2.079   4.228 -0.8562 -0.7455  0.0744
 1743SOL     OW16690   2.477   2.037   2.541  0.2553  0.5399  0.1764
 1743SOL    HW116691   2.537   2.084   2.598 -1.0983 -1.0469  2.9423
 1743SOL    HW216692   2.412   2.103   2.519  0.1877  0.1452 -0.8050
 1744SOL     OW16693   0.377   3.085   9.007  0.0881  0.0691  0.5547
 1744SOL    HW116694   0.320   3.132   8.946  2.4950  3.3091  0.7727
 1744SOL    HW216695   0.444   3.050   8.949 -0.4363 -1.1425  0.6854
 1745SOL     OW16696   3.712   1.083  13.669 -0.0580  0.2894  0.1167
 1745SOL    HW116697   3.725   0.994  13.701  0.6014  0.1694 -0.4666
 1745SOL    HW216698   3.742   1.146  13.734 -0.8489  0.7631  0.0216
 1746SOL     OW16699   3.210   3.131   3.692 -0.4692 -0.0510  0.1045
 1746SOL    HW116700   3.281   3.081   3.653 -0.9674  0.5114 -1.5189
 1746SOL    HW216701   3.248   3.156   3.777 -0.8105 -2.2010  0.9110
 1747SOL     OW16702   3.503   0.157   3.810  0.5188  0.0695 -0.1938
 1747SOL    HW116703   3.560   0.208   3.753  0.1459 -0.0612 -0.6846
 1747SOL    HW216704   3.574   0.118   3.862 -1.0210 -1.5534  0.7175
 1748SOL     OW16705   2.350   3.202  11.978  0.0430  0.6170 -0.1870
 1748SOL    HW116706   2.430   3.253  11.985  1.3631 -1.7519  2.1144
 1748SOL    HW216707   2.367   3.154  12.059 -0.5493  1.6643  0.5501
 1749SOL     OW16708   3.919   1.150   6.394 -0.0352 -0.1045  0.5163
 1749SOL    HW116709   3.972   1.079   6.430  1.1193  0.6227  0.2763
 1749SOL    HW216710   3.851   1.095   6.355  0.4211  0.9381 -1.7607
 1750SOL     OW16711   4.576   3.989   2.248  0.1072  0.0236 -0.3060
 1750SOL    HW116712   4.648   3.958   2.302 -1.2555  1.1314  2.1333
 1750SOL    HW216713   4.618   4.005   2.163 -1.1390 -1.5382 -1.2334
 1751SOL     OW16714   3.576   1.984   2.493  0.2453 -0.0662 -0.3271
 1751SOL    HW116715   3.520   1.947   2.425  0.8238 -1.8067  0.1307
 1751SOL    HW216716   3.554   2.076   2.477  1.1422  0.0121 -1.1218
 1752SOL     OW16717   2.014   2.895   5.234  0.0194 -0.7290 -0.5708
 1752SOL    HW116718   1.928   2.855   5.240  0.6292 -1.9375  0.2463
 1752SOL    HW216719   2.003   2.988   5.255 -0.3329  0.2987 -5.2831
 1753SOL     OW16720   2.733   3.012   1.743 -0.4063  0.0301  0.5449
 1753SOL    HW116721   2.681   2.988   1.666  0.5387 -2.6464  0.7459
 1753SOL    HW216722   2.813   3.004   1.691  0.3435  0.9909  1.5406
 1754SOL     OW16723   4.496   0.666   3.897 -0.0608 -0.4523 -0.0197
 1754SOL    HW116724   4.532   0.605   3.833  0.9845  1.3793 -1.1862
 1754SOL    HW216725   4.529   0.627   3.978 -0.4524 -1.8785 -0.5488
 1755SOL     OW16726   1.423   1.539   4.429 -0.3331  0.1365  0.1250
 1755SOL    HW116727   1.470   1.591   4.364 -1.0992  1.4442  0.6244
 1755SOL    HW216728   1.484   1.545   4.502 -0.6569 -1.4864  0.5375
 1756SOL     OW16729   0.058   3.673   9.096  0.0689  0.0304  0.5905
 1756SOL    HW116730   4.689   3.663   9.073  0.4946 -2.0575 -0.2575
 1756SOL    HW216731   0.047   3.670   9.191  0.9488  1.5264  0.7448
 1757SOL     OW16732   2.672   4.652   3.388 -0.3741 -0.1143  0.4304
 1757SOL    HW116733   2.736   4.692   3.448 -1.6271  3.0006 -0.3088
 1757SOL    HW216734   2.602   4.622   3.446  0.3056  1.2969  1.9861
 1758SOL     OW16735   2.579   1.461   4.866 -0.4704  0.2373  0.1893
 1758SOL    HW116736   2.539   1.416   4.941 -1.5012  0.4689 -0.2289
 1758SOL    HW216737   2.662   1.472   4.913 -0.1268 -0.6213 -0.2207
 1759SOL     OW16738   0.392   2.930   5.114 -0.5248 -0.1613 -0.0227
 1759SOL    HW116739   0.462   2.865   5.105  1.2931  2.2360 -3.1225
 1759SOL    HW216740   0.417   3.003   5.056 -0.5226 -0.1935 -0.0622
 1760SOL     OW16741   2.423   3.749   5.566 -0.0240  0.5157 -0.2855
 1760SOL    HW116742   2.409   3.662   5.528  1.1769  0.4600 -0.5888
 1760SOL    HW216743   2.371   3.743   5.647  0.4527 -0.1661 -0.0301
 1761SOL     OW16744   0.217   0.281   3.722  0.1626  0.2166  0.8119
 1761SOL    HW116745   0.215   0.353   3.660  1.9231 -0.2830  0.1844
 1761SOL    HW216746   0.124   0.258   3.726  0.3164 -0.7507 -1.5705
 1762SOL     OW16747   2.718   1.450   7.553  0.1398  0.0079 -0.0230
 1762SOL    HW116748   2.710   1.504   7.474  2.7290  0.6057  0.1330
 1762SOL    HW216749   2.677   1.367   7.530  0.7714 -0.6020  1.0409
 1763SOL     OW16750   2.047   0.642   2.012 -0.2205  0.1555 -0.6111
 1763SOL    HW116751   2.015   0.670   2.098  0.2181 -0.4695 -0.2459
 1763SOL    HW216752   2.067   0.553   2.038 -1.4744  0.4773  1.4515
 1764SOL     OW16753   0.684   3.124  12.807 -0.3644  0.0786 -0.4965
 1764SOL    HW116754   0.595   3.155  12.792 -0.3162 -0.2906 -1.5255
 1764SOL    HW216755   0.667   3.079  12.890  1.3855  3.4090  1.7006
 1765SOL     OW16756   4.696   1.266   3.334 -0.0598 -0.2717  0.0738
 1765SOL    HW116757   4.611   1.286   3.294  0.6018 -2.2413 -2.3267
 1765SOL    HW216758   0.026   1.333   3.290 -0.8187  1.1733  1.3751
 1766SOL     OW16759   0.395   1.411  13.267 -0.0930 -0.4289  0.0673
 1766SOL    HW116760   0.448   1.423  13.345 -1.3963 -0.2818  0.9330
 1766SOL    HW216761   0.422   1.480  13.205 -0.1066  0.4362  1.0251
 1767SOL     OW16762   3.900   3.125   3.796  0.0847 -0.1131 -0.0397
 1767SOL    HW116763   3.920   3.040   3.756 -1.4906  0.4480 -2.0575
 1767SOL    HW216764   3.945   3.112   3.879 -0.3979  0.0862  0.2570
 1768SOL     OW16765   2.138   1.883   6.717  0.1637 -0.2932  0.2148
 1768SOL    HW116766   2.212   1.919   6.669  1.4629 -1.7774  1.0846
 1768SOL    HW216767   2.103   1.821   6.654 -1.8683  1.3481 -0.2649
 1769SOL     OW16768   3.477   0.153   8.336  0.4007 -0.1107 -0.2136
 1769SOL    HW116769   3.570   0.174   8.341  0.3890 -0.1548  0.1807
 1769SOL    HW216770   3.452   0.155   8.428 -0.0372  1.9427 -0.3672
 1770SOL     OW16771   3.863   3.070  11.570  0.6488  0.2887 -0.1779
 1770SOL    HW116772   3.807   3.120  11.630  0.9270  1.8982 -1.2526
 1770SOL    HW216773   3.883   3.135  11.502 -1.2451  1.3627  0.2938
 1771SOL     OW16774   2.754   3.360   3.686  0.2999 -0.2687  0.0295
 1771SOL    HW116775   2.815   3.359   3.613 -0.1691  1.3727 -0.3834
 1771SOL    HW216776   2.779   3.431   3.745 -1.7875 -1.5098  2.4279
 1772SOL     OW16777   1.261   3.228  17.680 -0.1129  0.3044 -0.8266
 1772SOL    HW116778   1.206   3.251   0.061  0.8891  0.1288 -0.0290
 1772SOL    HW216779   1.344   3.215   0.033 -0.0641 -0.8445 -1.2412
 1773SOL     OW16780   4.692   4.091   8.584 -0.2580 -0.0698 -0.1602
 1773SOL    HW116781   4.613   4.144   8.591  0.5951  1.1869 -0.1293
 1773SOL    HW216782   4.710   4.082   8.677 -0.8520  0.8932  0.0500
 1774SOL     OW16783   0.478   4.572   5.096  0.1482  0.8142 -0.2780
 1774SOL    HW116784   0.485   4.666   5.114  0.0360  0.8429 -0.3821
 1774SOL    HW216785   0.447   4.541   5.181 -0.5759 -0.6262 -1.0626
 1775SOL     OW16786   2.972   3.773   7.741  0.0065  0.2807  0.0117
 1775SOL    HW116787   3.037   3.703   7.745 -0.4456 -0.1890 -1.0040
 1775SOL    HW216788   3.025   3.843   7.781 -0.0820  0.0971  0.4506
 1776SOL     OW16789   4.680   3.273   2.694 -1.1142 -0.0794 -0.1758
 1776SOL    HW116790   4.642   3.307   2.775  0.6847  1.8865 -0.1700
 1776SOL    HW216791   4.698   3.360   2.657  0.9394 -0.7199 -0.6752
 1777SOL     OW16792   3.717   4.107  15.033 -0.3109  0.0311 -0.0395
 1777SOL    HW116793   3.732   4.117  15.127 -1.5549 -1.4615  0.3325
 1777SOL    HW216794   3.790   4.163  15.008  1.1310 -1.7714  0.1464
 1778SOL     OW16795   1.688   0.825   3.806 -0.0943 -0.6589  0.2931
 1778SOL    HW116796   1.738   0.863   3.733 -0.8950 -1.6004 -0.7570
 1778SOL    HW216797   1.753   0.829   3.876  0.7555 -0.5434 -0.4858
 1779SOL     OW16798   2.788   4.310   2.822  0.6339  0.5716  0.2153
 1779SOL    HW116799   2.844   4.283   2.749  2.5736  2.2498  1.0869
 1779SOL    HW216800   2.834   4.383   2.865 -0.2234  1.1519  0.1366
 1780SOL     OW16801   3.911   2.571   7.608 -0.2630  0.3452 -0.3863
 1780SOL    HW116802   3.952   2.533   7.530 -0.8775 -0.4786 -0.3098
 1780SOL    HW216803   3.913   2.496   7.668  0.3243  0.9488  0.3536
 1781SOL     OW16804   0.975   2.842  13.319  0.1981 -0.4357 -0.2830
 1781SOL    HW116805   0.886   2.871  13.299  1.2390  2.0983 -1.1843
 1781SOL    HW216806   1.030   2.919  13.328  3.4200 -2.4179 -3.2021
 1782SOL     OW16807   0.108   1.930   5.461 -0.6422 -0.3172  0.0898
 1782SOL    HW116808   0.154   1.940   5.378 -1.0701  1.2246  0.0271
 1782SOL    HW216809   0.149   1.992   5.522 -2.3161 -1.5221  2.4801
 1783SOL     OW16810   0.974   4.234   0.523 -0.2302 -0.3493 -0.3944
 1783SOL    HW116811   0.907   4.267   0.463 -2.5560 -2.2975  1.1090
 1783SOL    HW216812   1.019   4.174   0.463  0.3684 -0.3073  0.0122
 1784SOL     OW16813   4.084   4.245  17.447  0.1704 -0.2446  0.5404
 1784SOL    HW116814   4.007   4.244  17.390 -1.5462 -1.8649  2.8818
 1784SOL    HW216815   4.067   4.162  17.492 -1.0607  0.6309  1.7094
 1785SOL     OW16816   0.077   4.313   8.001 -0.2563 -0.4895  0.3648
 1785SOL    HW116817   0.132   4.275   8.070  0.1709 -2.2915 -0.9678
 1785SOL    HW216818   4.717   4.321   8.047 -0.9077 -1.1503 -0.6972
 1786SOL     OW16819   3.853   2.858   7.747  0.2715  0.5519  0.2705
 1786SOL    HW116820   3.876   2.770   7.718 -0.2019  0.4424  0.2351
 1786SOL    HW216821   3.757   2.860   7.744  0.2995  0.6494 -0.4107
 1787SOL     OW16822   1.894   2.815   6.443 -0.1035 -0.0714 -0.1713
 1787SOL    HW116823   1.983   2.782   6.428  0.5312  0.6892  1.9236
 1787SOL    HW216824   1.852   2.758   6.378  0.0559  0.9443 -1.1585
 1788SOL     OW16825   2.997   1.013   8.203  0.2592 -0.5069  0.2112
 1788SOL    HW116826   2.906   0.982   8.204 -0.1341  0.5647 -0.8107
 1788SOL    HW216827   3.042   0.957   8.140  2.5429  0.3789  1.0522
 1789SOL     OW16828   4.304   4.219   8.788  1.0366 -0.3494  0.7896
 1789SOL    HW116829   4.307   4.135   8.833  0.7701 -1.1341 -0.6421
 1789SOL    HW216830   4.258   4.280   8.846  1.1468 -0.8902  1.4387
 1790SOL     OW16831   4.602   2.358   9.252 -0.1928 -0.0247 -0.3398
 1790SOL    HW116832   4.624   2.353   9.345 -2.0511 -1.1704  0.0239
 1790SOL    HW216833   4.591   2.264   9.243  1.1482 -0.2666  0.6096
 1791SOL     OW16834   2.727   0.003   7.382 -0.3019 -0.2500  0.4977
 1791SOL    HW116835   2.744   4.639   7.420 -1.0143 -1.7721 -2.6824
 1791SOL    HW216836   2.726   0.058   7.460 -0.0350 -0.2963  0.5365
 1792SOL     OW16837   0.711   3.206   2.573 -0.1099 -0.3066 -0.5647
 1792SOL    HW116838   0.665   3.169   2.648 -1.5785  1.0379 -0.8039
 1792SOL    HW216839   0.801   3.211   2.607  0.1301 -0.0620 -1.2319
 1793SOL     OW16840   2.780   2.077  15.991 -0.0851 -0.0327 -0.3496
 1793SOL    HW116841   2.820   2.126  16.063  1.2929  0.3648 -1.3945
 1793SOL    HW216842   2.841   2.004  16.003  1.2486  1.4249  1.6942
 1794SOL     OW16843   0.023   2.210   3.352 -0.2460 -0.4411 -0.2127
 1794SOL    HW116844   0.109   2.216   3.393  0.1743  1.5952 -1.4246
 1794SOL    HW216845   0.017   2.298   3.315  1.7232 -0.8970 -1.6393
 1795SOL     OW16846   3.426   3.743   3.907  0.3814 -0.4658 -0.2174
 1795SOL    HW116847   3.513   3.711   3.933  1.1809  0.4699 -1.7024
 1795SOL    HW216848   3.396   3.667   3.857 -1.7143 -1.0986  1.9971
 1796SOL     OW16849   2.101   2.174   7.398  0.5027  0.0347  0.1411
 1796SOL    HW116850   2.024   2.194   7.452 -1.0100 -0.9131 -1.6493
 1796SOL    HW216851   2.095   2.079   7.396 -1.2192  0.0942  2.1750
 1797SOL     OW16852   2.465   3.875   7.822  0.8718  0.2421  0.0935
 1797SOL    HW116853   2.452   3.965   7.851  0.4753 -0.5278  2.2679
 1797SOL    HW216854   2.417   3.873   7.739  0.2407 -3.2827  0.5373
 1798SOL     OW16855   1.218   4.452   4.961 -0.8239 -0.1314  1.4232
 1798SOL    HW116856   1.143   4.454   4.901  1.1998 -0.3352 -1.1261
 1798SOL    HW216857   1.193   4.507   5.035 -2.2560 -0.7373  1.3971
 1799SOL     OW16858   2.303   0.470   5.514  0.5166  0.6788  0.0610
 1799SOL    HW116859   2.351   0.514   5.443  1.2412 -1.4753 -0.7814
 1799SOL    HW216860   2.346   0.385   5.521  0.0798  0.3813 -0.8283
 1800SOL     OW16861   3.700   3.659   0.661 -0.3786  0.1208 -0.2192
 1800SOL    HW116862   3.771   3.627   0.716  0.6443  1.4197 -0.7727
 1800SOL    HW216863   3.734   3.640   0.574  1.3753  0.8245  0.3035
 1801SOL     OW16864   4.085   0.289   5.626 -0.3898  0.2504  0.4199
 1801SOL    HW116865   4.095   0.197   5.603 -2.1035  0.2049 -0.1502
 1801SOL    HW216866   4.158   0.296   5.688  0.2628  1.5731 -0.5006
 1802SOL     OW16867   1.008   2.345   1.347 -0.2601  0.4211  0.2510
 1802SOL    HW116868   0.956   2.301   1.280  0.7723  0.0947 -0.3319
 1802SOL    HW216869   0.936   2.371   1.405 -1.5509  0.9604 -1.5961
 1803SOL     OW16870   4.601   2.160   3.562 -0.8111 -1.1741  0.5574
 1803SOL    HW116871   4.641   2.184   3.478 -2.4784 -1.2629 -0.2663
 1803SOL    HW216872   4.510   2.185   3.544 -1.1329 -2.9951 -0.3270
 1804SOL     OW16873   2.779   4.030   2.097 -0.5186 -0.0876  0.3502
 1804SOL    HW116874   2.802   4.122   2.112 -2.4345  0.0281  2.7984
 1804SOL    HW216875   2.851   3.981   2.136  0.0325  1.0007  0.6955
 1805SOL     OW16876   2.917   3.294  13.843  0.3127  0.1533 -0.3418
 1805SOL    HW116877   2.952   3.274  13.756  1.4833 -0.6519  0.3119
 1805SOL    HW216878   2.951   3.382  13.856  0.3811  0.4776 -2.5994
 1806SOL     OW16879   1.383   3.526   0.504 -0.4201 -0.4581 -0.7580
 1806SOL    HW116880   1.306   3.515   0.448  0.4000  0.3233 -2.0602
 1806SOL    HW216881   1.344   3.543   0.589  1.5357 -1.1655  0.2668
 1807SOL     OW16882   4.137   3.684   2.970  0.1227  0.0037  0.5655
 1807SOL    HW116883   4.097   3.671   3.056  2.6211 -3.2872  1.2269
 1807SOL    HW216884   4.129   3.600   2.924 -0.5790  0.8711 -0.8934
 1808SOL     OW16885   1.610   2.779   1.267  0.0743 -0.3371  0.5002
 1808SOL    HW116886   1.547   2.731   1.320  1.1095 -3.2734 -0.9095
 1808SOL    HW216887   1.560   2.828   1.202  1.2532 -1.2253 -1.0919
 1809SOL     OW16888   1.309   4.005   3.289 -0.0494  0.4712 -0.4898
 1809SOL    HW116889   1.367   4.073   3.324  1.8256 -0.8220 -1.0854
 1809SOL    HW216890   1.220   4.039   3.299 -0.2051 -0.2736  0.6418
 1810SOL     OW16891   1.029   2.209   4.036 -0.3610 -0.2250 -0.4945
 1810SOL    HW116892   0.933   2.203   4.038 -0.4257  0.9020 -0.2383
 1810SOL    HW216893   1.059   2.168   3.955 -2.1530 -1.2080 -0.6676
 1811SOL     OW16894   0.219   2.434   4.760 -0.4190  0.9323 -1.0928
 1811SOL    HW116895   0.313   2.441   4.741  0.0529 -1.8723  0.2879
 1811SOL    HW216896   0.192   2.384   4.683  0.4837  1.1281 -1.5458
 1812SOL     OW16897   1.919   2.145   4.057  0.0019 -0.5333  0.0971
 1812SOL    HW116898   1.996   2.156   4.113  0.6912 -0.1321 -0.9446
 1812SOL    HW216899   1.960   2.138   3.971 -1.3211 -0.5814 -0.5414
 1813SOL     OW16900   2.212   0.529   4.256 -0.3669 -0.0392  0.3153
 1813SOL    HW116901   2.288   0.475   4.236 -0.2077 -0.1373  1.1702
 1813SOL    HW216902   2.147   0.461   4.275  0.2720  0.3105  3.8900
 1814SOL     OW16903   4.182   3.553   7.620  0.5455 -0.5854  0.0876
 1814SOL    HW116904   4.235   3.478   7.593  0.0524 -0.9125  0.0327
 1814SOL    HW216905   4.150   3.521   7.704 -0.5394  1.0849  0.3282
 1815SOL     OW16906   2.682   2.563   1.418 -0.8046  0.2802  0.5850
 1815SOL    HW116907   2.594   2.531   1.439 -0.8604  0.4655  0.6273
 1815SOL    HW216908   2.732   2.561   1.499  2.0131 -1.6090 -1.1696
 1816SOL     OW16909   2.076   1.366   2.645  0.2960  0.3190 -0.1067
 1816SOL    HW116910   2.083   1.345   2.738  2.0833  0.2063 -0.2656
 1816SOL    HW216911   2.007   1.432   2.645  2.2562  2.3937  0.2876
 1817SOL     OW16912   3.951   2.402   3.523 -0.1607  0.0678  0.0570
 1817SOL    HW116913   4.000   2.439   3.450 -1.5476  0.3227 -0.7480
 1817SOL    HW216914   3.867   2.373   3.488  1.1058  1.0065 -3.7726
 1818SOL     OW16915   3.598   3.118   9.421  0.2710  0.5373  0.4718
 1818SOL    HW116916   3.672   3.120   9.361 -0.5357 -0.7243 -0.5596
 1818SOL    HW216917   3.638   3.085   9.501  0.2723 -0.2082  0.1615
 1819SOL     OW16918   1.694   3.608   3.783 -0.0585 -0.0998 -0.3789
 1819SOL    HW116919   1.722   3.692   3.820 -1.0375  0.1414 -0.1897
 1819SOL    HW216920   1.645   3.561   3.850  1.5894  1.6556  2.0511
 1820SOL     OW16921   0.906   3.489   5.991  0.3994 -0.0251  0.6306
 1820SOL    HW116922   0.819   3.468   6.024  0.1380  2.8491  1.7816
 1820SOL    HW216923   0.953   3.408   5.972 -1.8555 -0.8112 -1.5000
 1821SOL     OW16924   0.879   2.578   0.610  0.0110  0.5687 -0.3618
 1821SOL    HW116925   0.801   2.596   0.558 -0.7287  0.0396  0.5451
 1821SOL    HW216926   0.919   2.664   0.602  0.2188  0.8104  3.1508
 1822SOL     OW16927   2.097   3.680   7.689  0.2092 -0.1665 -0.5756
 1822SOL    HW116928   2.119   3.636   7.771  0.4945  0.4843 -0.3047
 1822SOL    HW216929   2.069   3.608   7.632 -0.2504  0.5174 -1.2192
 1823SOL     OW16930   2.150   0.027   0.629 -0.2002  0.2600  0.0809
 1823SOL    HW116931   2.070   0.051   0.584 -1.0785 -0.1991  1.4107
 1823SOL    HW216932   2.210   0.030   0.554 -1.5992 -2.8961 -1.1670
 1824SOL     OW16933   0.088   2.445   9.687  0.5527 -0.0206  0.3085
 1824SOL    HW116934   0.144   2.404   9.753 -0.6046  0.1465  1.3944
 1824SOL    HW216935   0.049   2.514   9.741  0.6893 -0.1097  0.5214
 1825SOL     OW16936   3.470   3.437   1.913  0.0090 -1.1867 -0.0403
 1825SOL    HW116937   3.390   3.437   1.965 -0.2775  1.3827 -0.4766
 1825SOL    HW216938   3.536   3.407   1.975 -0.0047 -0.8630  0.1329
 1826SOL     OW16939   2.139   0.585   8.205 -0.4756  0.3431 -0.7138
 1826SOL    HW116940   2.143   0.651   8.136 -0.0614  2.1349  1.0538
 1826SOL    HW216941   2.211   0.606   8.264  0.0357 -2.1050 -0.4366
 1827SOL     OW16942   1.857   3.773   1.527 -0.1354  0.3124 -0.2368
 1827SOL    HW116943   1.949   3.750   1.535 -0.1961  0.5309  1.0631
 1827SOL    HW216944   1.828   3.682   1.520  2.1727 -0.3251 -1.6797
 1828SOL     OW16945   4.445   4.576  17.434 -0.5637  0.4952  0.6270
 1828SOL    HW116946   4.460   4.546  17.344  0.9562  1.4183  0.5694
 1828SOL    HW216947   4.437   4.672  17.430  0.1847  0.5287  0.0056
 1829SOL     OW16948   0.883   2.764   3.489  0.0568  0.1702 -0.0856
 1829SOL    HW116949   0.869   2.855   3.514  0.5535  0.2396 -0.0580
 1829SOL    HW216950   0.936   2.777   3.410  1.0424  1.5906  0.8206
 1830SOL     OW16951   3.379   0.709  15.349 -0.1746  0.0286  0.6765
 1830SOL    HW116952   3.404   0.674  15.434 -0.1204 -1.1631  0.1831
 1830SOL    HW216953   3.367   0.626  15.302 -2.2020  0.7908 -0.1537
 1831SOL     OW16954   2.358   1.807   2.622 -0.5289 -0.4071 -0.2722
 1831SOL    HW116955   2.403   1.887   2.597 -0.0545 -0.2079  1.1830
 1831SOL    HW216956   2.324   1.789   2.535  1.1258  0.5979 -1.1213
 1832SOL     OW16957   3.400   4.610   6.525  0.1202 -0.0251  0.3123
 1832SOL    HW116958   3.419   4.532   6.473 -0.9900 -0.9511  1.2962
 1832SOL    HW216959   3.485   4.650   6.509  1.3245 -2.8437 -0.3249
 1833SOL     OW16960   3.143   1.521  14.592 -0.4120  0.3961  0.2969
 1833SOL    HW116961   3.232   1.530  14.628  1.0392 -2.0358 -2.7155
 1833SOL    HW216962   3.155   1.466  14.515 -2.0960 -1.8248  1.6439
 1834SOL     OW16963   4.236   1.837  13.246 -0.4066 -0.3076 -0.2226
 1834SOL    HW116964   4.158   1.890  13.265  0.1195  0.7977 -1.1470
 1834SOL    HW216965   4.247   1.785  13.325 -2.9450  2.3208  1.8571
 1835SOL     OW16966   4.585   3.345   1.604 -0.1209 -0.1311 -0.3773
 1835SOL    HW116967   4.661   3.351   1.661 -0.9672 -0.3833  0.7933
 1835SOL    HW216968   4.525   3.336   1.679  0.0960 -1.9822 -0.4344
 1836SOL     OW16969   1.254   0.819   6.427 -0.5174  0.0798 -0.7104
 1836SOL    HW116970   1.314   0.871   6.374 -1.3811  2.5876  0.7657
 1836SOL    HW216971   1.193   0.782   6.363 -1.8597 -0.6372  0.9951
 1837SOL     OW16972   3.816   3.503   8.237  0.5652  0.0794  0.2042
 1837SOL    HW116973   3.892   3.480   8.291 -0.2880  0.6439  1.6456
 1837SOL    HW216974   3.797   3.591   8.269  0.1159 -0.0632  0.3231
 1838SOL     OW16975   1.876   1.816  13.731 -0.1919  0.6587  0.7765
 1838SOL    HW116976   1.835   1.892  13.689 -0.9714 -1.5507 -2.4643
 1838SOL    HW216977   1.834   1.815  13.817  0.9259  0.7631  1.3242
 1839SOL     OW16978   4.353   2.462  14.988 -0.2608  0.3077 -0.0516
 1839SOL    HW116979   4.326   2.389  15.044 -0.0164  1.3294  1.3996
 1839SOL    HW216980   4.294   2.454  14.913 -1.4242 -0.5462  0.9527
 1840SOL     OW16981   1.982   2.683   7.983 -0.0832  0.2717  0.3136
 1840SOL    HW116982   1.902   2.734   7.992  1.5050  2.3970  2.4413
 1840SOL    HW216983   1.958   2.597   8.016  1.0708 -0.2645 -0.2269
 1841SOL     OW16984   0.100   0.294   5.642  0.1644  0.0873 -0.6113
 1841SOL    HW116985   0.087   0.201   5.660  1.8429  0.3163  1.8118
 1841SOL    HW216986   0.173   0.305   5.703 -0.1758 -1.5426  0.0999
 1842SOL     OW16987   4.364   3.390   5.481  0.0245 -0.1229  0.1058
 1842SOL    HW116988   4.302   3.348   5.541  0.6305 -1.9249 -0.5499
 1842SOL    HW216989   4.437   3.410   5.540 -1.0202  0.6007  1.1713
 1843SOL     OW16990   0.713   0.520  14.109  0.5303  0.0680 -0.1804
 1843SOL    HW116991   0.780   0.589  14.105 -0.2838  0.9103  0.5130
 1843SOL    HW216992   0.701   0.515  14.015 -2.3802 -1.4155  0.2697
 1844SOL     OW16993   0.836   0.381   3.749  0.2023  0.1438  0.5456
 1844SOL    HW116994   0.793   0.382   3.835 -2.9374 -1.8341 -0.9882
 1844SOL    HW216995   0.898   0.453   3.749 -0.5238  0.7576 -0.9531
 1845SOL     OW16996   0.087   1.768   6.803 -0.2459  0.8347  0.0232
 1845SOL    HW116997   0.085   1.846   6.747 -1.4410 -0.7455 -2.1022
 1845SOL    HW216998   0.042   1.803   6.880 -1.0384 -2.6108  1.1044
 1846SOL     OW16999   0.068   4.167   8.247  0.0853  0.2507 -0.1669
 1846SOL    HW117000   0.045   4.075   8.253 -1.4475  0.7955  2.2901
 1846SOL    HW217001   4.708   4.211   8.266  1.5513  2.4270  1.3329
 1847SOL     OW17002   2.278   3.673  11.950 -0.1717  0.0459  0.1737
 1847SOL    HW117003   2.199   3.632  11.914 -0.9268  1.0332  0.6893
 1847SOL    HW217004   2.238   3.728  12.018  0.0036 -1.3410  1.3931
 1848SOL     OW17005   1.255   1.910  11.693 -0.4591  0.2799 -0.1557
 1848SOL    HW117006   1.243   1.921  11.598  0.8505 -3.0120 -0.7189
 1848SOL    HW217007   1.214   1.826  11.712  0.2196  0.4978  2.2181
 1849SOL     OW17008   0.499   2.119   7.156 -0.2120  0.1567  0.5140
 1849SOL    HW117009   0.421   2.092   7.205 -0.0825 -1.1583 -0.0085
 1849SOL    HW217010   0.531   2.031   7.137 -0.7909 -0.0945  0.7253
 1850SOL     OW17011   0.617   2.540   5.119  0.0348  0.1855 -0.1865
 1850SOL    HW117012   0.578   2.567   5.035  1.2099  1.8944 -0.1732
 1850SOL    HW217013   0.535   2.533   5.168 -0.1718 -0.6727 -0.6548
 1851SOL     OW17014   1.169   0.970   5.269  0.1571  0.3037  0.5120
 1851SOL    HW117015   1.210   1.027   5.334 -2.0182  1.8808  0.4725
 1851SOL    HW217016   1.120   0.903   5.317  0.0431  0.2084  0.2598
 1852SOL     OW17017   1.562   2.978   5.906  0.3584  0.0536 -0.3577
 1852SOL    HW117018   1.578   2.952   5.996  0.3657  2.2603  0.2892
 1852SOL    HW217019   1.596   3.067   5.911  0.6169 -0.0653 -0.0785
 1853SOL     OW17020   3.497   1.975   8.463  0.0331  0.0735  0.2183
 1853SOL    HW117021   3.543   1.921   8.527  0.1330  1.1906  1.0882
 1853SOL    HW217022   3.452   2.036   8.522  1.7513  0.7312  0.8433
 1854SOL     OW17023   2.687   2.989   7.359 -0.0615  0.0319 -0.5597
 1854SOL    HW117024   2.766   3.020   7.402 -0.3215  0.6477 -0.5251
 1854SOL    HW217025   2.642   3.073   7.348  2.0040  1.2540  0.4135
 1855SOL     OW17026   4.614   2.591   8.547 -0.1192 -0.2311 -0.1666
 1855SOL    HW117027   4.538   2.585   8.605  0.1448  0.4111  0.2339
 1855SOL    HW217028   4.651   2.503   8.550 -0.6077 -0.3239  2.3982
 1856SOL     OW17029   2.920   1.211   7.500 -0.1201 -0.2464 -0.1429
 1856SOL    HW117030   2.893   1.210   7.592 -1.1046  2.8638 -0.3904
 1856SOL    HW217031   2.948   1.121   7.487 -1.0162 -0.6372  0.6309
 1857SOL     OW17032   0.262   3.055   7.623  0.0492  0.2846  0.4260
 1857SOL    HW117033   0.318   3.130   7.604  0.1213 -0.6194 -2.8270
 1857SOL    HW217034   0.305   3.001   7.688 -0.2610 -1.9321 -1.2391
 1858SOL     OW17035   1.076   0.231   3.577 -0.4731 -0.1410 -0.4183
 1858SOL    HW117036   1.031   0.153   3.543 -0.7518  0.1909 -0.8129
 1858SOL    HW217037   1.017   0.271   3.641 -4.6702 -1.9739 -3.1094
 1859SOL     OW17038   1.286   3.054  15.197  0.1698 -0.5590  0.3218
 1859SOL    HW117039   1.270   3.134  15.145 -1.4570 -1.0762  0.0479
 1859SOL    HW217040   1.380   3.039  15.190 -0.2041 -2.1787 -1.3872
 1860SOL     OW17041   1.649   2.403   1.386 -0.7635 -0.2285 -0.1542
 1860SOL    HW117042   1.608   2.387   1.471  0.3721 -1.4848  0.1498
 1860SOL    HW217043   1.632   2.497   1.377  2.5307  0.5316  1.6924
 1861SOL     OW17044   3.200   4.346   1.775  0.2110 -0.1280 -0.5871
 1861SOL    HW117045   3.134   4.357   1.843  0.4793  0.2823 -0.3956
 1861SOL    HW217046   3.173   4.260   1.743  0.2942 -0.1849 -0.5049
 1862SOL     OW17047   3.240   3.122  17.050  0.5386  0.3296 -0.3185
 1862SOL    HW117048   3.309   3.073  17.094  0.4791 -0.5989 -1.2506
 1862SOL    HW217049   3.232   3.197  17.108  0.8100  0.8051 -0.8939
 1863SOL     OW17050   3.933   3.279  12.740  0.2774 -0.1215 -0.0578
 1863SOL    HW117051   3.861   3.218  12.758  0.4035 -1.2644 -3.6249
 1863SOL    HW217052   3.887   3.361  12.759  1.1476  0.2770  0.3236
 1864SOL     OW17053   0.517   0.687   7.418 -0.0025 -0.2213 -0.5238
 1864SOL    HW117054   0.556   0.654   7.498  1.5983 -0.8015 -1.5465
 1864SOL    HW217055   0.511   0.611   7.360 -0.5040 -0.3724 -0.2748
 1865SOL     OW17056   3.024   0.979  14.340  0.0480  0.7341  0.3451
 1865SOL    HW117057   2.961   1.002  14.271 -1.2754 -1.3789  0.8355
 1865SOL    HW217058   2.979   0.899  14.367  0.0358  0.7224  0.2918
 1866SOL     OW17059   4.620   3.753   7.888 -0.3953 -0.3628 -0.1891
 1866SOL    HW117060   4.663   3.705   7.818  1.0599  1.1825 -0.3726
 1866SOL    HW217061   4.616   3.676   7.945 -0.3232 -1.2123 -1.3351
 1867SOL     OW17062   4.546   2.720   5.668 -0.2802 -0.0495 -0.6663
 1867SOL    HW117063   4.563   2.706   5.761  0.9203 -3.8252 -1.4368
 1867SOL    HW217064   4.621   2.680   5.625  0.8979  0.8712  0.5519
 1868SOL     OW17065   4.315   3.259   5.823  0.4683 -0.5118 -0.0321
 1868SOL    HW117066   4.340   3.351   5.813  1.8765 -1.0228 -1.3167
 1868SOL    HW217067   4.232   3.251   5.777  1.3140 -0.5917 -1.5353
 1869SOL     OW17068   3.488   3.155  14.709 -0.4994  0.2838 -0.2893
 1869SOL    HW117069   3.405   3.121  14.743  0.0617  0.2013  0.9973
 1869SOL    HW217070   3.517   3.202  14.787 -0.2430 -3.0192  1.5495
 1870SOL     OW17071   0.368   0.541  17.210  0.1474 -0.4541  0.2776
 1870SOL    HW117072   0.421   0.619  17.193 -2.4245  1.3276  0.3111
 1870SOL    HW217073   0.337   0.558  17.299  0.2058  1.0436  0.0135
 1871SOL     OW17074   1.845   2.802   8.242  0.0161 -0.0952  0.0845
 1871SOL    HW117075   1.780   2.736   8.217 -1.5311  2.7530 -3.5129
 1871SOL    HW217076   1.867   2.769   8.329 -0.3783  3.7749  1.6688
 1872SOL     OW17077   0.801   2.260  11.866  0.1733 -0.0491  0.0729
 1872SOL    HW117078   0.801   2.166  11.844 -0.4342 -0.0816  0.2364
 1872SOL    HW217079   0.878   2.260  11.923 -0.3445  0.7294  0.7501
 1873SOL     OW17080   3.895   3.229   6.068 -0.3360 -0.4943  0.5437
 1873SOL    HW117081   3.901   3.290   5.995  0.0711  0.4013  1.3295
 1873SOL    HW217082   3.816   3.241   6.120 -1.0969  0.9203 -0.9712
 1874SOL     OW17083   3.170   4.584   6.911 -0.2740  0.4046  0.5119
 1874SOL    HW117084   3.165   4.489   6.921 -1.1564  0.4570  0.5618
 1874SOL    HW217085   3.078   4.606   6.922 -0.7903 -0.9617 -1.0237
 1875SOL     OW17086   0.772   2.337   3.784 -0.5107 -0.0537 -0.3962
 1875SOL    HW117087   0.765   2.314   3.877 -1.1436  0.0912 -0.4064
 1875SOL    HW217088   0.798   2.429   3.791 -0.8927  0.0551 -0.3848
 1876SOL     OW17089   2.393   0.311   4.614  0.4156  0.3255 -0.4492
 1876SOL    HW117090   2.443   0.354   4.545  0.8163  1.4664  0.5597
 1876SOL    HW217091   2.449   0.234   4.626 -1.0569 -0.7739 -0.6338
 1877SOL     OW17092   2.121   1.756   7.591 -0.1246  0.7112 -0.1317
 1877SOL    HW117093   2.074   1.673   7.600 -0.3503  0.6533 -2.0004
 1877SOL    HW217094   2.083   1.797   7.514 -2.5977 -2.2127 -0.4608
 1878SOL     OW17095   4.493   1.962  13.644 -0.3144 -0.1542  0.8826
 1878SOL    HW117096   4.416   2.009  13.611 -0.1820  0.9660  2.1530
 1878SOL    HW217097   4.475   1.956  13.738 -0.7476 -1.0689  0.7469
 1879SOL     OW17098   3.543   3.383   8.399 -0.2546  0.0501  0.1765
 1879SOL    HW117099   3.458   3.379   8.443 -0.7694 -0.0862 -0.8209
 1879SOL    HW217100   3.578   3.454   8.453  0.0085 -0.7775  1.0900
 1880SOL     OW17101   4.687   4.720   5.196  0.5201 -0.6489  0.0342
 1880SOL    HW117102   4.650   0.007   5.108  2.5373  0.7408 -0.6465
 1880SOL    HW217103   4.620   4.684   5.254 -0.7659  1.3252 -0.2050
 1881SOL     OW17104   3.869   4.066  12.977  0.6340  0.0975  0.0083
 1881SOL    HW117105   3.920   4.137  13.015  1.9944 -1.7846  1.7173
 1881SOL    HW217106   3.823   4.114  12.908  1.6367 -2.0353 -2.1633
 1882SOL     OW17107   1.387   0.808   9.262  0.9710  0.1853 -0.0976
 1882SOL    HW117108   1.310   0.757   9.237  0.5550  0.3520  0.8421
 1882SOL    HW217109   1.375   0.881   9.202  1.7315  0.8750  0.5844
 1883SOL     OW17110   4.499   2.849  10.490 -0.2429 -0.6007  0.2711
 1883SOL    HW117111   4.587   2.812  10.490  0.5057  1.2242 -0.6510
 1883SOL    HW217112   4.505   2.915  10.422 -1.5978 -1.7363 -0.9633
 1884SOL     OW17113   1.379   3.876   0.217 -0.3801  0.6975 -0.2399
 1884SOL    HW117114   1.357   3.880   0.310 -0.5523 -0.8581 -0.2271
 1884SOL    HW217115   1.394   3.968   0.192  1.3406  0.8446  1.3354
 1885SOL     OW17116   3.242   0.969   5.382  0.4026  0.1949 -0.1446
 1885SOL    HW117117   3.308   1.017   5.331  0.9012 -1.2811 -0.8773
 1885SOL    HW217118   3.225   0.886   5.337  1.1302  0.3103 -0.6322
 1886SOL     OW17119   4.567   2.108   9.182 -0.6063  0.3021  0.3216
 1886SOL    HW117120   4.587   2.036   9.242  1.2975  1.2819  0.8585
 1886SOL    HW217121   4.497   2.066   9.132  1.3852 -1.6157 -0.8785
 1887SOL     OW17122   4.205   0.769   4.327  0.6191 -0.3603  0.7158
 1887SOL    HW117123   4.217   0.848   4.274 -1.2365 -2.2859 -2.5409
 1887SOL    HW217124   4.118   0.740   4.300  1.0824 -0.6221 -0.5063
 1888SOL     OW17125   0.459   3.709  11.603 -0.3935 -0.4916 -0.0789
 1888SOL    HW117126   0.425   3.796  11.624 -1.4104 -0.7923 -0.5008
 1888SOL    HW217127   0.528   3.697  11.668  0.5009 -0.9321 -1.1186
 1889SOL     OW17128   3.806   4.643   6.655 -0.1319  0.0678  0.3349
 1889SOL    HW117129   3.851   4.680   6.730 -1.4866  3.5185 -0.5729
 1889SOL    HW217130   3.862   4.568   6.634 -0.9923 -0.8972  1.4491
 1890SOL     OW17131   3.978   2.874   9.135 -0.2327 -0.4011 -0.1448
 1890SOL    HW117132   3.963   2.938   9.204  0.5266  0.5441 -0.8591
 1890SOL    HW217133   4.070   2.887   9.111 -0.0025  0.8514  1.4571
 1891SOL     OW17134   2.111   2.269   7.143  0.0686  0.5078  0.0955
 1891SOL    HW117135   2.176   2.200   7.127  0.1991  1.0635 -1.8169
 1891SOL    HW217136   2.096   2.243   7.234 -0.5772  0.3244 -0.0663
 1892SOL     OW17137   0.344   2.142  16.002  0.1214 -0.0158 -0.3376
 1892SOL    HW117138   0.298   2.180  15.927  2.2599  1.9581 -0.6377
 1892SOL    HW217139   0.372   2.064  15.954  0.4531 -1.6397  2.4938
 1893SOL     OW17140   3.539   0.450   8.734 -0.0104 -0.0300  0.2250
 1893SOL    HW117141   3.624   0.408   8.719  0.9428  2.1464 -0.4714
 1893SOL    HW217142   3.549   0.496   8.817  0.4960 -1.3837  0.9194
 1894SOL     OW17143   1.766   3.500   7.578  0.5505  0.5875 -0.3983
 1894SOL    HW117144   1.828   3.567   7.551  1.1054  0.4349  0.4972
 1894SOL    HW217145   1.802   3.466   7.660 -0.7387  2.0248  0.7745
 1895SOL     OW17146   2.073   3.813   5.891  0.0029  0.7765  0.6058
 1895SOL    HW117147   2.037   3.856   5.813 -0.4735  1.4927  1.2265
 1895SOL    HW217148   2.158   3.855   5.902 -0.2995  1.3102  0.9150
 1896SOL     OW17149   1.958   2.867  16.313  0.4117  0.4337  0.6799
 1896SOL    HW117150   1.869   2.899  16.328 -0.1689 -0.4042 -0.9340
 1896SOL    HW217151   1.975   2.793  16.372 -1.0443  0.8634  1.6269
 1897SOL     OW17152   0.477   1.182   7.555 -0.1329 -0.2614 -0.3895
 1897SOL    HW117153   0.557   1.141   7.520  0.7415  2.0494 -1.0941
 1897SOL    HW217154   0.411   1.117   7.532  0.3743 -1.4504  1.5257
 1898SOL     OW17155   1.412   1.893   0.468 -0.1282  0.1853 -0.5080
 1898SOL    HW117156   1.486   1.884   0.408 -0.2103  0.2246 -0.6157
 1898SOL    HW217157   1.442   1.830   0.534 -0.3819  2.1270  1.4435
 1899SOL     OW17158   0.646   3.834   8.806  0.4732 -0.2472  0.1138
 1899SOL    HW117159   0.688   3.785   8.735  0.4215 -1.4147  0.9002
 1899SOL    HW217160   0.712   3.902   8.819  0.4779  0.0512 -1.4600
 1900SOL     OW17161   3.495   0.875   6.103 -0.2645 -0.3163 -0.4183
 1900SOL    HW117162   3.560   0.936   6.068  0.8743 -0.7557  0.9279
 1900SOL    HW217163   3.444   0.851   6.026  1.0958  0.2644 -1.5043
 1901SOL     OW17164   3.569   1.043   1.520  0.2227 -0.4535 -0.0189
 1901SOL    HW117165   3.495   0.995   1.558  2.3363 -3.7148 -0.0149
 1901SOL    HW217166   3.614   0.966   1.486 -2.0646 -1.5381 -0.6036
 1902SOL     OW17167   4.677   2.554   2.730  0.1279  0.2809  0.2126
 1902SOL    HW117168   4.683   2.585   2.820 -1.3544 -0.6718  0.6362
 1902SOL    HW217169   4.614   2.482   2.729 -0.3423  0.6959 -0.1379
 1903SOL     OW17170   4.487   1.161   8.421  0.1110  0.2283  0.4248
 1903SOL    HW117171   4.406   1.207   8.400 -0.5851 -0.3493  1.8334
 1903SOL    HW217172   4.478   1.160   8.516 -1.0633  1.0734  0.3168
 1904SOL     OW17173   4.049   1.045   9.589 -0.6219  0.9999  0.3393
 1904SOL    HW117174   4.064   1.098   9.667 -0.6647  1.7589 -0.1683
 1904SOL    HW217175   4.135   1.044   9.548 -0.3737  1.0723  0.8707
 1905SOL     OW17176   2.631   2.324   5.984  0.2130 -0.7230  0.0658
 1905SOL    HW117177   2.700   2.333   5.919  1.2949  0.4750  1.3846
 1905SOL    HW217178   2.669   2.356   6.066 -0.7130 -0.5158  0.4092
 1906SOL     OW17179   3.393   1.534   2.563 -0.4343 -0.1529  0.6020
 1906SOL    HW117180   3.487   1.549   2.558 -0.8214  1.8171 -0.7242
 1906SOL    HW217181   3.358   1.621   2.543 -0.9461 -0.4924  0.0091
 1907SOL     OW17182   3.952   0.679   3.282  0.0898  0.1585  0.0294
 1907SOL    HW117183   3.956   0.768   3.247  2.5434  0.2111  0.4602
 1907SOL    HW217184   4.015   0.689   3.353 -0.6285  4.2792  0.1223
 1908SOL     OW17185   3.412   1.443   2.848  0.3790  0.1298  0.0847
 1908SOL    HW117186   3.363   1.362   2.852 -0.0824  0.5569  3.2147
 1908SOL    HW217187   3.400   1.475   2.758  0.1832 -0.3382 -0.0551
 1909SOL     OW17188   0.746   2.839   8.956 -0.3932  0.1683  0.1723
 1909SOL    HW117189   0.682   2.849   8.885  0.0780  0.9410 -0.1483
 1909SOL    HW217190   0.778   2.929   8.967 -0.4277  0.2095 -0.0578
 1910SOL     OW17191   0.738   2.266   7.509 -0.1200  0.0825  0.1830
 1910SOL    HW117192   0.716   2.313   7.589 -1.4679 -0.4167  0.1094
 1910SOL    HW217193   0.723   2.336   7.445 -0.3893 -1.4243 -1.4049
 1911SOL     OW17194   1.423   0.166   9.542 -0.2793 -0.1523  0.5348
 1911SOL    HW117195   1.490   0.157   9.610 -0.8389 -0.1698  1.0832
 1911SOL    HW217196   1.454   0.102   9.478 -1.8697 -0.7768  0.3836
 1912SOL     OW17197   0.557   2.909  11.658  0.3919 -0.5986  0.0506
 1912SOL    HW117198   0.552   2.911  11.753 -1.3950  0.4720 -0.0565
 1912SOL    HW217199   0.464   2.926  11.640  0.7115  1.4316  0.3764
 1913SOL     OW17200   0.088   2.111  15.750 -0.0922  0.3461 -0.1216
 1913SOL    HW117201   0.116   2.089  15.661  0.2416  1.8999 -0.4029
 1913SOL    HW217202   0.010   2.057  15.760  0.1141 -0.0911 -0.8562
 1914SOL     OW17203   0.357   4.532   2.720  0.6173 -0.1350 -0.3249
 1914SOL    HW117204   0.300   4.456   2.712  0.1750  0.0410  1.1447
 1914SOL    HW217205   0.446   4.497   2.712 -0.1114 -1.7131 -1.4841
 1915SOL     OW17206   1.433   0.048   2.872  0.4320 -0.1518  0.2621
 1915SOL    HW117207   1.418   0.137   2.839  2.9369 -0.0859 -0.6705
 1915SOL    HW217208   1.504   0.023   2.813  1.1100 -1.3541  1.5781
 1916SOL     OW17209   1.111   4.264   4.603  0.4036 -0.1275  0.1981
 1916SOL    HW117210   1.173   4.209   4.556 -1.1023 -0.7567 -1.0307
 1916SOL    HW217211   1.057   4.300   4.533 -0.9870 -1.5213  0.5688
 1917SOL     OW17212   1.089   2.641   7.824  0.3942 -0.1125 -0.4809
 1917SOL    HW117213   1.020   2.627   7.760 -0.1979  2.3741 -0.3894
 1917SOL    HW217214   1.082   2.556   7.867  2.5431  0.7018  1.5159
 1918SOL     OW17215   1.692   2.367   9.426  0.1968 -0.0065 -0.1796
 1918SOL    HW117216   1.752   2.416   9.370 -0.4239  0.3175 -0.5672
 1918SOL    HW217217   1.723   2.397   9.511 -0.9801  1.6270 -0.3175
 1919SOL     OW17218   2.501   4.594  15.989  0.1809  0.0000 -0.1740
 1919SOL    HW117219   2.508   4.512  15.940 -0.4752 -1.5180  2.3193
 1919SOL    HW217220   2.594   4.606  16.006  0.2626 -0.2311 -0.4652
 1920SOL     OW17221   0.614   4.248   0.125 -0.0641  0.3529  0.2073
 1920SOL    HW117222   0.634   4.290   0.042  1.6464 -0.3620  0.2366
 1920SOL    HW217223   0.568   4.168   0.099 -0.2470  0.4200  0.3230
 1921SOL     OW17224   3.848   1.802   6.197  0.1834 -0.3921  0.2869
 1921SOL    HW117225   3.805   1.720   6.222  0.5371 -0.8330 -0.5676
 1921SOL    HW217226   3.844   1.799   6.101 -1.3554  0.1622  0.3306
 1922SOL     OW17227   4.057   0.785   2.391 -0.3313  0.1799 -0.1644
 1922SOL    HW117228   4.149   0.784   2.363 -0.7350  1.6707 -1.5687
 1922SOL    HW217229   4.052   0.868   2.439  4.0416  0.6358 -0.5303
 1923SOL     OW17230   4.328   1.242   7.700 -0.3275 -0.1040  0.0222
 1923SOL    HW117231   4.260   1.175   7.711  0.8639 -1.1648  0.8631
 1923SOL    HW217232   4.364   1.243   7.788 -1.6238 -0.3337  0.5514
 1924SOL     OW17233   0.931   3.296   9.625  0.7461  0.1104  0.7268
 1924SOL    HW117234   1.011   3.342   9.602  0.9087 -0.1780  0.7237
 1924SOL    HW217235   0.882   3.348   9.689 -2.3370 -3.3461  1.1894
 1925SOL     OW17236   2.511   0.153  10.540 -0.2180  0.3494 -0.2802
 1925SOL    HW117237   2.451   0.104  10.597  0.7757  0.4549  0.8524
 1925SOL    HW217238   2.474   0.123  10.457 -1.1844 -0.3841  0.4051
 1926SOL     OW17239   3.776   3.041   0.323 -0.6705 -0.1349 -0.3977
 1926SOL    HW117240   3.759   2.993   0.242  0.1653 -0.7899 -0.1878
 1926SOL    HW217241   3.815   2.972   0.377  1.1330  2.7873  2.0650
 1927SOL     OW17242   4.307   2.426   4.177 -0.0659  0.3214  0.3154
 1927SOL    HW117243   4.310   2.338   4.141 -0.0154  0.5416 -0.2094
 1927SOL    HW217244   4.306   2.468   4.091  1.1196  0.3874  0.3356
 1928SOL     OW17245   1.874   1.000   2.252  0.7074 -0.1445  0.3569
 1928SOL    HW117246   1.967   1.001   2.229  0.2940  0.2483 -1.3461
 1928SOL    HW217247   1.856   0.908   2.231 -4.2520  0.6385  1.1384
 1929SOL     OW17248   3.761   3.773   8.075 -0.2100 -0.4417 -0.3052
 1929SOL    HW117249   3.745   3.845   8.136 -0.8277 -0.8814  0.0655
 1929SOL    HW217250   3.855   3.769   8.057  0.1311  0.4009  1.2697
 1930SOL     OW17251   2.734   0.250  14.077  0.5234  0.1985 -0.3740
 1930SOL    HW117252   2.639   0.258  14.070  0.2613 -1.2762  1.5711
 1930SOL    HW217253   2.759   0.305  14.003 -0.2437  1.1663  0.0821
 1931SOL     OW17254   1.626   2.943   9.777 -0.2903 -0.0321  0.6698
 1931SOL    HW117255   1.592   2.968   9.691  0.4041  1.5295  0.8502
 1931SOL    HW217256   1.688   2.881   9.739 -2.2676 -1.9490  0.6127
 1932SOL     OW17257   4.399   1.986  13.908  0.3021 -0.2837 -0.2758
 1932SOL    HW117258   4.342   2.028  13.972 -0.6383 -1.4321 -0.3700
 1932SOL    HW217259   4.476   2.043  13.919 -0.5790  0.3278  2.6693
 1933SOL     OW17260   0.492   0.772   9.161 -0.1356  0.0479  0.2924
 1933SOL    HW117261   0.418   0.803   9.214  0.0402  0.4389  0.3113
 1933SOL    HW217262   0.568   0.815   9.201 -0.0425 -0.6397  0.8446
 1934SOL     OW17263   2.836   4.217   5.245  0.3913 -0.5760  0.2798
 1934SOL    HW117264   2.789   4.233   5.327  2.5511  0.2529  1.3455
 1934SOL    HW217265   2.863   4.303   5.213 -2.2114 -0.0666 -0.5316
 1935SOL     OW17266   0.432   4.210   3.624 -0.2465  0.2277  0.3955
 1935SOL    HW117267   0.340   4.237   3.627 -0.4289 -0.3697  0.0179
 1935SOL    HW217268   0.428   4.124   3.666  2.6142  0.1984  0.5866
 1936SOL     OW17269   0.288   0.152  16.335 -0.4976  0.2941 -0.3331
 1936SOL    HW117270   0.312   0.245  16.331  1.1608 -0.0545  1.4158
 1936SOL    HW217271   0.238   0.151  16.254 -0.4060 -1.4789 -0.3533
 1937SOL     OW17272   2.437   2.936   0.805 -0.6268  0.4614 -0.3688
 1937SOL    HW117273   2.484   2.923   0.888 -2.5356 -1.8041  0.3636
 1937SOL    HW217274   2.483   3.013   0.773  0.9223 -0.5523 -0.5881
 1938SOL     OW17275   0.532   2.357  12.124 -0.3246  0.4742 -0.3208
 1938SOL    HW117276   0.492   2.444  12.128 -0.6981  0.3185 -0.8378
 1938SOL    HW217277   0.477   2.325  12.053 -1.5619  1.5114  0.1688
 1939SOL     OW17278   0.080   1.913  16.688 -0.1474 -0.6253  0.0642
 1939SOL    HW117279   0.049   1.987  16.740  1.5817 -0.0384  0.2518
 1939SOL    HW217280   0.103   1.953  16.604  1.6998 -3.2378 -0.6900
 1940SOL     OW17281   4.266   0.457  17.490  0.1319 -0.1419 -0.1872
 1940SOL    HW117282   4.286   0.412  17.409  0.4346 -1.0133  0.3779
 1940SOL    HW217283   4.268   0.548  17.459 -0.7840 -0.8573 -2.3695
 1941SOL     OW17284   4.602   1.961  15.625  0.5642 -0.0380 -0.0191
 1941SOL    HW117285   4.518   2.005  15.635 -0.4009 -1.6171 -1.1542
 1941SOL    HW217286   4.589   1.889  15.687 -1.6496 -0.6735 -1.2235
 1942SOL     OW17287   1.586   0.360   8.245  0.0606  0.3140  0.5215
 1942SOL    HW117288   1.675   0.347   8.277  0.5084  0.2113 -0.7451
 1942SOL    HW217289   1.539   0.324   8.320 -1.0659  0.4038 -0.1338
 1943SOL     OW17290   3.630   3.716   8.375  1.1057 -0.1804 -0.1617
 1943SOL    HW117291   3.610   3.809   8.379 -0.8113 -0.6371  0.9928
 1943SOL    HW217292   3.703   3.714   8.437  1.1393  1.4671 -0.1641
 1944SOL     OW17293   0.917   4.140   7.765  0.5415  0.2063  0.9613
 1944SOL    HW117294   0.907   4.204   7.695 -0.0812 -2.3403 -1.3125
 1944SOL    HW217295   0.974   4.193   7.820  1.6726 -0.2944  0.2633
 1945SOL     OW17296   3.659   0.864   9.067 -0.3430  0.0464 -0.1024
 1945SOL    HW117297   3.711   0.888   8.990  0.0072  0.7128  0.3486
 1945SOL    HW217298   3.735   0.877   9.123 -1.6735  2.7703  1.0371
 1946SOL     OW17299   4.056   0.440   2.248  0.0229 -0.4236  0.2634
 1946SOL    HW117300   4.149   0.445   2.271  0.3763  0.3808 -1.4080
 1946SOL    HW217301   4.023   0.473   2.332 -3.3972  1.7168 -1.9382
 1947SOL     OW17302   1.891   1.296  11.266 -0.0845 -0.2465  0.0439
 1947SOL    HW117303   1.929   1.211  11.245  0.0299 -0.2472  0.2619
 1947SOL    HW217304   1.808   1.275  11.309 -1.0164 -1.1134 -2.1638
 1948SOL     OW17305   0.698   4.230   4.266  0.0302  0.4970 -0.3975
 1948SOL    HW117306   0.719   4.153   4.214  0.0172 -0.6841  1.3510
 1948SOL    HW217307   0.702   4.295   4.195 -0.2576  1.5263  0.5215
 1949SOL     OW17308   0.302   4.080   2.591  0.4986 -0.2711  0.6645
 1949SOL    HW117309   0.241   4.010   2.568  0.3766  0.1352 -0.2339
 1949SOL    HW217310   0.380   4.053   2.544 -1.7740 -3.4755 -1.2588
 1950SOL     OW17311   3.290   3.264   0.851 -0.0825  0.2814 -0.0779
 1950SOL    HW117312   3.292   3.171   0.870 -1.1177 -0.1195 -1.9540
 1950SOL    HW217313   3.385   3.271   0.840  0.1877  0.1159  2.1591
 1951SOL     OW17314   0.945   2.838  10.849  0.3109  0.1743  0.1500
 1951SOL    HW117315   0.918   2.853  10.940  0.6652 -0.7206  0.4000
 1951SOL    HW217316   0.998   2.918  10.844 -0.3072  0.4562 -1.8871
 1952SOL     OW17317   1.723   1.504   1.655 -0.0896  0.2434 -0.2715
 1952SOL    HW117318   1.714   1.578   1.715 -1.2442 -1.9810  2.2923
 1952SOL    HW217319   1.628   1.492   1.647  0.0685  0.2827 -2.4408
 1953SOL     OW17320   2.072   1.492  13.815  0.0673 -0.4611  0.2074
 1953SOL    HW117321   2.054   1.398  13.802 -1.3105 -0.0746 -0.7129
 1953SOL    HW217322   2.049   1.525  13.728 -1.9112  0.9603  1.2895
 1954SOL     OW17323   3.807   0.340   6.541 -0.3019 -0.1610 -0.2782
 1954SOL    HW117324   3.722   0.296   6.545 -0.2726 -0.2326 -0.4164
 1954SOL    HW217325   3.792   0.410   6.478  0.3459 -0.2596 -0.5469
 1955SOL     OW17326   4.688   1.329   5.426  0.2124  0.1176 -0.1678
 1955SOL    HW117327   0.042   1.386   5.417 -0.0852  0.9673  2.5871
 1955SOL    HW217328   4.719   1.272   5.496  0.7297 -1.2258 -1.5074
 1956SOL     OW17329   3.171   2.860   6.875 -0.1359 -0.5739  0.5982
 1956SOL    HW117330   3.130   2.828   6.795  2.3104 -0.4610 -0.6997
 1956SOL    HW217331   3.096   2.911   6.906 -0.8362 -0.6198 -1.0490
 1957SOL     OW17332   1.322   4.604   0.580  0.2958 -0.0381  0.4934
 1957SOL    HW117333   1.269   4.526   0.596 -0.2553  0.1254 -0.5654
 1957SOL    HW217334   1.279   4.661   0.516  0.0726  1.6050  2.1057
 1958SOL     OW17335   4.203   4.627   4.468  0.1307 -0.2740 -0.1658
 1958SOL    HW117336   4.118   4.583   4.462  0.4288 -1.1106  1.7795
 1958SOL    HW217337   4.264   4.554   4.479  0.5454  0.1741  0.5075
 1959SOL     OW17338   0.585   0.565   9.384  0.8187 -0.0466 -0.0117
 1959SOL    HW117339   0.575   0.618   9.305 -1.2099  0.3601  0.5261
 1959SOL    HW217340   0.563   0.482   9.341  4.0531  0.4449 -2.6521
 1960SOL     OW17341   1.732   0.633   4.843  0.1042 -0.2598  0.2729
 1960SOL    HW117342   1.757   0.716   4.884  2.4163 -0.3256 -1.0219
 1960SOL    HW217343   1.648   0.619   4.887  1.0167 -0.1892  2.0485
 1961SOL     OW17344   1.649   4.571   7.236 -0.2008  0.0007  0.2108
 1961SOL    HW117345   1.641   4.540   7.326 -1.7601 -1.7995 -0.5448
 1961SOL    HW217346   1.614   4.659   7.240  0.8029  0.3924  0.4185
 1962SOL     OW17347   4.659   4.587   6.567 -0.1770 -0.4134 -0.0527
 1962SOL    HW117348   0.030   4.576   6.549 -0.0213 -0.8996  1.0877
 1962SOL    HW217349   4.625   4.567   6.480 -0.3418  0.0105 -0.0900
 1963SOL     OW17350   2.050   3.907   2.366 -0.1195  0.5229 -0.5627
 1963SOL    HW117351   2.135   3.866   2.378  0.0235  0.6279 -1.2266
 1963SOL    HW217352   2.076   3.993   2.333  0.2993  0.6112 -0.0016
 1964SOL     OW17353   1.392   1.506   3.641 -0.5509  0.1301  0.3049
 1964SOL    HW117354   1.364   1.422   3.677  0.8343 -0.4549  0.0420
 1964SOL    HW217355   1.326   1.514   3.573 -0.5832  1.9678  0.5680
 1965SOL     OW17356   1.754   4.639   6.653 -0.5334  0.1267  0.0843
 1965SOL    HW117357   1.793   4.678   6.731 -1.8019  1.1690  0.1981
 1965SOL    HW217358   1.825   4.581   6.625 -0.2928 -0.0119  0.9894
 1966SOL     OW17359   3.402   2.067   5.451  0.7106  0.2619 -0.3400
 1966SOL    HW117360   3.330   2.126   5.475  0.0759 -0.1001 -1.3332
 1966SOL    HW217361   3.407   2.085   5.357 -0.4010  1.5697 -0.1489
 1967SOL     OW17362   0.777   0.135   1.541  0.2469  0.1850 -0.3556
 1967SOL    HW117363   0.716   0.207   1.526  0.9033  0.4072 -1.9236
 1967SOL    HW217364   0.849   0.154   1.481 -0.6900  1.2840 -1.1422
 1968SOL     OW17365   0.708   1.753   3.210  0.2040 -0.4776  0.1732
 1968SOL    HW117366   0.738   1.819   3.273  2.9065 -1.4185 -0.0977
 1968SOL    HW217367   0.799   1.723   3.203 -0.4425 -1.9783 -1.7515
 1969SOL     OW17368   4.515   1.382   1.683 -0.1978 -0.0717  0.0432
 1969SOL    HW117369   4.530   1.327   1.760  1.0698 -1.6575 -1.3439
 1969SOL    HW217370   4.489   1.312   1.622 -0.3359  0.9265 -1.0398
 1970SOL     OW17371   1.229   1.046  14.356  0.0307  0.4386  0.6442
 1970SOL    HW117372   1.282   1.125  14.347  1.3247 -0.2951  2.0412
 1970SOL    HW217373   1.277   1.007  14.429  2.6046 -1.8083 -2.2151
 1971SOL     OW17374   2.108   2.736   3.048  0.2319 -0.5790  0.5719
 1971SOL    HW117375   2.126   2.682   2.971  0.5862  0.6119 -0.1785
 1971SOL    HW217376   2.188   2.736   3.100  1.6526  0.3494 -1.6145
 1972SOL     OW17377   1.212   2.214   7.686  0.8983  0.1622 -0.1335
 1972SOL    HW117378   1.216   2.269   7.608  1.2963 -0.1754 -0.3553
 1972SOL    HW217379   1.126   2.236   7.722  0.1039 -0.0585 -1.8852
 1973SOL     OW17380   1.227   2.528   8.413  0.2118 -0.1959 -0.0925
 1973SOL    HW117381   1.210   2.486   8.497 -0.4222  0.9506  0.3525
 1973SOL    HW217382   1.207   2.618   8.437  0.6897 -0.1535  0.1458
 1974SOL     OW17383   3.026   3.127   4.311 -0.3822  0.2546 -0.0899
 1974SOL    HW117384   2.991   3.038   4.320  0.0831 -0.0015 -0.8296
 1974SOL    HW217385   3.114   3.115   4.275 -0.6377 -0.5244 -0.4610
 1975SOL     OW17386   2.704   1.223   2.507 -0.1596 -0.4036  0.7935
 1975SOL    HW117387   2.630   1.253   2.455 -0.1380  0.4501  1.2403
 1975SOL    HW217388   2.770   1.292   2.497  0.9003 -1.2671  1.7310
 1976SOL     OW17389   4.496   0.713   9.164  0.5228 -0.4641 -0.0142
 1976SOL    HW117390   4.512   0.807   9.159 -2.8165  0.0106 -1.6997
 1976SOL    HW217391   4.535   0.687   9.080  1.5105  1.1706 -0.0566
 1977SOL     OW17392   3.871   1.365   6.854 -0.0281 -0.2231 -0.1989
 1977SOL    HW117393   3.827   1.280   6.848 -1.2486  0.2190  2.6499
 1977SOL    HW217394   3.960   1.341   6.827  0.0163  0.7996 -0.9788
 1978SOL     OW17395   1.238   4.417   3.491 -0.4322 -0.5453 -0.0139
 1978SOL    HW117396   1.273   4.393   3.405 -1.6203  0.8288 -0.8960
 1978SOL    HW217397   1.240   4.513   3.495 -2.1475 -0.5532  1.1798
 1979SOL     OW17398   1.170   0.463   0.592  0.0465 -0.5326  0.5967
 1979SOL    HW117399   1.121   0.491   0.515 -0.2392  0.2489  1.0570
 1979SOL    HW217400   1.258   0.441   0.562  0.2070  2.3326 -1.0293
 1980SOL     OW17401   2.414   1.818  13.208  0.1204 -0.2167  0.2829
 1980SOL    HW117402   2.417   1.725  13.229 -3.8323 -0.0249  1.7950
 1980SOL    HW217403   2.365   1.808  13.126 -1.4854  0.0966  1.1985
 1981SOL     OW17404   0.773   2.961  12.608  0.1892  0.1980  0.7244
 1981SOL    HW117405   0.748   3.032  12.667 -2.2796 -0.3394  0.3396
 1981SOL    HW217406   0.823   2.916  12.676  1.0492 -0.5810 -0.4256
 1982SOL     OW17407   3.910   1.914   8.576  0.8032 -0.0359 -0.1297
 1982SOL    HW117408   3.954   1.918   8.661  1.4630  2.3874 -0.5827
 1982SOL    HW217409   3.846   1.844   8.591 -0.2162  0.5993 -1.4884
 1983SOL     OW17410   0.627   2.676   3.225  0.3654 -0.7033  0.4962
 1983SOL    HW117411   0.681   2.752   3.200  0.0814 -0.2077  1.4024
 1983SOL    HW217412   0.616   2.625   3.144 -0.2852 -3.2783  2.2033
 1984SOL     OW17413   3.768   4.286   6.108  0.2210  0.3123  0.0329
 1984SOL    HW117414   3.829   4.212   6.108  1.1262  1.0482 -0.8007
 1984SOL    HW217415   3.685   4.242   6.093  0.7535 -0.9480  0.7653
 1985SOL     OW17416   1.000   3.352   2.074 -0.2688 -0.7559  0.0213
 1985SOL    HW117417   1.008   3.356   2.169 -0.1501 -1.7731  0.0554
 1985SOL    HW217418   1.088   3.376   2.046  0.5127 -0.6941  2.5211
 1986SOL     OW17419   2.450   4.270   4.215 -0.0522  0.3032 -0.4529
 1986SOL    HW117420   2.441   4.181   4.181 -2.7215  0.4073 -0.0234
 1986SOL    HW217421   2.537   4.258   4.252 -0.6254 -1.9793  0.1450
 1987SOL     OW17422   1.239   4.403   2.634 -0.0149 -0.0350 -0.0635
 1987SOL    HW117423   1.252   4.434   2.724 -0.0388  2.5849 -0.9420
 1987SOL    HW217424   1.323   4.432   2.598  0.1066  0.6311  0.7648
 1988SOL     OW17425   2.968   0.355  14.231 -0.2255 -0.0726  0.1113
 1988SOL    HW117426   3.048   0.326  14.188  0.6895  1.6350  0.6362
 1988SOL    HW217427   2.916   0.352  14.151 -0.7833  1.8938  0.3904
 1989SOL     OW17428   1.962   4.321  13.942  0.1518  0.1282 -0.1656
 1989SOL    HW117429   1.972   4.366  14.026 -0.1022  0.4111 -0.2904
 1989SOL    HW217430   1.872   4.289  13.938 -1.3764  4.6879 -1.1018
 1990SOL     OW17431   2.948   0.056   2.683 -0.4521  0.0019 -0.1637
 1990SOL    HW117432   2.862   0.069   2.723 -0.2037 -0.1342  0.4191
 1990SOL    HW217433   2.962   0.136   2.632  0.2352 -1.6459 -2.5651
 1991SOL     OW17434   1.700   3.366   6.303 -0.5155  0.7957 -0.3634
 1991SOL    HW117435   1.734   3.352   6.391  0.0829  0.6759 -0.6124
 1991SOL    HW217436   1.646   3.287   6.302 -2.4101  2.1095 -2.8251
 1992SOL     OW17437   1.196   0.670   9.117  0.1949  0.1296  0.5843
 1992SOL    HW117438   1.154   0.723   9.049 -0.6545 -1.2214  0.0680
 1992SOL    HW217439   1.117   0.638   9.160  0.1038 -0.1491  0.2039
 1993SOL     OW17440   3.056   0.862   4.036 -0.4123 -0.0691 -0.1923
 1993SOL    HW117441   2.985   0.850   4.098  1.8435 -1.4031  2.1334
 1993SOL    HW217442   3.022   0.840   3.949  0.5591 -3.0232  0.1803
 1994SOL     OW17443   0.960   2.767   4.876  0.1173  0.6958  0.5499
 1994SOL    HW117444   0.942   2.776   4.970  1.3650  1.4386  0.7280
 1994SOL    HW217445   0.986   2.675   4.875 -0.8262  0.4383 -0.2091
 1995SOL     OW17446   3.718   3.153   1.802  0.3831  0.0127  0.0600
 1995SOL    HW117447   3.656   3.219   1.772 -1.1791 -0.2278  2.7673
 1995SOL    HW217448   3.801   3.198   1.818 -0.0006  0.8411 -0.2686
 1996SOL     OW17449   3.798   4.148   1.699  0.2087 -0.5209  0.1259
 1996SOL    HW117450   3.763   4.231   1.732  1.1770  0.2595 -0.7625
 1996SOL    HW217451   3.821   4.177   1.610 -1.2120  0.7989  0.1720
 1997SOL     OW17452   1.327   1.700   3.804  0.1958  0.3293  0.0606
 1997SOL    HW117453   1.417   1.713   3.835  0.7781 -0.0750 -1.4899
 1997SOL    HW217454   1.338   1.627   3.743  0.2745  1.5456 -1.3716
 1998SOL     OW17455   0.995   1.652   2.663  0.2307 -0.3506 -0.4447
 1998SOL    HW117456   1.047   1.639   2.584  0.8523 -1.4677  0.1531
 1998SOL    HW217457   0.998   1.564   2.702  0.9123  1.0727  2.7283
 1999SOL     OW17458   3.252   2.814   6.557 -0.7894 -0.0408 -0.5215
 1999SOL    HW117459   3.272   2.841   6.467  0.3042 -0.1140 -0.3055
 1999SOL    HW217460   3.310   2.740   6.577 -1.4515 -0.7775 -1.3215
 2000SOL     OW17461   3.734   0.211   9.157 -0.1409 -0.6679  0.1008
 2000SOL    HW117462   3.763   0.287   9.208 -1.2555 -0.6463  0.6957
 2000SOL    HW217463   3.748   0.137   9.216  0.5463 -1.0612 -0.5603
 2001SOL     OW17464   3.987   3.623   3.163  0.4363  0.1918 -0.0335
 2001SOL    HW117465   3.917   3.559   3.147 -0.0982  0.8581 -0.3800
 2001SOL    HW217466   3.941   3.698   3.201  1.4539 -0.0032  1.5557
 2002SOL     OW17467   3.496   3.220   2.124  0.5263 -0.0301 -0.5552
 2002SOL    HW117468   3.557   3.205   2.197 -0.0024 -0.9530 -0.2997
 2002SOL    HW217469   3.409   3.208   2.162 -0.4474 -1.4944 -3.2855
 2003SOL     OW17470   2.030   4.094  16.587 -0.0258  0.1507  0.4660
 2003SOL    HW117471   2.063   4.087  16.498 -1.4758  0.2180 -0.0810
 2003SOL    HW217472   1.941   4.059  16.582  0.1706 -0.5612  1.8188
 2004SOL     OW17473   3.964   4.210   7.498 -0.1401  0.3617  0.3351
 2004SOL    HW117474   3.966   4.181   7.407 -0.2965  0.6077  0.2543
 2004SOL    HW217475   4.048   4.171   7.525  0.5698  1.1797 -0.7077
 2005SOL     OW17476   2.817   2.197   2.382  0.0078  0.1216  0.3397
 2005SOL    HW117477   2.848   2.169   2.296  0.8939 -1.2998  1.1201
 2005SOL    HW217478   2.725   2.217   2.367 -0.2003  0.6293  2.2394
 2006SOL     OW17479   0.302   3.866  11.306  0.3084 -0.0365 -0.4516
 2006SOL    HW117480   0.347   3.795  11.352  0.6121  0.3809 -0.1039
 2006SOL    HW217481   0.218   3.833  11.274 -0.6397  1.2231  0.7696
 2007SOL     OW17482   1.703   0.533   5.954  0.4662 -0.3474 -0.1287
 2007SOL    HW117483   1.729   0.453   5.998  2.2832  1.2290  1.6854
 2007SOL    HW217484   1.635   0.567   6.012 -1.2304 -0.2187 -2.1823
 2008SOL     OW17485   2.826   1.383   4.295 -0.7898 -0.3562  0.4588
 2008SOL    HW117486   2.775   1.361   4.217  0.1566 -2.4947  0.4182
 2008SOL    HW217487   2.780   1.463   4.320  1.4236  0.9178  0.4239
 2009SOL     OW17488   1.971   0.087   8.431 -0.6717 -0.6830 -0.2341
 2009SOL    HW117489   2.052   0.062   8.387  0.4095  0.0408  1.3419
 2009SOL    HW217490   1.902   0.044   8.381 -0.1495 -0.0287 -1.5046
 2010SOL     OW17491   1.429   4.699   9.814 -0.5950  0.6286 -0.2183
 2010SOL    HW117492   1.416   4.655   9.729 -1.8293  0.3681  0.1029
 2010SOL    HW217493   1.502   0.030   9.785  1.5509 -2.6130 -0.7883
 2011SOL     OW17494   1.440   4.071   2.286 -0.4725 -0.0074 -0.5011
 2011SOL    HW117495   1.489   4.152   2.275 -2.1868  1.1236  0.1857
 2011SOL    HW217496   1.432   4.064   2.381 -0.0437 -2.2173 -0.6307
 2012SOL     OW17497   4.722   1.567   1.753 -0.5379 -0.0013  0.0690
 2012SOL    HW117498   4.648   1.518   1.716  0.1707 -0.7429 -0.3423
 2012SOL    HW217499   0.002   1.534   1.843  0.6002 -0.0134  0.0244
 2013SOL     OW17500   0.457   3.218   7.687  0.6261 -0.6781 -0.5178
 2013SOL    HW117501   0.411   3.183   7.764 -0.1957  1.1505 -0.1879
 2013SOL    HW217502   0.524   3.276   7.724  1.0686 -1.6919  0.2759
 2014SOL     OW17503   0.823   3.164  16.199 -0.3890 -0.3964 -0.6854
 2014SOL    HW117504   0.792   3.083  16.238  0.9905 -0.4350  0.3421
 2014SOL    HW217505   0.857   3.130  16.117 -3.2789 -0.3412 -1.9109
 2015SOL     OW17506   0.474   4.149   5.878 -0.2736 -0.2667  0.2538
 2015SOL    HW117507   0.513   4.236   5.868  0.5648 -0.7217 -0.4642
 2015SOL    HW217508   0.468   4.121   5.786  2.2132 -1.5526  0.5123
 2016SOL     OW17509   1.496   0.641   8.149 -0.5831 -0.3382 -0.6296
 2016SOL    HW117510   1.499   0.731   8.116 -0.6713 -0.3278 -0.6097
 2016SOL    HW217511   1.557   0.635   8.222 -1.6341 -1.4985  0.1540
 2017SOL     OW17512   2.720   0.590   8.705  0.3238  0.4003  0.2563
 2017SOL    HW117513   2.796   0.532   8.715 -0.3635 -0.6247 -0.4493
 2017SOL    HW217514   2.761   0.669   8.671 -0.8156  0.8125 -0.1606
 2018SOL     OW17515   3.394   0.759   6.769 -0.1966  0.3402  0.0772
 2018SOL    HW117516   3.399   0.855   6.767  2.4953  0.1671 -0.9738
 2018SOL    HW217517   3.357   0.751   6.857  0.4155  1.3371  0.4202
 2019SOL     OW17518   4.466   3.376  15.899 -0.2532  0.0627 -0.0192
 2019SOL    HW117519   4.463   3.471  15.899  0.3919  0.0834  0.4382
 2019SOL    HW217520   4.543   3.346  15.850 -0.3023 -1.5895  0.9195
 2020SOL     OW17521   0.256   3.779  10.486  0.5162 -0.2464 -0.0905
 2020SOL    HW117522   0.198   3.733  10.425 -1.6415  0.5090  1.3983
 2020SOL    HW217523   0.213   3.750  10.566 -0.2202  0.7741 -0.1191
 2021SOL     OW17524   3.055   3.528  13.813  0.0720  0.2052  0.2104
 2021SOL    HW117525   3.029   3.550  13.723  0.6017 -3.6667 -0.9032
 2021SOL    HW217526   3.073   3.619  13.839  1.8654  0.2528 -1.1422
 2022SOL     OW17527   2.124   3.252   5.524  0.1698  0.3829 -0.2351
 2022SOL    HW117528   2.037   3.214   5.534  0.1604  0.6016  0.5053
 2022SOL    HW217529   2.112   3.346   5.535  0.0992  0.0857  2.0942
 2023SOL     OW17530   0.453   4.062  12.456  0.1674 -0.3637 -0.1668
 2023SOL    HW117531   0.415   4.125  12.517 -1.4356 -1.8502  0.3922
 2023SOL    HW217532   0.385   3.994  12.460  1.5429 -1.8222 -1.6205
 2024SOL     OW17533   2.233   3.672   8.752 -0.3082 -0.0489  0.4023
 2024SOL    HW117534   2.194   3.697   8.669  0.6714  2.4247  0.6867
 2024SOL    HW217535   2.234   3.577   8.735 -0.7145 -0.0602  0.4586
 2025SOL     OW17536   2.284   1.443   5.408  0.8255  0.2507 -0.1376
 2025SOL    HW117537   2.276   1.413   5.498 -0.2933  0.5317 -0.1533
 2025SOL    HW217538   2.221   1.381   5.373  0.8394  0.1399  0.0379
 2026SOL     OW17539   1.901   1.000   5.160  0.7866 -0.1504  0.1553
 2026SOL    HW117540   1.828   1.019   5.220 -1.1743 -0.0946 -2.2246
 2026SOL    HW217541   1.972   1.019   5.222 -0.3257  0.7915  1.1660
 2027SOL     OW17542   1.976   2.678  16.508 -0.0547  0.3024  0.0116
 2027SOL    HW117543   1.937   2.679  16.595  0.9381 -1.3605  0.4785
 2027SOL    HW217544   1.960   2.592  16.470 -1.1397  0.5660 -0.1250
 2028SOL     OW17545   1.975   2.190   4.809 -0.6709  0.5093  0.2640
 2028SOL    HW117546   2.009   2.134   4.738  0.9324  1.6642  0.1115
 2028SOL    HW217547   2.023   2.141   4.877  0.4128  1.3667  0.1151
 2029SOL     OW17548   1.033   2.859  15.134  0.4245 -0.1049 -0.0259
 2029SOL    HW117549   1.085   2.919  15.081 -0.6192  1.2513  0.4896
 2029SOL    HW217550   1.087   2.781  15.150  1.0591 -0.2488 -2.9758
 2030SOL     OW17551   2.348   2.426  12.910  0.3923 -0.7156 -0.2541
 2030SOL    HW117552   2.281   2.420  12.842 -1.0614 -0.8280  1.1835
 2030SOL    HW217553   2.308   2.489  12.969 -1.2751 -0.2928 -1.8365
 2031SOL     OW17554   3.585   1.538   8.608  0.5955  0.2196 -0.5369
 2031SOL    HW117555   3.514   1.545   8.544 -0.4986 -0.3445  0.6228
 2031SOL    HW217556   3.624   1.453   8.588  0.9627 -0.2601  2.2517
 2032SOL     OW17557   0.085   2.922   3.336  0.1065 -0.0251 -0.2034
 2032SOL    HW117558   0.047   2.941   3.249  1.2757 -1.8994 -1.1148
 2032SOL    HW217559   0.174   2.902   3.308  0.5639 -0.5157  1.6509
 2033SOL     OW17560   2.480   3.264  15.811 -0.1354 -0.3115 -0.2734
 2033SOL    HW117561   2.391   3.268  15.846  0.5236 -1.1177  1.4664
 2033SOL    HW217562   2.518   3.200  15.871 -1.1851  1.7356  2.5671
 2034SOL     OW17563   3.520   4.458   5.171  0.0908 -0.1201 -0.4169
 2034SOL    HW117564   3.559   4.372   5.189 -2.5197 -1.2357 -0.1380
 2034SOL    HW217565   3.436   4.452   5.216  0.9381  1.0600  1.3156
 2035SOL     OW17566   0.555   1.418   9.572  0.0605 -0.4378 -0.1839
 2035SOL    HW117567   0.586   1.384   9.488 -1.4585 -0.6513 -0.6538
 2035SOL    HW217568   0.552   1.512   9.555  0.4288 -0.6607 -1.4724
 2036SOL     OW17569   1.102   2.184   5.407  0.0592 -0.0506 -0.4092
 2036SOL    HW117570   1.077   2.094   5.427  1.6725 -0.7231 -1.3213
 2036SOL    HW217571   1.167   2.192   5.476 -0.6926  0.2343  0.2575
 2037SOL     OW17572   3.806   0.550   1.522  0.2293 -0.5379 -0.2510
 2037SOL    HW117573   3.830   0.492   1.594 -0.4685  1.9554  1.9674
 2037SOL    HW217574   3.745   0.493   1.476 -1.4997  1.5431 -0.5213
 2038SOL     OW17575   1.912   0.679  13.857 -0.0747  0.3576 -0.5726
 2038SOL    HW117576   1.859   0.616  13.906  0.6684 -0.7186 -1.1303
 2038SOL    HW217577   1.973   0.691  13.930 -1.3373  2.3020  0.1346
 2039SOL     OW17578   2.812   4.420   3.614 -0.2226  0.1729  0.1802
 2039SOL    HW117579   2.906   4.415   3.634  0.0233  1.9484 -0.5679
 2039SOL    HW217580   2.805   4.515   3.609  0.2567  0.1657 -0.6481
 2040SOL     OW17581   1.851   2.771  13.634 -0.5021 -0.1387  1.2246
 2040SOL    HW117582   1.835   2.677  13.642 -0.0802 -0.1562  1.8778
 2040SOL    HW217583   1.935   2.768  13.589 -0.2311  0.7604  1.6717
 2041SOL     OW17584   1.237   3.964   7.348  0.1287  0.6059 -0.3233
 2041SOL    HW117585   1.247   3.933   7.258  0.1475  0.3976 -0.2507
 2041SOL    HW217586   1.301   3.917   7.402  0.0153  0.0951 -0.6286
 2042SOL     OW17587   0.366   0.607   7.654  0.2187 -0.2429  0.0664
 2042SOL    HW117588   0.351   0.701   7.640 -2.3858 -0.4356  1.5874
 2042SOL    HW217589   0.300   0.590   7.722 -0.3597 -2.8888 -1.1506
 2043SOL     OW17590   0.313   3.918  15.191 -0.0430  0.8822  1.1315
 2043SOL    HW117591   0.354   3.938  15.107 -2.1459 -0.6355 -0.2844
 2043SOL    HW217592   0.275   4.005  15.202 -0.5491  1.0765 -2.1690
 2044SOL     OW17593   3.041   4.644   4.483 -0.3642  0.0529 -0.5834
 2044SOL    HW117594   3.077   4.617   4.399  1.4319 -1.5992  0.7163
 2044SOL    HW217595   2.996   4.561   4.498 -0.8944  1.0050  3.0991
 2045SOL     OW17596   1.512   2.667   3.266 -0.2374  0.3485 -0.4457
 2045SOL    HW117597   1.585   2.725   3.284  0.1425 -0.3860  0.3978
 2045SOL    HW217598   1.437   2.724   3.283 -2.4869 -2.4105 -1.0201
 2046SOL     OW17599   4.340   1.120   8.682 -0.0930 -0.0699 -0.7329
 2046SOL    HW117600   4.408   1.171   8.726  0.4775 -2.2827  0.9082
 2046SOL    HW217601   4.262   1.172   8.700  1.4613  2.5489 -1.4168
 2047SOL     OW17602   3.959   3.727   2.039  0.0242 -0.0918  0.1549
 2047SOL    HW117603   4.014   3.795   1.999 -1.1143  1.5180  1.3577
 2047SOL    HW217604   3.874   3.767   2.055 -0.8258 -1.6091 -0.4962
 2048SOL     OW17605   1.113   1.066   6.794  0.2926 -0.4691  0.2366
 2048SOL    HW117606   1.150   0.983   6.764  2.2599  0.8890 -1.1319
 2048SOL    HW217607   1.112   1.039   6.886 -3.0119  1.5558  0.7714
 2049SOL     OW17608   2.880   3.785   3.341  0.0057  0.4683 -0.1027
 2049SOL    HW117609   2.966   3.799   3.380 -0.2383  0.1785  0.5540
 2049SOL    HW217610   2.877   3.689   3.337 -0.3380  0.4162  1.4986
 2050SOL     OW17611   1.148   1.952   8.952 -0.3158 -0.2058  0.5252
 2050SOL    HW117612   1.103   1.930   9.034  0.0180 -0.7471  0.5570
 2050SOL    HW217613   1.130   2.046   8.953 -0.2195 -0.1672 -1.2786
 2051SOL     OW17614   0.811   4.547   7.178 -0.2318  0.4613 -0.9437
 2051SOL    HW117615   0.838   4.480   7.116  0.4777  0.4404 -0.6058
 2051SOL    HW217616   0.728   4.510   7.208  0.2114  0.4331  0.2434
 2052SOL     OW17617   0.710   2.229   8.401 -0.3316  0.4479  0.0784
 2052SOL    HW117618   0.678   2.226   8.491  0.0788 -1.2315  0.1695
 2052SOL    HW217619   0.645   2.177   8.354 -0.8622  1.1737  0.0077
 2053SOL     OW17620   0.804   4.047   8.826 -0.0726  0.3260  0.3119
 2053SOL    HW117621   0.772   4.082   8.743  1.2726  0.8869  0.0300
 2053SOL    HW217622   0.758   4.102   8.889  1.3169  0.9883  0.7594
 2054SOL     OW17623   0.979   4.271   8.985 -0.2790 -0.3031 -0.4168
 2054SOL    HW117624   1.025   4.254   9.067 -2.8107 -1.0084  0.8684
 2054SOL    HW217625   0.981   4.184   8.945 -0.2777  0.0175 -1.1061
 2055SOL     OW17626   2.433   4.410   2.137  0.6205  0.2099  0.0577
 2055SOL    HW117627   2.471   4.466   2.205 -1.0097 -0.4210  1.4984
 2055SOL    HW217628   2.344   4.418   2.171  0.7932 -0.9252  0.7666
 2056SOL     OW17629   1.595   3.843   0.043  0.0796  0.3714 -0.0495
 2056SOL    HW117630   1.540   3.861   0.119 -0.4111  1.5895 -0.6981
 2056SOL    HW217631   1.598   3.932   0.009  0.8737 -0.1900 -1.4293
 2057SOL     OW17632   3.719   0.277   8.376 -0.3964  0.2149 -0.6560
 2057SOL    HW117633   3.664   0.355   8.387 -2.1943 -1.0655 -0.6573
 2057SOL    HW217634   3.794   0.306   8.428 -1.3070 -0.0010  0.7527
 2058SOL     OW17635   0.310   3.592   0.379  0.4319  0.3726  0.0877
 2058SOL    HW117636   0.333   3.684   0.388  1.1776  0.5382 -3.2390
 2058SOL    HW217637   0.297   3.584   0.284 -0.9938  0.2046  0.2949
 2059SOL     OW17638   3.434   3.044   4.859 -0.6350  0.8231  0.1261
 2059SOL    HW117639   3.402   3.074   4.944 -0.3702  0.4899  0.3425
 2059SOL    HW217640   3.527   3.043   4.881 -0.7415  0.7196  0.5690
 2060SOL     OW17641   1.320   2.275   2.976  0.1421 -0.1299 -0.2982
 2060SOL    HW117642   1.307   2.334   3.050 -0.9984 -2.2134  1.1679
 2060SOL    HW217643   1.413   2.257   2.992  0.4612  2.4230  0.6089
 2061SOL     OW17644   4.176   1.813   5.701  0.3039 -0.3705 -0.0271
 2061SOL    HW117645   4.257   1.858   5.725  0.4989 -1.5098  1.5233
 2061SOL    HW217646   4.196   1.794   5.609 -0.4071  0.5902 -0.3732
 2062SOL     OW17647   3.495   2.600   6.741 -0.3555 -0.0170  0.1128
 2062SOL    HW117648   3.432   2.568   6.806  1.5633 -0.2110  1.8719
 2062SOL    HW217649   3.579   2.596   6.787  0.5194  1.2264 -1.3843
 2063SOL     OW17650   0.479   0.937  10.607  0.4546 -0.0875  0.3812
 2063SOL    HW117651   0.424   0.881  10.552 -0.0153 -0.1190  0.8971
 2063SOL    HW217652   0.563   0.891  10.603  0.1597 -0.7929  2.5592
 2064SOL     OW17653   2.748   0.942   9.201  0.3153  0.1260 -0.5378
 2064SOL    HW117654   2.774   1.015   9.143 -1.5652 -1.2372 -3.0807
 2064SOL    HW217655   2.655   0.942   9.178 -0.5247 -1.4246  2.9437
 2065SOL     OW17656   2.643   1.091   1.303  0.1465  0.5470 -0.0217
 2065SOL    HW117657   2.644   1.078   1.398  0.5469 -1.1006 -0.2542
 2065SOL    HW217658   2.732   1.116   1.281  0.3011  1.6956  1.9335
 2066SOL     OW17659   3.544   1.426   3.273 -0.2998  0.0247 -0.7204
 2066SOL    HW117660   3.502   1.340   3.275  0.1615 -0.2593 -2.6073
 2066SOL    HW217661   3.635   1.395   3.268  0.0219  0.8689 -0.1155
 2067SOL     OW17662   4.706   0.077   8.236  0.3106  0.1047 -0.1117
 2067SOL    HW117663   4.650   0.040   8.167 -1.9811  1.2106  1.1576
 2067SOL    HW217664   0.033   0.000   8.263 -0.7656 -0.1117  1.2262
 2068SOL     OW17665   3.498   3.638  16.628 -0.0338  0.2008  0.7615
 2068SOL    HW117666   3.468   3.651  16.718  0.0865  1.4145  0.6290
 2068SOL    HW217667   3.491   3.544  16.614 -0.8964  0.5151 -0.8837
 2069SOL     OW17668   0.995   4.211  10.526 -0.2324 -0.1540 -0.4902
 2069SOL    HW117669   1.001   4.228  10.432 -4.6358  1.1080 -0.5077
 2069SOL    HW217670   1.045   4.287  10.555 -1.8151  0.2103  1.2820
 2070SOL     OW17671   3.702   3.493   8.619  0.0496  0.2245 -0.4376
 2070SOL    HW117672   3.693   3.581   8.655 -1.2483 -0.4497  0.9058
 2070SOL    HW217673   3.686   3.436   8.695 -1.1773  3.3660  1.6326
 2071SOL     OW17674   2.591   0.155   5.027 -0.0822  0.1298 -0.3582
 2071SOL    HW117675   2.624   0.094   5.092  0.9980  2.5580  1.3932
 2071SOL    HW217676   2.549   0.090   4.971  1.7481 -1.1344 -0.2673
 2072SOL     OW17677   3.242   3.207   5.422 -0.6744  0.0650 -0.3396
 2072SOL    HW117678   3.148   3.224   5.424 -0.5876  0.5048  0.1549
 2072SOL    HW217679   3.257   3.173   5.334 -4.4388 -1.0191 -0.5775
 2073SOL     OW17680   2.192   1.313   5.650  0.1640  0.6421  0.1800
 2073SOL    HW117681   2.165   1.227   5.682 -0.1765  0.9678  0.7682
 2073SOL    HW217682   2.235   1.351   5.726  1.1293 -0.0411 -0.0242
 2074SOL     OW17683   1.840   1.547   5.662 -0.3961 -0.0441 -0.0033
 2074SOL    HW117684   1.895   1.524   5.737 -1.9885  0.7677  1.4225
 2074SOL    HW217685   1.796   1.463   5.647  0.1380  0.0018 -1.8503
 2075SOL     OW17686   0.625   4.647   1.481  0.7039  0.5527 -0.3547
 2075SOL    HW117687   0.699   4.703   1.503  0.7394  0.2748  0.2405
 2075SOL    HW217688   0.553   4.701   1.515 -0.2858 -2.7327  2.8362
 2076SOL     OW17689   1.643   0.272   0.227  0.2847 -0.0262  0.0212
 2076SOL    HW117690   1.654   0.225   0.309  1.1610 -0.3772 -0.2961
 2076SOL    HW217691   1.580   0.339   0.253  0.4173 -0.5340  1.6150
 2077SOL     OW17692   1.649   4.140  12.067 -0.2773  0.0220 -0.1592
 2077SOL    HW117693   1.642   4.045  12.053  0.1464  0.3403 -2.5602
 2077SOL    HW217694   1.561   4.172  12.050 -0.3877 -0.0400  0.2916
 2078SOL     OW17695   0.995   2.540   2.645 -0.4763  0.2574  0.3449
 2078SOL    HW117696   1.064   2.474   2.652 -0.6249  0.0260 -0.3732
 2078SOL    HW217697   1.053   2.615   2.630 -2.0777  0.9277 -2.6016
 2079SOL     OW17698   0.024   2.390  16.439 -0.0963 -0.8939  0.0696
 2079SOL    HW117699   4.694   2.466  16.462 -0.5181 -1.6862  1.6984
 2079SOL    HW217700   0.004   2.376  16.346  2.4513 -1.2726 -0.4374
 2080SOL     OW17701   1.588   4.001   8.232 -0.3507  0.3262  0.0015
 2080SOL    HW117702   1.548   4.083   8.260  1.7369  1.2495  0.3270
 2080SOL    HW217703   1.575   3.947   8.311 -1.4643 -0.4262 -0.6978
 2081SOL     OW17704   4.012   3.248   5.379 -0.3918  0.3789 -0.2299
 2081SOL    HW117705   3.953   3.179   5.348  0.1547 -0.9390  1.6390
 2081SOL    HW217706   4.096   3.212   5.349  0.2588  1.1143  0.7029
 2082SOL     OW17707   2.226   2.460   7.828 -0.6963  0.3864  0.0782
 2082SOL    HW117708   2.289   2.409   7.777 -1.3896  2.0929 -2.4868
 2082SOL    HW217709   2.161   2.391   7.841  0.2694 -0.6878 -0.7965
 2083SOL     OW17710   2.989   0.759   7.765 -0.1863  0.2637  0.3379
 2083SOL    HW117711   2.967   0.665   7.767  1.7690 -0.2125 -0.7825
 2083SOL    HW217712   3.030   0.769   7.851  0.4374 -0.3153  0.1031
 2084SOL     OW17713   1.259   2.479   9.724  0.5615  0.3067  0.3806
 2084SOL    HW117714   1.318   2.483   9.799  0.2050  1.6687  0.5880
 2084SOL    HW217715   1.307   2.546   9.676  0.7441 -0.8891 -1.1403
 2085SOL     OW17716   0.344   2.892   3.228 -0.2377  0.2625  0.4753
 2085SOL    HW117717   0.414   2.933   3.279 -0.8687  0.5844  1.0906
 2085SOL    HW217718   0.363   2.799   3.239  2.4198  0.8683  0.9270
 2086SOL     OW17719   3.678   1.338   6.369 -0.1676 -0.5839 -0.1976
 2086SOL    HW117720   3.699   1.252   6.332 -0.4842 -0.6113 -0.3121
 2086SOL    HW217721   3.662   1.316   6.461 -0.1236  1.3124  0.2659
 2087SOL     OW17722   1.992   0.109   8.927  0.4432  0.2271  0.0439
 2087SOL    HW117723   1.925   0.096   8.995  0.3921  2.7802  0.4878
 2087SOL    HW217724   2.069   0.114   8.983  0.2160 -0.4909  0.4254
 2088SOL     OW17725   0.131   4.011   4.977 -0.2750 -0.0749  0.3991
 2088SOL    HW117726   0.100   3.921   4.992 -0.8666  0.1835  0.7548
 2088SOL    HW217727   0.199   3.996   4.911 -0.5605  1.9084 -0.3350
 2089SOL     OW17728   3.254   3.862   8.858 -0.3322 -0.3973 -0.1217
 2089SOL    HW117729   3.333   3.906   8.887 -0.5080 -1.0691  1.3620
 2089SOL    HW217730   3.201   3.939   8.839 -1.1999 -0.8459  0.4643
 2090SOL     OW17731   3.125   3.549   8.039 -0.1022  0.1096 -0.2178
 2090SOL    HW117732   3.088   3.503   8.114 -0.3650  0.3581 -0.1960
 2090SOL    HW217733   3.100   3.641   8.052  1.3223  0.8269 -2.3518
 2091SOL     OW17734   4.347   3.059   4.828 -0.2597  0.0558  0.1853
 2091SOL    HW117735   4.303   3.122   4.886  0.5208 -0.3815  1.2581
 2091SOL    HW217736   4.349   2.991   4.895  0.3761 -1.5134 -1.4522
 2092SOL     OW17737   3.100   1.102   9.542  0.4980 -0.4164 -0.6052
 2092SOL    HW117738   3.156   1.095   9.620 -1.6384  3.4010  1.2666
 2092SOL    HW217739   3.028   1.047   9.572  0.8813 -0.2907  0.5686
 2093SOL     OW17740   1.157   3.123  14.725 -0.2029 -0.4735  0.2401
 2093SOL    HW117741   1.227   3.121  14.790  1.2938  2.3867 -1.2976
 2093SOL    HW217742   1.139   3.030  14.738  0.0754 -0.9146 -2.4342
 2094SOL     OW17743   3.014   1.110  16.948 -0.1533  0.1504 -0.2910
 2094SOL    HW117744   3.079   1.180  16.955 -0.2345  0.1678  0.2218
 2094SOL    HW217745   2.955   1.141  17.016  0.6098 -0.8696  0.8500
 2095SOL     OW17746   1.624   1.306   8.739  0.3294 -0.0388  0.0990
 2095SOL    HW117747   1.622   1.294   8.645  1.6780  1.2825 -0.0912
 2095SOL    HW217748   1.642   1.216   8.767  0.6649  0.6188  2.0550
 2096SOL     OW17749   2.810   3.033   2.474 -0.5326  0.0261 -0.1955
 2096SOL    HW117750   2.783   2.950   2.436 -0.4619  0.9824 -2.3012
 2096SOL    HW217751   2.796   3.016   2.567 -1.2073 -0.0286 -0.3041
 2097SOL     OW17752   1.311   4.084   6.429  0.1106 -0.0355 -0.0922
 2097SOL    HW117753   1.329   4.175   6.454 -0.1957  0.2193 -0.7965
 2097SOL    HW217754   1.402   4.054   6.433  0.5906  1.3687 -0.5945
 2098SOL     OW17755   3.859   1.187   1.214  0.6219 -0.2740  0.2661
 2098SOL    HW117756   3.784   1.246   1.213 -1.2028 -2.5665  0.4763
 2098SOL    HW217757   3.835   1.140   1.294 -1.5639  1.4646  0.6234
 2099SOL     OW17758   3.538   1.048   6.905 -0.0536  0.3899 -0.7066
 2099SOL    HW117759   3.497   1.127   6.939 -0.5775 -0.0102 -0.3955
 2099SOL    HW217760   3.489   0.977   6.947 -0.3902  0.1642 -1.4663
 2100SOL     OW17761   2.739   1.944  14.066  0.2017  0.0602 -1.0204
 2100SOL    HW117762   2.765   1.945  14.158  1.3819  3.2864 -1.3817
 2100SOL    HW217763   2.672   1.876  14.062 -0.0228  0.1287  1.5627
 2101SOL     OW17764   4.644   3.858  13.790  0.2946  0.7484 -0.3256
 2101SOL    HW117765   4.571   3.817  13.744  0.2315 -2.0151  2.2541
 2101SOL    HW217766   4.719   3.810  13.755 -0.0658  0.6151 -0.9262
 2102SOL     OW17767   4.101   4.485   4.161  0.4470  0.0324  0.3224
 2102SOL    HW117768   4.185   4.482   4.207  0.5040 -2.6676  0.0263
 2102SOL    HW217769   4.070   4.406   4.204 -0.7171  0.7922  0.8866
 2103SOL     OW17770   0.866   4.563   1.023 -0.3153 -0.5837  0.0706
 2103SOL    HW117771   0.777   4.594   1.042  0.1053  0.7276 -0.1400
 2103SOL    HW217772   0.917   4.643   1.033  0.1730 -1.0044  0.9631
 2104SOL     OW17773   1.310   4.278   1.697  0.1954 -0.4025  0.3988
 2104SOL    HW117774   1.236   4.218   1.707  1.7113 -2.7010 -2.0032
 2104SOL    HW217775   1.281   4.351   1.752  1.3975 -1.5539  2.5304
 2105SOL     OW17776   1.004   0.085   8.239 -0.1583  0.1446 -0.2149
 2105SOL    HW117777   0.997   0.024   8.312  0.0696  0.9560  0.4879
 2105SOL    HW217778   0.980   0.023   8.170  2.7183 -0.1288 -0.9843
 2106SOL     OW17779   1.395   3.438   4.453  0.2701  0.1521 -0.5339
 2106SOL    HW117780   1.411   3.389   4.533  0.2573 -0.8356 -1.1338
 2106SOL    HW217781   1.313   3.479   4.481  0.8675  2.1418 -1.6658
 2107SOL     OW17782   3.163   1.506   9.068 -0.0538 -0.1242 -0.7269
 2107SOL    HW117783   3.099   1.538   9.131 -1.9529 -2.3737 -1.4956
 2107SOL    HW217784   3.151   1.412   9.081 -0.0735 -0.0971 -0.5535
 2108SOL     OW17785   2.924   4.175   4.493  0.2805 -0.0700  0.4123
 2108SOL    HW117786   2.955   4.101   4.545 -0.0095 -1.4686 -1.4081
 2108SOL    HW217787   2.966   4.162   4.408 -1.6634 -1.9467 -0.2584
 2109SOL     OW17788   3.930   2.641  16.073 -0.9645  0.3339 -0.2064
 2109SOL    HW117789   3.972   2.604  16.151  1.7330  1.6789 -1.0153
 2109SOL    HW217790   3.842   2.656  16.108 -0.4554 -0.6213  1.4903
 2110SOL     OW17791   0.783   3.495   0.537 -0.2641 -0.0612  0.4190
 2110SOL    HW117792   0.717   3.428   0.514 -1.4357  1.0213  0.6054
 2110SOL    HW217793   0.725   3.567   0.563 -1.7041 -0.4335 -1.7240
 2111SOL     OW17794   2.448   3.649   6.238  0.3745  0.2818  0.0675
 2111SOL    HW117795   2.411   3.586   6.300 -0.7153  0.3825 -0.4969
 2111SOL    HW217796   2.491   3.710   6.297  0.1046 -0.6396  1.2138
 2112SOL     OW17797   3.523   2.308  11.782 -0.4282 -0.4225 -0.4551
 2112SOL    HW117798   3.446   2.272  11.828 -0.3201  0.4193  0.3774
 2112SOL    HW217799   3.588   2.311  11.852  1.4012 -0.4935 -2.1703
 2113SOL     OW17800   4.464   3.674  13.647  0.1908  0.4030  0.1556
 2113SOL    HW117801   4.449   3.630  13.564 -0.2463  1.2361 -0.2054
 2113SOL    HW217802   4.394   3.739  13.641  0.3818  0.7263  1.2942
 2114SOL     OW17803   4.656   0.107   7.220 -0.8297  0.4147  0.3974
 2114SOL    HW117804   4.662   0.086   7.127  0.1298  1.7740  0.1520
 2114SOL    HW217805   4.609   0.031   7.255  0.0535 -0.9241 -1.3405
 2115SOL     OW17806   0.013   0.768   4.966  0.4071 -0.1202  0.0282
 2115SOL    HW117807   4.643   0.776   4.985  0.0650  0.9433 -2.1168
 2115SOL    HW217808   0.021   0.674   4.981  0.8185 -0.0654  0.1746
 2116SOL     OW17809   1.621   1.071   8.889  0.4928 -0.0116 -0.0751
 2116SOL    HW117810   1.618   1.063   8.984  0.3921 -0.1219 -0.0872
 2116SOL    HW217811   1.668   0.988   8.876  1.9682  0.5987  1.3612
 2117SOL     OW17812   3.405   0.600   2.387  0.0887  0.2278 -0.3118
 2117SOL    HW117813   3.432   0.675   2.335 -0.1081  1.7732  1.8355
 2117SOL    HW217814   3.462   0.626   2.460 -1.7659 -1.0043  1.5595
 2118SOL     OW17815   2.166   3.529  15.976  0.3591  0.6684 -0.1252
 2118SOL    HW117816   2.152   3.444  15.936  1.0684 -0.8142  2.7499
 2118SOL    HW217817   2.224   3.580  15.920  2.9485 -2.6197 -0.4274
 2119SOL     OW17818   1.555   4.304   6.289 -0.3565 -0.1936  0.0024
 2119SOL    HW117819   1.628   4.250   6.321  0.1673  0.3328 -0.2898
 2119SOL    HW217820   1.593   4.371   6.232  0.1232 -1.9453 -1.7614
 2120SOL     OW17821   0.607   0.441  15.223  0.0449  0.0727 -0.4517
 2120SOL    HW117822   0.617   0.424  15.317  0.1282 -0.6132 -0.5831
 2120SOL    HW217823   0.609   0.535  15.207  1.6619  0.3475  1.3522
 2121SOL     OW17824   0.916   0.923   5.742  0.3277 -0.2947  0.2209
 2121SOL    HW117825   0.827   0.911   5.775 -0.3913 -1.3996 -2.1148
 2121SOL    HW217826   0.930   0.837   5.702  1.2756 -1.1744  2.4592
 2122SOL     OW17827   3.535   4.099  13.122  0.3391 -0.1130 -0.1473
 2122SOL    HW117828   3.579   4.181  13.103 -0.4588  0.3719  0.0700
 2122SOL    HW217829   3.529   4.063  13.034 -1.7893 -1.8829  0.7063
 2123SOL     OW17830   3.459   2.999   3.606  0.2297  0.3044 -0.0051
 2123SOL    HW117831   3.457   2.975   3.513 -1.2845 -0.4391  0.2122
 2123SOL    HW217832   3.430   2.919   3.648  2.8012 -0.1670  0.8655
 2124SOL     OW17833   2.821   1.755   3.974 -0.2405 -1.0777 -0.1705
 2124SOL    HW117834   2.903   1.716   4.004 -0.0525 -0.2707  0.3909
 2124SOL    HW217835   2.845   1.790   3.888 -0.2764 -2.0263 -0.5677
 2125SOL     OW17836   2.451   3.470   5.525 -0.1258 -0.0560  0.1702
 2125SOL    HW117837   2.455   3.414   5.603  2.0251  0.3469  0.3544
 2125SOL    HW217838   2.371   3.440   5.482  0.4968 -0.0303 -1.0294
 2126SOL     OW17839   3.192   1.380   5.341  0.5074 -0.2261 -0.1596
 2126SOL    HW117840   3.258   1.362   5.408 -2.6657 -1.1606  2.7397
 2126SOL    HW217841   3.217   1.471   5.327 -0.4841  0.4231  2.2316
 2127SOL     OW17842   0.269   3.050   6.225 -0.1970 -0.1417  0.4087
 2127SOL    HW117843   0.275   3.102   6.145 -0.0834 -0.2190  0.3660
 2127SOL    HW217844   0.177   3.026   6.230 -0.1898 -0.4688 -1.0467
 2128SOL     OW17845   1.822   2.876   5.732 -0.4335 -0.1183 -0.4448
 2128SOL    HW117846   1.842   2.878   5.639 -1.4288 -1.1540 -0.6738
 2128SOL    HW217847   1.729   2.898   5.737 -0.0228  2.0876 -2.2133
 2129SOL     OW17848   3.330   1.779   7.888  0.1712 -0.4866 -0.0320
 2129SOL    HW117849   3.387   1.853   7.907  0.3161 -0.5208 -0.3374
 2129SOL    HW217850   3.246   1.806   7.927  1.3992 -0.1829  2.4417
 2130SOL     OW17851   3.782   2.101  12.455  0.0115 -0.6513 -0.0294
 2130SOL    HW117852   3.833   2.046  12.514  0.1860 -0.4076  0.0455
 2130SOL    HW217853   3.752   2.171  12.513 -1.6573 -1.6994  0.3878
 2131SOL     OW17854   3.499   3.915   8.076 -0.4649  0.4330  0.1136
 2131SOL    HW117855   3.574   3.950   8.124  0.2745 -0.0573 -0.6697
 2131SOL    HW217856   3.468   3.846   8.135  1.6866  0.5061  1.3398
 2132SOL     OW17857   1.277   1.279   0.764 -0.1926  0.1342  0.5440
 2132SOL    HW117858   1.300   1.302   0.854  1.8988 -1.7178  0.4937
 2132SOL    HW217859   1.359   1.287   0.715 -0.4034 -0.6244  0.0776
 2133SOL     OW17860   3.817   1.293   3.227 -0.3290 -0.5977 -0.1912
 2133SOL    HW117861   3.861   1.230   3.285  1.0681  2.9040  2.5267
 2133SOL    HW217862   3.813   1.244   3.145 -2.8383 -0.3771 -0.1869
 2134SOL     OW17863   3.269   1.625  16.244  0.5023  0.1035  0.0870
 2134SOL    HW117864   3.256   1.662  16.157 -1.6745 -1.1409 -0.1047
 2134SOL    HW217865   3.195   1.565  16.235  0.6743 -0.3110  1.3947
 2135SOL     OW17866   2.272   1.138   5.051 -0.0324 -0.0556 -0.2147
 2135SOL    HW117867   2.236   1.075   5.114  2.1921 -1.6820 -0.5851
 2135SOL    HW217868   2.190   1.151   5.003 -0.6741  2.5314  1.6042
 2136SOL     OW17869   2.935   3.216  13.281  0.7036  0.4348  0.1295
 2136SOL    HW117870   2.988   3.171  13.215 -0.7882 -1.4911  0.2416
 2136SOL    HW217871   2.995   3.290  13.292  0.3875  0.5723  0.8818
 2137SOL     OW17872   2.317   1.095  15.221  0.4222 -0.4127  0.2917
 2137SOL    HW117873   2.333   1.003  15.201  0.0042  0.0227 -2.0593
 2137SOL    HW217874   2.264   1.091  15.301 -0.9325  1.0347 -0.5328
 2138SOL     OW17875   1.423   3.958  13.590 -0.2885  0.2281  0.1579
 2138SOL    HW117876   1.439   3.864  13.583  0.6307  0.4390 -0.6824
 2138SOL    HW217877   1.411   3.979  13.682  0.3466 -0.3440  0.3703
 2139SOL     OW17878   1.884   3.267  13.475 -0.4471  0.3465 -0.9357
 2139SOL    HW117879   1.931   3.328  13.418  0.5879 -0.9143 -1.4579
 2139SOL    HW217880   1.891   3.312  13.559 -3.0376  0.5612 -0.8564
 2140SOL     OW17881   0.142   1.942   1.819 -0.0172  0.0685  0.7750
 2140SOL    HW117882   0.091   2.010   1.862 -0.2855 -0.1685  0.8359
 2140SOL    HW217883   0.122   1.864   1.872 -3.4261  0.0630 -0.5221
 2141SOL     OW17884   4.709   0.866   0.185 -0.0058  0.3402  0.0087
 2141SOL    HW117885   0.028   0.941   0.144  0.2775 -0.3529 -0.9644
 2141SOL    HW217886   0.009   0.871   0.277  0.9453 -0.2155 -0.1994
 2142SOL     OW17887   3.931   0.254   4.905  0.2290  0.0663  0.5717
 2142SOL    HW117888   4.005   0.237   4.847  1.0222 -0.4880  1.7441
 2142SOL    HW217889   3.873   0.181   4.885 -0.1819  0.3863  0.5781
 2143SOL     OW17890   1.195   0.358  11.910 -0.0762  0.0750 -0.1258
 2143SOL    HW117891   1.238   0.304  11.975  0.9121  0.7777 -0.1858
 2143SOL    HW217892   1.225   0.449  11.919 -0.9614  0.4006 -0.4553
 2144SOL     OW17893   0.670   2.034  11.117 -0.3443  0.0526 -0.6981
 2144SOL    HW117894   0.613   2.055  11.043 -0.5917 -0.0053 -0.5213
 2144SOL    HW217895   0.672   1.939  11.110 -1.3163 -0.2697  3.3838
 2145SOL     OW17896   4.032   0.367  13.545 -0.4784  0.0750  0.3166
 2145SOL    HW117897   3.976   0.418  13.487  1.7658  0.4962 -1.4453
 2145SOL    HW217898   3.996   0.377  13.634  0.2388  2.2499  0.3608
 2146SOL     OW17899   4.076   4.523  13.335 -0.0314 -0.0169  0.1388
 2146SOL    HW117900   4.043   4.502  13.248 -0.3783 -0.3131  0.3398
 2146SOL    HW217901   4.152   4.576  13.313 -0.0756  0.8258  1.9509
 2147SOL     OW17902   1.810   4.574   2.568  0.3307  0.1093 -0.0827
 2147SOL    HW117903   1.766   4.553   2.486 -0.6000  0.9131  0.2052
 2147SOL    HW217904   1.898   4.539   2.557  0.3069  0.0834 -0.1820
 2148SOL     OW17905   2.886   2.990   4.712  0.3474 -0.0822  0.1045
 2148SOL    HW117906   2.823   3.011   4.781  1.5297  0.5995  0.9800
 2148SOL    HW217907   2.905   2.898   4.732 -0.6944 -0.7520 -2.0401
 2149SOL     OW17908   2.913   1.538  11.843 -0.0875 -0.9179 -0.3576
 2149SOL    HW117909   2.980   1.483  11.801  0.4850 -1.0152  0.6889
 2149SOL    HW217910   2.961   1.562  11.923  1.4099  2.9181 -2.3844
 2150SOL     OW17911   0.872   1.029  15.994  0.0131 -0.0100  0.0021
 2150SOL    HW117912   0.927   0.951  15.982 -2.1872 -1.8898  2.0577
 2150SOL    HW217913   0.940   1.095  15.988 -2.0427  1.9567 -1.4915
 2151SOL     OW17914   4.465   1.210  10.897  0.5405 -0.4756  0.1398
 2151SOL    HW117915   4.492   1.120  10.882 -1.8939 -1.2513  0.3996
 2151SOL    HW217916   4.469   1.251  10.810 -1.1935 -2.6749 -0.9700
 2152SOL     OW17917   2.624   3.030   3.338 -0.0210 -0.3740 -0.5076
 2152SOL    HW117918   2.565   3.005   3.409  0.7322  1.7532  0.8388
 2152SOL    HW217919   2.694   2.966   3.346 -0.4536 -0.7975 -0.1105
 2153SOL     OW17920   0.837   1.548   0.754 -0.3721 -0.3840 -0.5181
 2153SOL    HW117921   0.897   1.614   0.790  1.5815 -1.2093 -2.2462
 2153SOL    HW217922   0.806   1.510   0.836 -2.1535 -0.2608 -1.1329
 2154SOL     OW17923   0.459   2.992   8.137 -0.1887 -0.5221 -0.4166
 2154SOL    HW117924   0.384   2.945   8.172  0.0513 -0.2794  0.4349
 2154SOL    HW217925   0.521   2.980   8.210  0.5249  1.7376 -0.6458
 2155SOL     OW17926   1.899   0.875   7.923 -0.3152  0.3197 -0.0281
 2155SOL    HW117927   1.970   0.914   7.871  0.8146  0.6982  1.8137
 2155SOL    HW217928   1.848   0.828   7.857 -3.1086  1.3162  1.4457
 2156SOL     OW17929   4.238   0.506   3.052  0.0813  0.3769 -0.4148
 2156SOL    HW117930   4.259   0.425   3.004  3.5712  0.1881  1.4031
 2156SOL    HW217931   4.153   0.475   3.084  0.7230 -0.6800  0.2635
 2157SOL     OW17932   3.374   2.109   9.044  0.3697  0.3326  0.2118
 2157SOL    HW117933   3.375   2.180   9.109 -2.4963  0.5536  0.0149
 2157SOL    HW217934   3.441   2.150   8.989 -0.0352 -0.5743 -0.9377
 2158SOL     OW17935   4.134   1.466  10.394 -0.3645 -0.0277 -0.4065
 2158SOL    HW117936   4.184   1.545  10.378  0.9962 -0.4088  1.8683
 2158SOL    HW217937   4.147   1.426  10.308 -1.1609 -2.4553  0.5813
 2159SOL     OW17938   2.578   4.680  12.345 -1.0048 -0.1975 -0.2415
 2159SOL    HW117939   2.624   0.039  12.362 -0.4978 -1.2643  3.4221
 2159SOL    HW217940   2.583   4.651  12.436  0.0391  3.7200  0.9412
 2160SOL     OW17941   2.625   4.191   7.041  0.1991 -0.4790  0.1373
 2160SOL    HW117942   2.576   4.123   7.089 -0.5577 -1.1503 -1.5786
 2160SOL    HW217943   2.580   4.268   7.076  1.1578 -0.2746  0.9224
 2161SOL     OW17944   0.965   3.128   2.677  0.2233 -0.4862 -0.2104
 2161SOL    HW117945   0.948   3.097   2.766  0.3417 -2.9710 -1.0266
 2161SOL    HW217946   1.012   3.211   2.685  0.3914 -0.5495 -0.5210
 2162SOL     OW17947   4.473   0.805   9.514  0.2451  0.5265 -0.0636
 2162SOL    HW117948   4.392   0.760   9.537  0.0124 -0.1491 -2.1749
 2162SOL    HW217949   4.446   0.846   9.432 -0.0233 -0.1036 -0.2913
 2163SOL     OW17950   4.221   3.504   3.324  0.2138 -0.4970 -0.4814
 2163SOL    HW117951   4.190   3.434   3.381  1.0364 -0.0305  0.5493
 2163SOL    HW217952   4.141   3.524   3.276  0.0402 -1.8280 -0.7388
 2164SOL     OW17953   2.128   2.056   6.057 -0.4052  0.3823  0.5257
 2164SOL    HW117954   2.045   2.055   6.105 -0.6588  3.1052  0.1831
 2164SOL    HW217955   2.186   2.097   6.121  0.5556  0.6559 -0.5160
 2165SOL     OW17956   0.868   3.416  16.278 -0.0097  0.8786 -0.7736
 2165SOL    HW117957   0.938   3.461  16.232  0.3608  0.5503 -0.5286
 2165SOL    HW217958   0.869   3.332  16.230  0.7442 -0.0473  0.8712
 2166SOL     OW17959   3.839   1.689   5.534  0.3002  0.2548 -0.0205
 2166SOL    HW117960   3.859   1.596   5.525 -0.5009  0.3310 -2.6549
 2166SOL    HW217961   3.920   1.735   5.513 -0.4406  2.7767  2.6319
 2167SOL     OW17962   2.883   0.984   7.065  0.2717 -0.5908 -0.6030
 2167SOL    HW117963   2.945   1.043   7.109 -0.2317 -0.4939 -0.0183
 2167SOL    HW217964   2.919   0.898   7.086  0.0278 -0.1076  1.8876
 2168SOL     OW17965   4.323   0.430   4.661 -0.2259  0.1699  0.0203
 2168SOL    HW117966   4.288   0.345   4.632 -1.2587 -0.2762  2.5776
 2168SOL    HW217967   4.398   0.426   4.602  0.3739 -1.5650  0.8868
 2169SOL     OW17968   1.853   3.301  12.956 -0.6487 -0.0015  0.2376
 2169SOL    HW117969   1.906   3.331  13.030 -1.9109  0.3819  0.9925
 2169SOL    HW217970   1.931   3.284  12.904 -0.0992 -0.9439  1.3654
 2170SOL     OW17971   2.352   1.213   2.572  0.0599  0.1571  0.4479
 2170SOL    HW117972   2.344   1.200   2.478 -0.3429 -1.1444  0.6688
 2170SOL    HW217973   2.367   1.308   2.573 -0.6496  0.2657  0.9997
 2171SOL     OW17974   4.432   2.266  14.214 -0.1458  0.1603  0.4788
 2171SOL    HW117975   4.392   2.338  14.165  0.9635  0.7193  0.3762
 2171SOL    HW217976   4.417   2.189  14.158 -0.4603 -0.0800  0.8985
 2172SOL     OW17977   3.475   3.196  10.486 -0.0722 -0.4478 -0.1753
 2172SOL    HW117978   3.426   3.118  10.513  0.3306 -1.2652 -1.8020
 2172SOL    HW217979   3.557   3.159  10.455 -1.3361 -2.1593 -1.5117
 2173SOL     OW17980   2.101   2.038   3.855  0.0665  0.0702 -0.7107
 2173SOL    HW117981   2.082   2.035   3.761 -0.6249 -1.7327 -0.5086
 2173SOL    HW217982   2.103   1.948   3.887 -1.1647  0.3190  0.0756
 2174SOL     OW17983   1.197   1.999  13.145 -0.6745 -0.1165  0.7433
 2174SOL    HW117984   1.165   1.961  13.063 -0.2729 -1.1144  1.0545
 2174SOL    HW217985   1.286   1.965  13.142 -0.1251  1.2399  2.2998
 2175SOL     OW17986   1.707   3.952   2.237  0.1063 -0.2677 -0.1426
 2175SOL    HW117987   1.613   3.937   2.224  0.1551  0.8263 -1.6573
 2175SOL    HW217988   1.737   3.861   2.229 -1.4833 -0.6797 -1.3363
 2176SOL     OW17989   4.224   0.543   5.274  0.0976 -0.0309 -0.0702
 2176SOL    HW117990   4.243   0.631   5.305  0.3208 -0.5598  1.2812
 2176SOL    HW217991   4.209   0.556   5.180 -2.7565  1.0466  0.5332
 2177SOL     OW17992   4.117   1.063  10.413 -0.2657 -0.2578 -0.3706
 2177SOL    HW117993   4.060   0.997  10.452  0.1152  0.2498  1.0188
 2177SOL    HW217994   4.195   1.008  10.414  0.1205  0.3010  0.4058
 2178SOL     OW17995   1.231   0.238   6.164  0.2343  0.0767  0.1773
 2178SOL    HW117996   1.175   0.248   6.242  0.9630  2.9330  0.3299
 2178SOL    HW217997   1.230   0.144   6.146 -1.0561  0.2330 -0.5634
 2179SOL     OW17998   2.212   1.424   6.666  0.4193  0.1554  0.4009
 2179SOL    HW117999   2.134   1.386   6.706  2.2357  0.3942  4.1892
 2179SOL    HW218000   2.261   1.458   6.741 -1.3871  0.8982  1.2408
 2180SOL     OW18001   2.019   0.628  16.440  0.3655  0.3811  0.4946
 2180SOL    HW118002   2.048   0.707  16.395 -0.6958  0.2986 -0.3446
 2180SOL    HW218003   1.926   0.626  16.415  0.5891  0.6105 -0.3774
 2181SOL     OW18004   3.388   4.149   5.195 -0.1511  0.3344 -0.1146
 2181SOL    HW118005   3.306   4.111   5.227 -0.2681  1.0055  0.3780
 2181SOL    HW218006   3.423   4.200   5.267  1.8514  2.7625 -2.8028
 2182SOL     OW18007   3.980   2.314   4.582  0.2876 -0.1882  0.0480
 2182SOL    HW118008   4.041   2.243   4.561 -0.7323 -1.5459  1.7213
 2182SOL    HW218009   4.042   2.386   4.590  1.5886 -1.1075 -1.6908
 2183SOL     OW18010   1.987   1.418   8.307 -0.1988  0.5394  0.2116
 2183SOL    HW118011   2.039   1.342   8.280 -0.1472  1.2990 -1.8142
 2183SOL    HW218012   1.968   1.393   8.397  0.8061 -0.9850 -0.0026
 2184SOL     OW18013   4.645   0.368   4.708 -0.4908  0.3491 -0.6699
 2184SOL    HW118014   4.596   0.384   4.789  1.0753 -0.6526  0.4746
 2184SOL    HW218015   4.669   0.459   4.690 -1.8209  0.9768  0.7085
 2185SOL     OW18016   1.585   2.536   6.759  0.4233  0.8962 -0.1200
 2185SOL    HW118017   1.582   2.457   6.814 -0.2769  0.0636 -1.3423
 2185SOL    HW218018   1.655   2.513   6.698  0.4417 -1.3772  0.7518
 2186SOL     OW18019   0.874   2.346   2.840 -0.1763  0.1599 -0.4283
 2186SOL    HW118020   0.857   2.284   2.770  1.0010  0.7868 -1.2735
 2186SOL    HW218021   0.881   2.426   2.788  0.0456  0.1375 -0.4319
 2187SOL     OW18022   0.302   0.744  12.359 -0.4626 -0.0696  0.2036
 2187SOL    HW118023   0.263   0.663  12.328  0.6607  0.2359 -1.9973
 2187SOL    HW218024   0.312   0.735  12.454 -1.0775  0.9424  0.3577
 2188SOL     OW18025   3.073   3.544   9.113  0.1199  0.9575 -0.7072
 2188SOL    HW118026   3.102   3.521   9.024  1.8770 -2.0914  0.6460
 2188SOL    HW218027   3.048   3.635   9.099  1.8575  1.2145 -2.2866
 2189SOL     OW18028   0.334   2.620  14.133 -0.4217  0.3503 -0.0084
 2189SOL    HW118029   0.420   2.607  14.174 -0.9245 -0.9949  0.6227
 2189SOL    HW218030   0.273   2.557  14.170  0.0286 -1.5674 -2.5839
 2190SOL     OW18031   1.143   2.984   4.807 -0.0290  0.6690  0.5238
 2190SOL    HW118032   1.100   2.902   4.828  0.0008  0.5003 -0.0776
 2190SOL    HW218033   1.158   3.026   4.892  0.9142 -2.0931  1.7165
 2191SOL     OW18034   2.159   4.379  16.226 -0.2592 -0.2366 -0.3699
 2191SOL    HW118035   2.098   4.342  16.161  1.2319 -2.5564 -0.4701
 2191SOL    HW218036   2.120   4.463  16.249  1.4759  1.0677 -2.2152
 2192SOL     OW18037   1.304   0.620   3.377  0.0570 -0.3617 -0.5541
 2192SOL    HW118038   1.286   0.574   3.460  1.5501 -0.0812 -0.0734
 2192SOL    HW218039   1.320   0.548   3.317  0.3158  1.0135 -2.1124
 2193SOL     OW18040   3.656   3.913   6.254 -0.6475 -0.4788 -0.7307
 2193SOL    HW118041   3.747   3.933   6.274 -0.3157 -3.0944  0.4070
 2193SOL    HW218042   3.663   3.905   6.159  1.6744  0.5187 -0.6235
 2194SOL     OW18043   1.255   2.755   3.766  0.1760 -0.3605  0.2209
 2194SOL    HW118044   1.268   2.751   3.861  1.7259 -0.1999  0.0141
 2194SOL    HW218045   1.322   2.689   3.749  0.5719  0.2059 -0.4050
 2195SOL     OW18046   2.299   3.002   7.031 -0.1397  0.5411 -0.1590
 2195SOL    HW118047   2.374   3.061   7.040 -1.5480  1.8536  3.0941
 2195SOL    HW218048   2.273   2.990   7.122 -0.7521 -0.6740 -0.4998
 2196SOL     OW18049   2.222   3.028  10.838  0.2525 -0.0825 -0.0319
 2196SOL    HW118050   2.141   3.004  10.883  0.8054  0.8951  1.4940
 2196SOL    HW218051   2.234   3.123  10.838 -0.3400 -0.0063  0.2465
 2197SOL     OW18052   3.970   2.174   7.489  0.5148  0.3756 -0.3871
 2197SOL    HW118053   3.992   2.111   7.420 -0.3605 -0.4846  0.1090
 2197SOL    HW218054   3.907   2.127   7.544  0.5406 -0.1982 -0.8564
 2198SOL     OW18055   3.796   3.039   4.720  0.3956 -0.9503 -0.9128
 2198SOL    HW118056   3.776   2.967   4.661  2.6263 -2.6823  0.4195
 2198SOL    HW218057   3.814   2.988   4.799 -0.8012 -1.1165 -0.7518
 2199SOL     OW18058   3.773   1.967   0.769 -0.3634  0.0487  0.7785
 2199SOL    HW118059   3.839   2.036   0.779 -1.9194  1.3285  2.0745
 2199SOL    HW218060   3.725   1.996   0.691  0.1516 -1.3315 -0.0594
 2200SOL     OW18061   0.359   0.928   7.505 -0.0675  0.4533  0.1707
 2200SOL    HW118062   0.390   0.846   7.468  0.6086  0.2756  1.1223
 2200SOL    HW218063   0.267   0.906   7.521 -0.0576  1.5605  1.7672
 2201SOL     OW18064   4.018   2.355   2.377 -0.7224  0.8015 -0.3619
 2201SOL    HW118065   3.947   2.292   2.359  0.7832 -0.4770 -1.7881
 2201SOL    HW218066   4.015   2.425   2.312  1.5004 -0.0460 -1.3901
 2202SOL     OW18067   1.214   2.937   1.033 -0.1433 -0.2106 -0.3211
 2202SOL    HW118068   1.280   2.962   0.969 -0.7041  2.0385 -0.0260
 2202SOL    HW218069   1.163   2.863   1.000  0.3731 -0.3444 -0.8093
 2203SOL     OW18070   4.351   3.118  17.418 -0.2844 -0.2609  0.2984
 2203SOL    HW118071   4.380   3.112  17.509 -0.7478 -2.1372  0.3345
 2203SOL    HW218072   4.322   3.209  17.424 -1.0222 -0.5005  0.4808
 2204SOL     OW18073   1.419   4.425   3.697  0.1277 -0.3193 -0.0403
 2204SOL    HW118074   1.447   4.442   3.607  0.7182  0.9862  0.3746
 2204SOL    HW218075   1.339   4.375   3.687 -1.3034  2.2805 -1.5737
 2205SOL     OW18076   3.053   1.023  16.360 -0.0066 -0.0953 -0.0691
 2205SOL    HW118077   3.124   0.993  16.417 -1.1636 -0.0916  1.3612
 2205SOL    HW218078   3.021   0.939  16.329 -1.2634  0.4149 -0.1501
 2206SOL     OW18079   1.731   1.886   6.699 -0.7866  0.0299 -0.2684
 2206SOL    HW118080   1.816   1.851   6.674 -1.1366 -0.4062 -0.8486
 2206SOL    HW218081   1.743   1.866   6.792 -0.2293 -0.1450 -0.3787
 2207SOL     OW18082   2.775   0.943   6.329 -0.3209  0.0996  0.1310
 2207SOL    HW118083   2.820   1.027   6.341  0.5744 -0.3674  0.0156
 2207SOL    HW218084   2.686   0.978   6.317 -1.3702 -2.2123  1.1746
 2208SOL     OW18085   2.769   3.189  10.765 -0.6462  0.3865  0.0585
 2208SOL    HW118086   2.676   3.197  10.743 -0.9813  1.2937  1.8385
 2208SOL    HW218087   2.770   3.262  10.827 -4.2636  1.1074 -0.7316
 2209SOL     OW18088   1.683   0.802  14.727  0.4459  0.7647  0.3397
 2209SOL    HW118089   1.748   0.818  14.658 -0.6978  2.9068 -0.2276
 2209SOL    HW218090   1.728   0.848  14.798  1.3402 -0.1989  0.4009
 2210SOL     OW18091   0.254   3.046   5.561 -0.1400  0.4353  0.0147
 2210SOL    HW118092   0.219   3.066   5.648  0.0210 -2.1546  0.6608
 2210SOL    HW218093   0.334   3.099   5.559  1.2721 -1.6307  1.2338
 2211SOL     OW18094   0.824   2.872   5.476 -0.5020  0.4763  0.0300
 2211SOL    HW118095   0.841   2.785   5.510 -1.9609  0.4384  0.6137
 2211SOL    HW218096   0.729   2.876   5.471 -0.6246 -1.2531  1.1373
 2212SOL     OW18097   1.572   1.265  12.470  0.1673 -0.7333 -0.6373
 2212SOL    HW118098   1.665   1.284  12.480  0.0700  0.7184 -2.2843
 2212SOL    HW218099   1.563   1.182  12.423 -0.3323 -1.4336  0.6956
 2213SOL     OW18100   2.197   0.904   6.928  0.2386 -0.7540  0.2351
 2213SOL    HW118101   2.172   0.915   7.020  0.5728 -0.7875  0.3314
 2213SOL    HW218102   2.231   0.815   6.938 -2.8822 -1.9394  0.1970
 2214SOL     OW18103   0.250   3.566   6.242 -0.4218  0.2329 -0.4352
 2214SOL    HW118104   0.344   3.549   6.244 -0.8311 -1.9513  0.0179
 2214SOL    HW218105   0.215   3.479   6.223  1.0975 -0.5158  0.2509
 2215SOL     OW18106   2.406   3.314   3.641  0.4097 -0.1529  0.0698
 2215SOL    HW118107   2.497   3.342   3.649  0.8508 -1.4082 -0.5582
 2215SOL    HW218108   2.360   3.397   3.631 -1.0097 -0.9065  0.2713
 2216SOL     OW18109   1.218   2.855  14.846 -0.5465  0.2774  0.1166
 2216SOL    HW118110   1.179   2.773  14.878  0.3831 -1.0558 -2.1572
 2216SOL    HW218111   1.306   2.825  14.823 -1.0280 -1.0986  0.0550
 2217SOL     OW18112   3.197   0.662  14.055 -0.1361 -0.1730 -0.1697
 2217SOL    HW118113   3.223   0.713  14.131  0.6672  1.3080 -1.4403
 2217SOL    HW218114   3.262   0.692  13.992  1.9333 -0.7258  1.7029
 2218SOL     OW18115   4.353   2.592   7.407 -0.0345 -0.7721  0.2715
 2218SOL    HW118116   4.277   2.571   7.353  0.1881  0.6809 -0.5860
 2218SOL    HW218117   4.388   2.506   7.431  0.5680 -0.1354  1.6504
 2219SOL     OW18118   1.361   0.413   9.428  0.2884  0.9605  0.3009
 2219SOL    HW118119   1.371   0.334   9.481 -2.2887 -0.1715 -0.9040
 2219SOL    HW218120   1.380   0.480   9.494  2.5402  1.1981 -0.5909
 2220SOL     OW18121   1.689   0.557  16.053  0.0342 -0.0420  0.2419
 2220SOL    HW118122   1.782   0.567  16.036 -0.1430  0.8601 -0.2207
 2220SOL    HW218123   1.658   0.638  16.012 -0.7194 -0.7965 -0.6903
 2221SOL     OW18124   0.815   0.296   8.942  0.1517  0.0595  0.5742
 2221SOL    HW118125   0.726   0.310   8.972  1.0388  0.4122  3.0098
 2221SOL    HW218126   0.800   0.290   8.847  0.4417  1.7261  0.4096
 2222SOL     OW18127   2.633   0.611   7.746 -0.5414 -0.3438  0.1767
 2222SOL    HW118128   2.707   0.649   7.794 -0.7234 -0.2073  0.3503
 2222SOL    HW218129   2.584   0.690   7.722  0.3699  0.5061  1.1372
 2223SOL     OW18130   2.766   2.143   2.106 -0.1227 -0.0450  0.0715
 2223SOL    HW118131   2.779   2.231   2.072 -0.7227  0.9488  2.4305
 2223SOL    HW218132   2.673   2.122   2.107 -0.4139  1.3046  1.1485
 2224SOL     OW18133   3.821   0.289   7.083  0.9264  0.4820 -0.0073
 2224SOL    HW118134   3.801   0.293   6.990  1.5958  1.6099 -0.1003
 2224SOL    HW218135   3.833   0.195   7.096 -0.3223  0.3049 -0.2366
 2225SOL     OW18136   1.599   1.089   2.727 -0.0817 -0.0322  0.0269
 2225SOL    HW118137   1.656   1.101   2.650 -0.7335 -0.5520 -0.5343
 2225SOL    HW218138   1.626   1.167   2.776 -1.6069  0.2528  0.3866
 2226SOL     OW18139   2.851   4.614   8.710  0.0497  0.4549 -0.0944
 2226SOL    HW118140   2.779   4.603   8.647 -0.4454  0.3063  0.4942
 2226SOL    HW218141   2.804   4.625   8.793 -0.2124 -1.2527 -0.0116
 2227SOL     OW18142   4.245   0.734  16.724  0.5891 -0.0322  0.1825
 2227SOL    HW118143   4.152   0.711  16.718 -0.3543  3.2927  2.4601
 2227SOL    HW218144   4.221   0.826  16.740 -0.3279  0.1266 -1.9983
 2228SOL     OW18145   2.479   4.052   3.551 -0.3801 -0.5208 -0.7161
 2228SOL    HW118146   2.507   4.141   3.531 -0.1284 -0.5337 -0.4287
 2228SOL    HW218147   2.551   3.993   3.529  0.3790  0.3886 -0.6518
 2229SOL     OW18148   4.385   4.720   4.704 -0.0713  0.0364 -0.1817
 2229SOL    HW118149   4.388   0.030   4.615 -2.9578  0.0876 -0.2566
 2229SOL    HW218150   4.477   4.694   4.708  0.6225  2.7041  1.7927
 2230SOL     OW18151   2.328   1.195   7.249  0.5101 -0.3382  0.8936
 2230SOL    HW118152   2.393   1.215   7.317  2.3949 -2.3855 -0.3323
 2230SOL    HW218153   2.261   1.150   7.300 -0.0609  0.9113  1.2606
 2231SOL     OW18154   3.015   0.878   9.888 -0.1883  0.5419 -0.6443
 2231SOL    HW118155   2.976   0.895   9.803 -2.3650  1.4680  0.5342
 2231SOL    HW218156   3.108   0.880   9.866 -0.2583 -0.0391 -0.9807
 2232SOL     OW18157   1.625   3.933   6.675 -0.3715  0.2359 -0.2584
 2232SOL    HW118158   1.566   3.885   6.617  1.1771 -0.7103 -1.0491
 2232SOL    HW218159   1.668   3.976   6.601  0.2062 -1.4300 -0.9027
 2233SOL     OW18160   3.750   3.613  15.117 -0.1048 -0.2646  0.3568
 2233SOL    HW118161   3.777   3.541  15.174  1.8698  0.5995  0.5156
 2233SOL    HW218162   3.654   3.607  15.121 -0.1280 -1.5806 -2.1163
 2234SOL     OW18163   3.525   0.384   1.666  0.2350 -0.6239 -0.3514
 2234SOL    HW118164   3.517   0.291   1.645 -0.7718 -0.5529 -0.2951
 2234SOL    HW218165   3.543   0.401   1.573  0.4355  0.4461 -0.1179
 2235SOL     OW18166   4.533   0.629   5.446  0.1320  0.0564 -0.2412
 2235SOL    HW118167   4.551   0.578   5.525 -0.5492 -1.1068 -0.8350
 2235SOL    HW218168   4.566   0.566   5.382 -1.7049 -1.1205 -0.0421
 2236SOL     OW18169   1.554   0.564   8.962  0.1635 -0.3785  0.0137
 2236SOL    HW118170   1.497   0.547   9.037 -1.6992  0.9867 -1.0745
 2236SOL    HW218171   1.555   0.482   8.911  0.0997 -0.6471  0.4464
 2237SOL     OW18172   2.946   0.713  14.014  0.1996  0.4427 -0.1478
 2237SOL    HW118173   3.036   0.689  14.032 -0.0109 -0.3254 -0.1230
 2237SOL    HW218174   2.936   0.808  14.009  2.2396  0.5656 -1.4555
 2238SOL     OW18175   4.044   1.010  14.100 -0.0894  0.3590 -0.0129
 2238SOL    HW118176   4.027   0.936  14.043  3.0593  0.1547 -0.6758
 2238SOL    HW218177   4.060   1.087  14.045  0.6603  1.9932  2.4828
 2239SOL     OW18178   0.114   1.027  12.934  0.1295  0.2682 -0.4286
 2239SOL    HW118179   0.047   1.079  12.891 -0.1345  2.0148  2.1151
 2239SOL    HW218180   0.114   0.937  12.900  0.7132  0.5168 -1.0901
 2240SOL     OW18181   4.646   2.369   5.174  0.0027 -0.6340 -0.2299
 2240SOL    HW118182   4.624   2.398   5.085  3.2110  0.5862 -0.6171
 2240SOL    HW218183   4.628   2.276   5.161 -1.6250 -0.3076 -0.2504
 2241SOL     OW18184   4.660   0.478   0.228  0.6869  0.4847  0.2194
 2241SOL    HW118185   4.632   0.502   0.140 -0.2413  0.1162  0.4195
 2241SOL    HW218186   4.625   0.551   0.278 -3.4447 -0.0899 -1.8461
 2242SOL     OW18187   1.244   0.113   1.544 -0.1664  0.1385  0.1540
 2242SOL    HW118188   1.338   0.103   1.532  0.2042  2.7224  0.7772
 2242SOL    HW218189   1.217   0.022   1.553 -1.1256  0.2292 -1.8468
 2243SOL     OW18190   0.475   4.718   3.798 -0.2973 -0.1705  0.1368
 2243SOL    HW118191   0.414   4.684   3.732 -0.3940  1.3121 -0.5497
 2243SOL    HW218192   0.417   0.042   3.858 -1.8345 -3.9521  1.6065
 2244SOL     OW18193   0.187   4.418   3.570 -0.0408  0.2056  0.1167
 2244SOL    HW118194   0.166   4.364   3.646  0.8446 -1.2941 -0.7067
 2244SOL    HW218195   0.207   4.346   3.510 -2.0559 -0.4062  0.1462
 2245SOL     OW18196   4.691   4.224   5.620 -0.1283  0.4614 -0.1326
 2245SOL    HW118197   0.013   4.189   5.543  1.1968  1.1247  0.3473
 2245SOL    HW218198   4.638   4.148   5.645 -2.1784  1.8190 -0.3520
 2246SOL     OW18199   0.957   2.591  13.197  0.5657 -0.1529  0.0581
 2246SOL    HW118200   0.948   2.634  13.112  1.7764  0.1571  0.0811
 2246SOL    HW218201   0.974   2.666  13.254 -1.9510  0.5052 -0.0584
 2247SOL     OW18202   2.636   1.238  11.454 -0.9767  0.3435 -0.1737
 2247SOL    HW118203   2.728   1.224  11.478 -0.8795 -0.8571 -1.2371
 2247SOL    HW218204   2.643   1.249  11.359  1.6843  1.5461  0.1439
 2248SOL     OW18205   2.330   4.353   9.265 -0.5499 -0.1621 -0.1343
 2248SOL    HW118206   2.259   4.392   9.214  0.1260 -0.7301 -1.5144
 2248SOL    HW218207   2.342   4.269   9.221  0.9578  1.2267 -2.3617
 2249SOL     OW18208   3.472   0.937  10.657 -0.4307  0.2794  0.0578
 2249SOL    HW118209   3.419   0.958  10.734 -1.6342  2.1614 -1.2750
 2249SOL    HW218210   3.501   1.026  10.642 -1.9008  1.1122  2.0725
 2250SOL     OW18211   2.120   2.883   4.333  0.0099 -0.1767 -0.1807
 2250SOL    HW118212   2.206   2.848   4.312 -0.0054 -0.2413 -0.1366
 2250SOL    HW218213   2.081   2.796   4.348 -1.5351  0.3614 -1.1064
 2251SOL     OW18214   3.293   3.766  14.420  0.3706  0.3320 -0.1538
 2251SOL    HW118215   3.223   3.831  14.411 -0.1958  0.2850  4.2106
 2251SOL    HW218216   3.351   3.798  14.489 -1.7513  0.5197  1.5418
 2252SOL     OW18217   4.495   3.254   2.518  0.1615 -0.6652 -0.2331
 2252SOL    HW118218   4.564   3.226   2.458 -0.1023  0.2708 -0.9676
 2252SOL    HW218219   4.553   3.244   2.594 -2.0152 -1.2447  1.3472
 2253SOL     OW18220   2.512   0.258   0.817 -0.7381  1.1013  0.3235
 2253SOL    HW118221   2.532   0.242   0.725 -3.1432  1.8601 -0.3508
 2253SOL    HW218222   2.600   0.240   0.849 -1.1962  0.8558  1.4576
 2254SOL     OW18223   3.480   2.023  13.260 -0.1380  0.0892  0.4754
 2254SOL    HW118224   3.504   1.931  13.253  0.5261  0.3709 -0.7930
 2254SOL    HW218225   3.503   2.043  13.351 -1.4590  0.7573  0.6615
 2255SOL     OW18226   2.502   2.022   3.500  0.5456 -0.5744  0.0868
 2255SOL    HW118227   2.518   1.972   3.580  0.1950  0.0518  0.5563
 2255SOL    HW218228   2.564   1.973   3.447 -0.2584  0.1419 -1.5217
 2256SOL     OW18229   3.408   0.079   0.008  0.0806  0.7007  0.1066
 2256SOL    HW118230   3.458   0.038   0.079 -0.5275 -0.2980 -0.0483
 2256SOL    HW218231   3.414   0.175   0.009 -0.8288  0.7512  0.6384
 2257SOL     OW18232   0.947   0.377   7.543 -0.4441 -0.2969  0.0487
 2257SOL    HW118233   0.893   0.326   7.482  0.6600 -1.5355  0.1042
 2257SOL    HW218234   0.867   0.415   7.579 -2.3028 -0.4019 -3.9561
 2258SOL     OW18235   4.176   3.194   4.994 -0.3544  0.3096  0.2428
 2258SOL    HW118236   4.082   3.180   5.002 -0.3661  1.2483  1.7827
 2258SOL    HW218237   4.198   3.176   5.085 -1.7945 -0.4101  0.4489
 2259SOL     OW18238   1.736   0.113   4.891  0.3790 -0.1807 -0.6092
 2259SOL    HW118239   1.768   0.195   4.855  1.4387  0.9125  2.8122
 2259SOL    HW218240   1.805   0.051   4.868  0.4376 -0.8433  1.3565
 2260SOL     OW18241   3.198   3.744   6.579  0.5431 -0.8693 -0.1071
 2260SOL    HW118242   3.203   3.654   6.611 -0.0268 -0.5387  0.9027
 2260SOL    HW218243   3.281   3.749   6.532  0.1142 -1.1809 -0.9043
 2261SOL     OW18244   0.589   4.562  13.667 -0.3327  0.5370  0.1777
 2261SOL    HW118245   0.633   4.590  13.748  1.8521 -0.4349 -0.6699
 2261SOL    HW218246   0.565   4.644  13.624 -1.5418  0.8630  1.4790
 2262SOL     OW18247   4.599   3.742   3.501 -0.2157  0.5689 -0.4032
 2262SOL    HW118248   4.574   3.658   3.463  0.8559 -0.3156  0.8446
 2262SOL    HW218249   4.548   3.733   3.582  0.0070  3.5367  0.0789
 2263SOL     OW18250   0.753   3.798   9.150  0.3643 -0.3558 -0.0348
 2263SOL    HW118251   0.793   3.880   9.178  1.5522 -0.5342 -1.2593
 2263SOL    HW218252   0.764   3.782   9.056 -0.5548  1.1504 -0.3944
 2264SOL     OW18253   4.339   4.457   6.818  0.2463  0.3167  0.2661
 2264SOL    HW118254   4.346   4.545   6.783 -1.4572  0.4273  0.2473
 2264SOL    HW218255   4.428   4.430   6.793  0.0219  0.2961 -0.4966
 2265SOL     OW18256   1.401   1.819   6.270  0.0216  0.5159 -0.1887
 2265SOL    HW118257   1.435   1.816   6.359 -1.5294 -0.0477  0.3887
 2265SOL    HW218258   1.446   1.742   6.235  3.0661  1.5571  1.4830
 2266SOL     OW18259   4.605   2.919   8.170  0.2928 -0.4994  1.0483
 2266SOL    HW118260   4.515   2.952   8.175  0.7611  0.6986  1.4028
 2266SOL    HW218261   4.636   2.981   8.104  0.6587 -0.4298  1.2866
 2267SOL     OW18262   2.823   1.278   7.863  0.6316 -0.4015 -0.1434
 2267SOL    HW118263   2.907   1.286   7.909  1.0053 -1.2356 -0.6877
 2267SOL    HW218264   2.799   1.370   7.852  0.9857 -0.0948  1.6410
 2268SOL     OW18265   3.842   2.147   2.382 -0.2195  0.0212  0.1383
 2268SOL    HW118266   3.802   2.108   2.304  1.2798 -0.9637 -0.1199
 2268SOL    HW218267   3.877   2.070   2.427 -3.0171 -2.1273 -1.3889
 2269SOL     OW18268   3.849   1.859   2.377 -0.6198 -0.5969 -0.1988
 2269SOL    HW118269   3.892   1.818   2.302  3.0370  2.8170  0.0334
 2269SOL    HW218270   3.759   1.827   2.373 -0.4880 -1.0460  0.5147
 2270SOL     OW18271   0.527   1.845   7.098 -0.5873 -0.0201  0.2202
 2270SOL    HW118272   0.474   1.817   7.173 -1.0019  2.4336  0.8450
 2270SOL    HW218273   0.464   1.820   7.031  0.9901 -1.1559 -0.8229
 2271SOL     OW18274   1.111   3.246   2.365 -0.2275 -0.4239  0.6581
 2271SOL    HW118275   1.097   3.336   2.394  1.3755  0.0799 -0.1256
 2271SOL    HW218276   1.203   3.226   2.382 -0.3847 -0.0634  1.9194
 2272SOL     OW18277   1.597   2.240   7.622  0.2184  0.1171 -0.1579
 2272SOL    HW118278   1.555   2.210   7.702  2.5016 -1.7397  0.3520
 2272SOL    HW218279   1.522   2.231   7.563 -0.6416 -0.8569  1.1055
 2273SOL     OW18280   0.408   4.465   7.783 -0.0802  0.2040  0.5903
 2273SOL    HW118281   0.315   4.487   7.790 -0.5934 -2.2510  1.4970
 2273SOL    HW218282   0.431   4.467   7.875 -1.3524 -3.1557  0.9693
 2274SOL     OW18283   4.444   0.114   0.950  0.8353 -0.0599  0.0241
 2274SOL    HW118284   4.477   0.175   0.884 -2.3945  1.1351 -0.4789
 2274SOL    HW218285   4.480   0.031   0.919 -0.9202 -0.6852 -0.3450
 2275SOL     OW18286   2.222   1.610   3.355  0.1765 -0.3297 -0.1864
 2275SOL    HW118287   2.305   1.645   3.386  0.9152 -2.4165  0.1827
 2275SOL    HW218288   2.223   1.643   3.265  0.2301  0.5817  0.1467
 2276SOL     OW18289   0.051   1.940   9.831 -0.1015  0.9151 -0.4757
 2276SOL    HW118290   0.042   1.994   9.909 -2.8701  0.3770 -0.4242
 2276SOL    HW218291   0.118   1.876   9.852  0.4894  1.2605 -1.2939
 2277SOL     OW18292   0.395   1.447  13.726 -0.1076  0.6201  0.7910
 2277SOL    HW118293   0.486   1.463  13.750 -0.9880  1.6831  3.3560
 2277SOL    HW218294   0.375   1.365  13.771 -0.1058  0.1630 -0.0285
 2278SOL     OW18295   0.424   1.935   9.418  0.3508 -0.1304 -0.6046
 2278SOL    HW118296   0.415   1.959   9.510  0.5397  3.3909 -1.5243
 2278SOL    HW218297   0.432   2.023   9.382 -0.4758 -0.4689 -1.6421
 2279SOL     OW18298   1.172   2.353  17.028 -0.0660 -0.7146 -0.4542
 2279SOL    HW118299   1.161   2.359  17.122 -0.4500 -1.2003 -0.4684
 2279SOL    HW218300   1.148   2.437  16.988  1.0415 -1.4242 -2.6439
 2280SOL     OW18301   0.116   2.478  16.975 -0.5839  0.1240 -0.0066
 2280SOL    HW118302   0.112   2.414  16.904 -2.6416  1.4045 -1.0437
 2280SOL    HW218303   0.206   2.481  17.007 -1.2015  2.5332  1.5792
 2281SOL     OW18304   2.278   3.757   4.988 -0.7931  0.1391 -0.5785
 2281SOL    HW118305   2.297   3.700   4.913 -0.8160  1.0369 -1.2757
 2281SOL    HW218306   2.363   3.800   5.001  0.1032 -2.4240  1.8401
 2282SOL     OW18307   2.869   2.209   4.813  0.2534 -0.0313  0.7248
 2282SOL    HW118308   2.935   2.148   4.845  2.5411  1.8983 -0.2969
 2282SOL    HW218309   2.919   2.230   4.735 -0.2059 -0.2531  0.3723
 2283SOL     OW18310   0.501   3.191   6.126  0.1421 -0.0844 -0.2022
 2283SOL    HW118311   0.563   3.168   6.058  0.4245  0.4552 -0.1290
 2283SOL    HW218312   0.518   3.128   6.196  1.1316 -1.5864 -1.7944
 2284SOL     OW18313   3.626   0.742   2.861  0.3101 -0.2866  0.0612
 2284SOL    HW118314   3.701   0.726   2.918 -1.7413  0.7051  3.0430
 2284SOL    HW218315   3.554   0.720   2.919 -1.0608  1.3257 -1.0390
 2285SOL     OW18316   4.665   1.592  12.994  0.5335  0.6111 -0.4736
 2285SOL    HW118317   4.630   1.652  13.059  0.9330 -0.4784  0.7518
 2285SOL    HW218318   4.637   1.645  12.919  0.7023  0.3009 -0.7580
 2286SOL     OW18319   2.872   4.431   5.040 -0.2946  0.4011 -0.2509
 2286SOL    HW118320   2.895   4.498   5.104  0.6746 -0.5327  0.3820
 2286SOL    HW218321   2.852   4.479   4.960 -0.4529  1.1276  0.2200
 2287SOL     OW18322   1.213   1.431  11.434  0.1762 -0.0397 -0.3766
 2287SOL    HW118323   1.212   1.407  11.342 -1.0003  0.4783 -0.5062
 2287SOL    HW218324   1.290   1.488  11.428 -0.6538  1.0770 -0.4167
 2288SOL     OW18325   3.687   2.538  13.074 -0.0975  0.0941  0.2671
 2288SOL    HW118326   3.745   2.509  13.004 -0.5742  1.5252 -0.7225
 2288SOL    HW218327   3.615   2.478  13.056 -0.0313 -0.6432  2.4640
 2289SOL     OW18328   3.497   1.769   0.751 -0.0826 -0.1914 -0.1180
 2289SOL    HW118329   3.460   1.822   0.681  1.3688  1.5363  0.4349
 2289SOL    HW218330   3.498   1.679   0.717 -0.1613  0.2340 -1.2490
 2290SOL     OW18331   4.236   0.629   9.273  0.0649  0.7668  0.1899
 2290SOL    HW118332   4.266   0.614   9.362 -0.0368  0.2936  0.1425
 2290SOL    HW218333   4.316   0.671   9.240  0.4402 -0.2458 -0.1851
 2291SOL     OW18334   1.420   0.946  14.853 -0.0380 -0.3916  0.5242
 2291SOL    HW118335   1.345   1.002  14.836  0.7264  0.7197  0.7716
 2291SOL    HW218336   1.431   0.958  14.947  0.0048  1.7853  0.2288
 2292SOL     OW18337   1.573   3.288  11.203 -0.7387  0.4313  0.3250
 2292SOL    HW118338   1.633   3.326  11.267 -1.9711  2.9631 -0.0187
 2292SOL    HW218339   1.604   3.307  11.114 -1.7371  0.9526  0.0809
 2293SOL     OW18340   1.634   3.507   5.988 -0.1309  0.1763  0.0420
 2293SOL    HW118341   1.644   3.424   6.034 -1.0817  0.7486  1.2612
 2293SOL    HW218342   1.727   3.529   5.975 -0.3580  0.2988 -1.4347
 2294SOL     OW18343   1.451   2.626   1.415  0.4369  0.4075 -0.3713
 2294SOL    HW118344   1.382   2.571   1.378 -0.8906  0.8868  1.4168
 2294SOL    HW218345   1.409   2.666   1.490 -0.1474 -1.8188  0.4849
 2295SOL     OW18346   0.834   1.895   4.414 -0.1250 -0.2526  0.1533
 2295SOL    HW118347   0.769   1.855   4.356 -2.3751  0.8995  1.8550
 2295SOL    HW218348   0.892   1.924   4.343 -0.2349 -2.1547 -0.7028
 2296SOL     OW18349   3.299   0.213   1.465 -1.0430 -0.0451 -0.0523
 2296SOL    HW118350   3.394   0.228   1.459 -0.7297 -1.4761  1.3141
 2296SOL    HW218351   3.296   0.168   1.549  2.9574 -0.2936 -0.0445
 2297SOL     OW18352   3.197   1.339   3.929 -0.2493 -0.3915  0.0541
 2297SOL    HW118353   3.117   1.314   3.884 -0.3083  0.5885 -0.3850
 2297SOL    HW218354   3.253   1.295   3.866  1.0725  2.5171 -0.8344
 2298SOL     OW18355   4.461   0.581   6.222 -0.1053  0.5123 -0.6927
 2298SOL    HW118356   4.379   0.566   6.176 -1.1139  0.9777  0.9661
 2298SOL    HW218357   4.497   0.664   6.190 -0.8807  0.3393 -1.9832
 2299SOL     OW18358   0.592   2.702   8.465 -0.5499 -0.4747 -0.1290
 2299SOL    HW118359   0.608   2.637   8.534 -0.6290 -0.4178 -0.0562
 2299SOL    HW218360   0.556   2.655   8.390  0.5545 -0.3039 -0.7633
 2300SOL     OW18361   1.763   1.917   7.413 -0.5837  0.4373 -0.3774
 2300SOL    HW118362   1.704   1.846   7.437  0.0435 -0.5354 -1.7355
 2300SOL    HW218363   1.704   1.992   7.401 -0.1091  0.6764 -1.1950
 2301SOL     OW18364   1.214   2.187   9.208 -0.4467 -0.1452 -0.1031
 2301SOL    HW118365   1.281   2.256   9.203  0.4179 -0.8657  1.5324
 2301SOL    HW218366   1.248   2.120   9.268  0.1729  0.9554  0.7867
 2302SOL     OW18367   1.683   4.519  15.227 -0.5264  0.0514  0.0442
 2302SOL    HW118368   1.624   4.534  15.300 -1.1204  0.7906 -0.5877
 2302SOL    HW218369   1.726   4.603  15.214  0.4825 -0.7354 -1.7187
 2303SOL     OW18370   3.796   2.282   6.991  0.4958  0.2347  0.4452
 2303SOL    HW118371   3.855   2.311   6.922  0.4100 -1.1716 -0.2248
 2303SOL    HW218372   3.849   2.243   7.062  0.3489  0.1835  0.5266
 2304SOL     OW18373   3.005   2.346  11.216 -0.5259  0.3525 -0.1106
 2304SOL    HW118374   3.068   2.409  11.181 -0.0653 -0.7840 -1.3262
 2304SOL    HW218375   2.923   2.360  11.168 -0.3321  1.1634 -0.2068
 2305SOL     OW18376   4.570   1.074   2.794  0.1546 -0.0030  0.5220
 2305SOL    HW118377   4.524   1.071   2.711 -1.4835  0.5319  1.4247
 2305SOL    HW218378   4.655   1.037   2.768  0.5362  0.3789  1.2049
 2306SOL     OW18379   4.385   3.152   1.331  0.3168 -0.2534  0.1460
 2306SOL    HW118380   4.331   3.231   1.326  0.4953 -0.1434 -0.0493
 2306SOL    HW218381   4.437   3.158   1.251 -1.7535  0.9230 -1.1173
 2307SOL     OW18382   2.255   3.539   6.091  0.0287 -0.5928  0.0520
 2307SOL    HW118383   2.327   3.587   6.133  1.6569 -1.1649 -2.0750
 2307SOL    HW218384   2.184   3.539   6.155 -0.6684  0.8930 -0.7164
 2308SOL     OW18385   2.328   2.402  16.542 -0.2841  0.4704  0.5598
 2308SOL    HW118386   2.378   2.414  16.623 -0.3518 -0.0093  0.6745
 2308SOL    HW218387   2.277   2.482  16.536 -2.0368 -0.5731  1.6403
 2309SOL     OW18388   0.714   1.208   9.709 -0.1992 -0.5912  0.8425
 2309SOL    HW118389   0.667   1.256   9.641  3.6306 -0.3560 -1.6432
 2309SOL    HW218390   0.740   1.133   9.656 -1.1038  2.0912 -3.3156
 2310SOL     OW18391   4.490   2.934   1.691  0.0330 -0.7072 -0.1812
 2310SOL    HW118392   4.440   2.958   1.613  1.8741 -1.8741 -1.7186
 2310SOL    HW218393   4.543   2.863   1.654 -1.2604 -1.4480 -0.6142
 2311SOL     OW18394   1.977   3.921   6.657  0.1168 -0.2311 -0.1052
 2311SOL    HW118395   2.036   3.949   6.727  0.4804 -1.2365 -0.0195
 2311SOL    HW218396   1.952   3.832   6.681  1.6912 -0.6865 -0.1726
 2312SOL     OW18397   4.674   2.772  16.754 -0.1911 -0.1583 -0.2067
 2312SOL    HW118398   4.677   2.731  16.840  0.6454  1.3199  0.4732
 2312SOL    HW218399   4.643   2.697  16.704  0.0008  0.9396 -1.9818
 2313SOL     OW18400   0.188   3.927   3.693 -0.4198 -0.1972  0.2706
 2313SOL    HW118401   0.170   3.855   3.755  1.7072  0.0703  1.2127
 2313SOL    HW218402   0.113   3.936   3.634  0.9729  1.2976 -1.2777
 2314SOL     OW18403   3.457   0.108   2.986  0.5132 -0.3753  0.3214
 2314SOL    HW118404   3.441   0.202   2.999  2.4239  0.0845 -0.6092
 2314SOL    HW218405   3.367   0.082   3.002  0.0884  0.2074 -1.0482
 2315SOL     OW18406   1.494   0.664  14.858 -0.6324 -0.7514 -0.0819
 2315SOL    HW118407   1.556   0.711  14.802 -0.1578 -1.6810 -0.3415
 2315SOL    HW218408   1.450   0.738  14.899 -0.0555  1.5829 -3.6604
 2316SOL     OW18409   2.023   1.881   5.164  0.0299  0.1688  0.1320
 2316SOL    HW118410   1.928   1.873   5.154 -0.0128  0.0154  0.6999
 2316SOL    HW218411   2.047   1.790   5.182  2.7699  0.6546 -1.0081
 2317SOL     OW18412   2.888   4.140   7.592  0.2894 -0.0161 -0.4366
 2317SOL    HW118413   2.888   4.049   7.563 -1.2682  0.1857 -1.0482
 2317SOL    HW218414   2.794   4.158   7.598  0.7009  1.5911  1.2047
 2318SOL     OW18415   0.415   2.038   1.754  0.9000  0.4119 -0.1025
 2318SOL    HW118416   0.466   1.959   1.770 -0.0019 -0.4082 -1.2665
 2318SOL    HW218417   0.331   2.010   1.792  1.8775 -1.2451  0.8490
 2319SOL     OW18418   3.182   1.284   4.584 -0.2281 -0.0848  0.5705
 2319SOL    HW118419   3.202   1.294   4.678  0.9704  2.9778 -0.0033
 2319SOL    HW218420   3.182   1.189   4.579 -0.2614 -0.0086 -0.7302
 2320SOL     OW18421   3.118   3.888  15.775 -0.4417 -0.8459 -0.5939
 2320SOL    HW118422   3.144   3.897  15.867 -0.4920  0.4233 -0.7041
 2320SOL    HW218423   3.193   3.932  15.735  0.7278 -0.3111  2.1419
 2321SOL     OW18424   0.491   2.578   4.868  0.0248  0.2723 -0.3955
 2321SOL    HW118425   0.462   2.669   4.862 -3.0071 -0.6834 -0.2524
 2321SOL    HW218426   0.484   2.554   4.776  1.9708 -0.8875 -0.2485
 2322SOL     OW18427   2.604   3.778   4.191  0.5142  0.5375 -0.0293
 2322SOL    HW118428   2.614   3.685   4.209 -0.2293  0.4060 -0.2775
 2322SOL    HW218429   2.645   3.818   4.268  0.3304 -3.3958  2.0921
 2323SOL     OW18430   3.384   3.046   9.872  0.1555 -0.6185  0.0729
 2323SOL    HW118431   3.331   2.966   9.862  0.0360 -0.4394 -0.7528
 2323SOL    HW218432   3.427   3.021   9.953  0.8293 -2.6304 -0.9031
 2324SOL     OW18433   1.215   0.121   9.310 -0.1256  0.3505 -0.3714
 2324SOL    HW118434   1.169   0.126   9.394  2.0776  0.0734  0.8667
 2324SOL    HW218435   1.291   0.176   9.331 -0.5909  2.1049 -3.2491
 2325SOL     OW18436   4.001   4.122   8.394 -0.7990  0.5840 -0.4197
 2325SOL    HW118437   4.087   4.081   8.395 -1.1021 -0.1012 -1.8518
 2325SOL    HW218438   4.023   4.215   8.389 -1.3968  0.7107 -0.7573
 2326SOL     OW18439   4.136   3.835   4.332  0.2651  0.5173  0.4203
 2326SOL    HW118440   4.102   3.773   4.397 -0.2122  1.0275  0.6572
 2326SOL    HW218441   4.178   3.769   4.277 -1.2688  0.8072 -1.0880
 2327SOL     OW18442   2.922   3.587  15.445  0.0203  0.3753  0.1128
 2327SOL    HW118443   2.982   3.648  15.403 -1.4029  0.0110 -2.4314
 2327SOL    HW218444   2.962   3.589  15.532  1.9228  1.3763 -0.7900
 2328SOL     OW18445   0.704   2.000  15.793 -0.3650  0.2206 -0.5162
 2328SOL    HW118446   0.711   2.023  15.700  1.9391  0.7522 -0.2222
 2328SOL    HW218447   0.778   1.941  15.803  0.5282  1.6251  1.1563
 2329SOL     OW18448   4.387   0.730   6.626 -0.4096  0.2036 -0.0473
 2329SOL    HW118449   4.307   0.732   6.574 -0.9728  0.3317  0.8362
 2329SOL    HW218450   4.436   0.785   6.564  0.1961 -0.7723 -0.4178
 2330SOL     OW18451   3.222   3.558   0.537  0.3417 -0.6509  0.0784
 2330SOL    HW118452   3.293   3.553   0.601  0.9469  0.6824 -0.4914
 2330SOL    HW218453   3.196   3.650   0.545  1.6247 -0.2738 -0.0701
 2331SOL     OW18454   1.110   1.834   6.874 -0.7464  0.5674 -0.2539
 2331SOL    HW118455   1.069   1.768   6.818 -1.4719  1.6323 -0.9835
 2331SOL    HW218456   1.099   1.793   6.959  0.2825  1.8179  0.4765
 2332SOL     OW18457   1.118   4.583  17.510 -0.0185  0.3715 -0.5068
 2332SOL    HW118458   1.130   4.506  17.454  2.5411  0.1285  0.3774
 2332SOL    HW218459   1.029   4.588  17.543  0.0200 -3.1832  0.2045
 2333SOL     OW18460   0.057   1.868  13.293  0.2727  0.3873 -0.3765
 2333SOL    HW118461   0.077   1.838  13.381 -1.3835 -0.4499 -0.2819
 2333SOL    HW218462   0.106   1.811  13.234  3.0724  1.7137  0.6982
 2334SOL     OW18463   2.995   2.960  15.545 -0.1355 -0.1694  0.4396
 2334SOL    HW118464   3.021   2.878  15.504  0.6355  0.7489 -0.8992
 2334SOL    HW218465   3.086   2.974  15.568  0.0996  1.8496 -1.7291
 2335SOL     OW18466   2.095   2.415   2.935 -0.0839  0.4907  0.0191
 2335SOL    HW118467   2.020   2.440   2.988 -1.0524 -1.6215 -0.3627
 2335SOL    HW218468   2.163   2.431   3.000 -1.4220 -0.0007  1.5348
 2336SOL     OW18469   1.431   1.461   5.366  0.2318  0.2891 -0.1885
 2336SOL    HW118470   1.470   1.380   5.400  0.7636  1.1280  1.1905
 2336SOL    HW218471   1.374   1.494   5.435 -0.8839  0.7607 -1.3365
 2337SOL     OW18472   4.446   3.789   4.873 -0.1254 -0.5989 -0.6076
 2337SOL    HW118473   4.541   3.779   4.880 -0.0564 -0.1362 -0.8695
 2337SOL    HW218474   4.424   3.765   4.962 -0.3350  1.4513 -0.1038
 2338SOL     OW18475   4.244   3.662   0.774  0.6006 -0.2639 -0.3133
 2338SOL    HW118476   4.333   3.640   0.745  1.1600  1.8823 -0.1937
 2338SOL    HW218477   4.199   3.580   0.754 -3.1131  1.5023  0.9284
 2339SOL     OW18478   3.071   0.247  13.084 -0.5434  0.1376  0.3270
 2339SOL    HW118479   3.054   0.341  13.077 -1.5676 -0.0906 -0.3216
 2339SOL    HW218480   3.117   0.236  13.167  0.1201 -0.5597 -0.1431
 2340SOL     OW18481   1.554   2.531   4.377 -0.2725 -0.5023  0.1412
 2340SOL    HW118482   1.644   2.496   4.381  0.2857  1.1040  1.6524
 2340SOL    HW218483   1.553   2.566   4.466  0.7129 -1.4063  0.5071
 2341SOL     OW18484   1.391   2.297   8.723  0.0328  0.4570  0.3534
 2341SOL    HW118485   1.454   2.349   8.672 -1.1212  1.5894  0.0934
 2341SOL    HW218486   1.451   2.264   8.790 -0.6388  1.2592  1.3418
 2342SOL     OW18487   0.585   3.962   2.568 -0.2054 -0.0768  0.2010
 2342SOL    HW118488   0.678   3.983   2.568 -0.2826  0.2621  0.8580
 2342SOL    HW218489   0.570   3.889   2.507  0.5514  0.1984 -0.3084
 2343SOL     OW18490   3.674   0.859   4.913 -0.0619 -0.7201  0.2514
 2343SOL    HW118491   3.600   0.799   4.928  0.2793 -1.3531 -0.6197
 2343SOL    HW218492   3.633   0.917   4.849  0.1540  0.4697  1.1815
 2344SOL     OW18493   0.758   2.166   4.020 -0.1954  0.4749 -0.9309
 2344SOL    HW118494   0.744   2.075   3.992  0.5089  0.3923 -1.0067
 2344SOL    HW218495   0.697   2.170   4.093  1.1625 -4.1549  0.4655
 2345SOL     OW18496   1.263   0.420   3.552 -0.0497 -0.6088 -0.6198
 2345SOL    HW118497   1.214   0.339   3.567 -0.4365 -0.6475 -2.1433
 2345SOL    HW218498   1.354   0.394   3.560 -0.2277 -0.1236  3.1258
 2346SOL     OW18499   4.261   3.037   9.331  0.7629 -0.6149 -0.1596
 2346SOL    HW118500   4.185   3.096   9.334 -0.8684 -2.6983 -0.3104
 2346SOL    HW218501   4.272   3.037   9.236  1.4969  1.1569 -0.0639
 2347SOL     OW18502   2.078   0.950   4.001 -0.1627 -0.2857 -0.3993
 2347SOL    HW118503   2.021   0.873   3.992  1.0285 -1.3101  0.7344
 2347SOL    HW218504   2.041   0.993   4.078  0.3014 -0.9429  0.1941
 2348SOL     OW18505   2.561   1.411   8.043 -0.2090 -0.9569  0.0441
 2348SOL    HW118506   2.656   1.413   8.057 -0.4073 -0.2758  1.2780
 2348SOL    HW218507   2.535   1.502   8.057 -0.8551 -1.5921  2.8874
 2349SOL     OW18508   1.578   1.668   4.693 -0.0777  0.5511 -0.3792
 2349SOL    HW118509   1.543   1.642   4.778 -3.5120  0.0468 -1.9346
 2349SOL    HW218510   1.649   1.729   4.712 -0.0897  0.7504 -0.9500
 2350SOL     OW18511   2.179   0.309   3.816 -0.1788 -0.0913 -0.3489
 2350SOL    HW118512   2.228   0.365   3.756  0.0553  2.1264  1.8687
 2350SOL    HW218513   2.174   0.229   3.764 -1.0539 -0.2157 -0.0721
 2351SOL     OW18514   2.864   1.034   3.005  0.2709 -0.1173  0.3135
 2351SOL    HW118515   2.936   1.092   3.031  0.7606 -1.2248  1.4563
 2351SOL    HW218516   2.813   1.091   2.948 -0.8168 -1.9997 -0.5880
 2352SOL     OW18517   4.453   0.373   5.231 -0.4018 -0.0907 -0.0061
 2352SOL    HW118518   4.380   0.432   5.249  1.6307  1.7413  2.1803
 2352SOL    HW218519   4.455   0.329   5.316  0.4265  2.7912  1.4729
 2353SOL     OW18520   4.275   1.847   3.991  0.2214 -0.3422 -0.2285
 2353SOL    HW118521   4.277   1.905   3.914  0.0386 -0.2133 -0.1370
 2353SOL    HW218522   4.370   1.847   4.003  0.2795 -0.7769 -0.6961
 2354SOL     OW18523   3.007   1.983   7.666 -0.0124 -0.0712 -0.6337
 2354SOL    HW118524   2.913   1.993   7.651 -0.4587 -1.6995  1.1522
 2354SOL    HW218525   3.049   2.006   7.583 -0.3747 -0.2974 -0.8765
 2355SOL     OW18526   1.955   1.997   6.911  0.5942  0.0231 -0.5864
 2355SOL    HW118527   1.903   1.916   6.921 -0.0236  0.0399 -3.6220
 2355SOL    HW218528   2.035   1.957   6.878  2.9334  1.2592  3.5053
 2356SOL     OW18529   0.599   4.303  16.611  0.3112  0.1531 -0.1766
 2356SOL    HW118530   0.552   4.311  16.694  1.9581 -0.8883  0.8479
 2356SOL    HW218531   0.630   4.393  16.604  0.5027  0.1959  1.4175
 2357SOL     OW18532   1.175   0.871   7.540  0.0135  0.1658  0.0922
 2357SOL    HW118533   1.269   0.887   7.549  0.1405 -0.0406 -0.9265
 2357SOL    HW218534   1.145   0.920   7.616 -1.4182 -1.2423  0.4302
 2358SOL     OW18535   2.288   3.680   5.801  0.0896  0.1316 -0.5319
 2358SOL    HW118536   2.376   3.680   5.839  0.2989 -1.0000 -1.0077
 2358SOL    HW218537   2.228   3.653   5.870  2.3675 -3.2633  0.1289
 2359SOL     OW18538   0.474   1.790   6.573  0.1073  0.3399 -0.1133
 2359SOL    HW118539   0.465   1.798   6.478  2.9495 -2.2769 -0.5937
 2359SOL    HW218540   0.454   1.699   6.594  0.1540  0.3101 -0.1947
 2360SOL     OW18541   1.496   2.203   7.336 -0.6698 -0.2853 -0.2332
 2360SOL    HW118542   1.570   2.175   7.282  1.3882 -0.2177  2.5311
 2360SOL    HW218543   1.422   2.164   7.290  0.6118 -1.7894 -0.9901
 2361SOL     OW18544   4.592   0.706   2.747  0.4174 -0.5678  0.2238
 2361SOL    HW118545   4.503   0.701   2.712  0.5485  2.0571 -0.5368
 2361SOL    HW218546   4.566   0.725   2.837  0.4250 -0.1354  0.1348
 2362SOL     OW18547   3.306   4.433  10.240  0.0664  0.1443 -0.3827
 2362SOL    HW118548   3.232   4.373  10.232  1.4350 -1.5316 -0.3150
 2362SOL    HW218549   3.372   4.364  10.235 -1.9561 -1.6934 -1.4850
 2363SOL     OW18550   0.685   1.795   7.434  0.3036 -0.2529 -0.2359
 2363SOL    HW118551   0.646   1.817   7.519 -0.2899 -2.1060 -0.0263
 2363SOL    HW218552   0.711   1.883   7.405  0.4096  0.3326  1.6391
 2364SOL     OW18553   3.781   1.393   9.124  0.1665 -0.2184 -0.0011
 2364SOL    HW118554   3.840   1.442   9.182 -1.8502  2.1208  0.0983
 2364SOL    HW218555   3.696   1.424   9.154  0.4854  0.0857  0.5795
 2365SOL     OW18556   2.830   2.998  16.021 -0.4494  0.2762 -0.8749
 2365SOL    HW118557   2.824   3.051  15.941  1.5383 -0.0066 -1.1897
 2365SOL    HW218558   2.857   2.918  15.977 -0.5317 -0.8610  1.1660
 2366SOL     OW18559   0.103   0.004  12.084 -0.2221 -0.1106 -0.2098
 2366SOL    HW118560   0.180   0.060  12.095  0.4781 -0.4704 -3.2836
 2366SOL    HW218561   0.037   0.063  12.121  0.8933 -0.1568  1.8244
 2367SOL     OW18562   4.716   3.195  13.087 -0.4873 -0.1970 -0.2086
 2367SOL    HW118563   4.721   3.268  13.149  1.2629 -1.0681  0.6816
 2367SOL    HW218564   4.649   3.222  13.024  0.2958  0.2657 -0.8434
 2368SOL     OW18565   4.399   4.292   5.197  0.1884 -0.1116  0.5040
 2368SOL    HW118566   4.402   4.314   5.290  1.1445 -0.7608  0.6247
 2368SOL    HW218567   4.458   4.217   5.202 -0.3716 -0.4521  1.9420
 2369SOL     OW18568   2.030   0.435   0.197  0.2654  0.5794 -0.1626
 2369SOL    HW118569   2.080   0.500   0.247 -1.6848  0.2013  2.2749
 2369SOL    HW218570   1.949   0.442   0.248  0.2020  0.1049 -0.2034
 2370SOL     OW18571   2.619   4.229   6.499 -0.5981 -0.0230 -0.0382
 2370SOL    HW118572   2.623   4.252   6.592  0.1956  2.4595 -0.7055
 2370SOL    HW218573   2.593   4.137   6.502  0.7909 -0.4762 -1.8641
 2371SOL     OW18574   0.649   0.903  12.830 -0.4602  0.0313  0.6871
 2371SOL    HW118575   0.638   0.938  12.918  1.5445 -1.2597  1.4638
 2371SOL    HW218576   0.558   0.900  12.802 -0.1218  0.3446 -0.4586
 2372SOL     OW18577   1.742   3.662   0.183 -0.1905 -0.1604  0.1347
 2372SOL    HW118578   1.712   3.737   0.132  0.2319 -0.3874 -0.4509
 2372SOL    HW218579   1.669   3.651   0.244 -0.1883  0.1247  0.1888
 2373SOL     OW18580   0.852   3.017   2.911  0.0863 -0.4812 -0.2721
 2373SOL    HW118581   0.772   3.032   2.862  0.5217 -0.5518 -1.0188
 2373SOL    HW218582   0.815   2.988   2.994  0.5805 -1.2838 -0.3306
 2374SOL     OW18583   4.512   3.573   7.043 -0.2522  0.3435 -0.1844
 2374SOL    HW118584   4.602   3.592   7.015 -0.1640 -2.1659 -1.6824
 2374SOL    HW218585   4.463   3.591   6.963  0.5018  0.8726 -0.5282
 2375SOL     OW18586   4.168   3.717   6.366 -0.1084  0.2290 -0.2682
 2375SOL    HW118587   4.222   3.693   6.291  0.7031 -0.4735  0.5433
 2375SOL    HW218588   4.226   3.698   6.439  2.2936 -0.2832 -2.2905
 2376SOL     OW18589   0.271   3.640   6.963  0.3519 -1.2899 -0.0465
 2376SOL    HW118590   0.355   3.621   6.922 -0.0795  0.3044 -1.6519
 2376SOL    HW218591   0.207   3.592   6.910 -0.0133  0.8553 -1.5553
 2377SOL     OW18592   1.139   1.006   7.311  0.2355 -0.5124 -0.3927
 2377SOL    HW118593   1.161   0.950   7.385  0.3421  1.6879  1.2361
 2377SOL    HW218594   1.067   1.054   7.352  1.5197  0.4810  0.7249
 2378SOL     OW18595   0.673   2.477   9.886 -0.1654  0.3794 -0.3982
 2378SOL    HW118596   0.767   2.490   9.876  0.0393  0.9557  2.0986
 2378SOL    HW218597   0.662   2.404   9.947 -0.9955 -0.9009 -2.0921
 2379SOL     OW18598   1.476   1.949  15.897 -0.2448  0.5890  0.0731
 2379SOL    HW118599   1.484   1.933  15.991  1.8146 -1.3975 -0.4479
 2379SOL    HW218600   1.452   1.861  15.869  2.5542  0.2923 -1.3609
 2380SOL     OW18601   1.543   2.138   8.134  0.4461  0.0067 -0.7765
 2380SOL    HW118602   1.622   2.180   8.101  1.0103 -0.6047 -0.2005
 2380SOL    HW218603   1.572   2.052   8.164  2.2614  0.2245 -1.8898
 2381SOL     OW18604   2.724   2.592   3.880 -0.1863  0.4800  0.7928
 2381SOL    HW118605   2.704   2.654   3.950  0.3588  1.2481  0.2741
 2381SOL    HW218606   2.713   2.509   3.925 -0.5533 -0.3232 -0.7735
 2382SOL     OW18607   0.501   4.109   8.388  0.7862 -0.1362  0.3696
 2382SOL    HW118608   0.410   4.114   8.418 -0.2336 -0.2034 -2.6718
 2382SOL    HW218609   0.497   4.035   8.327  1.4010  1.7306 -1.9297
 2383SOL     OW18610   2.419   0.883   6.336 -0.2194  0.2076 -0.1899
 2383SOL    HW118611   2.424   0.906   6.429 -1.3074  0.1478 -0.1185
 2383SOL    HW218612   2.468   0.953   6.293 -0.9046  0.1991 -0.9744
 2384SOL     OW18613   1.991   1.993   9.301  0.0628  0.2536 -0.3118
 2384SOL    HW118614   1.904   2.006   9.336  0.3625  1.5568 -0.0687
 2384SOL    HW218615   2.047   1.984   9.378  2.2083  1.9483 -1.6540
 2385SOL     OW18616   4.475   3.635   1.021 -0.2029 -0.5016  0.0179
 2385SOL    HW118617   4.502   3.648   0.931 -1.8031  3.5884  0.1120
 2385SOL    HW218618   4.485   3.725   1.053  1.7601 -0.5804 -0.4042
 2386SOL     OW18619   1.534   0.319  16.060 -0.2340  0.6599 -0.2743
 2386SOL    HW118620   1.483   0.344  15.983 -0.7086  0.9856  0.1497
 2386SOL    HW218621   1.585   0.398  16.079  1.2694 -0.1629 -0.8634
 2387SOL     OW18622   2.347   1.175  11.520  0.1195 -0.4807 -0.3797
 2387SOL    HW118623   2.341   1.117  11.596 -3.7025  1.4633  0.8172
 2387SOL    HW218624   2.441   1.187  11.512  0.2545 -1.2744  0.0464
 2388SOL     OW18625   2.054   1.729   4.448 -0.0244  0.1364 -0.0226
 2388SOL    HW118626   1.986   1.789   4.417  0.5616  1.7984  1.9083
 2388SOL    HW218627   1.997   1.658   4.478 -1.1227  2.2775  2.9633
 2389SOL     OW18628   0.571   1.662   4.608 -0.2504  0.1209 -0.1593
 2389SOL    HW118629   0.666   1.653   4.602 -0.0439  1.3515  1.1128
 2389SOL    HW218630   0.539   1.578   4.640  1.4403 -0.4707 -0.0238
 2390SOL     OW18631   2.516   0.096   6.089  0.3197  0.0924 -0.2400
 2390SOL    HW118632   2.600   0.095   6.044  1.2958  0.0818  1.5988
 2390SOL    HW218633   2.553   0.099   6.177 -1.3044 -2.3938  0.5149
 2391SOL     OW18634   3.330   4.420   3.498  0.0518 -0.0804  0.0584
 2391SOL    HW118635   3.265   4.385   3.437  0.0459 -0.7750  0.4640
 2391SOL    HW218636   3.382   4.341   3.515  0.8940  0.6328  0.7910
 2392SOL     OW18637   4.483   3.136   5.105 -0.1243 -0.1884  0.3297
 2392SOL    HW118638   4.577   3.135   5.087 -0.1365 -2.6512  0.3522
 2392SOL    HW218639   4.457   3.050   5.073 -0.2570 -0.2471  0.5988
 2393SOL     OW18640   2.268   4.227   7.564 -0.4175  0.3111  0.1571
 2393SOL    HW118641   2.328   4.264   7.499  0.5098 -2.4286 -0.5388
 2393SOL    HW218642   2.189   4.223   7.510 -1.4258 -1.2338  1.8012
 2394SOL     OW18643   2.997   4.514   8.205  0.1090 -0.1877  0.2180
 2394SOL    HW118644   3.025   4.559   8.126 -1.9504 -0.1249 -0.4776
 2394SOL    HW218645   3.071   4.529   8.264  2.1613 -0.1890 -2.4088
 2395SOL     OW18646   1.539   1.918  16.743 -0.0937 -0.4257  0.3556
 2395SOL    HW118647   1.492   1.934  16.661 -2.5417 -1.0126  1.6438
 2395SOL    HW218648   1.630   1.940  16.724 -0.2043 -1.5868 -1.5804
 2396SOL     OW18649   3.306   0.183  12.369 -0.2562 -0.0570 -0.0855
 2396SOL    HW118650   3.395   0.220  12.370  0.2109 -1.1928  0.5268
 2396SOL    HW218651   3.288   0.144  12.454 -1.6506 -0.6742 -0.6704
 2397SOL     OW18652   2.883   4.443  10.201  0.4741 -0.0866 -0.2696
 2397SOL    HW118653   2.886   4.537  10.187 -1.8655  0.0480  0.0982
 2397SOL    HW218654   2.884   4.440  10.297  0.7560 -2.9351 -0.3471
 2398SOL     OW18655   2.395   3.739  16.033  0.0862  0.0859  0.4466
 2398SOL    HW118656   2.447   3.819  16.045  0.1307  0.2273 -0.6287
 2398SOL    HW218657   2.451   3.668  16.064  0.4960  1.3312  2.5537
 2399SOL     OW18658   0.963   0.072  14.706 -0.2347 -0.7953  0.0558
 2399SOL    HW118659   1.037   0.013  14.692  0.5973  0.3040 -0.1728
 2399SOL    HW218660   0.991   0.137  14.770 -1.3821  0.1905 -0.4413
 2400SOL     OW18661   4.249   0.224  11.435  0.1638 -0.0803  0.0317
 2400SOL    HW118662   4.247   0.215  11.530 -1.8570 -0.6003 -0.0567
 2400SOL    HW218663   4.234   0.138  11.395 -0.7054 -0.9054  2.0940
 2401SOL     OW18664   4.064   4.057   5.200  0.7764 -0.2964 -0.3865
 2401SOL    HW118665   4.084   3.964   5.196 -0.9045 -0.8181  3.2786
 2401SOL    HW218666   4.117   4.085   5.125  0.2814 -0.2449 -0.7203
 2402SOL     OW18667   1.440   0.236  17.638 -0.0036  0.1328  0.1484
 2402SOL    HW118668   1.492   0.184  17.577  0.3062 -0.3893  0.8655
 2402SOL    HW218669   1.411   0.166   0.003  1.0085 -0.1067  0.3619
 2403SOL     OW18670   0.378   0.057   0.442 -0.1692  0.0278 -0.1709
 2403SOL    HW118671   0.309   4.714   0.449  1.3783 -1.7893 -2.2628
 2403SOL    HW218672   0.427   0.038   0.362  0.7848  0.3244  0.3346
 2404SOL     OW18673   1.088   3.776   5.182  0.1019  0.3887  0.0298
 2404SOL    HW118674   1.144   3.747   5.254 -1.3502 -0.2555  0.9131
 2404SOL    HW218675   1.009   3.812   5.223  1.4232  3.4485 -0.1544
 2405SOL     OW18676   0.866   2.446  17.133 -0.2258  0.1649 -0.1421
 2405SOL    HW118677   0.958   2.452  17.158  0.0961 -1.5566 -0.8887
 2405SOL    HW218678   0.833   2.531  17.161 -0.4721  0.4059 -1.1822
 2406SOL     OW18679   3.776   0.037   2.755 -0.4744  0.7372  0.5009
 2406SOL    HW118680   3.738   0.044   2.843  0.9570  0.7976  1.1063
 2406SOL    HW218681   3.772   4.667   2.730  1.5478  1.0723 -1.0655
 2407SOL     OW18682   2.287   3.256   4.604  0.3784 -0.1228 -0.7164
 2407SOL    HW118683   2.322   3.169   4.625 -0.2132 -0.3725 -0.7807
 2407SOL    HW218684   2.193   3.243   4.591 -0.0465  1.7854  0.4538
 2408SOL     OW18685   0.913   0.766   8.309 -0.0666  0.7596 -0.4376
 2408SOL    HW118686   0.988   0.706   8.310 -0.5981  0.0581 -2.3080
 2408SOL    HW218687   0.834   0.716   8.285 -0.9744  1.8719  0.2377
 2409SOL     OW18688   0.921   2.807   1.153 -0.2392  0.0877  0.6700
 2409SOL    HW118689   0.908   2.776   1.063 -0.0812 -1.1704  1.0788
 2409SOL    HW218690   1.000   2.761   1.184 -1.1238  0.5159  3.4940
 2410SOL     OW18691   2.210   3.836   4.206 -0.3635 -0.2998 -0.0731
 2410SOL    HW118692   2.164   3.919   4.219 -0.3682 -0.5237  1.2937
 2410SOL    HW218693   2.221   3.803   4.295  0.2255  0.4272  0.1235
 2411SOL     OW18694   1.582   0.388  17.334  0.0703 -0.2894  0.1160
 2411SOL    HW118695   1.638   0.442  17.389  0.6860 -0.0097 -0.7806
 2411SOL    HW218696   1.584   0.429  17.248  0.3430 -3.2046 -1.2762
 2412SOL     OW18697   1.699   1.369   6.131  0.2176 -0.5814  0.2199
 2412SOL    HW118698   1.735   1.285   6.159  0.0758 -0.4746  0.7321
 2412SOL    HW218699   1.695   1.364   6.036 -3.3435  0.5500  0.3039
 2413SOL     OW18700   3.097   3.832   8.062  0.5175  0.0616 -0.3876
 2413SOL    HW118701   3.134   3.824   8.150 -1.6684  1.6321  0.6799
 2413SOL    HW218702   3.145   3.907   8.028  0.2851  1.5753  2.6520
 2414SOL     OW18703   3.930   1.862   4.820  0.1366  0.0027  0.1523
 2414SOL    HW118704   3.977   1.881   4.739  1.1435 -0.6104  0.5970
 2414SOL    HW218705   3.844   1.850   4.779  1.2088 -0.5536 -1.9342
 2415SOL     OW18706   4.288   4.536   8.784  0.0393  0.3541 -0.0316
 2415SOL    HW118707   4.372   4.519   8.741 -0.5289  0.1126 -1.0360
 2415SOL    HW218708   4.255   4.605   8.726 -0.7555 -0.6239 -0.7303
 2416SOL     OW18709   3.573   1.375  15.060 -0.4494  0.4760 -0.3586
 2416SOL    HW118710   3.512   1.356  15.132  0.3481 -0.9521 -0.0529
 2416SOL    HW218711   3.653   1.378  15.111 -1.3941 -1.3850  1.2591
 2417SOL     OW18712   2.401   0.884   0.406 -0.2866  0.1223 -0.1919
 2417SOL    HW118713   2.493   0.901   0.387 -0.1478  0.1190  0.4624
 2417SOL    HW218714   2.409   0.816   0.474 -0.9243  0.7806  0.5433
 2418SOL     OW18715   0.271   1.804  13.743  0.0518  0.5243  0.0161
 2418SOL    HW118716   0.286   1.833  13.653 -1.7804 -0.6363 -0.6827
 2418SOL    HW218717   0.286   1.709  13.739  1.2774  0.7608 -1.0397
 2419SOL     OW18718   2.067   4.493   7.514 -0.2354 -0.7842  0.2910
 2419SOL    HW118719   2.069   4.470   7.421  0.1149 -0.9065  0.3271
 2419SOL    HW218720   2.162   4.498   7.524 -0.2663  1.0228 -0.2463
 2420SOL     OW18721   0.864   2.850   0.575  0.1137 -0.0987 -0.5930
 2420SOL    HW118722   0.865   2.855   0.671 -1.1190 -0.6789 -0.5568
 2420SOL    HW218723   0.938   2.907   0.554  0.3907 -0.0121  0.5766
 2421SOL     OW18724   4.094   1.417  16.248 -0.0575 -0.4166 -0.0426
 2421SOL    HW118725   4.155   1.446  16.180 -1.3725  2.6018  0.0618
 2421SOL    HW218726   4.049   1.500  16.265  2.4301  0.8363  0.3150
 2422SOL     OW18727   2.430   1.732  17.160  0.4874  0.6218 -0.3278
 2422SOL    HW118728   2.449   1.645  17.193  0.6825  0.5532 -0.6220
 2422SOL    HW218729   2.439   1.786  17.239  1.5831  1.0423 -0.7365
 2423SOL     OW18730   4.641   0.190   1.229 -0.0592 -0.2024  0.5537
 2423SOL    HW118731   4.700   0.116   1.242  0.1122 -0.4641 -1.7886
 2423SOL    HW218732   4.625   0.199   1.323 -0.6660  0.7763  0.3575
 2424SOL     OW18733   0.828   2.804   6.623 -0.2393 -0.2626 -0.5120
 2424SOL    HW118734   0.850   2.897   6.632 -0.1562 -0.5217  1.9603
 2424SOL    HW218735   0.900   2.779   6.564  1.6701  0.4379  1.5080
 2425SOL     OW18736   1.283   3.801   3.071 -0.2802 -0.4866  0.3267
 2425SOL    HW118737   1.297   3.862   2.998 -0.2709 -0.7271  0.1269
 2425SOL    HW218738   1.281   3.861   3.145  1.5379 -1.0089  0.7942
 2426SOL     OW18739   0.458   3.621   3.830 -0.8043  0.5976  0.2889
 2426SOL    HW118740   0.454   3.537   3.784  1.1071 -0.3519  1.8607
 2426SOL    HW218741   0.538   3.658   3.792 -0.6541  0.2996  0.3129
 2427SOL     OW18742   3.779   3.335   3.512 -0.3667 -0.3298  0.2917
 2427SOL    HW118743   3.731   3.310   3.592 -0.5077  1.8102  0.8616
 2427SOL    HW218744   3.863   3.342   3.558 -1.3334 -0.2298  2.0190
 2428SOL     OW18745   2.988   0.393   5.727 -0.6899  0.6920  0.4482
 2428SOL    HW118746   2.966   0.395   5.820 -1.2119 -3.3895  0.4481
 2428SOL    HW218747   2.911   0.422   5.678  0.7981  1.2555 -1.5633
 2429SOL     OW18748   3.911   2.340   5.893  0.7640 -0.2263  0.1154
 2429SOL    HW118749   3.894   2.432   5.873 -1.8811 -0.9756 -1.1968
 2429SOL    HW218750   3.917   2.294   5.809  0.6759  2.0779 -1.1600
 2430SOL     OW18751   0.397   1.908   9.022 -0.3100  0.4759  0.4970
 2430SOL    HW118752   0.449   1.837   8.984  1.2929  2.3842 -0.8681
 2430SOL    HW218753   0.326   1.856   9.059 -0.1068  1.0647  1.7039
 2431SOL     OW18754   3.528   0.890   5.356 -0.1737  0.3099 -0.2872
 2431SOL    HW118755   3.529   0.982   5.328 -0.8761  0.5457  0.4553
 2431SOL    HW218756   3.620   0.866   5.352 -0.5205 -0.9872 -0.4730
 2432SOL     OW18757   3.886   2.578   2.564  0.1539 -0.2400 -0.3706
 2432SOL    HW118758   3.800   2.621   2.565  0.3027  0.0660 -0.5147
 2432SOL    HW218759   3.868   2.486   2.545 -0.9699 -0.4858  1.9557
 2433SOL     OW18760   1.921   3.113   3.942 -0.5198 -0.2276 -0.3239
 2433SOL    HW118761   1.923   3.163   3.860  1.0224 -0.4683 -0.4274
 2433SOL    HW218762   1.828   3.093   3.957 -0.6752  0.7842  0.0498
 2434SOL     OW18763   2.713   1.788  16.315  0.2510  0.3295 -0.5068
 2434SOL    HW118764   2.688   1.878  16.335  1.1421  0.5649 -0.4478
 2434SOL    HW218765   2.653   1.736  16.368  1.3351 -0.9587 -0.5281
 2435SOL     OW18766   4.384   3.670   6.537 -0.3987  0.1821 -0.2804
 2435SOL    HW118767   4.463   3.643   6.489 -1.5381 -0.5806 -1.7109
 2435SOL    HW218768   4.390   3.618   6.617  3.2199 -0.9860 -1.2839
 2436SOL     OW18769   2.468   0.206  12.852 -0.0258 -0.3374 -0.6869
 2436SOL    HW118770   2.421   0.286  12.826  1.6286  1.3613  1.5857
 2436SOL    HW218771   2.455   0.153  12.774 -1.3327 -0.3577 -0.4533
 2437SOL     OW18772   1.631   1.401  14.427  0.3696  0.3095 -0.1831
 2437SOL    HW118773   1.598   1.466  14.489  0.4077  1.0070 -0.8995
 2437SOL    HW218774   1.684   1.349  14.487 -0.4884  0.1848  0.4590
 2438SOL     OW18775   2.717   2.402   7.299  0.2285  0.2126 -0.3144
 2438SOL    HW118776   2.670   2.481   7.271  0.1316  0.5998  0.9698
 2438SOL    HW218777   2.797   2.423   7.249  0.6543  0.7551  0.6012
 2439SOL     OW18778   4.001   3.366   0.408  0.3823  0.4000 -0.5080
 2439SOL    HW118779   4.063   3.420   0.358 -0.5610 -0.7410 -2.8683
 2439SOL    HW218780   3.946   3.429   0.455  1.3233  1.2167 -0.4854
 2440SOL     OW18781   0.458   3.650  16.020  1.0891  0.2255  0.3148
 2440SOL    HW118782   0.532   3.620  16.073 -0.1855  1.7907  2.9988
 2440SOL    HW218783   0.414   3.708  16.083  1.2859 -0.0525  0.7143
 2441SOL     OW18784   0.986   4.365  14.552  0.7726  0.0383  0.1745
 2441SOL    HW118785   0.906   4.363  14.499 -0.5638 -1.7549  2.2664
 2441SOL    HW218786   0.957   4.320  14.631  1.5504 -2.5763 -1.0209
 2442SOL     OW18787   4.185   4.245   7.799  0.0562 -0.5966 -0.5014
 2442SOL    HW118788   4.144   4.325   7.766 -1.2555 -0.0850  2.3684
 2442SOL    HW218789   4.277   4.265   7.786  0.0786 -0.0709  0.4373
 2443SOL     OW18790   3.145   3.492  17.441 -0.5390 -0.5717 -0.3710
 2443SOL    HW118791   3.055   3.521  17.450 -0.8306 -0.7987 -2.6563
 2443SOL    HW218792   3.167   3.459  17.529 -1.1153 -0.0041 -0.0096
 2444SOL     OW18793   1.076   1.601  10.187  0.0216  0.2518 -0.4083
 2444SOL    HW118794   0.983   1.596  10.209  0.4261 -0.3566  1.1560
 2444SOL    HW218795   1.080   1.560  10.101  1.3650  0.1171 -0.2763
 2445SOL     OW18796   3.842   1.541   6.270  0.1044  0.2055  0.2880
 2445SOL    HW118797   3.846   1.448   6.292 -1.8843  0.1272  0.3596
 2445SOL    HW218798   3.857   1.530   6.176  0.8930 -0.3260  0.4727
 2446SOL     OW18799   2.253   3.597   3.161  0.4284  0.3953 -0.2092
 2446SOL    HW118800   2.274   3.548   3.081 -0.5197 -2.1256  1.1092
 2446SOL    HW218801   2.160   3.605   3.141  0.3022 -0.8747 -0.1351
 2447SOL     OW18802   2.262   3.262   0.597  0.2128 -0.2848 -0.0423
 2447SOL    HW118803   2.343   3.309   0.619 -0.6555  0.1666  2.1989
 2447SOL    HW218804   2.228   3.312   0.523  0.2972 -0.0299  0.0897
 2448SOL     OW18805   4.054   3.360  11.158  0.1365 -0.3787 -0.6170
 2448SOL    HW118806   4.003   3.422  11.106 -2.1782 -1.6613  0.1615
 2448SOL    HW218807   4.130   3.345  11.102  0.1507 -1.8365 -0.2232
 2449SOL     OW18808   2.275   4.506   4.484  0.5150 -0.1294 -0.0691
 2449SOL    HW118809   2.321   4.492   4.566  1.0671  0.7614 -0.2353
 2449SOL    HW218810   2.186   4.491   4.518 -0.0313 -1.6714 -2.1775
 2450SOL     OW18811   1.337   3.125   8.151 -0.0503  0.0842  0.1160
 2450SOL    HW118812   1.285   3.095   8.077  2.4576  1.7322 -2.3257
 2450SOL    HW218813   1.322   3.054   8.213  0.6457  0.7447  1.0484
 2451SOL     OW18814   3.471   2.593  16.109 -0.1462 -0.1713 -0.3714
 2451SOL    HW118815   3.542   2.640  16.154 -0.9485 -1.1762  1.9493
 2451SOL    HW218816   3.453   2.542  16.188  2.9269 -1.4726 -0.4806
 2452SOL     OW18817   3.254   3.200   2.241  0.5857 -0.1615 -0.4714
 2452SOL    HW118818   3.259   3.106   2.221 -2.4009 -0.2463 -0.7578
 2452SOL    HW218819   3.194   3.195   2.315  1.1544 -1.3466 -0.0789
 2453SOL     OW18820   1.119   3.803  15.893  0.1047  0.6211  0.3196
 2453SOL    HW118821   1.031   3.824  15.862 -0.0338 -1.3949 -0.6851
 2453SOL    HW218822   1.156   3.745  15.826  0.9191  1.5336 -0.0109
 2454SOL     OW18823   1.611   1.041  14.411  0.2624 -0.1536 -0.6930
 2454SOL    HW118824   1.531   1.007  14.450  0.8115  4.1866  4.1935
 2454SOL    HW218825   1.670   1.005  14.477  2.6221  1.1462 -2.0536
 2455SOL     OW18826   4.373   3.842   2.519  0.1784  0.1336  0.3821
 2455SOL    HW118827   4.411   3.825   2.433  2.5201  0.6698  1.3093
 2455SOL    HW218828   4.455   3.840   2.570  0.1817 -0.5950  0.3482
 2456SOL     OW18829   4.219   3.814   7.537  0.0076 -0.2134 -1.0182
 2456SOL    HW118830   4.195   3.730   7.577  1.5247  0.1575  0.6647
 2456SOL    HW218831   4.144   3.826   7.478 -1.4877 -0.1327  0.9105
 2457SOL     OW18832   2.035   3.622   8.576 -0.3641  0.0477  0.3552
 2457SOL    HW118833   1.950   3.598   8.613 -0.4256 -1.6274 -0.9122
 2457SOL    HW218834   2.004   3.663   8.494  0.0067 -1.5176 -0.5515
 2458SOL     OW18835   2.598   2.858   1.292  0.1684 -0.6291  0.1250
 2458SOL    HW118836   2.630   2.769   1.307 -0.2466 -0.6461  0.8800
 2458SOL    HW218837   2.577   2.855   1.198  0.1226 -1.7248  0.1639
 2459SOL     OW18838   2.508   0.360   1.346  0.5355 -0.2972  0.4159
 2459SOL    HW118839   2.485   0.429   1.283 -2.5780  0.3501  2.2566
 2459SOL    HW218840   2.531   0.284   1.293  0.9584  0.4988 -0.5511
 2460SOL     OW18841   4.476   0.166   4.486 -0.2794  0.1662 -1.0327
 2460SOL    HW118842   4.488   0.259   4.468 -1.4540  0.6316  0.6237
 2460SOL    HW218843   4.564   0.143   4.517 -1.2872  0.9726  2.4600
 2461SOL     OW18844   1.227   3.633  16.800  0.1465 -0.8784  0.3140
 2461SOL    HW118845   1.191   3.569  16.862 -1.8171 -0.0720  0.0210
 2461SOL    HW218846   1.283   3.572  16.753  2.6009 -1.5647  4.2037
 2462SOL     OW18847   1.064   1.967  14.216  0.0686  0.3218 -0.2418
 2462SOL    HW118848   1.105   1.891  14.175  0.8896 -0.5192  2.1045
 2462SOL    HW218849   1.063   1.948  14.310  0.0525  2.7016  0.2268
 2463SOL     OW18850   4.452   1.132   5.550  0.1534 -0.1899 -0.2514
 2463SOL    HW118851   4.403   1.071   5.605  1.7716 -1.2583  0.0231
 2463SOL    HW218852   4.545   1.108   5.556 -0.0280 -0.8473 -0.0571
 2464SOL     OW18853   4.026   1.873  13.896  0.0914 -0.0030 -0.1343
 2464SOL    HW118854   4.037   1.869  13.801  0.8292 -0.7522 -0.0245
 2464SOL    HW218855   4.000   1.964  13.909 -1.9906 -0.2610 -2.6290
 2465SOL     OW18856   3.346   2.199   4.864  0.0210  0.3422 -1.4063
 2465SOL    HW118857   3.286   2.250   4.918  1.1852  1.2923 -1.0156
 2465SOL    HW218858   3.311   2.191   4.775 -1.3567  0.6333 -0.8924
 2466SOL     OW18859   1.265   3.156   3.829 -0.5810 -0.0581 -0.3041
 2466SOL    HW118860   1.234   3.246   3.815 -0.6979  0.3007  2.3236
 2466SOL    HW218861   1.282   3.160   3.923 -0.5985 -0.1707 -0.2969
 2467SOL     OW18862   3.037   4.278  14.309  0.0767 -0.3388 -0.0178
 2467SOL    HW118863   2.975   4.344  14.277 -0.4921 -0.3324  1.0960
 2467SOL    HW218864   3.070   4.242  14.227 -1.1213 -3.3630  0.8350
 2468SOL     OW18865   0.609   3.741   2.004  0.1415 -0.0738  0.2232
 2468SOL    HW118866   0.521   3.721   1.972  0.0507 -0.3047  0.6162
 2468SOL    HW218867   0.654   3.698   1.931  0.5423  0.6087  0.0686
 2469SOL     OW18868   3.620   0.717   5.799 -0.2445 -0.3585 -0.0054
 2469SOL    HW118869   3.551   0.708   5.735 -0.1975 -2.5054  0.2228
 2469SOL    HW218870   3.686   0.773   5.758 -1.2146  0.8944  0.1560
 2470SOL     OW18871   1.145   4.429   9.384  0.1421 -0.4601  0.0117
 2470SOL    HW118872   1.209   4.462   9.447 -0.1116  1.0923 -0.5534
 2470SOL    HW218873   1.072   4.486   9.404  0.7645 -0.1159  1.2820
 2471SOL     OW18874   0.635   2.160   0.645 -0.0709  0.4604  0.2059
 2471SOL    HW118875   0.616   2.078   0.691  1.2916 -0.5710 -1.0730
 2471SOL    HW218876   0.691   2.127   0.575 -0.7929  1.0527 -0.6414
 2472SOL     OW18877   4.124   2.838   6.510 -0.2009  0.9059 -0.1436
 2472SOL    HW118878   4.137   2.750   6.546  0.9703  1.3666  0.5685
 2472SOL    HW218879   4.140   2.822   6.417  1.9371 -0.5929  0.4633
 2473SOL     OW18880   2.972   0.645   3.308  0.1909  0.3769 -0.4148
 2473SOL    HW118881   2.934   0.594   3.380  2.3247 -1.2077 -0.4281
 2473SOL    HW218882   2.931   0.731   3.306  2.3862  1.4947  2.4988
 2474SOL     OW18883   0.497   3.601   7.500  0.0431  1.1207  0.1885
 2474SOL    HW118884   0.434   3.633   7.563 -1.7484 -0.2183 -0.9371
 2474SOL    HW218885   0.580   3.583   7.544 -1.4698 -0.8769  2.1584
 2475SOL     OW18886   0.340   1.757  15.680 -0.2472 -0.2914 -0.1658
 2475SOL    HW118887   0.364   1.791  15.766 -2.3068 -0.7485  0.5827
 2475SOL    HW218888   0.380   1.670  15.673 -1.1420 -0.6495 -0.8505
 2476SOL     OW18889   0.420   1.304   7.780  0.1906 -0.2043  0.0055
 2476SOL    HW118890   0.353   1.236   7.793  0.1748 -0.5619 -1.9194
 2476SOL    HW218891   0.447   1.265   7.697  0.3628 -0.9207  0.3988
 2477SOL     OW18892   0.346   1.480   6.981  0.1976  0.1400 -0.3529
 2477SOL    HW118893   0.287   1.433   6.923  0.5857 -0.2056 -0.4677
 2477SOL    HW218894   0.421   1.422   6.965  0.6009  0.0538  1.8186
 2478SOL     OW18895   0.142   1.468   3.262 -0.5922  0.1115 -0.2271
 2478SOL    HW118896   0.153   1.478   3.168  1.1189 -2.1606 -0.2838
 2478SOL    HW218897   0.231   1.450   3.291 -0.5778 -1.8637 -1.4763
 2479SOL     OW18898   1.162   3.275  14.356 -0.3382  0.1444 -0.0513
 2479SOL    HW118899   1.205   3.193  14.379 -0.6392  0.3498  1.2203
 2479SOL    HW218900   1.120   3.298  14.439  0.4086 -0.1573  0.4120
 2480SOL     OW18901   4.309   2.676   2.848  0.8422 -0.3623 -0.3850
 2480SOL    HW118902   4.273   2.741   2.909 -0.8590 -1.5414 -0.1318
 2480SOL    HW218903   4.242   2.680   2.780 -1.8314 -0.9441  2.2097
 2481SOL     OW18904   3.958   2.323   9.285 -0.8697  0.0691 -0.8876
 2481SOL    HW118905   4.052   2.304   9.282 -0.2981  2.8494 -0.2050
 2481SOL    HW218906   3.931   2.318   9.194 -0.8608 -0.6368 -0.8518
 2482SOL     OW18907   2.080   3.876   9.328 -0.1272  0.4732 -0.0428
 2482SOL    HW118908   2.080   3.971   9.321  0.6783  0.4493 -0.3487
 2482SOL    HW218909   2.098   3.875   9.422  1.0556 -1.7292 -0.2800
 2483SOL     OW18910   3.907   0.413   5.842 -0.4265 -0.0380  0.6158
 2483SOL    HW118911   3.870   0.472   5.776  0.7377 -0.9739 -0.8809
 2483SOL    HW218912   3.962   0.355   5.788 -0.1454 -0.3381  1.2281
 2484SOL     OW18913   4.279   2.582   3.870 -0.0315 -0.1904 -0.4322
 2484SOL    HW118914   4.229   2.506   3.840 -0.9841  0.1163  0.3846
 2484SOL    HW218915   4.202   2.624   3.910 -1.2570 -3.2267  0.3552
 2485SOL     OW18916   1.664   4.291  11.697  0.1684  0.1217  0.5456
 2485SOL    HW118917   1.582   4.337  11.713 -0.0022 -0.1739  0.5135
 2485SOL    HW218918   1.645   4.203  11.731 -0.1431 -0.9416 -2.4132
 2486SOL     OW18919   1.586   0.606   4.113  0.5642 -0.7303  0.3684
 2486SOL    HW118920   1.613   0.648   4.195  0.7425 -1.1444  0.5202
 2486SOL    HW218921   1.651   0.536   4.108 -0.6977 -1.9979  2.0817
 2487SOL     OW18922   2.555   4.385  13.548  0.2225 -0.0009 -0.4819
 2487SOL    HW118923   2.587   4.375  13.637  0.4260 -0.9665 -0.6579
 2487SOL    HW218924   2.622   4.332  13.504  1.0937  1.6259 -1.1107
 2488SOL     OW18925   3.365   4.000  10.408 -0.1848 -0.2206  1.0236
 2488SOL    HW118926   3.276   3.985  10.439 -1.2863  0.7269 -1.6293
 2488SOL    HW218927   3.407   3.935  10.463  1.2919  0.7505  1.0667
 2489SOL     OW18928   0.558   0.680  12.222  0.2447 -0.4994 -0.3987
 2489SOL    HW118929   0.629   0.715  12.277  0.5312 -2.6738  0.5853
 2489SOL    HW218930   0.483   0.712  12.272  0.8813  0.4479 -0.0377
 2490SOL     OW18931   2.259   0.541  13.081  0.2320  0.3158  0.3903
 2490SOL    HW118932   2.301   0.600  13.018  2.2946  0.1004  1.5507
 2490SOL    HW218933   2.315   0.464  13.083  1.0722  0.9738  2.4543
 2491SOL     OW18934   1.279   0.067   4.431  0.0615  0.3058  0.2128
 2491SOL    HW118935   1.259   0.148   4.384 -1.4805 -1.3018 -1.8907
 2491SOL    HW218936   1.374   0.073   4.442  0.1736  0.5194 -0.8913
 2492SOL     OW18937   3.763   4.263  12.197 -0.5597  0.7914  0.0845
 2492SOL    HW118938   3.809   4.309  12.126  0.0703  1.1786  0.7470
 2492SOL    HW218939   3.721   4.339  12.237  1.0465  0.8352  1.6586
 2493SOL     OW18940   0.283   3.270   3.196  0.2437  0.3234 -0.6206
 2493SOL    HW118941   0.203   3.245   3.150 -0.3442  1.3669 -0.1585
 2493SOL    HW218942   0.248   3.323   3.268 -2.2948 -1.2222 -0.7138
 2494SOL     OW18943   1.762   2.617  16.296 -0.6198 -0.3422 -0.5362
 2494SOL    HW118944   1.848   2.579  16.282 -0.8381 -0.5932 -1.2175
 2494SOL    HW218945   1.717   2.540  16.331  0.8529 -1.6365 -1.4606
 2495SOL     OW18946   4.673   0.166  15.355  0.4105  0.2185 -0.3690
 2495SOL    HW118947   4.676   0.083  15.403  2.6590  0.8261  0.5415
 2495SOL    HW218948   0.037   0.161  15.316  0.2654  2.8422 -1.0014
 2496SOL     OW18949   3.468   4.260   1.681 -0.1829  0.3592 -0.5831
 2496SOL    HW118950   3.393   4.273   1.739 -3.0320 -0.2152 -4.2083
 2496SOL    HW218951   3.516   4.342   1.689 -1.9947  1.4879 -1.3253
 2497SOL     OW18952   2.110   0.455  12.647 -0.3173  0.4720 -0.1976
 2497SOL    HW118953   2.101   0.545  12.677 -1.6209 -0.5049  2.4002
 2497SOL    HW218954   2.041   0.457  12.582 -1.0063 -0.7880  0.4935
 2498SOL     OW18955   1.648   2.936   2.818  0.4009 -0.4991  0.1485
 2498SOL    HW118956   1.709   2.930   2.891  0.8896  3.7959  0.0718
 2498SOL    HW218957   1.690   2.991   2.752 -1.3527  0.8005  0.1058
 2499SOL     OW18958   1.540   1.412   7.441 -0.1717  0.0059 -0.4030
 2499SOL    HW118959   1.623   1.388   7.400  0.6949  2.2611  0.0809
 2499SOL    HW218960   1.529   1.333   7.494 -1.7773  0.3783 -0.1709
 2500SOL     OW18961   2.457   1.982  13.984  0.1977 -0.4480  0.7527
 2500SOL    HW118962   2.433   1.916  13.919  1.0137  0.8016 -0.8093
 2500SOL    HW218963   2.474   2.062  13.935  1.5632 -1.0755  0.1904
 2501SOL     OW18964   4.709   2.700  15.164  0.6422 -0.4111  0.1571
 2501SOL    HW118965   4.616   2.689  15.148  0.8792  2.3323 -3.1522
 2501SOL    HW218966   4.711   2.703  15.259 -1.3824 -0.9133  0.1976
 2502SOL     OW18967   2.594   2.483  12.878  0.5642  0.1122  0.3862
 2502SOL    HW118968   2.601   2.553  12.944 -0.0213 -0.8676  1.4895
 2502SOL    HW218969   2.501   2.469  12.892  0.7989 -0.2130  1.7279
 2503SOL     OW18970   1.864   3.950   1.853  0.0868 -0.6704  0.6603
 2503SOL    HW118971   1.824   4.028   1.814  0.1530 -0.2233  1.4887
 2503SOL    HW218972   1.935   3.982   1.908 -1.4472  0.3879  2.0396
 2504SOL     OW18973   0.793   0.347   4.466 -0.3217 -0.4544 -0.1345
 2504SOL    HW118974   0.880   0.385   4.454 -1.0652  1.0601 -0.7229
 2504SOL    HW218975   0.747   0.428   4.488  0.1653 -0.3832  0.6193
 2505SOL     OW18976   2.415   3.396   5.921 -0.2088  0.4719 -0.5295
 2505SOL    HW118977   2.470   3.467   5.889  0.6123  0.4715  0.9245
 2505SOL    HW218978   2.345   3.435   5.973  0.3003  1.9581 -0.9780
 2506SOL     OW18979   4.339   0.747  17.567 -0.3994 -0.6731  0.5131
 2506SOL    HW118980   4.350   0.816  17.633  2.4973 -1.6282  1.0249
 2506SOL    HW218981   4.254   0.775  17.535 -0.7374 -2.3716 -0.0978
 2507SOL     OW18982   3.575   0.554   8.974  0.2111 -0.7151 -0.2301
 2507SOL    HW118983   3.599   0.509   9.055 -1.6445  1.0183  1.2744
 2507SOL    HW218984   3.607   0.640   8.999  0.5815 -0.5917 -1.1113
 2508SOL     OW18985   4.592   2.022  11.551  0.5938  0.1483 -0.0779
 2508SOL    HW118986   4.571   1.947  11.607 -0.3594  0.2091 -0.3546
 2508SOL    HW218987   4.519   2.027  11.490 -0.5490  0.3736  1.3231
 2509SOL     OW18988   0.018   2.706  10.524 -0.0504  0.1488  0.2854
 2509SOL    HW118989   0.045   2.615  10.535  0.0172 -0.0786 -1.7495
 2509SOL    HW218990   0.071   2.738  10.452 -0.4732 -2.3083 -1.0977
 2510SOL     OW18991   4.630   3.558   2.620  0.6769  0.1518 -0.0282
 2510SOL    HW118992   4.548   3.537   2.665  0.8341 -0.3019  0.0464
 2510SOL    HW218993   4.644   3.653   2.620 -1.8837  0.5346  0.2187
 2511SOL     OW18994   0.952   4.020   5.394  0.6063 -0.1540  0.0543
 2511SOL    HW118995   1.023   3.977   5.443 -0.5231 -0.2799  1.5801
 2511SOL    HW218996   0.920   4.075   5.465  0.2274 -0.3167  0.0057
 2512SOL     OW18997   3.166   2.229   1.967  0.5737 -0.0011  0.0340
 2512SOL    HW118998   3.175   2.134   1.980 -0.7805 -0.3565 -1.6445
 2512SOL    HW218999   3.084   2.242   1.921  0.2255 -0.2557  0.5767
 2513SOL     OW19000   1.709   0.120   7.683 -0.8080  0.1489  0.2323
 2513SOL    HW119001   1.745   0.046   7.633 -1.1145  0.8840 -1.0725
 2513SOL    HW219002   1.618   0.098   7.699 -1.1291  0.4156 -1.1881
 2514SOL     OW19003   0.752   1.968   1.812  0.1024 -0.0795 -0.1235
 2514SOL    HW119004   0.715   1.978   1.724 -0.6050  0.5868  0.2561
 2514SOL    HW219005   0.712   1.883   1.830  3.3026 -1.8654 -1.5087
 2515SOL     OW19006   1.316   4.043   2.930 -0.0385  0.4370 -0.4161
 2515SOL    HW119007   1.253   4.105   2.893  0.2533  1.6528  1.0981
 2515SOL    HW219008   1.380   4.029   2.860 -1.6112 -0.2829 -1.7004
 2516SOL     OW19009   4.577   2.062   6.651 -0.5853  0.7696  0.0988
 2516SOL    HW119010   4.632   2.067   6.573  1.4937  0.8664  1.5574
 2516SOL    HW219011   4.639   2.041   6.722  0.4799  0.5505 -0.8876
 2517SOL     OW19012   1.045   1.848   8.519  0.2633 -0.1072  0.2359
 2517SOL    HW119013   1.038   1.816   8.609  2.5867 -1.8496 -0.2033
 2517SOL    HW219014   1.127   1.898   8.522 -0.4008  1.0436 -0.9280
 2518SOL     OW19015   2.755   0.092  16.816  0.8029 -0.0358 -0.4579
 2518SOL    HW119016   2.719   0.139  16.740  2.0212 -0.3275 -1.2179
 2518SOL    HW219017   2.844   0.127  16.823  0.7300  0.6607 -3.0336
 2519SOL     OW19018   4.026   0.958  13.794  0.1068 -0.3110 -0.1884
 2519SOL    HW119019   4.118   0.984  13.804 -0.4532  1.5933 -0.0814
 2519SOL    HW219020   3.987   1.040  13.824 -0.5270 -0.5478 -0.3782
 2520SOL     OW19021   3.509   2.383  13.526  0.5768  0.3995  0.3059
 2520SOL    HW119022   3.444   2.427  13.580 -0.6174  0.2365 -1.0060
 2520SOL    HW219023   3.474   2.295  13.513 -0.4488  0.7921  0.4249
 2521SOL     OW19024   0.993   3.970   8.520  0.1468  0.1650  0.5255
 2521SOL    HW119025   1.075   3.928   8.497  1.6397  2.9665  0.7866
 2521SOL    HW219026   1.022   4.023   8.594 -1.4708  1.3192  0.3367
 2522SOL     OW19027   0.217   0.774   5.154  0.1194 -0.4516 -0.1869
 2522SOL    HW119028   0.157   0.766   5.080  2.2922  1.5050 -2.1673
 2522SOL    HW219029   0.156   0.789   5.226 -0.1905 -0.4664 -0.4478
 2523SOL     OW19030   1.290   0.337   6.571 -0.2399  0.1725  0.1553
 2523SOL    HW119031   1.241   0.417   6.551 -1.3470 -1.3434 -3.1447
 2523SOL    HW219032   1.215   0.293   6.611 -2.0847  3.7400  0.6622
 2524SOL     OW19033   1.835   4.648   7.559 -0.3573 -0.5360 -0.3557
 2524SOL    HW119034   1.900   4.589   7.599  2.1189  1.2824 -1.7083
 2524SOL    HW219035   1.882   4.686   7.485  0.2612  0.7323  0.6778
 2525SOL     OW19036   0.680   1.146  16.156  0.5049 -0.0980 -0.2133
 2525SOL    HW119037   0.763   1.122  16.115  1.0721  1.3936  0.0674
 2525SOL    HW219038   0.625   1.069  16.143 -3.7947  2.6714  1.1958
 2526SOL     OW19039   3.667   1.032   6.388  0.0500 -0.0092 -0.3727
 2526SOL    HW119040   3.582   1.077   6.393 -1.6994 -3.3895  0.0922
 2526SOL    HW219041   3.680   1.031   6.483 -0.5306  0.5754 -0.2821
 2527SOL     OW19042   3.696   0.794  16.866  0.3283  0.1247 -0.3378
 2527SOL    HW119043   3.610   0.829  16.890  0.8845  1.8566 -0.8777
 2527SOL    HW219044   3.683   0.702  16.843 -3.7418  0.2098  1.6029
 2528SOL     OW19045   0.780   1.990   3.331  0.6810 -0.0884  0.0601
 2528SOL    HW119046   0.785   2.022   3.421 -3.4031 -0.5764  0.4326
 2528SOL    HW219047   0.865   2.022   3.300  0.2656 -1.5335 -2.5727
 2529SOL     OW19048   2.725   4.384   2.444  0.1653 -0.0570 -0.1458
 2529SOL    HW119049   2.660   4.448   2.417  0.9535  0.8806  0.1508
 2529SOL    HW219050   2.808   4.432   2.441 -0.0025  0.3229  1.0665
 2530SOL     OW19051   4.310   1.672  15.727  0.1445 -0.9405 -0.1333
 2530SOL    HW119052   4.360   1.727  15.788 -4.0957  1.4078  1.2984
 2530SOL    HW219053   4.339   1.704  15.642  1.3789 -1.0268  0.2573
 2531SOL     OW19054   1.691   3.764   5.480 -0.2198  0.4053  0.5517
 2531SOL    HW119055   1.756   3.805   5.538  0.8935  0.5074 -0.7645
 2531SOL    HW219056   1.748   3.769   5.403 -0.6060 -1.7896  0.1199
 2532SOL     OW19057   3.004   2.457   3.786  0.1886 -0.2406  0.2225
 2532SOL    HW119058   3.024   2.388   3.723  2.0209  0.7538 -0.2715
 2532SOL    HW219059   2.969   2.528   3.731 -0.3665 -1.3055 -0.7880
 2533SOL     OW19060   2.421   0.377   4.169  0.1189  0.5052 -0.3064
 2533SOL    HW119061   2.503   0.368   4.217  1.7847  2.2398 -2.8357
 2533SOL    HW219062   2.455   0.375   4.080 -0.6018 -0.3904 -0.5539
 2534SOL     OW19063   2.418   2.823   4.884  0.8211  0.3595 -0.2636
 2534SOL    HW119064   2.332   2.864   4.895 -0.2038 -1.7336 -0.4672
 2534SOL    HW219065   2.410   2.741   4.933  0.2476  1.2101  1.0718
 2535SOL     OW19066   1.307   1.238   4.327  0.9538  0.1358 -0.2654
 2535SOL    HW119067   1.253   1.227   4.248  1.0809  1.4637 -0.5342
 2535SOL    HW219068   1.396   1.240   4.291  0.4569  0.9688 -1.4702
 2536SOL     OW19069   1.656   3.787   4.589  0.0839  0.2346  0.9758
 2536SOL    HW119070   1.738   3.800   4.541 -0.7687  1.1326 -0.2572
 2536SOL    HW219071   1.604   3.740   4.524  1.0783 -0.7723  0.9125
 2537SOL     OW19072   3.296   4.039   3.529 -0.2525 -0.6058  0.6970
 2537SOL    HW119073   3.365   4.092   3.489 -0.2441 -2.4393 -1.7241
 2537SOL    HW219074   3.329   4.042   3.619  0.1248  1.5770  0.4940
 2538SOL     OW19075   1.842   0.579   1.153  0.5276  0.2500 -0.3081
 2538SOL    HW119076   1.890   0.534   1.222 -1.2740 -2.2233 -0.6674
 2538SOL    HW219077   1.762   0.602   1.199 -0.4001 -1.5238 -1.0503
 2539SOL     OW19078   3.033   0.332   1.452  0.0454  0.7800  0.4601
 2539SOL    HW119079   3.045   0.395   1.381  1.8495 -1.7400 -1.4895
 2539SOL    HW219080   3.122   0.300   1.465 -0.1413 -0.5816 -1.5891
 2540SOL     OW19081   2.938   0.844   2.149 -0.2259 -0.5288 -0.5604
 2540SOL    HW119082   2.861   0.787   2.138 -0.9071  0.1228  0.8367
 2540SOL    HW219083   2.909   0.904   2.218  0.1726  0.0014 -0.8647
 2541SOL     OW19084   2.817   4.299   8.621 -0.1713 -0.3268  0.2277
 2541SOL    HW119085   2.771   4.317   8.539 -0.3481 -1.6013  0.0483
 2541SOL    HW219086   2.737   4.283   8.672 -0.6363  1.4966  0.0752
 2542SOL     OW19087   2.263   3.562  12.893  0.3338  0.1486 -0.4162
 2542SOL    HW119088   2.336   3.501  12.893  0.5392  0.3929  0.7232
 2542SOL    HW219089   2.288   3.625  12.826 -1.2795  0.6275 -0.5689
 2543SOL     OW19090   1.254   1.620   7.113 -0.3313 -0.9410 -0.1739
 2543SOL    HW119091   1.331   1.635   7.058 -1.0083 -2.2290 -1.4852
 2543SOL    HW219092   1.209   1.554   7.060 -0.5568  0.5017 -1.7837
 2544SOL     OW19093   0.950   0.294   5.774 -0.5437 -0.0605  0.5695
 2544SOL    HW119094   0.880   0.312   5.837 -0.9385  1.3613 -0.2908
 2544SOL    HW219095   0.990   0.213   5.806 -1.7907 -0.2859  1.5389
 2545SOL     OW19096   2.947   4.136   2.369  0.7549 -0.0129 -0.0363
 2545SOL    HW119097   3.042   4.140   2.381  0.8327  1.7546 -1.1604
 2545SOL    HW219098   2.941   4.193   2.293  2.2271 -0.3928 -0.4331
 2546SOL     OW19099   0.906   4.293   8.539 -0.2005  0.4955 -0.2523
 2546SOL    HW119100   0.818   4.279   8.573  0.5815 -1.1147  1.1311
 2546SOL    HW219101   0.900   4.279   8.444 -2.9234  1.6202 -0.2290
 2547SOL     OW19102   3.711   1.218  15.273 -0.4822 -0.0510 -0.0122
 2547SOL    HW119103   3.775   1.241  15.206  0.7851  1.5743  1.7835
 2547SOL    HW219104   3.673   1.136  15.240 -0.3028  0.2818 -1.0271
 2548SOL     OW19105   1.143   1.368  14.102 -0.2841  0.0680 -0.8473
 2548SOL    HW119106   1.049   1.369  14.119 -0.0816  0.6214  0.2184
 2548SOL    HW219107   1.178   1.402  14.184 -1.5502 -0.5998 -0.0320
 2549SOL     OW19108   2.464   0.927   7.795  0.5612 -0.6932  0.1939
 2549SOL    HW119109   2.530   0.997   7.788  1.3117 -1.2228  2.0704
 2549SOL    HW219110   2.399   0.963   7.855 -0.6164 -1.0731 -0.8527
 2550SOL     OW19111   4.263   3.295   0.893 -0.1805 -0.4190 -0.0158
 2550SOL    HW119112   4.285   3.362   0.958  0.4414  0.1379 -0.8002
 2550SOL    HW219113   4.203   3.348   0.842  0.9097 -0.0965 -0.9659
 2551SOL     OW19114   4.583   4.508   8.104  0.1818 -0.1081  0.0074
 2551SOL    HW119115   4.655   4.513   8.166 -0.0646 -0.4430  0.3174
 2551SOL    HW219116   4.533   4.436   8.141 -1.3808  1.0672  0.1973
 2552SOL     OW19117   3.846   2.358   7.896 -0.1761  0.0178  0.4720
 2552SOL    HW119118   3.752   2.375   7.890 -0.1724 -0.4732 -1.1296
 2552SOL    HW219119   3.848   2.263   7.887 -1.2871  0.1045 -0.8747
 2553SOL     OW19120   3.684   0.093   8.690 -0.0641  0.0329  0.3885
 2553SOL    HW119121   3.590   0.084   8.701 -0.2092 -1.5186 -2.0997
 2553SOL    HW219122   3.700   0.181   8.724  0.3430  0.3536 -0.6305
 2554SOL     OW19123   1.810   1.258  14.596 -0.5837  0.1675 -0.0449
 2554SOL    HW119124   1.879   1.192  14.596 -1.2223 -0.4991 -1.0438
 2554SOL    HW219125   1.786   1.263  14.689 -1.1986 -2.4029 -0.0604
 2555SOL     OW19126   3.635   3.838   5.978 -0.2061  0.1579  0.1035
 2555SOL    HW119127   3.722   3.811   5.947 -0.9648 -0.9883 -1.0408
 2555SOL    HW219128   3.582   3.781   5.923  1.6798  0.9502 -2.5261
 2556SOL     OW19129   2.023   2.951  12.144  0.2979 -1.2130 -0.0820
 2556SOL    HW119130   2.025   3.042  12.175 -1.6353 -1.2142  0.0427
 2556SOL    HW219131   2.020   2.910  12.230 -0.3502  1.4200  1.1459
 2557SOL     OW19132   0.198   2.196   7.140 -0.4645 -0.3902 -0.2146
 2557SOL    HW119133   0.213   2.228   7.051  0.2178  0.3104  0.1495
 2557SOL    HW219134   0.167   2.279   7.177 -0.5700 -0.5641  0.0863
 2558SOL     OW19135   4.314   0.463  10.656 -0.3892 -0.4188  0.0168
 2558SOL    HW119136   4.395   0.472  10.706  0.8382  0.0347 -2.0910
 2558SOL    HW219137   4.309   0.553  10.624 -1.5088 -0.2768  0.5774
 2559SOL     OW19138   1.424   1.203   1.787 -0.0723  0.1879 -0.6102
 2559SOL    HW119139   1.335   1.199   1.823 -0.4805  1.7135 -1.4381
 2559SOL    HW219140   1.470   1.254   1.853 -1.1745  1.0943 -0.5340
 2560SOL     OW19141   1.163   2.761   8.233  0.4169 -0.1770 -0.4056
 2560SOL    HW119142   1.069   2.742   8.241  0.2959  0.0139 -1.3775
 2560SOL    HW219143   1.166   2.821   8.308 -1.0251  1.4905 -1.6839
 2561SOL     OW19144   1.137   1.136   8.828 -0.5010 -0.2292 -0.0517
 2561SOL    HW119145   1.230   1.120   8.845 -0.2626  0.3371 -0.8344
 2561SOL    HW219146   1.144   1.208   8.765  2.1221  0.2480  0.7926
 2562SOL     OW19147   1.649   1.946   2.267 -0.0122 -0.8325 -0.3284
 2562SOL    HW119148   1.610   2.033   2.259 -1.0612 -1.3628 -0.9344
 2562SOL    HW219149   1.598   1.908   2.339 -0.9885 -1.2539 -1.2489
 2563SOL     OW19150   3.204   4.184  11.146 -0.2797  0.3298  0.1884
 2563SOL    HW119151   3.249   4.104  11.116 -0.1733  0.4253  0.0941
 2563SOL    HW219152   3.135   4.147  11.201 -1.6288 -0.2556 -1.8942
 2564SOL     OW19153   4.553   0.471   5.877 -0.6079 -0.0153 -0.0451
 2564SOL    HW119154   4.565   0.566   5.885  0.9020 -0.2149 -0.1334
 2564SOL    HW219155   4.579   0.432   5.960  2.6657  2.4286  0.0496
 2565SOL     OW19156   1.910   0.089   5.826  0.1450 -0.2503  0.3231
 2565SOL    HW119157   1.949   0.016   5.873 -0.2566 -0.3229  0.5427
 2565SOL    HW219158   1.834   0.118   5.875  1.0877  0.0486  1.6100
 2566SOL     OW19159   1.525   0.568  12.429  0.4147  0.0508  0.2901
 2566SOL    HW119160   1.495   0.478  12.444  2.6763 -0.3162  2.6740
 2566SOL    HW219161   1.540   0.564  12.335 -3.9202  0.8159 -0.4167
 2567SOL     OW19162   0.116   3.715   0.098 -0.3716  0.2489  0.1975
 2567SOL    HW119163   0.024   3.730   0.120 -0.4178 -2.7324  2.1184
 2567SOL    HW219164   0.110   3.625   0.066 -0.3693  0.7037 -1.0617
 2568SOL     OW19165   0.328   2.223   7.698  0.8892  0.0264  0.4922
 2568SOL    HW119166   0.361   2.172   7.772 -1.7486 -3.1139 -0.4993
 2568SOL    HW219167   0.343   2.172   7.618  0.3111  0.5879  0.0250
 2569SOL     OW19168   3.959   4.624   3.473  0.2163  0.2192  0.4194
 2569SOL    HW119169   3.952   4.655   3.563  0.5402  1.8794 -0.1130
 2569SOL    HW219170   3.980   4.532   3.484 -0.0130  0.3435  1.8486
 2570SOL     OW19171   1.630   1.958   5.972 -0.4075 -0.3473 -0.2645
 2570SOL    HW119172   1.547   1.914   5.989  1.7062 -4.0235  0.4660
 2570SOL    HW219173   1.676   1.892   5.921  0.3914 -2.1934  2.8818
 2571SOL     OW19174   0.185   3.294   6.931  0.2679  0.1764  0.4418
 2571SOL    HW119175   0.224   3.266   7.014 -0.8238 -0.7174  0.6561
 2571SOL    HW219176   0.240   3.370   6.914 -0.7654  1.4486  2.7025
 2572SOL     OW19177   0.634   2.963   3.525  0.2833 -0.0060  0.4820
 2572SOL    HW119178   0.622   2.883   3.473 -0.7795  0.2688  0.2959
 2572SOL    HW219179   0.565   3.016   3.484 -0.2571  0.9144  2.5897
 2573SOL     OW19180   1.037   4.253  10.273  0.2490  0.2141 -0.1278
 2573SOL    HW119181   0.951   4.274  10.238  0.6303  0.2367 -1.0496
 2573SOL    HW219182   1.089   4.266  10.193  2.2218  1.5426  1.3477
 2574SOL     OW19183   2.670   3.058   4.857  0.2701 -0.7501 -0.2216
 2574SOL    HW119184   2.591   3.111   4.849  1.4283  0.7252 -1.9764
 2574SOL    HW219185   2.661   3.019   4.944  1.5239  1.7026  1.0195
 2575SOL     OW19186   3.914   0.018   7.118  0.2133 -1.2149 -0.4246
 2575SOL    HW119187   3.985   4.717   7.059  1.3471 -1.1159  0.9010
 2575SOL    HW219188   3.848   4.680   7.084  1.2337 -1.2422 -2.3612
 2576SOL     OW19189   2.146   3.903  14.543  0.2883 -0.5072 -0.2971
 2576SOL    HW119190   2.084   3.841  14.505 -1.9045  1.1412  0.5986
 2576SOL    HW219191   2.226   3.851  14.544 -0.0853 -1.0527  0.4528
 2577SOL     OW19192   2.990   4.688   3.166 -0.0731 -0.0919 -0.4855
 2577SOL    HW119193   2.935   0.041   3.183  0.9349  0.0636  2.0134
 2577SOL    HW219194   2.922   4.620   3.169 -1.4685  1.3473  0.9097
 2578SOL     OW19195   2.376   4.203   5.414  0.2005  0.3118 -0.4349
 2578SOL    HW119196   2.349   4.250   5.334  0.8848  1.0924 -0.2002
 2578SOL    HW219197   2.406   4.119   5.381 -0.6308 -0.5072  0.9047
 2579SOL     OW19198   0.999   2.377  15.189 -0.2364  0.0031  0.4249
 2579SOL    HW119199   0.995   2.416  15.101  0.5021 -0.6763  0.0912
 2579SOL    HW219200   1.014   2.286  15.164  1.0623  0.1350  0.7522
 2580SOL     OW19201   0.010   1.371   2.856 -0.2678 -0.0673  0.5114
 2580SOL    HW119202   0.071   1.422   2.803 -1.3981 -0.2605 -0.9585
 2580SOL    HW219203   4.701   1.442   2.912 -1.1690 -0.4575  0.4973
 2581SOL     OW19204   0.571   0.069  16.691 -0.1375 -0.5324 -0.2421
 2581SOL    HW119205   0.578   0.100  16.781 -3.2947  0.8507 -0.4711
 2581SOL    HW219206   0.575   0.144  16.631 -1.8612 -0.5343 -0.3542
 2582SOL     OW19207   1.106   2.039   6.480 -0.5251  0.1416 -0.2411
 2582SOL    HW119208   1.137   1.949   6.487 -0.4791  0.0597 -1.4032
 2582SOL    HW219209   1.069   2.058   6.566 -0.5281  0.5401 -0.3291
 2583SOL     OW19210   2.431   0.102   8.246  0.0503  0.1992  0.4796
 2583SOL    HW119211   2.499   0.050   8.202 -0.3457  0.3949 -0.3697
 2583SOL    HW219212   2.453   0.078   8.336  2.9279  0.2192 -0.2201
 2584SOL     OW19213   3.848   4.107   3.277 -0.0835  0.1997 -0.0796
 2584SOL    HW119214   3.836   4.026   3.326  0.8115  0.9472  1.3704
 2584SOL    HW219215   3.867   4.067   3.192 -1.3726 -0.3790 -0.1046
 2585SOL     OW19216   0.465   1.883  14.850  0.5398  0.0639 -1.0225
 2585SOL    HW119217   0.507   1.968  14.837  0.5213  0.0255 -1.3439
 2585SOL    HW219218   0.515   1.847  14.924 -0.7517 -1.2454 -0.7932
 2586SOL     OW19219   4.267   1.164   5.083 -0.1340  0.1055  0.1576
 2586SOL    HW119220   4.246   1.257   5.089 -0.8304 -0.1924  2.2694
 2586SOL    HW219221   4.184   1.122   5.105 -0.1868  0.0981 -0.0610
 2587SOL     OW19222   4.042   3.205   4.298  0.4660 -0.2277  0.7507
 2587SOL    HW119223   4.066   3.121   4.337  1.5515 -0.4681 -0.4138
 2587SOL    HW219224   4.007   3.244   4.378 -0.0051  0.0957  0.3849
 2588SOL     OW19225   2.006   4.604  12.376 -0.6148  0.0609 -0.0463
 2588SOL    HW119226   2.058   4.624  12.299 -1.9460 -1.7212 -1.3883
 2588SOL    HW219227   1.985   4.517  12.343 -1.1619  1.2628 -2.8396
 2589SOL     OW19228   3.965   2.756   9.434 -0.1595  0.4683 -0.2307
 2589SOL    HW119229   3.969   2.703   9.355 -1.3254  1.1848 -0.7670
 2589SOL    HW219230   3.872   2.778   9.430 -0.2558  0.2442  0.6538
 2590SOL     OW19231   1.975   4.255   8.186  0.4497 -0.3007  0.0817
 2590SOL    HW119232   2.070   4.266   8.190  0.4517 -0.4819  0.6576
 2590SOL    HW219233   1.956   4.268   8.094 -1.3498 -3.3983  0.0358
 2591SOL     OW19234   2.167   1.000   5.294 -0.4795  0.2061 -0.0931
 2591SOL    HW119235   2.204   0.912   5.290  1.0703  0.8333  0.5440
 2591SOL    HW219236   2.190   1.012   5.386  0.8664  0.7489 -0.5028
 2592SOL     OW19237   3.619   3.655   5.213 -0.0727 -0.7978 -0.1037
 2592SOL    HW119238   3.694   3.713   5.202 -1.3305  1.0459  1.0508
 2592SOL    HW219239   3.568   3.701   5.146 -0.1959 -0.2980  0.3385
 2593SOL     OW19240   0.275   4.364  13.191  0.1974  0.8099 -0.3339
 2593SOL    HW119241   0.341   4.301  13.163  0.3391  0.9481 -0.3088
 2593SOL    HW219242   0.198   4.315  13.160  0.1783  0.7270 -0.1565
 2594SOL     OW19243   0.275   0.740   3.163  0.1002 -0.2853 -0.0177
 2594SOL    HW119244   0.365   0.771   3.170  0.7195 -2.1948  0.6453
 2594SOL    HW219245   0.257   0.721   3.255 -0.4677  1.8679  0.3067
 2595SOL     OW19246   3.980   0.769   5.703  0.0045  0.1324 -0.1880
 2595SOL    HW119247   3.920   0.831   5.743  0.0348  1.1184 -1.6498
 2595SOL    HW219248   3.926   0.725   5.637  0.9698 -0.1563 -0.7991
 2596SOL     OW19249   4.527   3.619   5.422  0.2714  0.4484  0.2136
 2596SOL    HW119250   4.445   3.615   5.471 -0.5280 -0.4653 -1.1657
 2596SOL    HW219251   4.512   3.537   5.375  2.5478 -0.2948  0.8105
 2597SOL     OW19252   2.876   2.988  10.940  0.1867 -0.2707  0.0939
 2597SOL    HW119253   2.827   2.993  11.022 -0.2627  2.0678 -0.3326
 2597SOL    HW219254   2.828   3.042  10.878 -1.5312 -0.9680  0.8014
 2598SOL     OW19255   2.590   2.635  13.168  0.0317 -0.0052  0.2980
 2598SOL    HW119256   2.552   2.552  13.196 -2.4142  0.9015 -0.3757
 2598SOL    HW219257   2.681   2.611  13.188  0.1091 -0.7449 -0.9514
 2599SOL     OW19258   1.575   1.171  15.156 -0.1998  0.3249  0.1280
 2599SOL    HW119259   1.542   1.084  15.131 -1.7461  1.4250 -1.6016
 2599SOL    HW219260   1.575   1.164  15.252  1.2139 -1.8365 -0.0356
 2600SOL     OW19261   2.189   2.824  14.271  0.0423  0.1587  0.1097
 2600SOL    HW119262   2.192   2.790  14.360 -0.1827 -1.7026 -0.5995
 2600SOL    HW219263   2.238   2.905  14.282  0.6769 -0.1557 -0.4529
 2601SOL     OW19264   1.988   4.070   8.447  0.2464  1.0779  0.3166
 2601SOL    HW119265   1.937   4.122   8.509 -0.4593  1.0709 -0.2634
 2601SOL    HW219266   1.984   4.117   8.364  0.4479  5.5665  2.8530
 2602SOL     OW19267   0.022   0.378   4.394  0.1619 -0.0068  0.2055
 2602SOL    HW119268   4.723   0.442   4.461  2.5000  1.2934 -0.2517
 2602SOL    HW219269   0.073   0.316   4.446 -0.2071 -0.4658  0.0244
 2603SOL     OW19270   2.250   2.916   7.600  0.1975 -0.0282 -0.3719
 2603SOL    HW119271   2.191   2.988   7.577  0.5461  1.2543  2.7068
 2603SOL    HW219272   2.195   2.851   7.644 -0.6402  0.3399 -0.8836
 2604SOL     OW19273   0.054   3.302   1.799  0.6135  0.1407 -0.1223
 2604SOL    HW119274   0.143   3.325   1.771  0.2047 -2.8058 -3.8886
 2604SOL    HW219275   0.044   3.211   1.771 -0.4784  0.4083 -0.5905
 2605SOL     OW19276   2.679   2.355   3.979 -0.4273  0.1093  0.3255
 2605SOL    HW119277   2.688   2.316   4.066 -0.7027 -2.2536 -0.7164
 2605SOL    HW219278   2.710   2.289   3.918 -1.9343 -0.4393  0.1703
 2606SOL     OW19279   4.561   0.085   4.953 -0.0029 -0.1668  0.4661
 2606SOL    HW119280   4.489   0.028   4.980 -1.3717  1.2214 -0.2421
 2606SOL    HW219281   4.610   0.028   4.894  0.6615  0.9095 -0.0260
 2607SOL     OW19282   1.619   4.638   9.079  0.1697  0.4946 -0.4778
 2607SOL    HW119283   1.558   4.579   9.124  2.1204 -1.1176  0.0324
 2607SOL    HW219284   1.564   4.673   9.008 -0.0057  1.9599  0.3704
 2608SOL     OW19285   1.470   1.227   6.638 -0.1632 -0.8939  0.5349
 2608SOL    HW119286   1.400   1.278   6.679  0.7481 -0.4862  1.5727
 2608SOL    HW219287   1.518   1.198   6.716  0.4125  0.1737  0.5715
 2609SOL     OW19288   1.103   4.453   7.702  0.3657  0.0953  0.0905
 2609SOL    HW119289   1.197   4.456   7.714  0.3137  1.5623  0.0774
 2609SOL    HW219290   1.097   4.503   7.621 -1.4692  0.3425  0.3625
 2610SOL     OW19291   4.699   2.653   8.071  0.4586 -0.2614 -0.1870
 2610SOL    HW119292   4.695   2.747   8.089 -1.7626 -0.7171  1.7673
 2610SOL    HW219293   0.033   2.635   8.146 -1.1358  0.4645  1.2111
 2611SOL     OW19294   0.910   0.657   9.108 -0.5860 -0.3790  0.4694
 2611SOL    HW119295   0.950   0.676   9.023 -0.6542  0.2788  0.5805
 2611SOL    HW219296   0.829   0.617   9.077 -0.2682 -1.9651  1.7496
 2612SOL     OW19297   2.035   0.278   2.428 -0.4371 -0.0693 -0.3970
 2612SOL    HW119298   1.981   0.198   2.426  0.3234 -0.6405  2.0002
 2612SOL    HW219299   2.005   0.315   2.511 -0.8579  2.0633 -1.5062
 2613SOL     OW19300   2.281   0.485   3.613 -0.6300 -0.0178  0.0109
 2613SOL    HW119301   2.312   0.507   3.525 -0.9389  1.1826  0.2007
 2613SOL    HW219302   2.215   0.555   3.611 -0.8856 -0.2873 -1.6561
 2614SOL     OW19303   2.602   3.313   3.227  0.1088 -0.5765 -0.0340
 2614SOL    HW119304   2.613   3.220   3.247  0.7121 -0.6107 -0.5087
 2614SOL    HW219305   2.520   3.309   3.178 -0.4763  1.2921  0.8085
 2615SOL     OW19306   0.884   4.359   2.761  0.2926 -0.4511  0.2051
 2615SOL    HW119307   0.884   4.335   2.669  0.2883  0.2793  0.0152
 2615SOL    HW219308   0.815   4.308   2.803 -0.2182 -0.3273 -0.4972
 2616SOL     OW19309   4.645   4.050   8.858  0.3544  0.0083 -0.3619
 2616SOL    HW119310   4.654   3.956   8.847  0.6584 -0.0280  0.1774
 2616SOL    HW219311   4.722   4.068   8.912 -0.0340  0.5407  0.0160
 2617SOL     OW19312   0.704   4.369  17.568 -0.2661  0.6114  0.0868
 2617SOL    HW119313   0.689   4.297  17.508 -0.5732  0.7524 -0.0045
 2617SOL    HW219314   0.645   4.442  17.547 -0.3965  0.0780 -1.3570
 2618SOL     OW19315   1.419   0.126   3.620 -0.2478 -0.1925  0.4778
 2618SOL    HW119316   1.477   0.129   3.544 -1.5505  1.5971 -0.4495
 2618SOL    HW219317   1.464   0.196   3.668  0.0768 -0.6723  0.8762
 2619SOL     OW19318   2.098   4.590  10.565  0.4383 -0.0513 -0.3965
 2619SOL    HW119319   2.024   4.645  10.593  0.9556  0.0187  0.8329
 2619SOL    HW219320   2.090   4.609  10.472  0.3668 -0.8679 -0.5549
 2620SOL     OW19321   0.141   1.477   7.787 -0.0408 -0.4251 -0.5913
 2620SOL    HW119322   0.123   1.472   7.881 -0.0625 -0.2621 -0.5863
 2620SOL    HW219323   0.220   1.424   7.779  0.6285  0.4567  0.1654
 2621SOL     OW19324   0.235   0.633   2.195 -0.1040  1.2077  0.3322
 2621SOL    HW119325   0.149   0.607   2.163  1.1048 -1.1765 -0.9993
 2621SOL    HW219326   0.251   0.564   2.259  1.1163  1.6523  0.4989
 2622SOL     OW19327   1.433   0.005   3.880  0.0484 -0.4187 -0.3031
 2622SOL    HW119328   1.448   0.055   3.800 -1.0935  3.0264  1.6361
 2622SOL    HW219329   1.504   4.664   3.876  1.4418  1.2379 -2.0490
 2623SOL     OW19330   2.431   3.801  11.203 -1.0708 -0.0602  1.3474
 2623SOL    HW119331   2.372   3.848  11.145 -1.4878 -0.1705  1.6878
 2623SOL    HW219332   2.460   3.737  11.137 -0.0677  1.0986  0.6673
 2624SOL     OW19333   1.500   4.242   8.938  0.0862  0.4327 -0.5200
 2624SOL    HW119334   1.498   4.322   8.991  1.3985 -1.6688  2.6944
 2624SOL    HW219335   1.581   4.202   8.968 -0.5647 -0.0653  0.5799
 2625SOL     OW19336   1.060   2.373   0.552  0.2320 -0.0639 -0.0916
 2625SOL    HW119337   1.039   2.359   0.460  0.7597  0.3544 -0.2794
 2625SOL    HW219338   0.994   2.441   0.566  2.0673  1.7847 -0.3954
 2626SOL     OW19339   2.555   3.658  10.976  0.7794 -0.2054  0.3317
 2626SOL    HW119340   2.510   3.632  10.896  1.8138 -3.9751  0.9735
 2626SOL    HW219341   2.567   3.752  10.964  0.7463 -0.4370 -1.4303
 2627SOL     OW19342   3.425   3.227   3.380 -0.4902  0.0934 -0.7522
 2627SOL    HW119343   3.379   3.241   3.463  2.4947  1.0759  0.7271
 2627SOL    HW219344   3.414   3.316   3.346  2.3699  1.9502  3.2558
 2628SOL     OW19345   1.519   3.044  14.688 -0.0033  0.4486  0.4930
 2628SOL    HW119346   1.475   3.068  14.769 -1.2390 -0.2620  0.0454
 2628SOL    HW219347   1.500   3.125  14.641 -0.6499  0.1593  0.2447
 2629SOL     OW19348   4.040   2.250   1.722 -0.1851 -0.1412  0.2869
 2629SOL    HW119349   4.041   2.265   1.817  1.0827  1.0575  0.0749
 2629SOL    HW219350   4.051   2.333   1.678 -1.3588 -0.7210 -1.0821
 2630SOL     OW19351   0.143   0.775  12.859 -0.2752  0.1461  0.0994
 2630SOL    HW119352   0.202   0.738  12.793  0.0927  1.5684 -0.3771
 2630SOL    HW219353   0.095   0.701  12.896 -0.3125 -0.2383 -0.7122
 2631SOL     OW19354   1.819   0.720   7.078 -0.4051 -0.4471  0.1817
 2631SOL    HW119355   1.875   0.791   7.045 -1.5422 -0.0653 -0.9109
 2631SOL    HW219356   1.841   0.733   7.170  0.1420  2.3058 -0.3362
 2632SOL     OW19357   3.133   1.947   9.066  0.0591  0.0572  0.5356
 2632SOL    HW119358   3.158   1.995   9.144  0.1670  1.4008 -0.3336
 2632SOL    HW219359   3.213   1.973   9.020  0.4746 -1.2616  0.5158
 2633SOL     OW19360   1.819   3.309   5.745  0.0184  0.0144 -0.3736
 2633SOL    HW119361   1.909   3.341   5.733 -0.2170  0.4390 -1.0342
 2633SOL    HW219362   1.775   3.388   5.712  0.0136  0.2794  0.2617
 2634SOL     OW19363   1.843   1.702   6.318 -0.3615  0.3563  0.6932
 2634SOL    HW119364   1.865   1.724   6.228  0.3829 -1.6587  0.3742
 2634SOL    HW219365   1.792   1.779   6.343 -0.8144  0.2635  0.0660
 2635SOL     OW19366   4.185   1.814   1.739  0.4137 -0.8896 -0.1993
 2635SOL    HW119367   4.249   1.811   1.811  2.3413  1.4332 -1.8332
 2635SOL    HW219368   4.214   1.895   1.696  1.3592 -0.2753  1.5823
 2636SOL     OW19369   2.107   3.038   2.768 -0.1339  0.0833 -0.3019
 2636SOL    HW119370   2.040   2.993   2.819  0.5770 -1.2301 -0.5444
 2636SOL    HW219371   2.149   3.093   2.835 -1.6115  0.6795  0.1467
 2637SOL     OW19372   4.363   1.997   3.049  0.1916 -0.1554 -0.6643
 2637SOL    HW119373   4.376   2.085   3.083 -0.9515 -0.0937 -0.3906
 2637SOL    HW219374   4.368   1.948   3.131  1.7522 -0.1158 -0.7324
 2638SOL     OW19375   4.228   2.292   5.212  0.4497 -0.2118 -0.4212
 2638SOL    HW119376   4.260   2.377   5.179  3.7678 -1.1376  0.3421
 2638SOL    HW219377   4.168   2.310   5.284 -2.1241 -0.1284 -2.6051
 2639SOL     OW19378   1.475   0.161   3.228  0.0514 -0.0089 -0.4316
 2639SOL    HW119379   1.542   0.186   3.291  0.5306  0.2278 -1.0444
 2639SOL    HW219380   1.537   0.100   3.188  1.1704 -0.4925  2.0099
 2640SOL     OW19381   3.022   3.464   6.868  0.2385 -0.4690  0.4366
 2640SOL    HW119382   3.026   3.453   6.773  0.6876  1.1250  0.2804
 2640SOL    HW219383   2.960   3.397   6.899  0.1049 -0.7513 -0.4305
 2641SOL     OW19384   0.723   0.357   3.473  0.7477  0.5506  0.2910
 2641SOL    HW119385   0.755   0.360   3.563 -2.3785  0.1400  1.4125
 2641SOL    HW219386   0.659   0.428   3.467  1.6297  1.3560  0.3983
 2642SOL     OW19387   4.711   0.482   8.096  0.2553 -0.1199  0.3731
 2642SOL    HW119388   0.013   0.542   8.166  2.0989  1.0113 -1.2412
 2642SOL    HW219389   0.048   0.409   8.114  1.0302  0.0066 -1.6292
 2643SOL     OW19390   1.077   3.487   7.190  0.1759 -0.5520 -0.1835
 2643SOL    HW119391   1.090   3.565   7.244 -1.3766  0.8205 -1.7658
 2643SOL    HW219392   1.049   3.529   7.109 -0.2084  0.3074  0.3917
 2644SOL     OW19393   1.455   0.057   7.688  0.0191  0.1316 -1.0586
 2644SOL    HW119394   1.406   0.130   7.726  1.5021  0.8898 -0.6008
 2644SOL    HW219395   1.399   0.026   7.617 -1.1869  0.4474 -0.2569
 2645SOL     OW19396   3.164   4.021   5.852  0.3428  0.1557  0.0361
 2645SOL    HW119397   3.214   3.949   5.891 -0.6542 -0.1256  0.7855
 2645SOL    HW219398   3.139   3.981   5.769  2.4703 -3.5648  1.2342
 2646SOL     OW19399   2.922   0.676   8.392  0.1377  0.6916 -0.1350
 2646SOL    HW119400   2.933   0.584   8.371  1.3550  0.7109  0.3875
 2646SOL    HW219401   2.827   0.676   8.401  0.3558  1.2559  2.0729
 2647SOL     OW19402   0.088   2.184   4.900  0.4581 -0.3695  0.4321
 2647SOL    HW119403   0.144   2.262   4.901  0.5953 -0.4762  1.3327
 2647SOL    HW219404   0.061   2.179   4.809 -0.0227  0.0627  0.5496
 2648SOL     OW19405   1.630   0.603   2.588 -0.2419 -0.4852 -0.0130
 2648SOL    HW119406   1.640   0.509   2.575  0.0277 -1.1673  4.8102
 2648SOL    HW219407   1.646   0.612   2.682  3.1405  0.4954 -0.6624
 2649SOL     OW19408   1.312   4.345   3.962  0.5277 -0.4779 -0.0746
 2649SOL    HW119409   1.238   4.375   3.910  1.0202 -0.3557 -0.7087
 2649SOL    HW219410   1.367   4.310   3.892  0.9509  0.7378 -0.3536
 2650SOL     OW19411   2.506   3.240  10.699  1.1837 -0.1058  0.1426
 2650SOL    HW119412   2.499   3.284  10.614  1.0249 -1.7437 -0.6881
 2650SOL    HW219413   2.454   3.291  10.761 -1.0540 -0.6118 -1.3160
 2651SOL     OW19414   2.479   3.932   5.821  0.0046  0.4637 -0.3622
 2651SOL    HW119415   2.512   3.905   5.906 -1.7420  0.1933  0.2331
 2651SOL    HW219416   2.389   3.953   5.848  0.2007  0.9695 -0.1066
 2652SOL     OW19417   3.203   2.522  16.553  0.5522 -0.1039  0.1973
 2652SOL    HW119418   3.190   2.615  16.569 -1.7618 -0.1070 -1.6560
 2652SOL    HW219419   3.140   2.495  16.486  1.3823  0.2656 -0.7375
 2653SOL     OW19420   3.947   2.132   5.331 -0.6691  0.0909  0.5550
 2653SOL    HW119421   3.942   2.123   5.236  0.6239 -3.0509  0.7886
 2653SOL    HW219422   3.886   2.205   5.343  0.7275  1.4545 -0.7095
 2654SOL     OW19423   1.747   4.714   0.137 -0.4965  0.0604 -0.0904
 2654SOL    HW119424   1.832   0.017   0.172 -0.8927 -2.6874  2.8904
 2654SOL    HW219425   1.706   0.076   0.125  0.1167  0.4531  0.5867
 2655SOL     OW19426   3.188   3.538   0.028 -0.0106  0.3299 -0.1896
 2655SOL    HW119427   3.193   3.548   0.124 -0.0793 -0.6698 -0.0779
 2655SOL    HW219428   3.195   3.632   0.013 -1.5050  0.4765  0.0882
 2656SOL     OW19429   4.337   3.663  15.527  0.3704 -0.0138 -0.5228
 2656SOL    HW119430   4.360   3.666  15.620  2.0469 -1.5140 -0.8986
 2656SOL    HW219431   4.390   3.733  15.488 -0.3004  0.4817 -0.5434
 2657SOL     OW19432   1.323   2.274  15.210 -0.6038  0.1000  0.0484
 2657SOL    HW119433   1.281   2.299  15.127  0.6753  0.2424 -0.5610
 2657SOL    HW219434   1.338   2.354  15.260 -3.3365  0.8782 -0.3957
 2658SOL     OW19435   1.755   0.800   6.648 -0.3283 -0.0131 -0.2881
 2658SOL    HW119436   1.846   0.829   6.659 -0.4419  0.2712 -0.1075
 2658SOL    HW219437   1.766   0.711   6.616 -0.3733 -0.1013 -0.0528
 2659SOL     OW19438   3.684   0.904  17.180  0.1101  0.4396 -0.6605
 2659SOL    HW119439   3.714   0.960  17.109  2.4906  1.4553  1.1215
 2659SOL    HW219440   3.602   0.863  17.154  1.1621 -2.3132  0.3089
 2660SOL     OW19441   0.313   4.269  12.605 -0.1336  0.8194  0.4635
 2660SOL    HW119442   0.224   4.237  12.596 -0.2050  1.3483 -0.6755
 2660SOL    HW219443   0.308   4.283  12.700 -1.7276  1.8864  0.2184
 2661SOL     OW19444   0.883   0.864   4.905 -0.1808 -0.4428  0.1147
 2661SOL    HW119445   0.925   0.922   4.842  0.4238 -0.0194  0.9090
 2661SOL    HW219446   0.909   0.890   4.993  1.1439  1.8478 -0.9761
 2662SOL     OW19447   2.563   1.150   6.665 -0.6375  0.0919 -0.2927
 2662SOL    HW119448   2.587   1.059   6.680  0.6998  0.3805 -0.6889
 2662SOL    HW219449   2.635   1.194   6.710  0.0039 -1.4982  0.2087
 2663SOL     OW19450   2.039   0.728  12.701 -0.2045 -0.6524 -0.3210
 2663SOL    HW119451   1.959   0.763  12.742 -0.3984 -0.9892 -0.4141
 2663SOL    HW219452   2.047   0.789  12.628 -0.6529 -0.1743  0.0249
 2664SOL     OW19453   2.675   3.284   2.433 -0.3976  0.1703 -0.4621
 2664SOL    HW119454   2.590   3.258   2.397 -0.2446 -0.8355 -0.0934
 2664SOL    HW219455   2.727   3.204   2.445 -0.8094 -0.0532 -0.1706
 2665SOL     OW19456   1.748   0.869   4.988 -0.4255 -0.5632 -0.5196
 2665SOL    HW119457   1.816   0.913   5.038  0.1990 -1.8284 -0.2663
 2665SOL    HW219458   1.676   0.931   4.972  1.9270  1.3743 -3.7281
 2666SOL     OW19459   4.636   2.129  10.890 -0.1811  0.3308 -0.0198
 2666SOL    HW119460   4.587   2.052  10.859  0.6980  0.1981 -1.0751
 2666SOL    HW219461   4.708   2.138  10.827 -0.4194 -0.1386 -0.3597
 2667SOL     OW19462   1.323   3.628   5.160  0.8352  0.2133 -0.7665
 2667SOL    HW119463   1.297   3.647   5.250 -0.5147  0.8253 -1.2984
 2667SOL    HW219464   1.246   3.667   5.120  1.6412  0.5871 -1.9726
 2668SOL     OW19465   2.019   1.065  11.168 -0.3253  0.1836 -0.2819
 2668SOL    HW119466   2.076   1.008  11.220  1.3666  2.3408  0.2529
 2668SOL    HW219467   2.077   1.062  11.093 -0.0429 -0.2981 -0.0445
 2669SOL     OW19468   2.856   0.394   5.979  0.1549 -0.3868 -0.1077
 2669SOL    HW119469   2.919   0.454   6.019  0.5975  0.7838 -2.5719
 2669SOL    HW219470   2.774   0.441   5.960  0.7991  1.0923  0.7956
 2670SOL     OW19471   3.667   0.372  17.678  0.2168  0.4681  0.3241
 2670SOL    HW119472   3.580   0.394  17.646  0.1877 -0.5540 -0.3282
 2670SOL    HW219473   3.710   0.336  17.600  0.8711  0.8864  0.4920
 2671SOL     OW19474   3.154   2.370  11.449 -0.1514  0.3816  0.2680
 2671SOL    HW119475   3.086   2.330  11.395 -0.9805 -0.1318  1.7137
 2671SOL    HW219476   3.205   2.296  11.482  0.4574  0.1783 -1.1079
 2672SOL     OW19477   1.110   0.307   4.596 -0.2409  0.7404  0.3100
 2672SOL    HW119478   1.073   0.366   4.530  0.8167 -1.4927 -2.2775
 2672SOL    HW219479   1.155   0.370   4.653 -0.2761  0.0582  1.0875
 2673SOL     OW19480   2.477   0.251   9.163  0.2438 -0.2584  0.0726
 2673SOL    HW119481   2.519   0.203   9.234 -3.3130 -1.0972  1.6151
 2673SOL    HW219482   2.544   0.244   9.096  1.1480 -0.0964  0.9590
 2674SOL     OW19483   2.970   1.101   1.684  0.0407 -0.6976 -0.0232
 2674SOL    HW119484   2.888   1.053   1.672  0.4618 -1.0859 -1.2282
 2674SOL    HW219485   3.036   1.033   1.701  1.0019 -0.2003 -1.8094
 2675SOL     OW19486   4.245   2.855   8.614  0.8227 -0.3076 -0.2198
 2675SOL    HW119487   4.188   2.893   8.682  0.8572 -0.2109 -0.2443
 2675SOL    HW219488   4.175   2.844   8.550 -2.1876 -0.1443  3.0377
 2676SOL     OW19489   0.003   1.821   4.072  0.4061  0.0899  0.5052
 2676SOL    HW119490   4.671   1.780   4.006 -1.4533 -0.3104  2.3230
 2676SOL    HW219491   4.662   1.848   4.138 -1.1340 -0.1354 -0.9178
 2677SOL     OW19492   0.340   2.431   1.448  0.1685  0.2663 -0.5851
 2677SOL    HW119493   0.431   2.460   1.447 -0.2643  1.6195  0.0934
 2677SOL    HW219494   0.321   2.433   1.354  0.7482  0.8959 -0.6812
 2678SOL     OW19495   3.757   1.223   8.888 -0.2780  0.9254 -0.2467
 2678SOL    HW119496   3.734   1.243   8.979 -1.0875 -1.0982 -0.0074
 2678SOL    HW219497   3.720   1.295   8.837  2.0693  1.8045 -0.6894
 2679SOL     OW19498   1.248   3.758   9.358  0.1950  0.0293  0.0557
 2679SOL    HW119499   1.156   3.764   9.384  0.2630 -1.0826  0.5497
 2679SOL    HW219500   1.255   3.790   9.268  0.7301  0.9299  0.4123
 2680SOL     OW19501   3.390   4.071   2.855 -0.0482 -0.1686  0.0219
 2680SOL    HW119502   3.306   4.026   2.855 -0.4051  0.5021 -1.4405
 2680SOL    HW219503   3.365   4.143   2.913  2.9220 -1.2867  2.7382
 2681SOL     OW19504   4.644   4.182   5.983 -0.0970 -0.2377  0.7019
 2681SOL    HW119505   4.704   4.238   5.933 -1.0065 -1.6711 -2.0144
 2681SOL    HW219506   4.660   4.223   6.068  0.9249  2.3156 -0.7112
 2682SOL     OW19507   0.099   0.607  16.390  0.2612  0.7168 -0.5676
 2682SOL    HW119508   0.024   0.559  16.425  2.0598 -1.2809  0.5133
 2682SOL    HW219509   0.058   0.683  16.347 -1.1017  0.5123  0.3830
 2683SOL     OW19510   3.350   4.016   0.739  0.5274 -0.1175 -0.5572
 2683SOL    HW119511   3.435   4.011   0.783 -0.7277 -0.5196  1.8226
 2683SOL    HW219512   3.288   4.052   0.802  0.0365 -3.2966  0.7924
 2684SOL     OW19513   2.775   0.999   5.572  0.1097  0.0610 -0.1486
 2684SOL    HW119514   2.854   0.965   5.530  0.8328  0.1101  1.1713
 2684SOL    HW219515   2.771   0.945   5.650  0.3276  1.3431  0.7464
 2685SOL     OW19516   1.216   2.937   1.532  1.0823  0.0544  0.0175
 2685SOL    HW119517   1.265   2.931   1.450 -0.0200  0.1587 -0.6573
 2685SOL    HW219518   1.127   2.913   1.503  0.8181 -1.6907  2.3224
 2686SOL     OW19519   1.287   2.490   2.808  0.1953  0.2365  0.5077
 2686SOL    HW119520   1.323   2.491   2.719 -1.2046 -1.4315 -0.0660
 2686SOL    HW219521   1.274   2.398   2.832 -0.1157  0.5344  1.4500
 2687SOL     OW19522   1.244   0.111   7.054 -0.1048  0.5037  0.0285
 2687SOL    HW119523   1.338   0.112   7.075  0.0434  1.7290 -0.7238
 2687SOL    HW219524   1.237   0.180   6.988 -2.9109  0.9253  0.7988
 2688SOL     OW19525   2.030   0.455   3.229 -1.0101  0.1449  0.3297
 2688SOL    HW119526   2.049   0.506   3.150  2.0774 -1.6204 -0.0643
 2688SOL    HW219527   1.943   0.491   3.244 -1.1638  1.3872 -3.4122
 2689SOL     OW19528   3.417   3.690   0.749  0.2107  0.2286 -0.0738
 2689SOL    HW119529   3.409   3.785   0.752  0.0168  0.1858  0.7417
 2689SOL    HW219530   3.512   3.685   0.761 -0.2123  0.0410  3.0890
 2690SOL     OW19531   2.002   0.942   9.860  0.3319 -0.2152 -0.3643
 2690SOL    HW119532   2.033   0.871   9.804 -1.7611 -1.0641 -0.4205
 2690SOL    HW219533   2.072   1.007   9.864 -1.3483  1.4568  2.3658
 2691SOL     OW19534   3.856   2.446  12.903  0.2359  0.3727 -0.0660
 2691SOL    HW119535   3.907   2.366  12.919 -1.0706 -1.1324 -3.2669
 2691SOL    HW219536   3.926   2.505  12.878 -0.1072  1.2349  1.0469
 2692SOL     OW19537   4.667   1.638  12.250 -0.1424 -0.1473  0.3338
 2692SOL    HW119538   0.012   1.683  12.299  0.9336 -1.1667 -0.2402
 2692SOL    HW219539   4.623   1.589  12.320  0.3748  0.9131  1.3819
 2693SOL     OW19540   1.369   4.662   8.962  0.1707  0.2871  0.1262
 2693SOL    HW119541   1.340   4.603   8.893 -1.1934  0.0026  0.9456
 2693SOL    HW219542   1.284   4.675   9.005  0.2278  2.1745 -0.3202
 2694SOL     OW19543   3.745   3.636   3.706  0.4496  0.1052  0.4421
 2694SOL    HW119544   3.823   3.591   3.672 -0.9938 -0.1347 -2.5424
 2694SOL    HW219545   3.784   3.721   3.724 -2.0742  1.2361  0.5871
 2695SOL     OW19546   0.472   2.826   3.939  0.3601 -0.6751  0.3675
 2695SOL    HW119547   0.452   2.776   4.018 -0.4959 -0.9185 -0.0055
 2695SOL    HW219548   0.567   2.832   3.945  0.1779  2.0870  0.2340
 2696SOL     OW19549   2.242   4.114  13.886 -0.0294 -0.3660  0.0265
 2696SOL    HW119550   2.299   4.048  13.847  0.2174  0.0670 -0.3404
 2696SOL    HW219551   2.305   4.149  13.949  0.3094 -1.8189  0.4898
 2697SOL     OW19552   0.792   4.491   6.336  0.2432  0.1229 -0.5735
 2697SOL    HW119553   0.705   4.452   6.347  0.6664 -0.5261  0.5528
 2697SOL    HW219554   0.846   4.413   6.319 -0.5621 -0.5482 -0.0684
 2698SOL     OW19555   3.792   0.037   1.123 -0.0248  0.7727  0.6946
 2698SOL    HW119556   3.863   0.002   1.175  0.1654 -0.0976 -0.1460
 2698SOL    HW219557   3.831   0.035   1.035 -0.7553  3.4541  0.3068
 2699SOL     OW19558   0.836   1.882   8.347  0.4354 -0.8171 -0.0717
 2699SOL    HW119559   0.896   1.875   8.422  0.4084  2.9319  0.3178
 2699SOL    HW219560   0.800   1.970   8.358  0.3346 -0.8047 -0.5231
 2700SOL     OW19561   3.446   4.408   6.923 -0.5157  0.0910 -0.9511
 2700SOL    HW119562   3.495   4.428   6.843  0.6723 -1.2683 -0.5621
 2700SOL    HW219563   3.353   4.423   6.905 -1.3054 -0.9771  2.2609
 2701SOL     OW19564   4.623   0.516   9.772 -0.1212 -0.0046  0.6131
 2701SOL    HW119565   4.612   0.450   9.703 -0.8352 -1.2372  1.8951
 2701SOL    HW219566   4.665   0.588   9.726 -1.0388 -1.0360 -1.8256
 2702SOL     OW19567   0.081   4.031   6.497  0.1411 -0.4563  0.2210
 2702SOL    HW119568   0.065   4.125   6.491 -2.1717 -0.9110 -0.6677
 2702SOL    HW219569   0.095   4.001   6.407 -0.4512 -1.3872  0.4379
 2703SOL     OW19570   3.309   3.811   6.993 -0.5043  0.0247 -0.0101
 2703SOL    HW119571   3.290   3.872   6.922 -0.9439 -3.4759 -2.9340
 2703SOL    HW219572   3.292   3.722   6.961  0.9454 -0.2727  0.0409
 2704SOL     OW19573   4.206   3.501  11.346 -0.0217  0.5363  0.0926
 2704SOL    HW119574   4.282   3.450  11.321 -0.7015 -0.9399  0.9988
 2704SOL    HW219575   4.133   3.450  11.310 -0.2535 -1.9647  4.1081
 2705SOL     OW19576   4.139   2.926   9.608  0.0653  0.2899  0.0192
 2705SOL    HW119577   4.090   2.878   9.541 -1.3691 -0.8052  1.8542
 2705SOL    HW219578   4.214   2.963   9.561  0.5761  0.5427  1.0358
 2706SOL     OW19579   2.698   0.678   7.305  0.2847  0.4355 -0.3955
 2706SOL    HW119580   2.683   0.648   7.216  0.4905  1.4289 -0.7667
 2706SOL    HW219581   2.792   0.693   7.316 -0.0001  1.6101  0.5325
 2707SOL     OW19582   3.045   2.283   3.564 -0.3001  0.1511 -0.5083
 2707SOL    HW119583   3.083   2.221   3.626 -1.2155 -1.2500 -1.3461
 2707SOL    HW219584   3.122   2.319   3.521 -1.4867  2.8297 -0.3672
 2708SOL     OW19585   4.422   2.711   9.766 -0.0182 -0.7054  0.0442
 2708SOL    HW119586   4.385   2.634   9.722  0.3836  0.0111 -1.5646
 2708SOL    HW219587   4.407   2.679   9.855 -2.4747 -2.6888 -1.0629
 2709SOL     OW19588   4.688   4.530  13.890  0.0670  0.0190 -0.2860
 2709SOL    HW119589   4.690   4.603  13.952 -1.5357 -1.5388  1.5931
 2709SOL    HW219590   4.608   4.477  13.894  0.3085 -0.2930  0.4306
 2710SOL     OW19591   2.713   3.612   1.634 -0.7044  0.1172  0.0308
 2710SOL    HW119592   2.729   3.587   1.543 -0.7358 -0.6346  0.2297
 2710SOL    HW219593   2.622   3.583   1.635 -0.5455 -0.4176 -0.4131
 2711SOL     OW19594   3.337   1.655  12.763 -0.3317 -0.6226  0.0596
 2711SOL    HW119595   3.265   1.697  12.715 -0.5569 -0.8660  0.1830
 2711SOL    HW219596   3.287   1.612  12.832 -1.4810  1.1469  0.3295
 2712SOL     OW19597   4.410   3.591   2.811 -0.5316  0.4836  0.0040
 2712SOL    HW119598   4.329   3.542   2.826 -1.0428  0.7789 -1.8449
 2712SOL    HW219599   4.372   3.678   2.822 -0.2468  0.6802 -0.5713
 2713SOL     OW19600   2.429   1.721   3.440  0.0175  0.3214 -0.3879
 2713SOL    HW119601   2.503   1.672   3.404 -0.6815 -2.3947  1.9572
 2713SOL    HW219602   2.462   1.736   3.528 -0.2488  1.9225 -0.5617
 2714SOL     OW19603   0.773   2.454   7.858 -1.0472 -0.1267 -0.4974
 2714SOL    HW119604   0.867   2.448   7.876 -0.9086  1.5744 -0.6314
 2714SOL    HW219605   0.746   2.524   7.916  0.3180  1.7323 -2.1094
 2715SOL     OW19606   3.389   3.663  12.254  0.0251 -0.2725  0.0719
 2715SOL    HW119607   3.469   3.613  12.240  0.8841  1.3904 -0.9929
 2715SOL    HW219608   3.416   3.717  12.329  0.9802 -0.4991 -0.1127
 2716SOL     OW19609   4.380   3.928  13.912  0.0968  0.1321  0.0304
 2716SOL    HW119610   4.294   3.960  13.887  0.9765  1.3499 -1.4090
 2716SOL    HW219611   4.438   3.971  13.849  0.4110 -0.9565 -0.4190
 2717SOL     OW19612   3.917   2.167  13.597 -0.0456  0.6519  0.2609
 2717SOL    HW119613   3.933   2.232  13.528  0.0243 -1.6906 -1.9001
 2717SOL    HW219614   3.824   2.150  13.578 -0.0674 -0.5946  1.5589
 2718SOL     OW19615   4.612   3.033  13.688 -0.0834 -0.1807  0.4703
 2718SOL    HW119616   4.581   2.944  13.671  2.7643 -1.1273  0.3684
 2718SOL    HW219617   4.548   3.079  13.634 -0.4833  0.1050  1.1807
 2719SOL     OW19618   0.662   0.838   5.840  0.5396  0.0146 -0.3176
 2719SOL    HW119619   0.630   0.777   5.774  1.7657 -0.2804 -0.6572
 2719SOL    HW219620   0.620   0.804   5.919 -1.9316  0.3788 -1.4826
 2720SOL     OW19621   3.539   2.085  17.344 -0.4704 -0.1967  0.1989
 2720SOL    HW119622   3.484   2.063  17.419  1.4006  0.2184  1.6762
 2720SOL    HW219623   3.502   2.161  17.299 -0.5868 -0.2261  0.2443
 2721SOL     OW19624   0.627   2.467   8.657  0.2181 -0.1553 -0.2170
 2721SOL    HW119625   0.590   2.536   8.712  0.8751  0.1843 -0.1950
 2721SOL    HW219626   0.705   2.446   8.707  0.5558  0.0474 -0.6591
 2722SOL     OW19627   3.315   1.907  16.636 -0.2631  0.2559  0.4057
 2722SOL    HW119628   3.336   1.957  16.557  2.8572  0.6090  1.4658
 2722SOL    HW219629   3.383   1.918  16.702  0.4412  1.5366 -0.5250
 2723SOL     OW19630   2.176   0.800   4.299  0.5597  0.0832 -0.1712
 2723SOL    HW119631   2.194   0.706   4.297  0.9731  0.0502  4.3514
 2723SOL    HW219632   2.087   0.786   4.265  0.0775 -0.0884  1.1521
 2724SOL     OW19633   1.148   0.805   2.476  0.0478  0.3153 -0.2801
 2724SOL    HW119634   1.225   0.748   2.467  1.1068  1.3913  1.9142
 2724SOL    HW219635   1.189   0.877   2.523  0.6417  1.3456 -2.3633
 2725SOL     OW19636   3.846   2.635  12.604 -0.6427 -0.0104  0.0946
 2725SOL    HW119637   3.931   2.610  12.641 -0.2889 -0.2496 -0.8874
 2725SOL    HW219638   3.791   2.663  12.677 -2.7508 -0.4045 -1.3626
 2726SOL     OW19639   1.321   2.406   6.869 -0.2626 -0.2776  0.5781
 2726SOL    HW119640   1.292   2.484   6.915 -0.6753  0.0002 -0.1545
 2726SOL    HW219641   1.380   2.359   6.928  2.4010 -0.3027 -2.1098
 2727SOL     OW19642   1.373   1.096   7.080 -0.4025  0.5984  0.1647
 2727SOL    HW119643   1.318   1.160   7.126 -0.2158 -0.5091  1.8913
 2727SOL    HW219644   1.305   1.045   7.036  1.4976 -1.5145 -0.3118
 2728SOL     OW19645   1.402   2.961   3.134 -0.1638 -0.4135  0.3390
 2728SOL    HW119646   1.335   2.927   3.193 -1.3475 -0.5327 -1.0730
 2728SOL    HW219647   1.351   2.993   3.060 -1.1147 -1.7944  0.3823
 2729SOL     OW19648   4.647   1.523   3.833 -0.0298  0.3934  0.0050
 2729SOL    HW119649   4.676   1.471   3.759  2.4762  0.7517  0.7290
 2729SOL    HW219650   4.703   1.600   3.824 -2.7262  2.3530 -0.1066
 2730SOL     OW19651   3.482   4.037   4.345 -0.0044  0.0845  0.4041
 2730SOL    HW119652   3.476   3.965   4.282 -0.7819 -1.0154  1.7215
 2730SOL    HW219653   3.539   3.999   4.412  2.3507  0.8216 -1.1795
 2731SOL     OW19654   0.468   1.379   5.275  0.2761  0.1671  0.3492
 2731SOL    HW119655   0.530   1.383   5.348 -0.3598  2.0359  0.8064
 2731SOL    HW219656   0.448   1.286   5.279 -2.3264  0.7632  0.9879
 2732SOL     OW19657   1.505   0.740  17.686  0.1018 -0.6008  0.0398
 2732SOL    HW119658   1.498   0.645  17.676 -1.4214 -0.5752  0.8759
 2732SOL    HW219659   1.423   0.762  17.641 -0.1514 -2.7552 -0.5652
 2733SOL     OW19660   4.560   3.137   3.407 -0.0054 -0.4683 -0.2609
 2733SOL    HW119661   4.563   3.085   3.487 -2.5558 -0.1336  0.0689
 2733SOL    HW219662   4.591   3.076   3.339  1.8845 -1.6841  1.6996
 2734SOL     OW19663   3.439   1.641   4.180 -0.1502  0.1488 -0.1463
 2734SOL    HW119664   3.384   1.674   4.250  1.9256  2.4629  0.3743
 2734SOL    HW219665   3.423   1.546   4.182  0.0172  0.1681  1.3500
 2735SOL     OW19666   3.544   2.643   7.976 -0.2827 -0.1118  0.1758
 2735SOL    HW119667   3.572   2.687   7.895 -0.9062 -0.5656 -0.2854
 2735SOL    HW219668   3.566   2.707   8.044  0.0102  1.3599 -1.3057
 2736SOL     OW19669   1.471   1.877  13.078  0.2770  0.6767 -0.1587
 2736SOL    HW119670   1.518   1.840  13.002  2.7968  1.1800  1.1476
 2736SOL    HW219671   1.429   1.795  13.104  1.3442 -0.5961 -2.4448
 2737SOL     OW19672   2.565   3.563   9.063  0.5319  0.5554 -0.0304
 2737SOL    HW119673   2.589   3.656   9.057 -1.5358  1.1005  0.4176
 2737SOL    HW219674   2.617   3.544   9.141 -0.9178  2.9473  1.5047
 2738SOL     OW19675   0.715   3.138   8.559  0.0319 -0.1638 -0.0350
 2738SOL    HW119676   0.797   3.103   8.594 -0.0714  0.7442  1.0931
 2738SOL    HW219677   0.760   3.212   8.518  1.0433 -0.4716  0.5232
 2739SOL     OW19678   1.088   2.528  10.829  0.5343 -0.5642 -0.7076
 2739SOL    HW119679   1.058   2.465  10.894  1.0451 -1.0937 -0.9882
 2739SOL    HW219680   1.060   2.610  10.871  0.4859 -0.1587 -1.5369
 2740SOL     OW19681   3.460   1.823   3.106 -0.5026  0.2786  0.3887
 2740SOL    HW119682   3.502   1.838   3.021  0.9650  0.4889  1.1466
 2740SOL    HW219683   3.434   1.732   3.096  0.3323  0.0725  0.1136
 2741SOL     OW19684   1.904   1.841   3.679  0.0911 -0.1987  0.9615
 2741SOL    HW119685   1.943   1.811   3.761  1.5907 -0.7582  0.0388
 2741SOL    HW219686   1.938   1.776   3.619 -0.1638  1.0723 -0.5510
 2742SOL     OW19687   0.730   4.219   1.932  0.0552  0.3703 -1.3715
 2742SOL    HW119688   0.687   4.148   1.883 -0.2164 -0.1786 -0.3382
 2742SOL    HW219689   0.800   4.167   1.973 -0.9533 -2.3643 -3.0684
 2743SOL     OW19690   3.941   4.712  15.937  0.1253 -0.2002  0.4075
 2743SOL    HW119691   4.019   4.703  15.993  0.3175 -2.7181 -0.2922
 2743SOL    HW219692   3.969   4.689  15.849  1.1836  0.0446  0.6725
 2744SOL     OW19693   3.822   0.617   5.543 -0.5556  0.1350 -0.5612
 2744SOL    HW119694   3.879   0.555   5.497 -0.4591 -1.6822  1.9743
 2744SOL    HW219695   3.744   0.584   5.497 -1.8691  1.9025  0.3863
 2745SOL     OW19696   2.524   2.509   0.788 -0.3391 -0.1747  0.2174
 2745SOL    HW119697   2.472   2.530   0.866 -0.9102 -3.9502  0.8735
 2745SOL    HW219698   2.531   2.414   0.790  2.1907  0.0250  0.1833
 2746SOL     OW19699   3.326   3.377   8.181 -0.2724  0.3639 -0.1990
 2746SOL    HW119700   3.409   3.376   8.135 -0.1325 -0.6794  0.0847
 2746SOL    HW219701   3.316   3.469   8.204 -1.3665  0.8686 -2.6482
 2747SOL     OW19702   4.205   2.354   2.983  0.2775  0.1344 -0.4115
 2747SOL    HW119703   4.280   2.328   3.037 -1.3123 -0.9174  1.2839
 2747SOL    HW219704   4.148   2.346   3.059  1.9828 -2.5862  0.5993
 2748SOL     OW19705   0.155   0.639   6.378 -0.0630  0.0146  0.1612
 2748SOL    HW119706   0.068   0.653   6.415 -0.6722 -0.1524 -1.2024
 2748SOL    HW219707   0.186   0.570   6.437 -0.6914  0.8923  1.5107
 2749SOL     OW19708   0.514   2.879  14.035 -0.1247  0.2729 -0.0007
 2749SOL    HW119709   0.461   2.804  14.006  0.4677 -0.4393  0.7453
 2749SOL    HW219710   0.482   2.937  13.966  0.0384 -0.1223 -0.4186
 2750SOL     OW19711   4.522   1.251   9.008  0.4702  0.0665 -0.1070
 2750SOL    HW119712   4.484   1.170   8.972  1.5013  0.5941 -2.4261
 2750SOL    HW219713   4.607   1.262   8.965  0.9853 -1.8239  0.4408
 2751SOL     OW19714   3.138   3.142  10.778  0.6688  0.0701  0.1798
 2751SOL    HW119715   3.073   3.127  10.846 -0.5472  1.8986 -0.5701
 2751SOL    HW219716   3.210   3.188  10.821  0.7646  0.7915 -0.7462
 2752SOL     OW19717   3.969   1.039   3.320  0.0188 -0.5135  0.0814
 2752SOL    HW119718   4.009   1.012   3.237  0.1653 -2.4853  0.7991
 2752SOL    HW219719   4.053   1.055   3.363  0.2581  2.3517 -1.4978
 2753SOL     OW19720   3.180   0.846   8.871 -0.4343 -0.0825  0.2835
 2753SOL    HW119721   3.275   0.853   8.862 -0.2618 -2.8667 -0.1700
 2753SOL    HW219722   3.173   0.835   8.966  0.2589  1.5635  0.5252
 2754SOL     OW19723   4.197   1.923   2.183 -0.0524 -0.1382 -0.0941
 2754SOL    HW119724   4.117   1.870   2.177 -0.0040 -0.4316  1.7116
 2754SOL    HW219725   4.220   1.936   2.275  0.3473 -1.8967  0.0603
 2755SOL     OW19726   2.153   4.576  17.365 -0.2914 -0.4686  0.1038
 2755SOL    HW119727   2.090   4.568  17.293 -0.2262 -0.6951  0.0718
 2755SOL    HW219728   2.228   4.576  17.307  1.3877 -1.8603  2.2848
 2756SOL     OW19729   0.232   0.044   6.867  0.3343  0.0495  0.1155
 2756SOL    HW119730   0.170   0.067   6.797  0.0997  1.3207  0.7496
 2756SOL    HW219731   0.289   0.119   6.882  0.8020 -0.5292  1.2178
 2757SOL     OW19732   3.075   1.267   2.893  0.2920  0.9483  0.1085
 2757SOL    HW119733   3.124   1.294   2.815  1.2451  0.3417  0.4980
 2757SOL    HW219734   3.142   1.211   2.931  2.0361  1.8162 -1.7236
 2758SOL     OW19735   3.604   0.241   9.406  0.3472 -0.1066  0.1280
 2758SOL    HW119736   3.582   0.318   9.353  1.2532 -1.2155 -1.8609
 2758SOL    HW219737   3.613   0.284   9.490 -2.3482 -2.3534  1.5654
 2759SOL     OW19738   2.781   4.678   7.852 -0.0636 -0.2035 -0.1363
 2759SOL    HW119739   2.766   0.010   7.775 -0.0114  1.1211  0.7938
 2759SOL    HW219740   2.697   4.633   7.852 -0.0384 -0.2473  0.3080
 2760SOL     OW19741   0.401   4.478  11.944 -0.2601  0.3908  0.3277
 2760SOL    HW119742   0.389   4.433  11.861  2.6449  1.3915 -0.6414
 2760SOL    HW219743   0.462   4.544  11.908  0.5483  0.0641  1.0904
 2761SOL     OW19744   1.078   0.202   6.628 -0.4696 -0.1144  0.2927
 2761SOL    HW119745   0.994   0.248   6.630 -0.4260  0.1004 -2.7872
 2761SOL    HW219746   1.045   0.112   6.634 -1.6638  0.2372 -0.7061
 2762SOL     OW19747   0.361   3.216   1.794 -0.4596 -0.3981  0.3058
 2762SOL    HW119748   0.403   3.196   1.710  0.7356 -0.2225  0.8578
 2762SOL    HW219749   0.349   3.127   1.824  1.7715 -0.5360  0.8245
 2763SOL     OW19750   0.195   2.051  13.874  0.7932 -0.2556  0.4430
 2763SOL    HW119751   0.216   2.091  13.789  1.3346  0.0792  0.7360
 2763SOL    HW219752   0.185   1.960  13.844 -1.0510  0.9938 -2.7093
 2764SOL     OW19753   4.581   1.357   4.240  0.1501  0.7245 -0.2827
 2764SOL    HW119754   4.515   1.317   4.184  1.0441 -2.6025  1.0411
 2764SOL    HW219755   4.538   1.327   4.321 -0.7434  0.8860 -0.6930
 2765SOL     OW19756   2.106   3.397   7.552  0.5325 -0.3335  0.2086
 2765SOL    HW119757   2.095   3.302   7.545 -0.1168 -0.4187  2.1909
 2765SOL    HW219758   2.154   3.398   7.636 -3.2822  0.9634  2.3615
 2766SOL     OW19759   0.758   4.617   6.064  0.7392 -0.1252 -0.2110
 2766SOL    HW119760   0.800   4.532   6.056  2.2037  0.5068  0.6183
 2766SOL    HW219761   0.774   4.634   6.157 -2.0385 -1.4702  0.5041
 2767SOL     OW19762   0.005   1.400   1.424  0.1057  0.5737 -0.5297
 2767SOL    HW119763   0.063   1.409   1.499  0.3374  0.4471 -0.6952
 2767SOL    HW219764   4.686   1.319   1.454  1.0772 -0.1915 -1.2648
 2768SOL     OW19765   0.355   2.180   9.305  0.3048  0.6301 -0.2542
 2768SOL    HW119766   0.424   2.236   9.341  1.5160 -0.7232 -0.4765
 2768SOL    HW219767   0.285   2.245   9.309 -0.1510  0.1593 -0.4726
 2769SOL     OW19768   2.508   0.578   1.167  0.0666 -0.4888 -0.5779
 2769SOL    HW119769   2.585   0.629   1.193  1.1408 -3.2144  1.5432
 2769SOL    HW219770   2.436   0.640   1.179 -0.5436 -1.3133  0.0179
 2770SOL     OW19771   2.127   3.437   4.098 -0.2436  0.5113 -0.0043
 2770SOL    HW119772   2.109   3.451   4.005  0.0746 -0.8884 -0.2740
 2770SOL    HW219773   2.145   3.343   4.098  0.6387  0.6846  0.7244
 2771SOL     OW19774   2.946   3.850   6.421 -0.2793  0.3642  0.3437
 2771SOL    HW119775   3.030   3.893   6.404 -0.3370 -0.7908 -2.8630
 2771SOL    HW219776   2.977   3.760   6.407 -1.2107 -0.0744  1.1098
 2772SOL     OW19777   2.332   3.513   2.867  0.5569  0.0886 -0.2270
 2772SOL    HW119778   2.363   3.603   2.868 -2.6841  1.2197 -0.8002
 2772SOL    HW219779   2.255   3.514   2.810  0.5981 -0.2219 -0.2897
 2773SOL     OW19780   3.881   1.078  14.318 -0.1170 -0.5406 -0.1282
 2773SOL    HW119781   3.949   1.105  14.379  2.8667 -3.3007 -2.2743
 2773SOL    HW219782   3.933   1.061  14.239 -0.1680  2.1582 -0.7292
 2774SOL     OW19783   4.377   4.691   6.424 -0.5870 -0.4747 -0.6222
 2774SOL    HW119784   4.398   4.699   6.331  2.0487 -2.1292 -0.1858
 2774SOL    HW219785   4.418   0.046   6.461  3.1725 -1.9156 -1.7247
 2775SOL     OW19786   4.049   2.526   1.678  0.4432  0.0803  0.7435
 2775SOL    HW119787   4.119   2.533   1.743  0.6522 -1.5233  0.6848
 2775SOL    HW219788   4.053   2.606   1.626 -1.6605 -0.8198 -0.8227
 2776SOL     OW19789   3.200   1.000   5.667 -0.2194 -0.2393  0.5802
 2776SOL    HW119790   3.209   1.009   5.572 -1.1418 -0.3393  0.4777
 2776SOL    HW219791   3.145   0.921   5.672  0.3171 -0.4859  2.4718
 2777SOL     OW19792   3.675   0.721  14.496 -0.4615 -0.2096  0.7245
 2777SOL    HW119793   3.644   0.657  14.432  1.4173 -0.1976 -0.1994
 2777SOL    HW219794   3.733   0.668  14.551 -0.8153 -1.0975  0.2422
 2778SOL     OW19795   4.505   0.514   7.472  0.0304  0.8301  0.7398
 2778SOL    HW119796   4.583   0.471   7.435 -1.1127  0.1314 -0.8538
 2778SOL    HW219797   4.460   0.523   7.388  0.5428  0.8217  0.4590
 2779SOL     OW19798   3.167   1.318  17.047  0.5644 -0.5131 -0.2094
 2779SOL    HW119799   3.171   1.386  16.979  0.0337 -0.1632  0.1132
 2779SOL    HW219800   3.231   1.252  17.020  0.5864 -0.2434 -0.8232
 2780SOL     OW19801   1.520   3.260   8.349  0.0168  0.1733 -0.0160
 2780SOL    HW119802   1.491   3.349   8.330 -1.0199  0.6534  3.7399
 2780SOL    HW219803   1.505   3.256   8.443 -0.4883  1.2661 -0.0489
 2781SOL     OW19804   1.624   3.605  12.255  0.0701 -0.5623 -0.0791
 2781SOL    HW119805   1.585   3.530  12.213  1.3984 -1.4361  0.2305
 2781SOL    HW219806   1.631   3.576  12.346 -0.3581  0.7963  0.3821
 2782SOL     OW19807   2.599   3.003   4.458 -0.1388  0.3997 -0.6406
 2782SOL    HW119808   2.554   3.017   4.541  2.2981  0.3545  0.6507
 2782SOL    HW219809   2.648   3.085   4.453 -1.0190  1.0295  1.1482
 2783SOL     OW19810   3.612   2.660   5.503 -0.1076  0.2493  0.3524
 2783SOL    HW119811   3.685   2.712   5.471 -1.4543  1.4233 -0.8413
 2783SOL    HW219812   3.571   2.634   5.420  0.2095 -3.1734  1.2457
 2784SOL     OW19813   0.329   1.756   6.952  0.0472  0.4717 -0.3258
 2784SOL    HW119814   0.240   1.773   6.922  0.5038  1.6730 -1.0106
 2784SOL    HW219815   0.335   1.661   6.948 -0.0369  0.4206  0.7529
 2785SOL     OW19816   3.797   4.247   7.081 -0.2902 -0.1923  0.4322
 2785SOL    HW119817   3.737   4.256   7.155 -0.4973 -2.2418  0.5165
 2785SOL    HW219818   3.742   4.206   7.014 -0.4244 -0.5161  0.7387
 2786SOL     OW19819   3.377   1.349   5.563  0.6872  0.0788 -0.5496
 2786SOL    HW119820   3.450   1.367   5.503  1.5278  0.5840  0.6282
 2786SOL    HW219821   3.375   1.427   5.618 -2.2280  0.1931 -0.8484
 2787SOL     OW19822   1.908   4.624   4.820 -0.1609 -0.1623  0.0217
 2787SOL    HW119823   1.838   4.559   4.820  0.0036 -0.3370  0.5632
 2787SOL    HW219824   1.966   4.587   4.887 -0.7253 -1.1497 -0.0387
 2788SOL     OW19825   0.946   4.711   3.524  0.3155  0.7006  0.0655
 2788SOL    HW119826   0.881   4.714   3.454  1.3052 -3.2871 -1.0289
 2788SOL    HW219827   0.941   4.619   3.550  3.7044  0.9127  1.4220
 2789SOL     OW19828   1.570   2.329   1.635  0.7290 -0.1389 -0.4449
 2789SOL    HW119829   1.523   2.268   1.693  2.0606 -0.1617  0.6246
 2789SOL    HW219830   1.630   2.369   1.698 -0.1029 -0.0960  0.3265
 2790SOL     OW19831   2.003   3.994   9.853 -0.3018 -0.5969 -0.1831
 2790SOL    HW119832   1.921   4.006   9.804 -0.2807 -2.3370 -0.6449
 2790SOL    HW219833   2.017   4.078   9.896  0.2080 -0.4276 -0.6794
 2791SOL     OW19834   1.424   3.566   6.195 -0.3542  0.0893 -0.3721
 2791SOL    HW119835   1.506   3.605   6.222 -0.4018 -0.9725  1.3131
 2791SOL    HW219836   1.457   3.491   6.146  3.1441  2.7541 -2.0517
 2792SOL     OW19837   1.973   2.471   8.334  0.0923  0.5349  0.3280
 2792SOL    HW119838   1.974   2.406   8.404 -1.0909  0.4769  0.2921
 2792SOL    HW219839   1.976   2.551   8.387  0.0016  0.4009  0.5354
 2793SOL     OW19840   3.989   0.276   8.507  0.0983  0.3171 -0.6505
 2793SOL    HW119841   4.026   0.217   8.442 -0.3541  0.7452 -1.2983
 2793SOL    HW219842   4.066   0.320   8.542 -0.4692  1.0319 -0.2768
 2794SOL     OW19843   1.770   2.516   9.106 -0.6091 -0.1631 -0.4370
 2794SOL    HW119844   1.677   2.501   9.123 -0.8222 -0.0072 -1.4993
 2794SOL    HW219845   1.773   2.566   9.025  1.5694  0.9196  0.2984
 2795SOL     OW19846   1.100   4.543   5.968 -0.1074  0.0538 -0.2745
 2795SOL    HW119847   1.164   4.514   5.903 -0.7622 -1.5087 -0.2188
 2795SOL    HW219848   1.063   4.458   5.989  0.6703  0.0597  1.1452
 2796SOL     OW19849   1.062   2.541   2.102 -0.2174  0.1918  0.0406
 2796SOL    HW119850   1.100   2.609   2.157 -2.9643  1.5027  0.3486
 2796SOL    HW219851   1.039   2.480   2.172  2.2561  0.9197  1.5001
 2797SOL     OW19852   4.596   1.680  10.092  0.0216 -0.0749  0.3106
 2797SOL    HW119853   4.670   1.693  10.152 -0.5112 -0.2194  1.0042
 2797SOL    HW219854   4.528   1.659  10.156  0.0825 -1.9466 -0.2565
 2798SOL     OW19855   1.394   0.937   8.142 -0.5388 -0.1223  0.3962
 2798SOL    HW119856   1.299   0.941   8.145 -0.5786  0.2815 -1.4320
 2798SOL    HW219857   1.412   0.975   8.056  0.7675 -1.3907  0.1063
 2799SOL     OW19858   3.463   0.781   8.857  0.0231  0.0036 -0.3898
 2799SOL    HW119859   3.482   0.729   8.935 -0.5157  0.4730  0.0591
 2799SOL    HW219860   3.418   0.722   8.797 -2.2283 -0.9868  2.2859
 2800SOL     OW19861   4.489   2.765   6.597 -0.2653 -0.1687  0.2455
 2800SOL    HW119862   4.544   2.703   6.645  0.7761 -0.7856 -1.7387
 2800SOL    HW219863   4.464   2.822   6.669  2.0468  1.3956 -0.1750
 2801SOL     OW19864   3.039   2.809  11.666 -0.1356  0.5072  0.0009
 2801SOL    HW119865   3.119   2.850  11.699 -0.9702  1.7236  0.5008
 2801SOL    HW219866   3.062   2.717  11.652 -1.6841 -0.2661  2.4941
 2802SOL     OW19867   2.686   3.113   3.961 -0.2461 -0.3194 -0.1985
 2802SOL    HW119868   2.652   3.202   3.964 -0.3420 -0.3979  1.2468
 2802SOL    HW219869   2.613   3.062   3.995  0.6211 -1.0307  0.6275
 2803SOL     OW19870   1.423   3.425   7.912  0.2311 -0.1588 -0.4940
 2803SOL    HW119871   1.450   3.507   7.871 -2.1965 -0.4260 -2.6429
 2803SOL    HW219872   1.373   3.389   7.838  0.4182  0.9960 -1.1801
 2804SOL     OW19873   1.267   3.536   3.061  0.6275  0.4027  0.1449
 2804SOL    HW119874   1.272   3.632   3.063  0.7196  0.3547  1.9034
 2804SOL    HW219875   1.360   3.517   3.074  0.1270 -2.6844 -0.8757
 2805SOL     OW19876   2.122   2.531  14.730 -0.4628 -0.0894 -0.4111
 2805SOL    HW119877   2.111   2.539  14.825 -1.3443 -1.9224 -0.3535
 2805SOL    HW219878   2.126   2.435  14.729 -1.0007 -0.1298  0.6305
 2806SOL     OW19879   3.427   4.358   6.404  0.0327  0.5736  0.1530
 2806SOL    HW119880   3.342   4.324   6.434  0.1088 -2.0437 -2.5434
 2806SOL    HW219881   3.469   4.281   6.365 -0.7520  0.3802 -0.3212
 2807SOL     OW19882   1.630   1.381  10.382 -0.1425  0.1205  0.6359
 2807SOL    HW119883   1.713   1.415  10.417 -0.0619  1.6626 -1.0568
 2807SOL    HW219884   1.660   1.334  10.304  1.8538 -0.1819  1.5937
 2808SOL     OW19885   1.116   2.373  17.292  0.1028  0.3732  0.1250
 2808SOL    HW119886   1.111   2.386  17.386  0.1553  0.8625  0.0585
 2808SOL    HW219887   1.100   2.278  17.296  1.3025  0.2543  2.1540
 2809SOL     OW19888   4.497   0.707   4.413  0.0924  0.3359 -0.1915
 2809SOL    HW119889   4.434   0.665   4.354 -0.1934 -1.2439  1.2693
 2809SOL    HW219890   4.445   0.743   4.485  1.5434 -0.4626  1.2396
 2810SOL     OW19891   4.290   1.562   9.626 -0.7677  0.3346 -0.0592
 2810SOL    HW119892   4.347   1.630   9.662  1.0529 -1.1588 -0.1148
 2810SOL    HW219893   4.258   1.611   9.550  0.3204 -1.1805 -1.5041
 2811SOL     OW19894   0.257   2.874   8.264  0.1645 -0.4007 -0.0086
 2811SOL    HW119895   0.167   2.902   8.250  0.5815  2.7232  3.5039
 2811SOL    HW219896   0.250   2.811   8.335 -0.8639  1.2235  1.3357
 2812SOL     OW19897   2.066   1.685   5.597 -0.8697  0.0419 -0.7709
 2812SOL    HW119898   2.032   1.774   5.607  2.2448  0.9989  1.3212
 2812SOL    HW219899   1.991   1.636   5.632  1.6666 -3.6023 -0.4300
 2813SOL     OW19900   2.727   1.672   2.594  0.4411 -0.2216 -0.2951
 2813SOL    HW119901   2.742   1.752   2.646 -0.6736  0.8861 -1.6830
 2813SOL    HW219902   2.691   1.709   2.513 -3.0903 -2.2916  0.3473
 2814SOL     OW19903   2.150   3.360   1.012 -0.0534  1.0399  0.4058
 2814SOL    HW119904   2.062   3.348   1.048 -0.4636 -0.0335 -0.9572
 2814SOL    HW219905   2.187   3.272   1.018  0.5019  1.2395 -0.0431
 2815SOL     OW19906   2.038   3.524   4.365 -0.3132  0.0009  0.0025
 2815SOL    HW119907   2.006   3.442   4.402  0.5902  0.0061  0.7846
 2815SOL    HW219908   2.070   3.487   4.283 -1.5281 -2.9812  0.8960
 2816SOL     OW19909   1.305   0.963   4.530  0.6135 -0.3314  0.1257
 2816SOL    HW119910   1.344   1.049   4.547  1.9934 -1.4192  2.5933
 2816SOL    HW219911   1.354   0.917   4.599  1.9694  0.2782 -0.4246
 2817SOL     OW19912   2.295   2.209  16.177 -0.3218 -0.4591 -0.1876
 2817SOL    HW119913   2.269   2.152  16.250  0.1528  0.2299  0.5304
 2817SOL    HW219914   2.371   2.159  16.146 -1.8111 -1.0423 -2.8538
 2818SOL     OW19915   0.281   4.192  14.684  0.1151  0.3335 -0.0897
 2818SOL    HW119916   0.331   4.162  14.760 -0.7106 -0.0151  0.3149
 2818SOL    HW219917   0.351   4.234  14.634 -0.8602  3.0590  0.8773
 2819SOL     OW19918   4.114   1.251   1.573  0.1937 -0.0679 -0.0574
 2819SOL    HW119919   4.096   1.160   1.548 -0.2073 -0.0414  0.1310
 2819SOL    HW219920   4.057   1.295   1.510 -1.5826 -2.7263 -0.3109
 2820SOL     OW19921   1.623   1.117   6.423  0.0163  0.1638 -0.5276
 2820SOL    HW119922   1.701   1.168   6.399  1.9315 -1.0661  3.1834
 2820SOL    HW219923   1.583   1.169   6.493  0.6150  0.0256 -0.0810
 2821SOL     OW19924   2.225   1.245   8.724 -0.3165 -0.2862 -0.0797
 2821SOL    HW119925   2.235   1.315   8.789  0.6721 -1.9321  1.5425
 2821SOL    HW219926   2.258   1.175   8.780 -0.9557 -2.1818 -2.0407
 2822SOL     OW19927   4.474   1.608   4.998  0.0507 -0.3307  0.8976
 2822SOL    HW119928   4.470   1.699   5.027 -0.3940 -0.1120  0.1515
 2822SOL    HW219929   4.567   1.586   5.005  0.1281  0.2950  1.8933
 2823SOL     OW19930   0.663   2.545   2.413 -0.5767 -0.2268 -0.1166
 2823SOL    HW119931   0.617   2.498   2.344 -2.3331  1.6011 -0.1851
 2823SOL    HW219932   0.730   2.582   2.356 -1.0322 -0.9374 -1.1094
 2824SOL     OW19933   2.207   2.987   9.374 -0.4814  0.1498  0.0612
 2824SOL    HW119934   2.292   2.963   9.412 -0.0764 -0.3972 -1.1969
 2824SOL    HW219935   2.197   3.080   9.397 -1.1776  1.0009 -3.6659
 2825SOL     OW19936   1.469   3.781  16.707  0.0802  0.2871  0.7356
 2825SOL    HW119937   1.545   3.752  16.757 -1.1359 -0.6411  2.0270
 2825SOL    HW219938   1.411   3.706  16.719  0.9363 -0.4298  0.4388
 2826SOL     OW19939   2.811   2.863   3.409 -0.1363 -0.3819  0.4603
 2826SOL    HW119940   2.791   2.805   3.483 -0.3635  1.6099  1.9457
 2826SOL    HW219941   2.897   2.898   3.432 -0.2891  0.0120  0.4357
 2827SOL     OW19942   1.510   0.942   6.657 -0.2831 -0.0541  0.2117
 2827SOL    HW119943   1.588   0.887   6.654 -0.8225 -0.7792 -0.3199
 2827SOL    HW219944   1.505   0.990   6.574  0.2375 -0.9527 -0.3367
 2828SOL     OW19945   0.453   0.343   8.774  0.0464  0.1646 -0.0194
 2828SOL    HW119946   0.500   0.426   8.780 -0.9496  0.8655 -1.8329
 2828SOL    HW219947   0.379   0.367   8.718  0.7534  0.3080 -0.8891
 2829SOL     OW19948   1.045   2.309   9.750  0.0336 -0.6031  0.2653
 2829SOL    HW119949   1.118   2.371   9.748  1.9747 -2.8483  1.2404
 2829SOL    HW219950   1.082   2.234   9.702  0.8030  0.2269 -0.4491
 2830SOL     OW19951   2.105   2.213   5.818 -0.3514  0.1134 -0.0730
 2830SOL    HW119952   2.192   2.185   5.791  0.6570  4.1386 -0.9655
 2830SOL    HW219953   2.085   2.161   5.895  1.7484 -0.2512  0.2224
 2831SOL     OW19954   3.070   1.596   4.001 -0.2692  0.0354  0.8199
 2831SOL    HW119955   3.134   1.667   4.003  1.8802 -1.9618  1.2347
 2831SOL    HW219956   3.127   1.530   3.964 -1.7503 -2.1542  2.4728
 2832SOL     OW19957   0.918   4.193  14.754 -0.0965 -0.2425 -0.4687
 2832SOL    HW119958   0.885   4.111  14.717 -1.3124 -0.5577  1.3149
 2832SOL    HW219959   0.956   4.164  14.836  0.7131 -1.8279 -1.4086
 2833SOL     OW19960   3.429   2.889   5.561  0.1380 -0.5717  0.0950
 2833SOL    HW119961   3.405   2.903   5.469 -0.9340 -1.1581  0.2826
 2833SOL    HW219962   3.426   2.795   5.578 -2.2484 -1.0598 -3.0641
 2834SOL     OW19963   4.311   0.357   6.386 -0.1863 -0.0089 -0.0079
 2834SOL    HW119964   4.220   0.376   6.364 -0.0934 -4.7963 -4.3851
 2834SOL    HW219965   4.347   0.433   6.339 -1.7765  1.0192  0.4484
 2835SOL     OW19966   1.074   2.611   4.039 -0.3087  0.2040  0.1577
 2835SOL    HW119967   1.012   2.591   3.968  1.5976  0.1550 -1.5184
 2835SOL    HW219968   1.096   2.704   4.027  0.2223  0.3086  1.9667
 2836SOL     OW19969   3.745   2.810   1.841  0.5398 -0.7623 -0.1420
 2836SOL    HW119970   3.674   2.854   1.887  1.1912  2.2182 -1.9508
 2836SOL    HW219971   3.716   2.810   1.750 -2.4756 -2.1834  0.8369
 2837SOL     OW19972   4.286   1.689   8.131 -0.4366  0.2752  0.3932
 2837SOL    HW119973   4.351   1.730   8.074  0.0693  1.0106  1.4916
 2837SOL    HW219974   4.256   1.608   8.090  1.3418 -0.9579  1.5419
 2838SOL     OW19975   2.097   0.576   3.861  0.0909 -0.4412 -0.4199
 2838SOL    HW119976   2.143   0.493   3.862 -0.5047 -0.7717 -0.7529
 2838SOL    HW219977   2.112   0.611   3.774 -0.6811 -0.3948 -0.5356
 2839SOL     OW19978   4.030   0.987   7.040 -0.1914  0.4321 -0.0178
 2839SOL    HW119979   3.952   0.952   7.084  0.8272  0.2310  1.6351
 2839SOL    HW219980   4.097   0.929   7.074 -0.3909 -1.3204 -2.6398
 2840SOL     OW19981   4.577   2.371   3.895 -0.7076  0.5202  0.3652
 2840SOL    HW119982   4.523   2.305   3.852 -1.2037 -0.0741  1.8832
 2840SOL    HW219983   4.634   2.397   3.823 -0.3112 -1.0274  0.1306
 2841SOL     OW19984   2.622   0.798   5.757  0.2277  0.4399  0.1107
 2841SOL    HW119985   2.540   0.767   5.795  0.5735  1.9808  2.1196
 2841SOL    HW219986   2.642   0.732   5.691  0.3868  0.1854  0.4148
 2842SOL     OW19987   0.726   4.038   6.182  0.1679  0.7203 -0.2458
 2842SOL    HW119988   0.811   3.995   6.174 -0.2171  0.0534 -0.7187
 2842SOL    HW219989   0.753   4.109   6.241 -0.4152  1.0503 -0.3828
 2843SOL     OW19990   0.215   4.092   0.703  0.5043  0.3922 -0.3350
 2843SOL    HW119991   0.165   4.048   0.772  0.0567 -0.2080 -1.0320
 2843SOL    HW219992   0.301   4.081   0.742 -0.3171 -2.1073  0.7850
 2844SOL     OW19993   2.302   3.032   5.945 -0.0434  0.1445 -0.2768
 2844SOL    HW119994   2.236   2.984   5.894 -0.6384  2.0945 -1.3520
 2844SOL    HW219995   2.242   3.062   6.014  0.1849  1.1220 -0.5035
 2845SOL     OW19996   1.537   0.556   3.849  0.6833  0.0644 -0.1393
 2845SOL    HW119997   1.603   0.601   3.796 -0.0131 -1.9950 -2.7770
 2845SOL    HW219998   1.551   0.588   3.938  2.2983 -2.0185  0.3398
 2846SOL     OW19999   1.011   0.479   4.073 -0.0760  0.6373 -1.0743
 2846SOL    HW120000   0.921   0.456   4.097  0.9407 -1.2139  0.9382
 2846SOL    HW220001   1.004   0.489   3.978 -1.2639 -1.2948 -1.1994
 2847SOL     OW20002   3.732   3.391   5.252 -0.1798  0.1005 -0.2743
 2847SOL    HW120003   3.673   3.337   5.305  0.5137 -1.3226 -0.9686
 2847SOL    HW220004   3.690   3.470   5.218 -2.5313 -1.0678 -0.0759
 2848SOL     OW20005   0.555   4.239   1.601  0.6063  0.4539 -0.2072
 2848SOL    HW120006   0.511   4.279   1.676 -0.6692 -0.8609 -0.2503
 2848SOL    HW220007   0.638   4.287   1.599  0.9099 -0.0266  0.9658
 2849SOL     OW20008   4.220   3.135   1.883  0.1951 -0.1885  0.3982
 2849SOL    HW120009   4.167   3.203   1.925 -1.3652 -0.9893 -0.2647
 2849SOL    HW220010   4.194   3.151   1.792  0.2378 -4.9084 -0.4680
 2850SOL     OW20011   2.445   3.226   7.097  0.1233 -0.0291  0.4615
 2850SOL    HW120012   2.537   3.224   7.071  0.1919  4.1021  0.4318
 2850SOL    HW220013   2.453   3.214   7.192 -1.6295 -0.3107  0.5791
 2851SOL     OW20014   3.735   3.883  13.141 -0.0971 -0.4437  0.3339
 2851SOL    HW120015   3.769   3.972  13.133 -0.3529 -0.3447  0.3415
 2851SOL    HW220016   3.816   3.835  13.159  2.4682  2.5729 -2.8912
 2852SOL     OW20017   2.803   2.116   0.204  0.3194  0.5188  0.2363
 2852SOL    HW120018   2.897   2.114   0.222  0.5195 -2.4913 -1.2197
 2852SOL    HW220019   2.800   2.030   0.164  1.9247  0.1449  0.9057
 2853SOL     OW20020   3.249   1.690  15.987 -0.2067 -0.1624 -0.4082
 2853SOL    HW120021   3.155   1.672  15.977 -0.1968  0.1150 -0.9777
 2853SOL    HW220022   3.272   1.698  15.895  1.4491  0.1870  0.0389
 2854SOL     OW20023   0.466   1.760   8.451 -0.2310  0.2314 -0.3967
 2854SOL    HW120024   0.558   1.735   8.440 -0.6962 -1.5140 -0.3319
 2854SOL    HW220025   0.419   1.678   8.440 -0.5276  0.5536 -1.5196
 2855SOL     OW20026   3.094   1.359  16.568 -0.2263 -0.0458  0.5398
 2855SOL    HW120027   3.033   1.430  16.552 -1.6871 -1.4584 -0.1220
 2855SOL    HW220028   3.093   1.324  16.479  1.0122  3.7741 -0.9498
 2856SOL     OW20029   0.252   4.413   5.589 -0.0128 -0.5372  0.2198
 2856SOL    HW120030   0.335   4.425   5.635 -0.6830 -0.0870  1.3035
 2856SOL    HW220031   0.275   4.367   5.508  0.7963 -0.0320  0.1668
 2857SOL     OW20032   2.780   2.710   0.748 -0.1531  0.5683 -0.2556
 2857SOL    HW120033   2.805   2.802   0.758 -0.1241  0.2247  2.8138
 2857SOL    HW220034   2.727   2.711   0.669  0.7802 -0.9199 -0.8963
 2858SOL     OW20035   1.034   3.658   4.286  0.1690  0.2971 -0.7491
 2858SOL    HW120036   1.028   3.722   4.357 -0.7707 -0.8691  0.1998
 2858SOL    HW220037   1.128   3.643   4.285  0.3789  1.5526  1.0548
 2859SOL     OW20038   2.638   1.692   4.248  0.1232  0.3363  0.2585
 2859SOL    HW120039   2.675   1.676   4.161 -1.0476  1.5397 -0.4592
 2859SOL    HW220040   2.707   1.745   4.287 -0.8652  0.6221  1.5920
 2860SOL     OW20041   2.232   4.575   6.960  0.8624 -0.0389  0.2243
 2860SOL    HW120042   2.245   4.614   7.047 -0.6796  1.1667 -0.0871
 2860SOL    HW220043   2.137   4.570   6.950  0.9658  3.7146 -2.7980
 2861SOL     OW20044   3.685   3.812  12.880 -0.1318  0.0154  0.8704
 2861SOL    HW120045   3.607   3.867  12.870 -0.1772  0.1145  1.7678
 2861SOL    HW220046   3.691   3.821  12.975  1.0241  0.6268  0.7301
 2862SOL     OW20047   3.657   4.108   6.895 -0.0008  0.2796  0.3665
 2862SOL    HW120048   3.568   4.107   6.858 -0.3466  2.1192  1.1308
 2862SOL    HW220049   3.711   4.094   6.818 -1.1888 -2.0605 -0.0485
 2863SOL     OW20050   1.506   4.150   5.421 -0.3948  0.7568  0.1208
 2863SOL    HW120051   1.437   4.114   5.365  0.3810 -0.5251 -0.0131
 2863SOL    HW220052   1.498   4.240   5.389  1.2985 -0.0992 -2.7255
 2864SOL     OW20053   1.855   3.881   9.081 -0.8777  0.0106 -0.5896
 2864SOL    HW120054   1.927   3.827   9.047 -0.2735  0.7812 -0.5203
 2864SOL    HW220055   1.795   3.811   9.109  0.6781 -1.9610 -2.2106
 2865SOL     OW20056   0.834   0.699   6.238 -0.1623  0.3225  0.2097
 2865SOL    HW120057   0.824   0.615   6.284 -0.5356  1.6106  2.4542
 2865SOL    HW220058   0.772   0.752   6.288  1.0544  1.5691  0.3638
 2866SOL     OW20059   3.183   3.032  10.090 -0.0063  0.1606  0.2956
 2866SOL    HW120060   3.277   3.032  10.108 -0.0091 -2.1650  0.2502
 2866SOL    HW220061   3.149   3.051  10.178  3.6722  1.0387  1.5331
 2867SOL     OW20062   1.207   3.312   7.404 -0.0113 -0.6643  0.5130
 2867SOL    HW120063   1.169   3.376   7.343 -1.1019 -2.4722 -0.7229
 2867SOL    HW220064   1.288   3.285   7.361  0.2917 -1.7622  1.7826
 2868SOL     OW20065   4.177   3.266   3.463 -0.2572  0.4932 -0.2290
 2868SOL    HW120066   4.191   3.179   3.500 -0.2497  1.0582  1.0994
 2868SOL    HW220067   4.121   3.303   3.531 -0.2338  1.5635 -0.7840
 2869SOL     OW20068   1.322   1.546   9.229 -0.0593  0.4265  0.2440
 2869SOL    HW120069   1.226   1.540   9.231  0.0214  0.3639  3.2127
 2869SOL    HW220070   1.345   1.562   9.320  0.1897 -0.5249  0.3525
 2870SOL     OW20071   2.346   4.188   4.445 -0.1617 -0.6333 -0.7955
 2870SOL    HW120072   2.433   4.178   4.484 -0.7561 -0.9230  0.4605
 2870SOL    HW220073   2.367   4.219   4.357 -0.3648  0.5370 -0.4401
 2871SOL     OW20074   0.016   2.094  13.147  0.1684  0.0678 -1.0220
 2871SOL    HW120075   0.096   2.066  13.102  0.2169 -2.3602  0.6006
 2871SOL    HW220076   4.717   2.015  13.196 -1.5468  0.0250 -1.8722
 2872SOL     OW20077   2.406   1.829   7.561 -0.4893  0.4086 -0.1566
 2872SOL    HW120078   2.318   1.792   7.566 -0.9416  1.5871  0.5171
 2872SOL    HW220079   2.384   1.919   7.582  0.2675  0.0347  2.2318
 2873SOL     OW20080   4.112   1.971   7.327  0.4712 -0.0106 -0.0549
 2873SOL    HW120081   4.197   1.956   7.285  0.5983  3.1984 -0.9086
 2873SOL    HW220082   4.090   1.877   7.322  1.0655 -0.1600  0.1776
 2874SOL     OW20083   2.532   0.216   0.555 -0.1327  0.0523 -0.4787
 2874SOL    HW120084   2.556   0.252   0.470  0.8856  3.3660  1.2280
 2874SOL    HW220085   2.454   0.163   0.538  0.2082  0.1430 -2.3022
 2875SOL     OW20086   4.649   1.625   3.254  0.2206 -0.6435 -0.6553
 2875SOL    HW120087   4.616   1.639   3.165 -0.4891 -1.9436 -0.5979
 2875SOL    HW220088   4.707   1.549   3.250 -0.0603 -1.0140  2.7641
 2876SOL     OW20089   2.025   2.380  17.687  0.0704  0.0028  0.0367
 2876SOL    HW120090   2.040   2.363   0.086  1.6700  0.4746 -0.1476
 2876SOL    HW220091   2.039   2.474  17.682 -2.1718  0.4547  2.4962
 2877SOL     OW20092   2.150   0.136   5.997 -0.4388 -0.4992  0.3274
 2877SOL    HW120093   2.066   0.167   6.032  0.0762  1.2351 -0.0285
 2877SOL    HW220094   2.139   0.042   6.015  0.7557 -0.5679  0.6851
 2878SOL     OW20095   2.406   4.342  16.350 -0.0075 -0.4674 -0.7969
 2878SOL    HW120096   2.327   4.357  16.298 -0.0864  1.5411 -0.0917
 2878SOL    HW220097   2.451   4.423  16.327 -0.4067 -0.6569 -2.2421
 2879SOL     OW20098   0.603   2.154   1.134 -0.3065  0.1294 -0.1274
 2879SOL    HW120099   0.571   2.091   1.070 -1.2266  2.3137 -1.7956
 2879SOL    HW220100   0.609   2.227   1.072 -0.7361  0.6784  0.4723
 2880SOL     OW20101   4.457   4.147   6.897 -0.3467 -0.1429  0.1414
 2880SOL    HW120102   4.478   4.106   6.813  0.9592 -0.8052  0.7926
 2880SOL    HW220103   4.516   4.222   6.906  0.0441 -0.2497 -1.5601
 2881SOL     OW20104   3.024   2.844   0.152 -0.3201 -0.4808 -0.0712
 2881SOL    HW120105   3.071   2.796   0.220  1.1492  0.6578 -0.2846
 2881SOL    HW220106   3.101   2.871   0.102  0.4981 -1.3356  0.7217
 2882SOL     OW20107   4.168   1.390   6.278  0.2321  0.5228  0.0828
 2882SOL    HW120108   4.107   1.405   6.350  0.1741 -1.4899  0.4408
 2882SOL    HW220109   4.244   1.354   6.325  1.2390  1.0732 -1.1306
 2883SOL     OW20110   4.529   3.952   8.130  0.5028 -0.4386  0.2587
 2883SOL    HW120111   4.475   3.935   8.208  0.1305 -1.4056 -0.2051
 2883SOL    HW220112   4.616   3.935   8.167  0.4439 -1.5052 -0.0916
 2884SOL     OW20113   1.137   4.636  15.439  0.4982 -0.1258  0.3628
 2884SOL    HW120114   1.110   4.722  15.407  2.1598 -0.1522 -1.0811
 2884SOL    HW220115   1.197   4.618  15.367 -0.1769 -3.3015  0.5738
 2885SOL     OW20116   3.481   3.830  10.566  0.8454  0.1848  0.3174
 2885SOL    HW120117   3.527   3.788  10.493  1.7035 -0.3470  1.1578
 2885SOL    HW220118   3.550   3.870  10.620  2.7477 -1.1367 -1.1380
 2886SOL     OW20119   3.612   2.612   2.625 -0.0107  0.2550 -0.1271
 2886SOL    HW120120   3.569   2.580   2.545  0.3110  1.0073 -0.5914
 2886SOL    HW220121   3.550   2.676   2.661 -1.6251 -0.0653 -2.3026
 2887SOL     OW20122   2.278   3.685   9.246  0.1240 -0.4754  0.4597
 2887SOL    HW120123   2.253   3.707   9.156  1.8654  0.3028  0.1730
 2887SOL    HW220124   2.200   3.704   9.298 -0.2485  0.1821 -0.3486
 2888SOL     OW20125   4.000   3.768   0.634 -0.0400 -0.0917 -0.2395
 2888SOL    HW120126   3.998   3.679   0.670 -0.6582 -1.0484 -2.6404
 2888SOL    HW220127   4.087   3.794   0.663  0.4107  1.2263 -2.7415
 2889SOL     OW20128   3.804   0.103   5.395 -0.1854  0.5384 -0.3425
 2889SOL    HW120129   3.717   0.101   5.355  1.2780  1.9804 -3.5688
 2889SOL    HW220130   3.781   0.128   5.484  1.4613 -1.9294  0.7975
 2890SOL     OW20131   1.580   2.827   6.151  0.1490  0.1206 -0.5816
 2890SOL    HW120132   1.636   2.772   6.206 -0.0717 -0.2358 -0.7138
 2890SOL    HW220133   1.547   2.759   6.092  2.3272  2.1633 -4.0982
 2891SOL     OW20134   1.090   3.681   7.375  0.2105 -0.0788 -0.0529
 2891SOL    HW120135   1.073   3.775   7.365 -2.9729 -0.4577  1.9106
 2891SOL    HW220136   1.098   3.673   7.470 -3.6000 -1.2951  0.1612
 2892SOL     OW20137   0.959   3.031   8.634 -0.2046  0.0247  0.2555
 2892SOL    HW120138   0.934   2.943   8.605 -1.0328  0.1517  0.6074
 2892SOL    HW220139   1.010   2.996   8.707  1.7347  1.9032 -0.1723
 2893SOL     OW20140   0.321   4.407  15.031 -0.5169  0.0567 -0.4284
 2893SOL    HW120141   0.241   4.391  15.082 -0.3161  1.3071  0.2914
 2893SOL    HW220142   0.290   4.449  14.950 -2.3704  0.1165  0.2952
 2894SOL     OW20143   4.063   1.598   7.887 -0.0712  0.1308 -0.2377
 2894SOL    HW120144   4.056   1.553   7.802  0.3421  0.5652 -0.4964
 2894SOL    HW220145   4.102   1.527   7.937  3.4823  0.3558 -2.6515
 2895SOL     OW20146   2.000   3.730   5.534  0.4941  0.5894 -0.5355
 2895SOL    HW120147   1.977   3.812   5.579  0.8413 -1.1414  2.8030
 2895SOL    HW220148   2.074   3.758   5.480  1.2686 -0.7341 -0.1475
 2896SOL     OW20149   1.834   2.263   7.504 -0.4406 -0.3143  0.2160
 2896SOL    HW120150   1.744   2.264   7.536 -0.2889  3.3804  0.4780
 2896SOL    HW220151   1.869   2.348   7.531  0.0061 -0.0282 -1.2541
 2897SOL     OW20152   0.929   2.548   8.590  0.8371 -0.1641  0.5571
 2897SOL    HW120153   0.938   2.496   8.510 -0.1340  1.9557 -0.9394
 2897SOL    HW220154   1.019   2.552   8.623 -0.1530  2.3207  2.9220
 2898SOL     OW20155   4.643   0.537   9.324 -0.1328 -0.4927  0.0722
 2898SOL    HW120156   4.682   0.560   9.239 -1.9121 -1.8906 -1.1109
 2898SOL    HW220157   4.566   0.593   9.316  0.5873  0.5908  0.6674
 2899SOL     OW20158   0.428   0.348  16.545  0.0905 -0.0594  0.3373
 2899SOL    HW120159   0.385   0.383  16.467  0.7307 -1.3997 -0.6196
 2899SOL    HW220160   0.509   0.316  16.505  0.7611  1.6465  0.3529
 2900SOL     OW20161   0.457   0.726   8.003 -0.5035 -0.1060 -0.2464
 2900SOL    HW120162   0.386   0.770   8.050 -1.0657 -0.1113 -1.1053
 2900SOL    HW220163   0.451   0.765   7.916 -1.7552 -2.6581 -1.3163
 2901SOL     OW20164   0.699   1.238  10.926 -0.3733  0.1787 -0.3664
 2901SOL    HW120165   0.768   1.175  10.948 -0.4382  0.6087  1.0749
 2901SOL    HW220166   0.646   1.182  10.868 -0.7263  0.3059 -0.1680
 2902SOL     OW20167   0.339   0.532  10.500  0.4814  0.0628  0.2374
 2902SOL    HW120168   0.275   0.465  10.526  2.4507 -1.7056  0.5084
 2902SOL    HW220169   0.409   0.522  10.564  0.5881 -0.3053  0.0619
 2903SOL     OW20170   0.128   1.131   7.173  0.0117  0.3076 -0.3715
 2903SOL    HW120171   0.129   1.035   7.179 -0.1507  0.3533  0.4172
 2903SOL    HW220172   0.222   1.144   7.181  0.1129 -1.5308  1.4448
 2904SOL     OW20173   1.812   1.509   6.666  0.4026  0.3338 -0.5243
 2904SOL    HW120174   1.867   1.431   6.666 -0.1452 -0.0467  0.4458
 2904SOL    HW220175   1.731   1.467   6.693  1.2835 -2.0109 -1.5478
 2905SOL     OW20176   2.126   1.297   4.723  0.1579 -0.4040 -0.1858
 2905SOL    HW120177   2.112   1.212   4.765 -1.7934  0.5271  1.0641
 2905SOL    HW220178   2.221   1.294   4.711  0.0440  0.3039 -1.3302
 2906SOL     OW20179   2.841   3.038   3.755  0.0709 -0.5649  0.0308
 2906SOL    HW120180   2.811   3.097   3.824  1.4392 -0.1104  0.2331
 2906SOL    HW220181   2.870   3.102   3.689  1.8615 -2.1503 -0.7115
 2907SOL     OW20182   0.193   3.581   2.846  0.6061  0.8078  0.5554
 2907SOL    HW120183   0.234   3.626   2.772 -0.1959 -0.1214 -0.4335
 2907SOL    HW220184   0.104   3.606   2.821  1.2589 -0.7322 -3.3394
 2908SOL     OW20185   0.909   1.081   8.222 -0.7134  0.3031  0.4432
 2908SOL    HW120186   0.958   1.148   8.269  1.0927 -0.9566  0.3482
 2908SOL    HW220187   0.856   1.041   8.292 -2.1592  3.3380  1.0605
 2909SOL     OW20188   3.386   3.345   2.731 -0.1497  0.6018 -0.2657
 2909SOL    HW120189   3.292   3.324   2.733 -0.1242  0.8851  3.1269
 2909SOL    HW220190   3.408   3.355   2.638 -0.7779  2.0815 -0.2543
 2910SOL     OW20191   3.125   3.986  10.721 -0.0325 -0.1404  0.0572
 2910SOL    HW120192   3.132   3.956  10.630 -2.1317  1.2725 -0.5708
 2910SOL    HW220193   3.190   4.056  10.732  0.1054 -0.4384  1.1484
 2911SOL     OW20194   3.441   0.770   4.621  0.0718 -0.3056  0.0791
 2911SOL    HW120195   3.422   0.750   4.713 -4.1575 -0.0351 -0.7215
 2911SOL    HW220196   3.470   0.685   4.588  1.6758 -0.3447  1.6054
 2912SOL     OW20197   1.653   0.966   6.130  0.1956 -0.3775  0.5988
 2912SOL    HW120198   1.654   0.922   6.215  1.0819 -1.9947 -0.2491
 2912SOL    HW220199   1.689   0.901   6.071 -1.3222  0.8813 -1.6988
 2913SOL     OW20200   3.270   2.309   7.892  0.9472 -0.2491 -0.3903
 2913SOL    HW120201   3.227   2.316   7.977 -1.4078  0.1101 -1.6135
 2913SOL    HW220202   3.226   2.228   7.867  1.4725  0.0943 -2.4778
 2914SOL     OW20203   3.787   4.350   7.807 -0.0956 -0.1167 -0.1999
 2914SOL    HW120204   3.788   4.426   7.866  2.8711 -1.6024  1.6071
 2914SOL    HW220205   3.790   4.406   7.729  1.5202  1.5783  1.0833
 2915SOL     OW20206   3.235   2.296   3.342 -0.2115  0.2660 -0.3342
 2915SOL    HW120207   3.304   2.361   3.347 -0.3971  0.3109  1.6256
 2915SOL    HW220208   3.291   2.226   3.307  0.0297 -0.0979  0.7945
 2916SOL     OW20209   0.419   0.025  17.576  0.2378 -0.0402 -0.1143
 2916SOL    HW120210   0.340   4.693  17.571  0.1084  0.0164  1.1116
 2916SOL    HW220211   0.419   0.057  17.486 -1.0040  0.0312 -0.0900
 2917SOL     OW20212   0.057   1.885   8.319 -0.0309  0.3744 -0.3007
 2917SOL    HW120213   4.712   1.931   8.270  0.6561  0.0931 -1.5042
 2917SOL    HW220214   0.106   1.963   8.346  2.2890 -0.0496 -3.2868
 2918SOL     OW20215   0.881   4.306   1.011 -0.2094  0.2471  0.1402
 2918SOL    HW120216   0.898   4.272   0.923  2.5235  0.2308  0.6505
 2918SOL    HW220217   0.872   4.399   0.989  1.7867  0.7613  1.5248
 2919SOL     OW20218   1.240   1.967   0.679 -0.0983 -0.1574  0.3549
 2919SOL    HW120219   1.297   1.941   0.607 -1.8596 -0.7632 -0.8199
 2919SOL    HW220220   1.280   1.921   0.753 -1.0178 -1.9681 -0.2571
 2920SOL     OW20221   3.610   4.508   2.128  0.1128 -0.0595  0.2108
 2920SOL    HW120222   3.705   4.514   2.138  0.2990 -2.9521  0.1956
 2920SOL    HW220223   3.601   4.413   2.128  0.8991 -0.1329 -0.2415
 2921SOL     OW20224   0.194   1.356   6.787  0.0378 -0.0098 -0.3656
 2921SOL    HW120225   0.118   1.354   6.730 -0.6117 -1.5922  0.5492
 2921SOL    HW220226   0.240   1.278   6.759  0.8779 -0.2605  1.7127
 2922SOL     OW20227   2.335   1.587   8.632  0.5289 -0.0053  0.4984
 2922SOL    HW120228   2.241   1.584   8.646  0.8336 -1.6986  2.1048
 2922SOL    HW220229   2.360   1.614   8.721 -0.4458  1.4994  0.3158
 2923SOL     OW20230   3.069   2.296   2.387 -0.4539  0.0979 -0.4788
 2923SOL    HW120231   3.108   2.209   2.377  0.2324  0.0427  2.8850
 2923SOL    HW220232   2.974   2.282   2.388 -0.5673  0.7775 -1.3283
 2924SOL     OW20233   3.332   3.889   5.467 -0.4088  0.0085  0.2852
 2924SOL    HW120234   3.282   3.829   5.523 -0.2529 -1.1389 -0.8066
 2924SOL    HW220235   3.315   3.862   5.377  0.0733  2.5981 -0.5671
 2925SOL     OW20236   4.631   2.174   5.879  0.3216 -0.5484  0.2610
 2925SOL    HW120237   4.653   2.185   5.787  2.6924 -0.4794  0.8439
 2925SOL    HW220238   4.545   2.218   5.878 -0.0375 -1.3337 -1.5620
 2926SOL     OW20239   3.746   2.921   7.333  0.0213  0.3189 -0.1992
 2926SOL    HW120240   3.725   3.014   7.346 -0.2060  0.1357  0.7236
 2926SOL    HW220241   3.841   2.926   7.344 -0.0245  1.4075 -0.3005
 2927SOL     OW20242   0.662   4.696   4.276 -0.4680  0.6980  0.3291
 2927SOL    HW120243   0.613   4.648   4.343  2.2503  0.9352  2.4970
 2927SOL    HW220244   0.592   4.699   4.211  0.0581  1.4612 -0.1987
 2928SOL     OW20245   1.019   2.527   4.283  0.4290  0.1187  0.1966
 2928SOL    HW120246   1.022   2.574   4.200  0.5685 -0.2659 -0.0098
 2928SOL    HW220247   1.099   2.477   4.272 -1.6421 -2.6322 -2.3605
 2929SOL     OW20248   2.607   2.811   6.057 -0.3200  0.4629 -0.4343
 2929SOL    HW120249   2.522   2.774   6.033 -0.3609 -1.2144  2.2823
 2929SOL    HW220250   2.671   2.786   5.991  0.5047 -1.3987  1.0653
 2930SOL     OW20251   0.519   1.059   8.200 -0.3281  0.2111 -0.0826
 2930SOL    HW120252   0.541   1.085   8.111  2.2244  1.1430  0.8163
 2930SOL    HW220253   0.596   1.064   8.256 -1.8538  0.2420  2.0308
 2931SOL     OW20254   4.595   1.581  15.668  0.0745 -0.2245 -0.2501
 2931SOL    HW120255   4.556   1.555  15.752 -0.3388  0.3422 -0.2710
 2931SOL    HW220256   4.540   1.535  15.604 -1.0857 -1.3804  1.5791
 2932SOL     OW20257   4.332   4.167  11.213 -0.4160 -0.3244  0.6158
 2932SOL    HW120258   4.282   4.140  11.291 -0.2856 -0.3547  0.6887
 2932SOL    HW220259   4.258   4.202  11.163  1.5285  1.3738 -1.0895
 2933SOL     OW20260   3.889   4.609   5.043  0.8919  0.0054  0.0225
 2933SOL    HW120261   3.902   4.685   5.100  0.0741  1.2835 -1.4668
 2933SOL    HW220262   3.886   4.643   4.953 -1.5791 -1.4510 -0.4536
 2934SOL     OW20263   0.161   3.813   6.675  0.1473 -0.1675 -0.5849
 2934SOL    HW120264   0.130   3.880   6.614 -0.0510 -0.3121 -0.6426
 2934SOL    HW220265   0.146   3.738   6.617 -0.6612 -1.2087  0.9881
 2935SOL     OW20266   1.158   3.764  10.699 -0.1186 -0.0713 -0.0595
 2935SOL    HW120267   1.181   3.728  10.613 -1.2353  1.1714 -0.8856
 2935SOL    HW220268   1.128   3.853  10.682  1.7479  0.5469 -0.1834
 2936SOL     OW20269   2.879   2.617   2.544  0.3276 -0.0563  0.0264
 2936SOL    HW120270   2.850   2.657   2.462  1.6648  1.9074  0.5225
 2936SOL    HW220271   2.800   2.566   2.566 -1.6513  3.3711  0.8462
 2937SOL     OW20272   1.194   3.739   7.959  0.2114  0.3971  0.1100
 2937SOL    HW120273   1.235   3.750   7.873 -1.8799  2.5248 -0.6288
 2937SOL    HW220274   1.130   3.810   7.961 -1.2245 -0.9343  1.4226
 2938SOL     OW20275   1.807   4.102   6.827 -0.6369  0.5302 -0.2125
 2938SOL    HW120276   1.751   4.028   6.804  0.5679 -0.3005 -0.4163
 2938SOL    HW220277   1.850   4.065   6.904  0.8347 -0.2380 -1.4104
 2939SOL     OW20278   4.432   3.320   9.403 -0.1531  0.0999 -0.1569
 2939SOL    HW120279   4.372   3.248   9.385  1.1014 -0.3733 -2.4429
 2939SOL    HW220280   4.462   3.341   9.315  0.0323 -2.2495 -0.6611
 2940SOL     OW20281   4.616   1.934   0.350 -0.3977  0.0719  0.5255
 2940SOL    HW120282   4.629   1.841   0.331 -0.0161 -0.3298  2.7745
 2940SOL    HW220283   4.526   1.933   0.383 -0.0397  1.9624  1.5418
 2941SOL     OW20284   2.154   0.758   4.580 -0.1295 -0.9973  0.1191
 2941SOL    HW120285   2.179   0.666   4.571 -0.5365 -0.9240 -1.7874
 2941SOL    HW220286   2.174   0.794   4.494 -1.0831 -1.4480 -0.2874
 2942SOL     OW20287   4.515   1.995   2.709 -0.3265  0.4481  0.4349
 2942SOL    HW120288   4.469   1.912   2.693 -2.6708  1.5460  1.5041
 2942SOL    HW220289   4.447   2.062   2.717 -0.3021  0.7932 -2.2712
 2943SOL     OW20290   0.697   0.298   7.074 -0.1179 -0.3143 -0.6715
 2943SOL    HW120291   0.645   0.254   7.141 -0.3751  0.3395 -0.4444
 2943SOL    HW220292   0.767   0.233   7.066 -0.7569 -1.2911  1.6456
 2944SOL     OW20293   4.494   3.575   4.628 -0.1091  0.3138  0.2194
 2944SOL    HW120294   4.534   3.498   4.668 -0.1359  0.3369  0.2906
 2944SOL    HW220295   4.500   3.646   4.692  0.1109 -0.3230  0.9041
 2945SOL     OW20296   2.069   4.046   4.227 -0.1088  0.0733 -0.0898
 2945SOL    HW120297   1.984   4.018   4.192  0.4101 -1.9367  0.2255
 2945SOL    HW220298   2.039   4.087   4.307 -0.7370 -3.6682  1.5862
 2946SOL     OW20299   0.814   3.805  17.100  0.2578  0.4171 -0.0951
 2946SOL    HW120300   0.895   3.776  17.141 -1.1803 -0.8766  1.8067
 2946SOL    HW220301   0.843   3.884  17.053 -0.1846  0.7052  0.1110
 2947SOL     OW20302   1.004   3.086   6.920 -0.1866 -1.1163  0.5917
 2947SOL    HW120303   0.923   3.095   6.971 -1.2417 -0.0150 -1.2809
 2947SOL    HW220304   1.063   3.040   6.980  1.2644  1.1215  0.9065
 2948SOL     OW20305   4.053   2.761  15.872  0.0014 -0.2836  0.0870
 2948SOL    HW120306   4.015   2.699  15.934 -0.7659 -1.1806 -1.2673
 2948SOL    HW220307   4.112   2.807  15.931  1.2803 -1.1820 -0.4797
 2949SOL     OW20308   1.054   2.513   9.002 -0.2909  0.1215 -0.7184
 2949SOL    HW120309   1.112   2.581   9.035 -1.5593  1.0907 -0.5051
 2949SOL    HW220310   0.968   2.549   9.020 -0.2987 -0.3706  0.2389
 2950SOL     OW20311   0.889   2.958   6.006 -0.2174 -0.3214 -0.3515
 2950SOL    HW120312   0.909   2.992   5.919 -0.6759 -2.7087 -1.4071
 2950SOL    HW220313   0.877   3.042   6.050  1.1337  0.0851 -0.7746
 2951SOL     OW20314   1.497   1.233   3.385 -0.0484 -0.1816  0.0898
 2951SOL    HW120315   1.552   1.296   3.339  0.8685 -2.1532 -1.5369
 2951SOL    HW220316   1.556   1.210   3.457  3.2615  2.8232 -1.6324
 2952SOL     OW20317   4.625   1.726   2.727 -0.4715 -0.3513 -0.4022
 2952SOL    HW120318   4.708   1.679   2.733  0.4948  1.4890  0.3484
 2952SOL    HW220319   4.643   1.817   2.749 -3.7037  1.1311 -3.9108
 2953SOL     OW20320   1.591   0.723  14.456 -0.6065 -0.7665 -0.5342
 2953SOL    HW120321   1.592   0.741  14.550  0.0594  1.4081 -0.9523
 2953SOL    HW220322   1.500   0.699  14.441 -0.7255 -0.4986 -0.2470
 2954SOL     OW20323   2.925   2.775   4.020 -0.0600 -0.3359  0.1405
 2954SOL    HW120324   2.912   2.757   3.927 -1.5740 -2.7490  0.8238
 2954SOL    HW220325   2.835   2.776   4.054  1.2553  0.0680  3.6073
 2955SOL     OW20326   3.524   2.874   7.144 -0.3133 -0.1726 -0.4352
 2955SOL    HW120327   3.593   2.812   7.122 -0.8482 -1.7388  2.2643
 2955SOL    HW220328   3.521   2.863   7.239 -0.9507 -1.8167 -0.6622
 2956SOL     OW20329   1.938   3.164   5.274 -0.4089  0.8169  0.1252
 2956SOL    HW120330   1.850   3.127   5.271  0.7620 -2.1189  2.2164
 2956SOL    HW220331   1.946   3.219   5.196  0.6645  0.3855 -0.0700
 2957SOL     OW20332   1.079   0.311   6.367  0.2847 -0.3006  0.3892
 2957SOL    HW120333   0.993   0.305   6.327  0.3947 -0.2597  0.1472
 2957SOL    HW220334   1.066   0.289   6.459  0.7137  0.1937  0.5690
 2958SOL     OW20335   0.709   3.982   2.106 -0.6090  0.0921 -0.1950
 2958SOL    HW120336   0.641   4.029   2.155 -2.1638 -0.6060 -1.6682
 2958SOL    HW220337   0.665   3.909   2.062 -1.7464  0.3673  0.4865
 2959SOL     OW20338   2.565   0.302   7.801  0.5988 -0.3542  0.1819
 2959SOL    HW120339   2.505   0.359   7.753  0.8045 -0.8780 -0.6978
 2959SOL    HW220340   2.563   0.344   7.887 -3.2625 -0.2339  0.0444
 2960SOL     OW20341   0.514   2.280   8.878 -0.1394 -0.2052  0.5594
 2960SOL    HW120342   0.440   2.284   8.940  0.0092  2.5397  0.5731
 2960SOL    HW220343   0.581   2.333   8.920  0.5512  1.0037 -2.1131
 2961SOL     OW20344   1.062   1.583   5.199  0.2717 -0.2450 -0.5435
 2961SOL    HW120345   0.970   1.557   5.208  0.3476 -0.2455  0.2618
 2961SOL    HW220346   1.044   1.677   5.209  1.9327  0.3438 -3.1985
 2962SOL     OW20347   0.574   0.456  15.727  0.4107  0.7315 -0.1489
 2962SOL    HW120348   0.554   0.547  15.706 -1.3482  0.4680  0.3969
 2962SOL    HW220349   0.548   0.458  15.819 -2.6148 -1.5293 -0.9616
 2963SOL     OW20350   4.284   0.691   8.184 -0.4330 -0.0666  0.0894
 2963SOL    HW120351   4.200   0.650   8.162 -1.1312  0.7745  1.1770
 2963SOL    HW220352   4.327   0.672   8.101  0.0524  0.3402  0.2488
 2964SOL     OW20353   2.194   4.715   3.300  0.4469  0.5359  0.3010
 2964SOL    HW120354   2.178   4.621   3.310 -0.5611  0.7685  0.7714
 2964SOL    HW220355   2.202   4.718   3.204  0.4787  3.4509  0.3993
 2965SOL     OW20356   0.180   4.337   2.676  0.0160 -0.7494  0.2590
 2965SOL    HW120357   0.149   4.365   2.590  0.4148 -0.3815  0.2335
 2965SOL    HW220358   0.211   4.246   2.675 -0.5157 -0.8933 -2.4603
 2966SOL     OW20359   0.883   2.700   6.114 -0.3847  0.1938 -0.3103
 2966SOL    HW120360   0.892   2.791   6.084  1.5658  0.0631 -0.1562
 2966SOL    HW220361   0.840   2.659   6.039 -0.6195  2.4696 -1.4280
 2967SOL     OW20362   4.262   1.513  17.031  0.1704 -0.5100  0.2537
 2967SOL    HW120363   4.278   1.559  16.949  1.1677 -2.7483 -0.8280
 2967SOL    HW220364   4.330   1.446  17.021 -0.1417 -1.0058  1.3578
 2968SOL     OW20365   2.301   0.552   4.857  0.2822  0.0222 -0.5513
 2968SOL    HW120366   2.361   0.488   4.820  1.9776  1.3954 -0.2243
 2968SOL    HW220367   2.241   0.564   4.784  0.8521  0.7516 -0.9051
 2969SOL     OW20368   2.005   2.030   7.714  0.1076 -0.2369  0.1525
 2969SOL    HW120369   1.947   1.965   7.753  0.1623 -2.0072 -2.6646
 2969SOL    HW220370   1.957   2.048   7.633 -1.1027  0.9316  1.1224
 2970SOL     OW20371   0.618   2.167   3.204  0.2408  0.0964  0.2485
 2970SOL    HW120372   0.672   2.098   3.242  0.0044  0.1188  0.6202
 2970SOL    HW220373   0.686   2.213   3.155 -0.2153 -0.0363 -0.5101
 2971SOL     OW20374   3.823   0.824  13.672 -0.0478  0.5843 -0.0073
 2971SOL    HW120375   3.882   0.897  13.693 -1.2273  0.6370  3.1268
 2971SOL    HW220376   3.880   0.784  13.607  0.4926 -0.6109  1.1965
 2972SOL     OW20377   4.558   1.754  13.201 -0.3006 -1.0474 -0.3439
 2972SOL    HW120378   4.635   1.810  13.213 -1.4369 -0.0636  2.3822
 2972SOL    HW220379   4.552   1.723  13.292  0.5689  2.3864  0.8654
 2973SOL     OW20380   0.709   1.698   5.646 -0.1465 -0.2847 -0.1144
 2973SOL    HW120381   0.750   1.778   5.680  1.5608 -0.6885 -1.1934
 2973SOL    HW220382   0.752   1.642   5.711  1.3289 -0.3711 -1.1623
 2974SOL     OW20383   2.028   1.302  12.647  0.0041 -0.1947  0.0313
 2974SOL    HW120384   2.036   1.225  12.704 -0.3065 -0.1150  0.1850
 2974SOL    HW220385   2.060   1.379  12.695 -0.8548  0.8266 -1.0072
 2975SOL     OW20386   2.473   3.952  14.344 -0.2405  0.1091  0.6208
 2975SOL    HW120387   2.454   4.046  14.351  1.1466  0.3297  1.5603
 2975SOL    HW220388   2.568   3.957  14.330  0.0428 -2.0446  1.8437
 2976SOL     OW20389   3.537   3.822   7.182 -0.7120 -0.4588 -0.0404
 2976SOL    HW120390   3.464   3.835   7.122 -1.1585  0.3783  0.6814
 2976SOL    HW220391   3.600   3.871   7.130 -0.2141 -1.8540 -0.7363
 2977SOL     OW20392   0.152   4.685   8.818  0.2892  0.0639 -0.1204
 2977SOL    HW120393   0.235   4.658   8.856  0.1867  0.6297  0.5198
 2977SOL    HW220394   0.175   0.055   8.809  1.0027 -0.1315 -0.2985
 2978SOL     OW20395   1.668   3.493  15.988 -0.0997 -0.3824  0.8577
 2978SOL    HW120396   1.718   3.492  15.906 -1.9833 -1.5704 -0.2677
 2978SOL    HW220397   1.734   3.516  16.053  1.5652  1.2938 -1.4266
 2979SOL     OW20398   3.255   2.249  16.615 -0.1107 -0.8813  0.1266
 2979SOL    HW120399   3.225   2.337  16.594 -0.0585 -1.2178 -1.3859
 2979SOL    HW220400   3.189   2.219  16.679 -1.8574 -0.1904 -1.3448
 2980SOL     OW20401   4.204   4.110   1.752  0.0203 -0.4693  0.1516
 2980SOL    HW120402   4.118   4.079   1.722  0.2349 -0.7842 -0.1292
 2980SOL    HW220403   4.264   4.063   1.694  0.7208  0.9262 -0.2518
 2981SOL     OW20404   0.362   4.074  12.115  0.1994  0.7834 -0.5003
 2981SOL    HW120405   0.399   4.161  12.101  0.5903  0.7916  0.6053
 2981SOL    HW220406   0.334   4.051  12.026  0.8303 -2.1813  0.0617
 2982SOL     OW20407   3.120   2.228   8.916  0.0096 -0.6592  0.8004
 2982SOL    HW120408   3.139   2.304   8.971  2.1023  0.9540 -2.1621
 2982SOL    HW220409   3.206   2.189   8.931  0.8068  0.5109 -0.7090
 2983SOL     OW20410   4.612   2.014   2.414 -0.5741 -0.0601 -0.1229
 2983SOL    HW120411   4.559   2.072   2.359  0.6641  1.5783  0.4142
 2983SOL    HW220412   4.581   2.048   2.498  0.4312 -1.2817  0.7367
 2984SOL     OW20413   1.291   0.983   5.032 -0.4265  0.3930  0.0968
 2984SOL    HW120414   1.234   0.976   5.109  0.4888 -2.1882  0.5412
 2984SOL    HW220415   1.281   0.891   5.009 -2.1899 -0.2333  3.3605
 2985SOL     OW20416   2.590   2.064   9.327  0.5271 -0.3227 -0.0925
 2985SOL    HW120417   2.608   1.999   9.395  2.5040  2.6524  2.2132
 2985SOL    HW220418   2.681   2.085   9.310  1.2084 -2.2008  1.2583
 2986SOL     OW20419   1.487   1.706   4.139 -0.1084  0.3019 -0.3667
 2986SOL    HW120420   1.419   1.643   4.115  0.9554 -0.3663 -1.6145
 2986SOL    HW220421   1.561   1.648   4.119 -1.8742 -2.2893  0.5824
 2987SOL     OW20422   0.532   4.370  15.890 -0.2730  0.0299 -0.0723
 2987SOL    HW120423   0.518   4.318  15.811  1.3796 -0.3553 -0.1166
 2987SOL    HW220424   0.625   4.360  15.912  0.1030  0.2731 -1.5567
 2988SOL     OW20425   1.163   2.887   5.879  0.0331  0.7342 -0.5424
 2988SOL    HW120426   1.240   2.942   5.865  0.5779  0.3619  1.0228
 2988SOL    HW220427   1.181   2.858   5.968 -1.1760  1.1920 -0.1510
 2989SOL     OW20428   1.026   2.372  16.503 -0.2110 -0.2722 -0.5484
 2989SOL    HW120429   1.005   2.417  16.421 -1.1396  1.1156  0.4423
 2989SOL    HW220430   0.945   2.323  16.517 -0.0171 -0.6953 -0.8872
 2990SOL     OW20431   3.500   1.530   4.712  0.1109 -0.2721 -0.1292
 2990SOL    HW120432   3.482   1.446   4.754 -0.3631 -0.8981 -1.5849
 2990SOL    HW220433   3.486   1.514   4.619  1.1854  2.4361 -0.7675
 2991SOL     OW20434   0.720   0.955   6.396 -0.4331  0.3539  0.2375
 2991SOL    HW120435   0.639   1.005   6.382 -2.1712 -2.5265 -0.0535
 2991SOL    HW220436   0.705   0.935   6.489  0.9158 -1.7058  0.0100
 2992SOL     OW20437   3.640   1.926   8.079 -0.0054  0.2584  0.3710
 2992SOL    HW120438   3.557   1.970   8.096 -0.3119 -1.0869  2.3667
 2992SOL    HW220439   3.693   1.910   8.157  1.7296  0.7615 -0.6897
 2993SOL     OW20440   1.997   0.404   6.581 -0.0197 -0.4467  0.0642
 2993SOL    HW120441   2.045   0.412   6.664 -1.4643  1.0963  0.7329
 2993SOL    HW220442   1.917   0.452   6.599  1.3813  1.5951  0.8078
 2994SOL     OW20443   3.359   1.718   0.014 -0.4070  0.2835 -0.1240
 2994SOL    HW120444   3.303   1.675   0.078 -1.5352 -0.7890 -1.8499
 2994SOL    HW220445   3.406   1.773   0.078  0.2449 -0.1830 -0.1972
 2995SOL     OW20446   1.222   4.326  14.444 -0.9423  0.1875 -0.6293
 2995SOL    HW120447   1.288   4.343  14.512 -2.0989  1.1683  0.2471
 2995SOL    HW220448   1.134   4.327  14.482 -0.9617 -1.7556 -0.6193
 2996SOL     OW20449   0.452   0.223   6.856 -0.0199  0.4371 -0.4651
 2996SOL    HW120450   0.515   0.163   6.895 -0.2217  0.5944  0.0981
 2996SOL    HW220451   0.496   0.306   6.876  0.3464  0.2380 -0.4442
 2997SOL     OW20452   3.730   4.506   3.032 -0.2050 -0.1904 -0.5198
 2997SOL    HW120453   3.740   4.597   3.060 -0.6836 -0.5645  0.8635
 2997SOL    HW220454   3.705   4.515   2.940 -1.1793  0.8874 -0.1518
 2998SOL     OW20455   3.648   3.916   0.531 -0.1787  0.0595  0.2187
 2998SOL    HW120456   3.642   3.844   0.593  1.7519 -0.4719 -0.2229
 2998SOL    HW220457   3.735   3.950   0.551  0.0847 -0.6323  0.2414
 2999SOL     OW20458   4.208   1.275   3.047 -0.1160 -0.7754 -0.1144
 2999SOL    HW120459   4.242   1.214   2.981 -0.4284  0.2087 -1.1934
 2999SOL    HW220460   4.121   1.292   3.010 -0.0263  0.4189  0.2414
 3000SOL     OW20461   0.776   3.110   8.972  0.0718  0.2218 -0.2239
 3000SOL    HW120462   0.710   3.131   8.907  0.8420 -0.1529 -1.1203
 3000SOL    HW220463   0.746   3.163   9.047  1.1009  1.2956 -0.5617
 3001SOL     OW20464   0.402   2.310   2.402  0.4351 -0.6898 -0.7800
 3001SOL    HW120465   0.374   2.379   2.461 -0.2191  0.6370 -2.6426
 3001SOL    HW220466   0.316   2.268   2.406  1.1085 -2.3229 -2.9120
 3002SOL     OW20467   2.283   0.396   3.266  0.2192 -0.0848  0.9207
 3002SOL    HW120468   2.309   0.305   3.277 -0.2695 -0.0217  2.5368
 3002SOL    HW220469   2.189   0.398   3.248  0.8936 -0.0731 -2.7283
 3003SOL     OW20470   0.524   1.410   4.700  0.3129 -0.0267  0.8273
 3003SOL    HW120471   0.595   1.345   4.706  0.8036 -0.0304 -4.9411
 3003SOL    HW220472   0.460   1.362   4.753 -0.8372 -0.4896 -0.9741
 3004SOL     OW20473   3.533   2.115   9.436 -0.1408 -0.1626  0.2343
 3004SOL    HW120474   3.621   2.153   9.431  0.4010 -1.6264 -1.4080
 3004SOL    HW220475   3.486   2.182   9.386 -0.6000  0.9004  2.0851
 3005SOL     OW20476   2.090   1.549   4.835  0.0409  0.0778  0.1994
 3005SOL    HW120477   2.025   1.521   4.900 -1.2761 -1.3360 -1.7567
 3005SOL    HW220478   2.100   1.465   4.791 -0.9255 -1.6305  3.1823
 3006SOL     OW20479   0.046   2.793   8.819  0.0672 -0.1036 -0.4600
 3006SOL    HW120480   0.092   2.785   8.903 -0.1914 -0.1521 -0.3240
 3006SOL    HW220481   0.122   2.785   8.760  1.2722  0.3134  1.0279
 3007SOL     OW20482   2.004   0.149   0.215 -0.2545 -0.3824  0.4479
 3007SOL    HW120483   2.065   0.110   0.152 -2.6070 -1.7053 -0.9952
 3007SOL    HW220484   2.019   0.244   0.211 -2.7480 -0.0007  0.2753
 3008SOL     OW20485   2.480   3.188   5.760 -0.1930  0.5814 -0.5327
 3008SOL    HW120486   2.463   3.267   5.812 -0.3492  0.4243 -0.3452
 3008SOL    HW220487   2.428   3.127   5.813 -0.5117  2.9903  1.9290
 3009SOL     OW20488   1.043   3.384   2.711  0.4758 -0.3440  0.0655
 3009SOL    HW120489   1.125   3.399   2.664  1.6441 -2.1418  1.5739
 3009SOL    HW220490   0.994   3.466   2.703 -0.6355 -1.2708 -2.8186
 3010SOL     OW20491   2.297   3.857   2.454  0.7182  0.6342 -0.0478
 3010SOL    HW120492   2.343   3.800   2.515 -1.8311 -1.0887  0.2626
 3010SOL    HW220493   2.364   3.908   2.408 -0.4815  1.1295 -1.2580
 3011SOL     OW20494   2.896   3.868  16.345 -0.6573  0.2825  0.0490
 3011SOL    HW120495   2.838   3.799  16.376  0.0739  0.3614  1.5925
 3011SOL    HW220496   2.930   3.832  16.263  1.2087 -0.5457  1.1845
 3012SOL     OW20497   0.865   1.415   9.809  0.5142  0.4023  0.1001
 3012SOL    HW120498   0.817   1.333   9.796  1.4949 -0.2698  0.7073
 3012SOL    HW220499   0.849   1.470   9.732  0.9027  0.5279  0.1062
 3013SOL     OW20500   1.681   1.316   5.731 -0.3730  0.5514  0.3545
 3013SOL    HW120501   1.713   1.253   5.796  2.4736  0.4373 -1.1517
 3013SOL    HW220502   1.653   1.386   5.789 -0.5968 -0.7908  1.8676
 3014SOL     OW20503   1.342   0.881   5.629  0.4027 -0.3053  0.8286
 3014SOL    HW120504   1.287   0.820   5.676 -1.4491  0.8751  0.1846
 3014SOL    HW220505   1.412   0.907   5.690 -0.3388 -0.4025  1.7095
 3015SOL     OW20506   0.828   2.160   6.902 -0.0890  0.3615  0.0966
 3015SOL    HW120507   0.786   2.081   6.935 -2.5173  1.5042 -0.2256
 3015SOL    HW220508   0.922   2.149   6.915 -0.6053 -2.3971  1.4190
 3016SOL     OW20509   3.479   1.787   8.840 -0.1023 -0.9317 -0.0556
 3016SOL    HW120510   3.399   1.839   8.836  1.0123  0.6034 -2.8070
 3016SOL    HW220511   3.442   1.700   8.827 -0.4729 -1.0126  1.6574
 3017SOL     OW20512   2.504   0.157   5.307  0.0722  0.4237  0.6348
 3017SOL    HW120513   2.575   0.098   5.284 -0.5950 -0.8749  1.8857
 3017SOL    HW220514   2.434   0.092   5.297  1.1297 -0.5078 -0.7750
 3018SOL     OW20515   1.930   1.141   7.502  0.1907  0.6776  0.0563
 3018SOL    HW120516   1.887   1.214   7.548 -0.3768  0.0832  0.4599
 3018SOL    HW220517   1.854   1.109   7.453 -0.1240  0.5813  0.6067
 3019SOL     OW20518   1.952   4.181   6.545  0.3842  0.5981 -0.2554
 3019SOL    HW120519   2.048   4.177   6.549  0.3398 -0.1537  0.1004
 3019SOL    HW220520   1.936   4.124   6.621 -0.6853 -0.6055 -1.3876
 3020SOL     OW20521   0.417   4.641   0.180  0.4446 -0.0515 -0.6913
 3020SOL    HW120522   0.496   4.590   0.197  0.3451  0.5684  1.6355
 3020SOL    HW220523   0.366   4.577   0.130 -2.9762  0.9988  1.4766
 3021SOL     OW20524   1.414   2.427  15.461 -0.0835  0.4800 -0.5561
 3021SOL    HW120525   1.429   2.388  15.548 -0.5290  1.7395  0.0781
 3021SOL    HW220526   1.319   2.428  15.456 -0.2234  2.1357  2.8812
 3022SOL     OW20527   0.611   0.147   0.261 -0.0347 -0.3471 -0.0429
 3022SOL    HW120528   0.585   0.230   0.301  4.3416  0.3545  1.3289
 3022SOL    HW220529   0.689   0.117   0.308  0.9929  1.3191 -0.7165
 3023SOL     OW20530   4.506   0.162   3.151 -0.4351 -0.0940 -0.2014
 3023SOL    HW120531   4.560   0.168   3.229  0.3781  0.6482 -0.8268
 3023SOL    HW220532   4.516   0.248   3.110 -2.5673  2.1787  4.0268
 3024SOL     OW20533   0.487   0.258  11.546  0.8201 -0.1751 -0.6276
 3024SOL    HW120534   0.495   0.350  11.521 -0.0347 -0.0139 -0.2971
 3024SOL    HW220535   0.566   0.258  11.600  0.2978  1.9494  0.1283
 3025SOL     OW20536   2.996   0.161  16.906 -0.4486 -0.7434  0.2748
 3025SOL    HW120537   3.070   0.194  16.856  0.9825 -0.4222  2.5992
 3025SOL    HW220538   3.004   0.179  17.000 -3.2594 -0.7466  0.5310
 3026SOL     OW20539   3.006   1.572   7.148 -0.9935  0.5565  0.3278
 3026SOL    HW120540   3.031   1.485   7.178  0.3568  0.4542 -1.0814
 3026SOL    HW220541   3.039   1.625   7.221 -0.8936  0.8760  0.0500
 3027SOL     OW20542   0.574   1.919   7.677 -0.8342  0.2122 -0.6406
 3027SOL    HW120543   0.490   1.963   7.662 -1.5214 -0.1904  1.9193
 3027SOL    HW220544   0.582   1.912   7.772  2.4408  1.7869 -0.8031
 3028SOL     OW20545   0.784   2.451  13.365  0.5232  0.3120 -0.8191
 3028SOL    HW120546   0.695   2.470  13.337  0.6083  1.2729 -0.4480
 3028SOL    HW220547   0.850   2.498  13.314  2.1505 -0.4242  0.5860
 3029SOL     OW20548   1.665   0.338   9.312 -0.2631 -0.3331  0.0260
 3029SOL    HW120549   1.678   0.277   9.384  0.4988 -1.0116 -0.6777
 3029SOL    HW220550   1.596   0.283   9.273 -0.6888  0.1631  0.0795
 3030SOL     OW20551   1.876   4.273   5.816  0.4409 -0.3923 -0.5074
 3030SOL    HW120552   1.830   4.201   5.772  0.7700 -0.6926 -0.3618
 3030SOL    HW220553   1.799   4.320   5.849 -0.9742 -2.7335 -0.4929
 3031SOL     OW20554   1.545   0.251   5.293  0.1270  0.3251 -0.3411
 3031SOL    HW120555   1.589   0.172   5.323 -3.3695 -0.5536  2.4633
 3031SOL    HW220556   1.589   0.270   5.210  0.8662 -0.7751 -0.1843
 3032SOL     OW20557   3.864   0.159  16.693  0.6369  0.5085 -0.8465
 3032SOL    HW120558   3.892   0.095  16.628 -1.1574 -0.7059 -0.4264
 3032SOL    HW220559   3.864   0.233  16.633 -0.3900  1.8621  0.7982
 3033SOL     OW20560   0.493   3.603   8.183  0.4377  0.3068 -0.0299
 3033SOL    HW120561   0.406   3.563   8.190  0.2357  0.5799 -0.8934
 3033SOL    HW220562   0.457   3.690   8.192  0.9396  0.4036  1.0433
 3034SOL     OW20563   4.280   2.264   6.477  0.2039 -0.0246 -0.4252
 3034SOL    HW120564   4.307   2.173   6.469  0.1820  0.2190 -3.0470
 3034SOL    HW220565   4.312   2.281   6.566  0.5914 -0.1223 -0.5471
 3035SOL     OW20566   2.776   4.527   3.181 -0.1863 -0.0034 -0.4152
 3035SOL    HW120567   2.719   4.587   3.229  0.2452  0.0385  0.0479
 3035SOL    HW220568   2.724   4.502   3.105  1.0901 -0.8978 -0.9986
 3036SOL     OW20569   2.462   1.498  17.270 -0.2027  0.3744 -0.4681
 3036SOL    HW120570   2.480   1.450  17.351 -1.5000  0.1191 -0.3369
 3036SOL    HW220571   2.441   1.425  17.212 -0.6700  1.1562 -1.2852
 3037SOL     OW20572   0.579   4.378   3.149 -0.2551  0.4068  0.0451
 3037SOL    HW120573   0.592   4.284   3.142 -1.3208  0.0596  2.6281
 3037SOL    HW220574   0.579   4.385   3.245 -2.2357  3.1901 -0.1718
 3038SOL     OW20575   2.565   4.459   5.775 -0.4340 -0.4380 -0.0339
 3038SOL    HW120576   2.497   4.518   5.742  1.0151 -0.5362 -3.2315
 3038SOL    HW220577   2.552   4.453   5.870  1.7742 -2.1488  0.1644
 3039SOL     OW20578   0.249   3.430   9.262 -0.3336  0.0410 -0.1163
 3039SOL    HW120579   0.244   3.525   9.274  0.3083  0.1354 -0.5829
 3039SOL    HW220580   0.328   3.403   9.310 -0.0867  0.3672 -0.3336
 3040SOL     OW20581   2.529   0.701   2.561  0.4520 -0.1718 -0.2886
 3040SOL    HW120582   2.618   0.736   2.562  0.9470 -1.4976  2.9971
 3040SOL    HW220583   2.492   0.789   2.552 -2.3323 -1.5802 -2.2632
 3041SOL     OW20584   0.762   3.403   8.470  0.1265  0.3387 -0.1683
 3041SOL    HW120585   0.783   3.494   8.447  0.0322  1.3475  3.6020
 3041SOL    HW220586   0.719   3.380   8.388  1.3921  0.6962 -0.9350
 3042SOL     OW20587   0.968   0.898   2.664 -0.6915 -0.2344 -0.2259
 3042SOL    HW120588   1.026   0.830   2.629 -0.4918 -0.1428 -0.0722
 3042SOL    HW220589   1.022   0.975   2.643  2.1732 -2.1746 -0.0049
 3043SOL     OW20590   1.606   0.379   3.121 -0.8949 -0.1479 -0.4371
 3043SOL    HW120591   1.529   0.326   3.141 -1.3065 -0.0484 -1.7312
 3043SOL    HW220592   1.676   0.315   3.136  1.8688  2.5212 -1.8118
 3044SOL     OW20593   3.554   0.049   8.973  0.1930 -0.1357  0.0671
 3044SOL    HW120594   3.619   0.109   9.009  2.8161 -2.2554 -1.1542
 3044SOL    HW220595   3.552   4.705   9.041 -0.8237 -1.2167 -1.0206
 3045SOL     OW20596   1.670   4.368  15.484 -0.0103  0.2988 -0.0578
 3045SOL    HW120597   1.599   4.430  15.466 -0.2090 -0.1805 -0.9192
 3045SOL    HW220598   1.641   4.322  15.562  0.2822 -0.6877 -0.5353
 3046SOL     OW20599   2.758   4.157   5.499  0.0489  1.2173 -1.1463
 3046SOL    HW120600   2.693   4.093   5.527  1.1102  1.0510  0.9094
 3046SOL    HW220601   2.820   4.098   5.456  2.7967  3.6416 -0.5547
 3047SOL     OW20602   2.793   0.516   3.530  0.7162 -0.4429 -0.1175
 3047SOL    HW120603   2.712   0.472   3.558  1.5311 -1.7884  0.0727
 3047SOL    HW220604   2.781   0.607   3.557 -0.4029 -1.9002  4.2245
 3048SOL     OW20605   3.024   2.898   9.188 -0.4345 -0.4935  0.4943
 3048SOL    HW120606   3.067   2.816   9.210  0.8896 -0.1417 -0.7572
 3048SOL    HW220607   3.011   2.946   9.270 -1.3126 -2.0129  1.2380
 3049SOL     OW20608   1.991   4.596   3.567  0.2896  0.3602  0.1830
 3049SOL    HW120609   2.000   4.553   3.482  2.2004  2.2620 -0.5730
 3049SOL    HW220610   1.916   4.544   3.597  0.2321 -0.0810 -0.7235
 3050SOL     OW20611   2.314   0.033   0.864  0.2205 -0.2465  0.0987
 3050SOL    HW120612   2.315   0.129   0.865 -1.3812 -0.2294 -0.0310
 3050SOL    HW220613   2.244   0.014   0.801 -0.7023  0.7439  0.8197
 3051SOL     OW20614   3.548   0.057   0.857  0.9377  0.7782 -0.5422
 3051SOL    HW120615   3.616   0.066   0.790  0.0090 -0.4628 -1.6478
 3051SOL    HW220616   3.480   0.001   0.820  1.1488 -0.3623  0.8050
 3052SOL     OW20617   2.852   2.958   2.937  0.3215 -0.1328 -0.1790
 3052SOL    HW120618   2.833   2.887   2.876 -2.7082  1.2263 -0.8665
 3052SOL    HW220619   2.901   2.915   3.007 -0.5833 -2.2185 -0.8429
 3053SOL     OW20620   0.808   2.079   0.078  0.0472 -0.0053 -0.1415
 3053SOL    HW120621   0.848   2.155   0.036  0.5015 -0.8917 -1.3513
 3053SOL    HW220622   0.870   2.010   0.052  0.6320  0.4771 -0.0296
 3054SOL     OW20623   3.908   4.717   0.879 -0.1946 -0.1930  0.8766
 3054SOL    HW120624   4.002   4.720   0.894  0.1926  0.5275 -1.5796
 3054SOL    HW220625   3.895   4.668   0.798  0.4763 -0.8986  1.2005
 3055SOL     OW20626   3.260   3.553   6.958 -0.1145  0.1976 -0.2305
 3055SOL    HW120627   3.243   3.503   7.038 -2.6293  2.9340  0.9725
 3055SOL    HW220628   3.192   3.515   6.903  0.4492  0.2258 -0.9470
 3056SOL     OW20629   2.263   3.542   7.364 -0.3994 -0.1919  0.1502
 3056SOL    HW120630   2.199   3.528   7.293 -0.6707 -0.6952  0.4880
 3056SOL    HW220631   2.211   3.517   7.440  1.0923  0.4086  1.3526
 3057SOL     OW20632   1.387   4.631  17.592  1.0685 -0.4283 -0.4708
 3057SOL    HW120633   1.417   4.603  17.679  0.6270  1.3298  0.2478
 3057SOL    HW220634   1.294   4.606  17.599  0.7712  0.1955 -2.1931
 3058SOL     OW20635   4.124   2.397   2.742 -0.2615 -0.1627 -0.4452
 3058SOL    HW120636   4.142   2.488   2.717  0.4085  0.2045  1.3314
 3058SOL    HW220637   4.142   2.407   2.836  0.4691  0.6708 -0.6696
 3059SOL     OW20638   4.287   3.420  13.991 -0.3759  0.2688  0.0550
 3059SOL    HW120639   4.344   3.497  13.998 -0.4960  0.2335  1.3760
 3059SOL    HW220640   4.228   3.451  13.922 -2.1211  1.7610  2.2238
 3060SOL     OW20641   0.453   2.671   6.243  0.2284  0.2079 -0.1691
 3060SOL    HW120642   0.477   2.723   6.166  3.4744 -0.2193  0.5445
 3060SOL    HW220643   0.363   2.642   6.228 -1.0870  3.6834  0.8684
 3061SOL     OW20644   2.967   1.057  15.314 -0.5506  0.5494  0.3721
 3061SOL    HW120645   2.925   1.044  15.399  1.1783 -2.7347  0.7161
 3061SOL    HW220646   3.048   1.007  15.326  0.5928  2.3585  0.1900
 3062SOL     OW20647   4.628   2.150   7.954 -0.0972  0.2659  0.3403
 3062SOL    HW120648   4.659   2.108   7.874  2.6149  1.3400  0.8092
 3062SOL    HW220649   4.612   2.240   7.927  2.5309  0.7729  0.4669
 3063SOL     OW20650   2.369   0.186   1.773 -0.4258  0.6370 -0.3109
 3063SOL    HW120651   2.383   0.194   1.679 -0.6611 -2.2637 -0.6108
 3063SOL    HW220652   2.282   0.226   1.777 -0.0015  1.6614 -1.6078
 3064SOL     OW20653   2.716   3.479  13.590 -0.1472 -0.0686  0.1410
 3064SOL    HW120654   2.620   3.483  13.586 -0.2399 -0.7144  1.6056
 3064SOL    HW220655   2.733   3.565  13.629 -0.3327  0.8432 -1.7555
 3065SOL     OW20656   2.894   1.772   8.683 -0.2918  0.1363 -0.6825
 3065SOL    HW120657   2.892   1.681   8.713 -0.2788  0.5351  0.5064
 3065SOL    HW220658   2.906   1.824   8.762 -0.8694 -0.9939  0.1599
 3066SOL     OW20659   1.211   3.104   6.322  0.0101 -0.2081 -0.0385
 3066SOL    HW120660   1.251   3.187   6.350 -0.9913  0.5754 -0.9655
 3066SOL    HW220661   1.244   3.103   6.233  1.7824  0.0014  0.6096
 3067SOL     OW20662   2.603   2.053  14.442  0.2523  0.1072  0.2749
 3067SOL    HW120663   2.529   2.074  14.385  0.8481 -0.1409 -0.5726
 3067SOL    HW220664   2.642   1.971  14.413 -0.2441 -1.4088  3.8684
 3068SOL     OW20665   2.724   2.590   3.612 -0.1542 -0.2915 -0.6748
 3068SOL    HW120666   2.631   2.606   3.597  0.1774  0.6199 -1.8362
 3068SOL    HW220667   2.719   2.570   3.705  0.9063 -0.0666 -0.5717
 3069SOL     OW20668   0.716   3.478   8.895  0.8605 -0.2026  0.1588
 3069SOL    HW120669   0.622   3.476   8.912  0.6898 -0.6415 -0.8407
 3069SOL    HW220670   0.754   3.438   8.974  0.7145 -2.7313 -1.0570
 3070SOL     OW20671   3.529   1.354   2.347  0.2655 -0.0370  0.0347
 3070SOL    HW120672   3.493   1.265   2.356  2.2252 -0.6339  1.8298
 3070SOL    HW220673   3.579   1.365   2.428  0.7185  1.7250 -0.4842
 3071SOL     OW20674   2.251   2.175   4.237  0.0688 -0.1915  0.5171
 3071SOL    HW120675   2.233   2.083   4.255  0.6981 -0.6784 -1.3097
 3071SOL    HW220676   2.216   2.213   4.318 -2.7410  0.6807 -1.1314
 3072SOL     OW20677   3.023   2.492   5.978 -0.3218  0.6683 -0.6974
 3072SOL    HW120678   2.948   2.440   5.950 -0.2858 -0.2867  0.9542
 3072SOL    HW220679   3.072   2.421   6.020  0.7142  0.7872 -1.7121
 3073SOL     OW20680   3.853   0.929  16.438 -0.0133 -0.0626 -0.1575
 3073SOL    HW120681   3.794   0.969  16.502  0.5446 -0.6440  0.7202
 3073SOL    HW220682   3.898   0.865  16.494  1.5475  1.3272  0.1907
 3074SOL     OW20683   4.499   2.643   3.998  0.2563  0.1998 -0.0255
 3074SOL    HW120684   4.551   2.567   3.975 -0.7898 -0.8353  1.0000
 3074SOL    HW220685   4.417   2.639   3.947 -0.1871 -0.4744  0.7400
 3075SOL     OW20686   2.975   3.276  13.578 -0.1833 -0.6903  0.2171
 3075SOL    HW120687   2.974   3.193  13.531  0.5558 -1.3235  1.3065
 3075SOL    HW220688   2.957   3.341  13.511  0.3818 -1.1401 -0.3674
 3076SOL     OW20689   0.238   2.235   6.846  0.5898 -0.0199 -0.2629
 3076SOL    HW120690   0.332   2.220   6.850  0.3026 -1.5166  1.2312
 3076SOL    HW220691   0.228   2.271   6.758 -2.0758  0.7183  0.3326
 3077SOL     OW20692   3.865   0.407   2.959  0.1233 -0.2375  0.1724
 3077SOL    HW120693   3.881   0.367   3.045 -2.8184 -1.2371  0.2389
 3077SOL    HW220694   3.886   0.500   2.966  1.9218 -0.7449  1.5011
 3078SOL     OW20695   4.705   3.737   4.941  1.1943  0.2027  0.6251
 3078SOL    HW120696   0.014   3.742   5.031 -1.6677  1.9516  1.5174
 3078SOL    HW220697   0.047   3.680   4.898  0.6254  0.2269 -0.2742
 3079SOL     OW20698   0.064   1.807   0.079  0.2881  0.3981 -0.0416
 3079SOL    HW120699   0.043   1.901   0.081  1.0457  0.5975 -1.1781
 3079SOL    HW220700   0.028   1.784  17.686 -3.0884  0.9044  1.2386
 3080SOL     OW20701   4.087   2.988   6.913  0.2654  0.6634 -0.1687
 3080SOL    HW120702   4.033   2.930   6.859 -0.0488  2.7435 -2.0895
 3080SOL    HW220703   4.055   3.078   6.900  2.6109  1.2861 -1.6063
 3081SOL     OW20704   4.678   1.017   9.391 -0.3155  0.2631  0.0450
 3081SOL    HW120705   0.037   1.063   9.407 -0.0244  0.1207 -0.9961
 3081SOL    HW220706   4.650   1.037   9.301 -1.0339  2.2066  0.7174
 3082SOL     OW20707   1.769   2.361   4.324 -0.2481  0.7389 -0.1817
 3082SOL    HW120708   1.798   2.417   4.252 -0.6338 -0.3994 -1.2350
 3082SOL    HW220709   1.853   2.349   4.368 -0.3389  1.2546  0.1328
 3083SOL     OW20710   1.670   2.930   1.514 -0.1047 -0.0032 -0.0017
 3083SOL    HW120711   1.643   2.866   1.448 -0.4672 -0.7829  0.8982
 3083SOL    HW220712   1.689   2.884   1.596 -0.1980 -0.5089 -0.2703
 3084SOL     OW20713   1.390   1.521   9.482 -0.1183 -0.2966  0.2643
 3084SOL    HW120714   1.397   1.453   9.550 -0.3510  0.1333  0.7177
 3084SOL    HW220715   1.399   1.594   9.543  1.1581  1.8562 -2.5258
 3085SOL     OW20716   1.294   3.293   7.129 -0.2245 -0.1353  0.2652
 3085SOL    HW120717   1.205   3.323   7.109 -0.3423 -0.4745  0.2829
 3085SOL    HW220718   1.274   3.201   7.148 -1.9923  0.2787  0.3835
 3086SOL     OW20719   2.326   3.437   2.495  0.2879 -0.1361  0.0931
 3086SOL    HW120720   2.248   3.424   2.549 -0.6212  0.2122 -1.1243
 3086SOL    HW220721   2.318   3.369   2.428  0.6021  0.7819 -0.8711
 3087SOL     OW20722   4.035   0.553   7.883  0.3236  0.3598 -0.2555
 3087SOL    HW120723   4.093   0.483   7.911 -0.1500 -0.8142 -2.2720
 3087SOL    HW220724   4.031   0.535   7.789 -0.8605 -0.7800  0.0015
 3088SOL     OW20725   0.056   3.884   8.237  0.2650 -0.1362  0.0817
 3088SOL    HW120726   0.126   3.845   8.186 -0.5434 -0.5865 -0.6780
 3088SOL    HW220727   0.051   3.817   8.305  1.7377 -1.0100 -0.6842
 3089SOL     OW20728   0.001   0.556   7.762 -0.1855  0.4600 -0.6369
 3089SOL    HW120729   4.654   0.608   7.720  0.3972  0.9841 -0.9613
 3089SOL    HW220730   4.670   0.492   7.809  0.1548  0.9465  0.4180
 3090SOL     OW20731   3.905   2.551  16.664 -0.2403  0.6172 -0.2115
 3090SOL    HW120732   3.866   2.573  16.579  1.5154  1.6527 -0.7470
 3090SOL    HW220733   3.955   2.470  16.652 -1.0844 -0.3758  3.0094
 3091SOL     OW20734   0.449   2.369   7.275  0.1918 -0.0900  0.1191
 3091SOL    HW120735   0.532   2.415   7.283 -1.4943  3.0890 -0.6110
 3091SOL    HW220736   0.486   2.298   7.223 -1.6782 -0.1907 -1.0667
 3092SOL     OW20737   1.450   0.049   1.305  0.2050 -0.4715  0.4862
 3092SOL    HW120738   1.464   0.095   1.388  2.2285  0.9674 -0.6558
 3092SOL    HW220739   1.414   4.693   1.345  1.2650 -1.5612 -0.7087
 3093SOL     OW20740   0.754   2.305   1.554 -0.0493 -0.0159 -0.0830
 3093SOL    HW120741   0.701   2.241   1.508  0.5403  0.0208 -0.8151
 3093SOL    HW220742   0.684   2.365   1.581  0.7817  0.7760  0.3207
 3094SOL     OW20743   1.864   0.085   2.375 -0.4639 -0.6287 -0.1585
 3094SOL    HW120744   1.822   0.052   2.454 -1.5391  1.4654  0.1457
 3094SOL    HW220745   1.807   0.158   2.352  0.0355  0.2143  1.2696
 3095SOL     OW20746   3.609   2.198   4.384  0.0910  0.5470  0.4772
 3095SOL    HW120747   3.643   2.143   4.314 -0.4264 -1.1784  1.5827
 3095SOL    HW220748   3.691   2.229   4.423  0.4311  0.1278  0.0859
 3096SOL     OW20749   1.342   3.078   2.469  0.2052  0.7444  0.3795
 3096SOL    HW120750   1.359   3.000   2.416  0.2461  1.2184 -0.3047
 3096SOL    HW220751   1.323   3.034   2.552  1.5082 -0.7899 -0.1531
 3097SOL     OW20752   4.481   3.783   6.124  0.3163 -0.3757  0.0333
 3097SOL    HW120753   4.446   3.851   6.066  0.4197  0.0955  0.5217
 3097SOL    HW220754   4.574   3.803   6.135 -0.4379  2.1343  2.0964
 3098SOL     OW20755   3.812   4.041   6.691 -0.2564 -0.4814 -0.8610
 3098SOL    HW120756   3.904   4.037   6.718  0.1341 -1.5770 -2.3710
 3098SOL    HW220757   3.810   4.055   6.596  1.6694  0.4485 -0.7714
 3099SOL     OW20758   1.925   1.526  11.117 -0.7103 -0.1206 -0.0073
 3099SOL    HW120759   1.900   1.444  11.158 -0.6665  0.2010  0.6627
 3099SOL    HW220760   1.999   1.490  11.068 -0.7122 -1.3934  0.9452
 3100SOL     OW20761   2.752   3.269   8.344 -0.3761 -0.4492  0.5168
 3100SOL    HW120762   2.681   3.330   8.363 -0.0726  0.8958 -2.7336
 3100SOL    HW220763   2.707   3.189   8.316 -1.0101 -0.3112  1.1401
 3101SOL     OW20764   4.441   4.430  10.455  0.0772 -0.2927  0.0649
 3101SOL    HW120765   4.510   4.496  10.456 -0.4908  0.2911  0.5120
 3101SOL    HW220766   4.480   4.353  10.496  0.3474 -0.5677 -0.7077
 3102SOL     OW20767   1.143   3.673   8.875 -0.8739 -0.4167 -0.3388
 3102SOL    HW120768   1.089   3.666   8.953 -0.3103  3.2019  0.3749
 3102SOL    HW220769   1.112   3.760   8.850 -0.5113 -0.3141 -0.4429
 3103SOL     OW20770   3.569   3.884   6.697  0.3785  0.5568  0.4895
 3103SOL    HW120771   3.553   3.841   6.781  0.3403 -1.0574 -0.3600
 3103SOL    HW220772   3.633   3.952   6.719  0.4553  0.6048  0.1169
 3104SOL     OW20773   0.738   0.009   3.301 -0.1883 -0.2491  0.0722
 3104SOL    HW120774   0.712   4.655   3.252 -2.8119 -0.3271  1.5806
 3104SOL    HW220775   0.771   0.061   3.228 -1.9518 -0.8123 -1.1366
 3105SOL     OW20776   1.740   1.569  13.539 -0.1166  0.6570  0.0043
 3105SOL    HW120777   1.829   1.537  13.556 -0.0440  0.8671  0.0157
 3105SOL    HW220778   1.751   1.653  13.495  1.1911  0.4031 -0.1746
 3106SOL     OW20779   1.839   3.477   9.706 -0.0592 -0.9089 -0.0679
 3106SOL    HW120780   1.877   3.560   9.679  0.0120 -0.5749  1.0512
 3106SOL    HW220781   1.850   3.431   9.623 -0.9772  2.6678 -2.1391
 3107SOL     OW20782   1.089   1.720  11.569 -0.2197  0.6452 -0.4851
 3107SOL    HW120783   1.132   1.681  11.493 -0.8391 -1.5451  0.2849
 3107SOL    HW220784   1.034   1.790  11.534 -0.7499  0.0893 -0.7578
 3108SOL     OW20785   1.707   1.636   9.501 -0.3323  0.0064  0.2556
 3108SOL    HW120786   1.769   1.667   9.567  0.1112 -1.8493  0.7130
 3108SOL    HW220787   1.637   1.696   9.527  1.5183  2.3305 -0.1249
 3109SOL     OW20788   1.712   1.321   6.993  0.3783 -0.2473 -0.8149
 3109SOL    HW120789   1.649   1.382   6.955 -0.6992 -1.6317 -1.2636
 3109SOL    HW220790   1.694   1.236   6.952 -0.3250 -1.0511  1.1415
 3110SOL     OW20791   3.162   0.499   2.340 -0.5961 -0.2783 -0.1939
 3110SOL    HW120792   3.253   0.517   2.359 -0.7376 -2.2659  2.3391
 3110SOL    HW220793   3.139   0.575   2.287  0.8269  0.7129  0.6156
 3111SOL     OW20794   3.010   3.329  17.684  0.2542  0.1584 -0.1927
 3111SOL    HW120795   2.992   3.302   0.081  1.1680 -0.1267 -0.0985
 3111SOL    HW220796   3.051   3.411   0.019  0.9320 -1.1228  2.5594
 3112SOL     OW20797   1.888   3.549  13.830  0.3215 -0.4664  0.1757
 3112SOL    HW120798   1.798   3.517  13.841 -0.0202 -0.1274 -1.5713
 3112SOL    HW220799   1.877   3.644  13.820  0.9801 -0.3394  0.6625
 3113SOL     OW20800   4.266   1.261   2.047 -0.0037  0.0909 -0.1204
 3113SOL    HW120801   4.204   1.256   1.975  0.5341  0.9531 -0.6418
 3113SOL    HW220802   4.212   1.224   2.117  1.5440 -0.8607  0.5892
 3114SOL     OW20803   2.050   0.167   5.375  0.1928 -0.3748 -0.1427
 3114SOL    HW120804   2.019   0.196   5.461  0.3468  0.3833 -0.3444
 3114SOL    HW220805   2.028   0.237   5.313 -0.1912 -0.6302 -0.2974
 3115SOL     OW20806   0.212   4.159   7.481  0.3294 -0.1081  0.1145
 3115SOL    HW120807   0.238   4.210   7.557 -1.0613  0.5311  0.1616
 3115SOL    HW220808   0.123   4.146   7.512  0.0218  0.3662 -0.5638
 3116SOL     OW20809   3.963   3.674   2.726  0.2372 -0.2113  0.9406
 3116SOL    HW120810   3.996   3.714   2.806  0.4203  0.5602  0.4761
 3116SOL    HW220811   4.039   3.642   2.676  1.0207  0.2644  1.8359
 3117SOL     OW20812   2.400   2.848   6.804  0.1046 -0.3618 -0.4106
 3117SOL    HW120813   2.347   2.864   6.882 -0.4933  0.2182 -0.9282
 3117SOL    HW220814   2.450   2.929   6.804 -0.4714  0.0019 -2.6789
 3118SOL     OW20815   2.621   0.672   3.129  0.4506 -0.0249  0.3258
 3118SOL    HW120816   2.697   0.727   3.114 -0.1791  0.8908  0.5399
 3118SOL    HW220817   2.609   0.633   3.042  1.3358 -3.0325  1.5325
 3119SOL     OW20818   4.144   1.163   2.284  0.1502  0.1129  0.4281
 3119SOL    HW120819   4.095   1.199   2.358  0.2850  0.6543  0.2515
 3119SOL    HW220820   4.213   1.122   2.336 -0.5251  0.5375  1.6683
 3120SOL     OW20821   0.725   0.001   8.052 -0.0736  0.1421 -0.2977
 3120SOL    HW120822   0.643   0.040   8.082 -0.3550  0.1436 -1.0775
 3120SOL    HW220823   0.734   4.660   8.123 -0.7213  1.7983  1.2599
 3121SOL     OW20824   0.922   2.499   6.941 -0.0863  0.4928 -0.0997
 3121SOL    HW120825   0.984   2.508   7.014 -1.0915 -0.2613  0.8533
 3121SOL    HW220826   0.982   2.525   6.872 -1.1381  0.0426 -1.1840
 3122SOL     OW20827   2.381   4.364   3.363 -0.1507  0.6577 -0.2043
 3122SOL    HW120828   2.465   4.325   3.386 -1.2901 -1.6340  0.0181
 3122SOL    HW220829   2.374   4.422   3.439  0.6534  0.3100  0.1315
 3123SOL     OW20830   2.884   0.011  14.026  0.1798 -0.3657 -0.4623
 3123SOL    HW120831   2.858   0.099  14.052 -0.5183 -0.6887 -0.0712
 3123SOL    HW220832   2.867   0.013  13.932  0.7322  1.2620 -0.5309
 3124SOL     OW20833   2.962   1.262   5.250  0.7371  0.9389 -0.4714
 3124SOL    HW120834   3.057   1.252   5.260  0.5770 -0.3315 -0.2411
 3124SOL    HW220835   2.953   1.341   5.304 -1.3806  2.0279 -2.4420
 3125SOL     OW20836   3.548   0.115   1.616  0.4493 -0.0593  0.5123
 3125SOL    HW120837   3.577   0.090   1.528  0.5017  0.5662  0.3534
 3125SOL    HW220838   3.630   0.120   1.665 -0.0872  1.7553  1.2360
 3126SOL     OW20839   4.680   4.236  12.785  0.5448  0.1496  0.8821
 3126SOL    HW120840   4.678   4.207  12.694 -0.3535  1.8726  0.3561
 3126SOL    HW220841   4.606   4.180  12.809 -0.6054  0.7079 -1.4035
 3127SOL     OW20842   2.108   1.361  16.623 -0.4304  0.1939 -0.2142
 3127SOL    HW120843   2.030   1.307  16.636 -1.5164  1.7457 -0.3733
 3127SOL    HW220844   2.063   1.437  16.658  0.1531  0.7997 -0.7964
 3128SOL     OW20845   0.894   0.763   4.473 -0.0828  0.2038  0.4175
 3128SOL    HW120846   0.927   0.849   4.446 -0.8609  0.0964 -0.8432
 3128SOL    HW220847   0.947   0.748   4.552  0.6201  4.0091  0.6941
 3129SOL     OW20848   4.566   1.937   4.246 -0.0710 -0.0980 -0.0553
 3129SOL    HW120849   4.587   1.994   4.321  2.4029 -0.0315 -0.8027
 3129SOL    HW220850   4.527   1.866   4.297 -1.4045  1.3773  0.9765
 3130SOL     OW20851   1.890   2.574   5.121  0.2251 -0.2207  0.1982
 3130SOL    HW120852   1.895   2.513   5.195  0.3852 -0.3749  0.0581
 3130SOL    HW220853   1.919   2.520   5.048 -2.0725  0.7000 -1.4005
 3131SOL     OW20854   1.846   3.286   8.464  0.1969 -0.3677 -0.0429
 3131SOL    HW120855   1.824   3.370   8.505 -0.9125 -0.4657 -0.4146
 3131SOL    HW220856   1.808   3.303   8.378 -2.0073  3.6645  1.6965
 3132SOL     OW20857   3.822   4.483  12.378 -0.1638 -0.2029 -0.6099
 3132SOL    HW120858   3.850   4.542  12.308  0.2220  1.3264  0.8345
 3132SOL    HW220859   3.888   4.414  12.373  0.8532  0.6777  0.5884
 3133SOL     OW20860   0.898   1.918  11.473  0.0071 -0.0603 -0.2063
 3133SOL    HW120861   0.950   1.885  11.400 -2.4722  3.5667 -3.5720
 3133SOL    HW220862   0.859   1.997  11.436 -0.4328  0.4933  1.4409
 3134SOL     OW20863   3.420   1.570   3.078  0.8119 -0.0295 -0.0980
 3134SOL    HW120864   3.479   1.511   3.125 -0.5687 -1.4553 -0.1630
 3134SOL    HW220865   3.410   1.517   2.999 -0.8286 -0.2142  0.2395
 3135SOL     OW20866   0.848   1.314   5.001 -0.4027  0.0547  1.3848
 3135SOL    HW120867   0.943   1.325   5.006 -0.1753 -1.1179 -0.1696
 3135SOL    HW220868   0.818   1.395   5.041 -1.8099 -0.1415  0.7381
 3136SOL     OW20869   1.497   2.630   0.119  0.5351  0.1212 -0.2544
 3136SOL    HW120870   1.571   2.676   0.079 -0.7668  3.6035  1.3047
 3136SOL    HW220871   1.515   2.630   0.213 -0.1129  0.1811 -0.1274
 3137SOL     OW20872   1.617   0.839   8.402 -0.3070 -0.3254 -0.1047
 3137SOL    HW120873   1.669   0.832   8.322 -1.8597 -1.6874 -0.9808
 3137SOL    HW220874   1.684   0.795   8.455  0.0926 -0.0562 -0.3803
 3138SOL     OW20875   1.742   3.838   3.913  0.2476 -0.7666 -0.0375
 3138SOL    HW120876   1.827   3.882   3.902 -0.7707  0.3647 -3.2002
 3138SOL    HW220877   1.683   3.911   3.929 -1.8334 -2.4275 -0.1855
 3139SOL     OW20878   1.306   0.503  17.467 -0.4010 -0.4680 -0.4927
 3139SOL    HW120879   1.377   0.455  17.509  0.0480 -1.3793 -2.3089
 3139SOL    HW220880   1.317   0.483  17.374  0.3337 -0.9861 -0.2912
 3140SOL     OW20881   0.466   4.123   7.786 -0.6377  0.4177 -0.1378
 3140SOL    HW120882   0.527   4.146   7.716 -0.3842 -1.1065 -0.4213
 3140SOL    HW220883   0.397   4.182   7.757 -1.0483  0.4292  0.8584
 3141SOL     OW20884   4.496   2.769   6.039 -0.4569  0.6746  0.7332
 3141SOL    HW120885   4.569   2.736   5.987 -1.3293  1.3278 -0.8952
 3141SOL    HW220886   4.531   2.858   6.048 -1.3748  1.1432 -0.2548
 3142SOL     OW20887   3.474   3.921   9.924 -0.2742  0.1687  0.0402
 3142SOL    HW120888   3.426   3.950   9.846 -0.4650  0.6943  0.3521
 3142SOL    HW220889   3.458   3.984   9.995  0.0651 -0.1372  0.3921
 3143SOL     OW20890   1.046   3.921   8.883 -0.0368 -0.1695 -0.4375
 3143SOL    HW120891   0.967   3.963   8.848  0.0877 -1.1734 -1.9551
 3143SOL    HW220892   1.118   3.965   8.836  0.8318 -2.0430 -0.8664
 3144SOL     OW20893   2.179   0.746  11.110 -0.2514 -0.7903 -0.2347
 3144SOL    HW120894   2.215   0.660  11.090 -3.5749 -1.6582 -2.4774
 3144SOL    HW220895   2.106   0.728  11.168  1.2938  0.5345  2.1248
 3145SOL     OW20896   4.377   2.865   5.027  0.6216  0.0531 -0.4120
 3145SOL    HW120897   4.353   2.831   5.113  3.1534  2.9229  1.4138
 3145SOL    HW220898   4.453   2.807   5.019 -1.5318 -3.0060  1.0363
 3146SOL     OW20899   2.827   3.891  15.856 -0.2882 -0.2252 -0.3091
 3146SOL    HW120900   2.919   3.868  15.869  0.2885  3.1679  1.7159
 3146SOL    HW220901   2.827   3.938  15.772  0.5014  1.7063  0.7672
 3147SOL     OW20902   2.212   3.706   0.499  0.8221 -0.2468 -0.5217
 3147SOL    HW120903   2.162   3.786   0.486 -1.2663 -1.5920 -0.7526
 3147SOL    HW220904   2.210   3.689   0.594 -0.8662  2.6896 -0.0343
 3148SOL     OW20905   2.271   2.201   6.430  0.0140  0.1745  0.1277
 3148SOL    HW120906   2.187   2.210   6.386  0.2347 -0.8365 -0.4956
 3148SOL    HW220907   2.263   2.264   6.502  1.0007 -0.5595  0.8937
 3149SOL     OW20908   0.383   1.150   7.242 -0.1604 -0.1794 -0.3513
 3149SOL    HW120909   0.418   1.124   7.327  0.9645  0.4154 -0.6387
 3149SOL    HW220910   0.382   1.245   7.248  1.1739 -0.1346 -0.9426
 3150SOL     OW20911   4.099   3.892   9.500  0.6099 -0.1968 -0.6047
 3150SOL    HW120912   4.011   3.867   9.528  0.9578 -1.7369 -0.8912
 3150SOL    HW220913   4.152   3.842   9.563 -0.4952  0.3037  0.7236
 3151SOL     OW20914   1.070   2.962  17.123 -0.5788  0.4073 -0.1136
 3151SOL    HW120915   1.106   2.873  17.122 -2.0037 -0.1663  0.6443
 3151SOL    HW220916   0.976   2.953  17.111 -0.5286 -2.3154  1.6345
 3152SOL     OW20917   2.588   3.828   7.311  0.6185 -0.3493 -0.9621
 3152SOL    HW120918   2.679   3.800   7.298  0.5989 -1.6113  1.7552
 3152SOL    HW220919   2.560   3.769   7.381  1.6008 -1.1259 -1.2150
 3153SOL     OW20920   0.366   0.803  13.271 -0.1849 -0.8766  0.2515
 3153SOL    HW120921   0.384   0.895  13.253  1.5176 -1.1059  0.7701
 3153SOL    HW220922   0.292   0.805  13.332 -1.1516  3.4885 -1.1081
 3154SOL     OW20923   2.789   0.627  15.717  0.3723  0.3075 -0.1900
 3154SOL    HW120924   2.865   0.685  15.720  0.7663 -0.1705 -0.7604
 3154SOL    HW220925   2.820   0.570  15.786 -0.4751  1.9399  1.5280
 3155SOL     OW20926   0.125   2.384   5.406 -0.4111 -0.1602 -0.1225
 3155SOL    HW120927   0.126   2.480   5.406 -0.4117 -0.1622  2.6249
 3155SOL    HW220928   0.055   2.367   5.342 -0.3069 -2.1606  0.3135
 3156SOL     OW20929   1.665   1.701   3.807 -0.6173 -0.5695 -0.3512
 3156SOL    HW120930   1.680   1.780   3.860 -1.1756 -0.3612 -0.5057
 3156SOL    HW220931   1.724   1.721   3.734 -0.9550  2.9462  0.3517
 3157SOL     OW20932   2.435   2.780   5.215  0.4274 -0.4096  0.7055
 3157SOL    HW120933   2.358   2.733   5.183  1.6547 -1.2177 -1.0924
 3157SOL    HW220934   2.432   2.758   5.309  1.1634 -1.6188  0.4592
 3158SOL     OW20935   2.484   1.355   2.351  0.2911 -0.1054 -0.4283
 3158SOL    HW120936   2.519   1.372   2.263 -0.6000 -2.4316 -1.2192
 3158SOL    HW220937   2.390   1.343   2.341 -0.0320  1.6065  0.6818
 3159SOL     OW20938   2.157   3.169   4.085  0.1521  0.0441 -0.4283
 3159SOL    HW120939   2.090   3.143   4.022 -1.8251 -0.0854  1.7092
 3159SOL    HW220940   2.226   3.105   4.069  0.0835  0.0090 -0.5820
 3160SOL     OW20941   2.590   1.543   9.094 -0.2443 -0.6272  0.0696
 3160SOL    HW120942   2.614   1.636   9.091  1.0708 -1.0037 -0.9412
 3160SOL    HW220943   2.506   1.540   9.049 -0.5531  1.9178  0.4527
 3161SOL     OW20944   3.873   3.754   5.853 -0.2189  0.3631 -0.1346
 3161SOL    HW120945   3.895   3.705   5.774 -0.4754 -1.3683  0.8610
 3161SOL    HW220946   3.859   3.837   5.807 -1.0783  0.3895  0.1743
 3162SOL     OW20947   3.673   1.909   2.760 -0.3068  0.0291  0.3554
 3162SOL    HW120948   3.656   1.998   2.788 -0.1533  0.8511 -2.1700
 3162SOL    HW220949   3.630   1.911   2.675  1.0924  0.8486 -0.3293
 3163SOL     OW20950   1.526   1.136   5.239  0.0438  0.0734  0.3705
 3163SOL    HW120951   1.534   1.136   5.335 -0.4782  0.4662  0.4106
 3163SOL    HW220952   1.469   1.061   5.224  0.6088  0.0831 -1.8394
 3164SOL     OW20953   3.934   1.481   2.403  0.0702 -0.0450  0.2469
 3164SOL    HW120954   3.871   1.504   2.335  0.1569  1.7229  0.7663
 3164SOL    HW220955   4.009   1.536   2.377  0.5460 -0.7411  0.1476
 3165SOL     OW20956   2.645   3.433   7.564 -0.1418 -0.0657 -0.7360
 3165SOL    HW120957   2.606   3.447   7.651 -1.0437 -0.2798 -1.1019
 3165SOL    HW220958   2.737   3.427   7.588  0.1890 -2.5288 -2.6646
 3166SOL     OW20959   2.522   4.528   1.277 -0.1822 -0.5481 -0.3277
 3166SOL    HW120960   2.473   4.573   1.208 -0.9464 -2.8310 -1.2672
 3166SOL    HW220961   2.597   4.586   1.286 -1.1043  0.5204  0.5449
 3167SOL     OW20962   1.192   3.588   6.617 -0.2531  0.2414 -0.1260
 3167SOL    HW120963   1.225   3.499   6.630  0.7942  0.2145 -3.1741
 3167SOL    HW220964   1.212   3.631   6.700 -0.1112 -1.7863  0.9016
 3168SOL     OW20965   0.721   2.602   0.342 -0.2567  0.3378  0.7459
 3168SOL    HW120966   0.633   2.572   0.366  0.7337 -2.6289  0.7050
 3168SOL    HW220967   0.725   2.619   0.248  1.3292 -2.4203  0.2925
 3169SOL     OW20968   4.715   2.760   7.113 -0.0487 -0.1434 -0.2189
 3169SOL    HW120969   0.007   2.743   7.206 -0.8215  1.5921  0.2128
 3169SOL    HW220970   4.621   2.743   7.107 -0.2533  0.4924  1.1530
 3170SOL     OW20971   3.738   3.448   3.234 -0.2503 -0.1152 -0.7792
 3170SOL    HW120972   3.742   3.401   3.318  1.0645 -0.9905 -1.3347
 3170SOL    HW220973   3.672   3.510   3.266  0.9175  0.5952  0.2543
 3171SOL     OW20974   1.488   3.104   7.338  0.2043 -0.7971 -0.2278
 3171SOL    HW120975   1.476   3.101   7.433 -0.1978  0.9294 -0.2185
 3171SOL    HW220976   1.430   3.031   7.313  0.2457 -0.2002 -2.0642
 3172SOL     OW20977   1.000   2.165   7.985 -0.0881  0.1247 -0.0934
 3172SOL    HW120978   1.070   2.104   8.008 -0.6833 -0.4965  0.0537
 3172SOL    HW220979   0.929   2.148   8.046 -1.0344  1.9811 -0.6618
 3173SOL     OW20980   0.698   1.720   2.206  0.1798 -0.1420  0.4353
 3173SOL    HW120981   0.640   1.767   2.266  0.7401 -0.7800  1.4631
 3173SOL    HW220982   0.630   1.666   2.166 -0.7754  0.4165  1.2879
 3174SOL     OW20983   2.225   3.973   3.443 -0.3374  0.5333 -0.1817
 3174SOL    HW120984   2.318   3.993   3.451  0.4730 -2.1437 -3.1699
 3174SOL    HW220985   2.225   3.884   3.408 -2.7630 -0.0083  1.1684
 3175SOL     OW20986   3.475   4.269   7.160 -0.0735  0.7278 -0.2782
 3175SOL    HW120987   3.483   4.331   7.087 -1.5735  0.4889 -0.6331
 3175SOL    HW220988   3.421   4.201   7.121 -0.5767 -0.6193  2.7820
 3176SOL     OW20989   3.318   3.146   5.138  0.6289  0.3520  0.6854
 3176SOL    HW120990   3.249   3.086   5.165 -0.4729  1.5491  0.5250
 3176SOL    HW220991   3.292   3.197   5.061  3.2273 -0.1493 -0.5371
 3177SOL     OW20992   2.430   3.930   3.819  0.0629 -0.1409 -0.5250
 3177SOL    HW120993   2.476   3.846   3.816  0.8610  0.2979 -0.8061
 3177SOL    HW220994   2.424   3.956   3.727  1.8273  0.1097 -0.5712
 3178SOL     OW20995   3.901   4.704   8.320  0.1662  0.1112  0.2481
 3178SOL    HW120996   3.962   4.700   8.394  0.2021 -2.6268  0.0637
 3178SOL    HW220997   3.817   4.709   8.365  0.1063  2.9727 -0.2009
 3179SOL     OW20998   2.101   3.004  11.614  0.0511 -0.5841  0.2400
 3179SOL    HW120999   2.057   3.039  11.537 -0.2060 -0.4172  0.4628
 3179SOL    HW221000   2.075   2.912  11.619 -2.1994  0.0151 -0.5211
 3180SOL     OW21001   0.821   3.397   5.516  0.2780  0.3087 -0.3562
 3180SOL    HW121002   0.761   3.466   5.487 -1.6682 -0.7302  1.2050
 3180SOL    HW221003   0.881   3.379   5.443 -1.8177 -2.4047 -1.4235
 3181SOL     OW21004   0.727   0.249   9.365 -0.4939  0.3387 -0.5846
 3181SOL    HW121005   0.798   0.300   9.328  0.2069  0.6511  1.1808
 3181SOL    HW221006   0.649   0.287   9.325 -0.1636  1.8918  0.2218
 3182SOL     OW21007   2.441   3.933  10.092  0.5552 -0.2040 -0.1147
 3182SOL    HW121008   2.372   3.880  10.134  1.8358 -1.5818  0.2794
 3182SOL    HW221009   2.513   3.871  10.079  1.5961  1.2772 -1.4149
 3183SOL     OW21010   2.637   2.715  12.141  0.0092 -0.1648  0.1821
 3183SOL    HW121011   2.547   2.745  12.151 -0.2831 -0.9584 -0.1062
 3183SOL    HW221012   2.638   2.649  12.209 -0.9052  0.8273  1.1697
 3184SOL     OW21013   3.586   0.063   1.371  0.2597 -0.3637  0.5095
 3184SOL    HW121014   3.548   0.003   1.307  0.7268 -3.4343  3.1062
 3184SOL    HW221015   3.669   0.096   1.335 -0.4298  1.1621  0.2989
 3185SOL     OW21016   2.357   0.298  13.104  0.8575 -0.5942  0.2156
 3185SOL    HW121017   2.410   0.260  13.034 -0.6870 -1.0156 -0.7072
 3185SOL    HW221018   2.344   0.221  13.160 -0.1723 -0.5279  0.0638
 3186SOL     OW21019   1.427   1.392  15.487 -0.2571  0.1189  1.0416
 3186SOL    HW121020   1.471   1.416  15.405 -1.6501 -0.9424  0.0093
 3186SOL    HW221021   1.501   1.387  15.548 -0.7724  0.7933  1.7204
 3187SOL     OW21022   4.142   1.047   7.967 -0.1150 -0.2879 -0.3984
 3187SOL    HW121023   4.139   0.951   7.961 -3.7328 -0.2571  0.9499
 3187SOL    HW221024   4.050   1.072   7.954 -0.5816 -1.9912 -0.3815
 3188SOL     OW21025   1.716   3.651  16.810  0.2907 -0.2952  0.1111
 3188SOL    HW121026   1.715   3.619  16.901  2.5013 -0.6091  0.0383
 3188SOL    HW221027   1.719   3.570  16.760 -1.9820  0.7167 -1.6403
 3189SOL     OW21028   0.311   3.741   7.651  0.3909  0.2435  0.1449
 3189SOL    HW121029   0.346   3.793   7.724 -0.5768  0.2096  0.6392
 3189SOL    HW221030   0.277   3.808   7.593 -1.0551 -1.5479 -1.0883
 3190SOL     OW21031   2.753   2.712   4.884 -0.5010  0.4894  0.2472
 3190SOL    HW121032   2.792   2.748   4.963  0.0516 -1.4880  0.8734
 3190SOL    HW221033   2.663   2.745   4.884 -0.5883  0.2504 -1.7816
 3191SOL     OW21034   1.099   3.239   8.822 -0.3137 -0.3333 -0.2733
 3191SOL    HW121035   1.042   3.310   8.794 -1.9497 -1.6394 -0.2943
 3191SOL    HW221036   1.073   3.228   8.914  0.5591  0.7147  0.0937
 3192SOL     OW21037   2.897   4.680  11.896 -0.2870  0.3981  0.0648
 3192SOL    HW121038   2.883   0.044  11.856 -2.3587  0.2477  0.4692
 3192SOL    HW221039   2.870   4.703  11.985  0.4338  0.2943  0.3058
 3193SOL     OW21040   4.109   2.406   3.733  0.2806 -1.0242 -0.0958
 3193SOL    HW121041   4.059   2.411   3.652 -0.6670 -1.4558  0.4647
 3193SOL    HW221042   4.053   2.356   3.792  1.1733 -1.1697  0.6449
 3194SOL     OW21043   1.464   3.172   9.426 -0.0618  0.2652 -0.0123
 3194SOL    HW121044   1.463   3.227   9.348 -1.7195 -0.1144 -0.2492
 3194SOL    HW221045   1.439   3.233   9.496  0.1601  1.3028 -0.8443
 3195SOL     OW21046   1.957   3.050   9.536  0.6138 -0.2106 -0.1391
 3195SOL    HW121047   1.914   2.987   9.593  0.5021  0.0601  0.0729
 3195SOL    HW221048   2.036   3.071   9.585  1.4933 -1.1559 -1.1347
 3196SOL     OW21049   3.391   1.024  14.916  0.5790 -0.4451 -0.1191
 3196SOL    HW121050   3.356   1.092  14.858  1.4328  0.0400 -0.0669
 3196SOL    HW221051   3.439   0.970  14.853  2.4132  2.8316 -1.5529
 3197SOL     OW21052   3.278   2.003   6.337 -0.3392  0.3517  0.1220
 3197SOL    HW121053   3.234   1.931   6.291 -0.4263 -0.5041  1.5360
 3197SOL    HW221054   3.272   2.075   6.274  0.4050 -0.4320 -0.8440
 3198SOL     OW21055   4.523   2.944   9.794  0.2854 -0.0918  0.1923
 3198SOL    HW121056   4.482   2.858   9.785  0.4288  0.1923 -3.5372
 3198SOL    HW221057   4.521   2.980   9.705 -3.2512 -1.4407 -0.2845
 3199SOL     OW21058   1.965   0.651   5.386 -0.2239 -0.1850  0.1721
 3199SOL    HW121059   1.936   0.655   5.295  0.5483 -1.8049 -0.1363
 3199SOL    HW221060   1.996   0.561   5.397 -0.3895 -0.1193  1.1735
 3200SOL     OW21061   2.275   0.385   2.352  0.5914 -0.0977 -0.4707
 3200SOL    HW121062   2.201   0.336   2.388  1.2325 -0.7885 -0.0728
 3200SOL    HW221063   2.309   0.437   2.425  0.7200  2.4804 -2.3914
 3201SOL     OW21064   0.273   2.847   7.019  1.4990 -0.5048  0.2626
 3201SOL    HW121065   0.321   2.820   7.098  1.8059  0.4111  0.3854
 3201SOL    HW221066   0.187   2.831   7.057  1.2836 -1.7677 -0.7674
 3202SOL     OW21067   1.777   2.763  13.363 -0.1175  0.3687  0.7180
 3202SOL    HW121068   1.684   2.743  13.376 -0.5878  0.3731 -2.5324
 3202SOL    HW221069   1.800   2.783  13.453 -1.6438 -1.3941  1.4845
 3203SOL     OW21070   1.062   3.346   5.390  0.4909  0.4437  0.4446
 3203SOL    HW121071   1.078   3.255   5.417 -1.3304 -0.8382 -2.7983
 3203SOL    HW221072   1.149   3.377   5.365 -0.2411  0.1129 -2.4660
 3204SOL     OW21073   1.139   2.208   6.732 -0.0544  0.5186  0.1911
 3204SOL    HW121074   1.219   2.254   6.758  0.1539 -0.7154  1.7387
 3204SOL    HW221075   1.093   2.278   6.686  0.0769  1.2157  1.1303
 3205SOL     OW21076   2.985   1.650  16.089  0.0611  0.6933  0.5042
 3205SOL    HW121077   2.904   1.602  16.073  0.0019  0.1780  2.4107
 3205SOL    HW221078   2.982   1.665  16.184  0.3328 -0.2586  0.6623
 3206SOL     OW21079   2.844   2.116   3.520  0.0593  0.4843 -0.4094
 3206SOL    HW121080   2.904   2.190   3.534  1.1079 -0.4977  0.3373
 3206SOL    HW221081   2.778   2.131   3.587  0.8524  0.2460  0.4329
 3207SOL     OW21082   3.291   2.568   8.811 -0.0910 -0.0461 -0.0140
 3207SOL    HW121083   3.268   2.599   8.724  0.1736  0.0856 -0.0364
 3207SOL    HW221084   3.385   2.554   8.803 -0.1108 -0.4558  0.3982
 3208SOL     OW21085   3.490   2.069   0.850  0.3792  0.3411 -0.2232
 3208SOL    HW121086   3.453   2.045   0.765 -1.2492 -2.5009  1.2492
 3208SOL    HW221087   3.520   2.159   0.844  2.0837 -0.2370 -0.4629
 3209SOL     OW21088   4.014   1.872   5.430  0.0262  0.0100  0.5996
 3209SOL    HW121089   3.991   1.929   5.503  0.4353  0.7667  0.1371
 3209SOL    HW221090   3.971   1.916   5.356  0.0066  0.6143  0.9714
 3210SOL     OW21091   3.639   2.469   5.697  0.1624  0.1434 -0.2809
 3210SOL    HW121092   3.644   2.542   5.636 -0.3295 -0.5347 -1.1226
 3210SOL    HW221093   3.556   2.428   5.670  0.3561  0.8732 -1.9405
 3211SOL     OW21094   1.240   2.040  16.352  0.1905 -0.0844  0.3700
 3211SOL    HW121095   1.204   2.023  16.266  3.5546  1.2740 -1.3240
 3211SOL    HW221096   1.162   2.027  16.405 -0.1810 -1.0441 -0.4298
 3212SOL     OW21097   3.266   2.901   5.306  0.5230  0.6338  0.0717
 3212SOL    HW121098   3.200   2.899   5.237  0.1149  1.1000  0.4526
 3212SOL    HW221099   3.206   2.888   5.380  1.1373  1.0486  0.6436
 3213SOL     OW21100   2.677   0.273   8.952  0.2373 -0.4112  0.2353
 3213SOL    HW121101   2.733   0.242   9.023  0.4407 -0.8658 -0.1265
 3213SOL    HW221102   2.742   0.300   8.887 -2.0928  1.8499 -1.1548
 3214SOL     OW21103   2.317   1.635   1.263  0.0070 -0.1236  0.2200
 3214SOL    HW121104   2.320   1.661   1.171 -0.4758 -0.2061  0.1838
 3214SOL    HW221105   2.245   1.689   1.295  1.2318 -0.0384  2.8483
 3215SOL     OW21106   3.760   3.829   2.612 -0.0783 -0.2773  0.3334
 3215SOL    HW121107   3.810   3.840   2.531 -0.5384 -1.7488 -0.1488
 3215SOL    HW221108   3.819   3.773   2.662 -2.3106 -0.1562  3.1075
 3216SOL     OW21109   3.186   0.488  16.473  0.1663  0.1155 -0.1144
 3216SOL    HW121110   3.260   0.428  16.483 -0.1294  0.0315  1.4799
 3216SOL    HW221111   3.142   0.461  16.553  1.0889  0.4376  0.4965
 3217SOL     OW21112   0.218   4.715   4.320 -0.2546  0.3085  0.0345
 3217SOL    HW121113   0.301   4.683   4.283 -0.7294 -0.6106 -0.2434
 3217SOL    HW221114   0.207   0.066   4.261 -1.0260  0.3077  0.1804
 3218SOL     OW21115   4.007   0.915   2.802 -0.5237 -0.0389  0.0693
 3218SOL    HW121116   3.968   0.988   2.850  1.0287  1.1352 -0.4402
 3218SOL    HW221117   3.988   0.945   2.714  0.3704  0.3283  0.0039
 3219SOL     OW21118   3.535   2.331   6.938  0.4157 -0.5206  0.1130
 3219SOL    HW121119   3.628   2.323   6.960 -0.0646 -0.2162  2.2526
 3219SOL    HW221120   3.534   2.361   6.847  2.3613 -1.3540 -0.2005
 3220SOL     OW21121   3.910   3.990   5.716  0.0659  0.4324 -0.5617
 3220SOL    HW121122   3.825   4.033   5.725  0.7302  1.6330  0.0437
 3220SOL    HW221123   3.934   4.000   5.624  0.4631 -0.6190 -0.5709
 3221SOL     OW21124   2.045   1.538   9.036  0.1663 -0.6783 -0.1266
 3221SOL    HW121125   2.008   1.593   9.105 -1.9439 -0.0479 -1.7599
 3221SOL    HW221126   2.007   1.457   9.069  0.9592 -0.8322  0.3989
 3222SOL     OW21127   1.054   4.027  13.530 -0.1433 -0.2918  0.4725
 3222SOL    HW121128   1.061   3.934  13.550  0.3297 -0.3972 -0.1513
 3222SOL    HW221129   1.056   4.073  13.613  1.3392  2.2733 -0.9824
 3223SOL     OW21130   2.111   2.634   4.781 -0.5402  0.3451 -0.0340
 3223SOL    HW121131   2.147   2.618   4.868  1.7241  0.7063 -0.8989
 3223SOL    HW221132   2.047   2.563   4.779 -1.5489  1.2534 -0.3882
 3224SOL     OW21133   1.017   3.356  11.002  0.0080 -0.0735 -0.2408
 3224SOL    HW121134   1.019   3.309  11.085 -0.4619  2.5912  1.2382
 3224SOL    HW221135   1.100   3.403  11.008  1.2089 -2.0567 -1.0512
 3225SOL     OW21136   2.059   0.892  12.497 -0.1898 -0.3074 -0.3116
 3225SOL    HW121137   2.146   0.861  12.471  0.4559 -1.3517  3.0870
 3225SOL    HW221138   2.023   0.935  12.419 -0.2406  2.8667  1.4893
 3226SOL     OW21139   2.652   2.481   4.631 -0.1395  0.8964 -0.0795
 3226SOL    HW121140   2.556   2.474   4.629 -0.1079  0.1670  1.0842
 3226SOL    HW221141   2.671   2.444   4.717 -3.6359 -2.0634 -0.5630
 3227SOL     OW21142   3.228   2.180   6.881  0.4534 -0.0785 -0.0152
 3227SOL    HW121143   3.306   2.124   6.878 -0.1650 -0.8358 -1.8575
 3227SOL    HW221144   3.219   2.208   6.972 -0.5180  3.0554 -1.0910
 3228SOL     OW21145   0.058   2.975   7.455  0.2807 -0.2755  0.2975
 3228SOL    HW121146   0.123   3.004   7.519  0.6221 -1.1025  0.3213
 3228SOL    HW221147   0.089   2.887   7.433  1.1404 -0.1128  0.8355
 3229SOL     OW21148   3.199   0.701   2.853 -0.6709  0.1165  0.2847
 3229SOL    HW121149   3.283   0.662   2.830 -1.0520 -0.0297 -0.8809
 3229SOL    HW221150   3.160   0.695   2.765 -1.5923  0.1281  0.6955
 3230SOL     OW21151   0.196   2.812   2.787 -0.6368 -0.1626 -0.1354
 3230SOL    HW121152   0.234   2.777   2.707  0.9016 -0.5158  0.7437
 3230SOL    HW221153   0.133   2.877   2.755 -1.9049 -1.6169 -0.5748
 3231SOL     OW21154   3.749   2.267   4.749  0.1422  0.4054 -0.0183
 3231SOL    HW121155   3.737   2.209   4.674 -0.0422  1.3141 -0.6879
 3231SOL    HW221156   3.831   2.306   4.719  0.3637 -0.2699 -0.2981
 3232SOL     OW21157   1.517   4.575   0.146 -0.0758  0.5809 -0.1381
 3232SOL    HW121158   1.604   4.613   0.155 -0.8238  2.5925 -1.3743
 3232SOL    HW221159   1.525   4.495   0.198 -2.3225  0.9106  0.7452
 3233SOL     OW21160   0.985   1.557   3.409 -0.3605 -0.3193  0.1635
 3233SOL    HW121161   0.958   1.591   3.324  1.7793 -1.0579 -0.8238
 3233SOL    HW221162   0.998   1.640   3.454 -0.7735  0.3482 -0.9544
 3234SOL     OW21163   2.273   0.601  15.145  0.5814 -0.2069 -0.4139
 3234SOL    HW121164   2.204   0.564  15.201 -0.9068 -1.0985 -2.8122
 3234SOL    HW221165   2.312   0.518  15.116 -1.3352 -0.9389 -0.8991
 3235SOL     OW21166   0.172   1.922   4.425 -0.0049 -0.0610  0.0739
 3235SOL    HW121167   0.092   1.869   4.423 -1.0697  1.5531 -0.4246
 3235SOL    HW221168   0.223   1.847   4.457  1.0767  1.3041  1.5792
 3236SOL     OW21169   0.766   1.743   3.782 -0.2786 -0.2291  0.4240
 3236SOL    HW121170   0.771   1.817   3.721  2.8012 -0.6710  0.1545
 3236SOL    HW221171   0.734   1.791   3.858 -0.6517  2.1644 -1.2547
 3237SOL     OW21172   2.742   3.814   8.313 -0.4876 -0.0700  0.3721
 3237SOL    HW121173   2.781   3.864   8.242  0.4781  0.8289  1.5285
 3237SOL    HW221174   2.747   3.876   8.386  0.9466 -0.1644  0.3647
 3238SOL     OW21175   1.037   0.853   7.790 -0.5222 -0.1019 -0.4601
 3238SOL    HW121176   1.009   0.797   7.863  1.7803 -0.2313  0.3231
 3238SOL    HW221177   1.026   0.942   7.826 -0.5288 -0.2345 -0.1315
 3239SOL     OW21178   2.102   3.515   5.667 -0.0988 -0.1725  0.1522
 3239SOL    HW121179   2.175   3.576   5.679  0.2093 -0.6291  0.5998
 3239SOL    HW221180   2.047   3.569   5.610  1.3810  0.2486 -0.8738
 3240SOL     OW21181   2.603   3.351   2.782  0.2135 -0.6614 -0.2786
 3240SOL    HW121182   2.654   3.417   2.734 -1.4187 -0.1801 -1.3684
 3240SOL    HW221183   2.548   3.404   2.839  1.2710 -0.1417  0.2712
 3241SOL     OW21184   4.272   1.768   7.529 -0.5326 -0.0167  0.8179
 3241SOL    HW121185   4.238   1.694   7.479  1.6565 -0.3295 -0.2011
 3241SOL    HW221186   4.196   1.792   7.582 -1.9971  0.1129 -1.3390
 3242SOL     OW21187   3.835   0.178  16.194  0.2793  0.3180 -0.1566
 3242SOL    HW121188   3.922   0.168  16.157 -0.5393 -2.1358 -1.3657
 3242SOL    HW221189   3.807   0.251  16.139 -1.2516 -1.6536 -1.9878
 3243SOL     OW21190   0.307   4.125   4.015  0.1788  0.2547 -0.2570
 3243SOL    HW121191   0.388   4.078   3.995  0.5846  1.0273 -0.4706
 3243SOL    HW221192   0.293   4.114   4.109  3.3459 -0.2889  0.1337
 3244SOL     OW21193   0.429   1.850   6.305  0.7864 -0.4631  0.0076
 3244SOL    HW121194   0.505   1.894   6.267  2.3853 -2.5341  0.8279
 3244SOL    HW221195   0.365   1.916   6.279  1.0237 -0.8420 -1.5494
 3245SOL     OW21196   3.570   4.715   6.903 -0.7909  0.2823 -0.3754
 3245SOL    HW121197   3.494   0.025   6.951  0.3514 -0.8008  2.2016
 3245SOL    HW221198   3.564   0.026   6.814  0.7506  0.5238 -0.4003
 3246SOL     OW21199   0.219   0.608   7.890  0.0438  0.4483 -0.2171
 3246SOL    HW121200   0.127   0.598   7.866 -0.0667  2.1921 -0.5444
 3246SOL    HW221201   0.235   0.514   7.899 -2.6400 -0.1150 -1.4694
 3247SOL     OW21202   3.189   1.754  10.361  0.2311 -0.1031  0.3175
 3247SOL    HW121203   3.117   1.783  10.305 -0.4266  1.5464  1.9840
 3247SOL    HW221204   3.154   1.685  10.417  0.7985 -1.5554 -1.1431
 3248SOL     OW21205   4.456   0.750   0.318  0.1213 -0.2947 -0.0724
 3248SOL    HW121206   4.414   0.775   0.235 -0.0534 -1.8511 -0.4588
 3248SOL    HW221207   4.547   0.775   0.297  0.5346  0.2972  2.4306
 3249SOL     OW21208   1.538   3.324   0.381 -0.7399  0.0859 -0.4168
 3249SOL    HW121209   1.487   3.402   0.402  1.5354  1.7022 -0.8027
 3249SOL    HW221210   1.482   3.257   0.418 -0.5600  1.5094  2.4270
 3250SOL     OW21211   0.082   2.301   7.748 -0.0533  0.1239  0.0269
 3250SOL    HW121212   0.175   2.293   7.728 -0.5418 -3.2389 -0.9387
 3250SOL    HW221213   0.054   2.210   7.737  2.3702 -0.4298 -1.5464
 3251SOL     OW21214   3.514   3.877   3.013  0.2381  0.3084  0.0501
 3251SOL    HW121215   3.496   3.831   2.931 -1.7296  0.5946  0.3274
 3251SOL    HW221216   3.489   3.964   2.981  0.2953  0.8059  1.3749
 3252SOL     OW21217   4.500   3.276  16.198 -0.2308 -0.1895  0.0054
 3252SOL    HW121218   4.487   3.337  16.270 -0.6868 -1.4367  0.9866
 3252SOL    HW221219   4.470   3.317  16.117 -0.2637 -0.2680 -0.0231
 3253SOL     OW21220   0.156   2.189   2.391 -0.4425  0.0057 -0.0603
 3253SOL    HW121221   0.116   2.178   2.305 -0.8820  0.9251  0.0248
 3253SOL    HW221222   0.084   2.232   2.436  1.0092  1.7052  0.6264
 3254SOL     OW21223   0.599   2.990   4.221  0.0890  0.2934 -1.0452
 3254SOL    HW121224   0.640   3.073   4.195  1.3404  0.1012  0.3531
 3254SOL    HW221225   0.601   2.997   4.316  2.2413 -2.9772 -0.8706
 3255SOL     OW21226   1.730   3.198   5.975 -0.1707  0.1874  0.4529
 3255SOL    HW121227   1.779   3.237   5.902  0.0485  1.0777  1.0817
 3255SOL    HW221228   1.800   3.139   6.003 -0.6154 -0.3763  0.3838
 3256SOL     OW21229   0.088   1.548   8.950 -0.3982  0.1851 -0.2886
 3256SOL    HW121230   0.148   1.520   9.019 -0.2557  1.9916  0.3366
 3256SOL    HW221231   0.027   1.593   9.008  1.4296  2.1992  0.1084
 3257SOL     OW21232   2.334   0.496   6.666 -0.1633  0.1142  0.6059
 3257SOL    HW121233   2.404   0.442   6.703  0.7425 -0.1517 -1.5014
 3257SOL    HW221234   2.323   0.435   6.594 -1.0130 -1.2052  1.8504
 3258SOL     OW21235   0.237   2.151  14.203 -0.2445 -0.2537 -0.5266
 3258SOL    HW121236   0.205   2.071  14.163  0.2251 -0.7529  0.0930
 3258SOL    HW221237   0.209   2.127  14.291 -2.0273 -0.7987 -1.2546
 3259SOL     OW21238   1.246   2.456   1.287 -0.2545  0.4300 -0.5361
 3259SOL    HW121239   1.240   2.419   1.199 -3.7336 -0.7877  0.2182
 3259SOL    HW221240   1.165   2.413   1.314 -1.4351  2.3715 -1.0803
 3260SOL     OW21241   0.461   1.649  13.109 -0.1014  0.2184  0.5569
 3260SOL    HW121242   0.451   1.706  13.034 -1.3234 -1.1502 -0.3269
 3260SOL    HW221243   0.510   1.704  13.170 -3.1657  1.7616  1.6070
 3261SOL     OW21244   0.612   1.098   4.016  0.0204 -0.0032  0.5440
 3261SOL    HW121245   0.657   1.076   3.934 -1.2417 -1.8490  0.3534
 3261SOL    HW221246   0.625   1.188   4.046 -1.9745 -0.4738  2.7980
 3262SOL     OW21247   3.604   1.446   8.862 -0.2555  0.1780  0.4242
 3262SOL    HW121248   3.580   1.499   8.786  2.4020 -1.4653 -1.5650
 3262SOL    HW221249   3.671   1.498   8.907  1.7292 -1.5929 -0.4750
 3263SOL     OW21250   4.128   3.266   8.672 -0.1122  0.3233 -0.3987
 3263SOL    HW121251   4.180   3.192   8.704  0.4191  1.2198  0.7917
 3263SOL    HW221252   4.040   3.230   8.659 -0.3751  1.5099 -1.9994
 3264SOL     OW21253   1.142   2.013   1.582 -0.3008 -0.8169  0.1811
 3264SOL    HW121254   1.096   2.076   1.638  0.4372 -1.7538  1.8524
 3264SOL    HW221255   1.195   2.072   1.528 -1.4180 -0.4410 -0.5098
 3265SOL     OW21256   1.988   2.694   8.471 -0.0925 -0.2670 -0.0495
 3265SOL    HW121257   1.977   2.778   8.514  1.3039  0.2743 -0.7523
 3265SOL    HW221258   2.075   2.671   8.506 -0.0798 -0.4122 -0.1763
 3266SOL     OW21259   2.962   0.736   7.387  0.4255  0.3184  0.3444
 3266SOL    HW121260   2.965   0.775   7.474  0.7331  1.9907 -0.4252
 3266SOL    HW221261   3.044   0.778   7.365  1.7958 -1.8346  1.3312
 3267SOL     OW21262   3.770   4.451  12.819  0.3456 -0.5295  0.4905
 3267SOL    HW121263   3.857   4.462  12.781 -0.1101  2.4388  0.3258
 3267SOL    HW221264   3.750   4.360  12.794  1.1530 -0.4244 -0.5270
 3268SOL     OW21265   1.186   2.277   4.669 -0.1670  0.4871 -0.1835
 3268SOL    HW121266   1.091   2.287   4.660 -0.0125  0.4262 -2.0542
 3268SOL    HW221267   1.186   2.222   4.747 -3.8513  2.9533  1.5276
 3269SOL     OW21268   0.259   1.038   5.038 -0.1783 -0.7806 -0.0344
 3269SOL    HW121269   0.253   0.944   5.057 -0.0650 -0.6761  0.5170
 3269SOL    HW221270   0.264   1.073   5.127  2.2535 -0.4618 -0.3078
 3270SOL     OW21271   0.505   3.092   1.592  0.6611 -0.4992 -0.3311
 3270SOL    HW121272   0.579   3.065   1.648  1.2566  1.3891 -0.2141
 3270SOL    HW221273   0.489   3.005   1.555  0.4912 -0.4665 -0.3320
 3271SOL     OW21274   0.139   2.724   1.287  0.2618  0.0575 -0.0672
 3271SOL    HW121275   0.175   2.809   1.259  2.3674  0.4710  3.8680
 3271SOL    HW221276   0.170   2.675   1.211 -0.1564 -0.1512 -0.1027
 3272SOL     OW21277   4.498   4.254   2.321  0.2278  0.6698  0.2790
 3272SOL    HW121278   4.409   4.277   2.294  0.6000  1.2629 -0.4329
 3272SOL    HW221279   4.485   4.160   2.331  0.7077  0.5284 -0.4283
 3273SOL     OW21280   3.159   1.094   3.097  0.0631  0.4329  0.0666
 3273SOL    HW121281   3.171   1.156   3.170 -2.3376  0.8812  0.0768
 3273SOL    HW221282   3.190   1.018   3.147  0.0488 -0.2372 -0.9641
 3274SOL     OW21283   4.378   0.603   7.919 -0.1283 -0.0558 -0.5492
 3274SOL    HW121284   4.412   0.629   7.834  0.6287  1.1260  0.1164
 3274SOL    HW221285   4.424   0.520   7.921 -1.0871 -0.6115 -1.4322
 3275SOL     OW21286   3.685   3.124   3.368 -0.1164 -0.0554  0.2293
 3275SOL    HW121287   3.726   3.196   3.416 -0.1967 -1.4252  2.3079
 3275SOL    HW221288   3.597   3.159   3.383  0.0837 -0.1167  1.5301
 3276SOL     OW21289   3.446   4.576   4.363  0.0078  0.2006  0.3721
 3276SOL    HW121290   3.417   4.611   4.447 -0.7629 -3.6900  1.7058
 3276SOL    HW221291   3.413   4.486   4.359  0.9169 -0.0935 -0.6182
 3277SOL     OW21292   1.467   2.775   6.981  0.2732  0.1408 -0.0458
 3277SOL    HW121293   1.447   2.686   7.011  2.8904 -1.1411 -2.2085
 3277SOL    HW221294   1.555   2.801   7.007  0.1384 -0.1315  0.6947
 3278SOL     OW21295   1.756   4.614  17.301  0.0718  0.1443 -0.3979
 3278SOL    HW121296   1.823   4.580  17.242  2.4679  0.7996  1.9626
 3278SOL    HW221297   1.798   4.692  17.339  1.2891 -0.3704 -0.6810
 3279SOL     OW21298   3.692   3.520   4.382 -0.1060 -0.6554 -0.3001
 3279SOL    HW121299   3.640   3.463   4.438 -2.6687  1.3626 -0.6236
 3279SOL    HW221300   3.776   3.477   4.397 -0.7374 -1.4567  0.8627
 3280SOL     OW21301   3.801   2.929   6.426 -0.3450 -0.2018 -0.2952
 3280SOL    HW121302   3.776   2.886   6.345  2.5905 -0.3727 -1.1124
 3280SOL    HW221303   3.728   2.899   6.481  1.2422 -1.1674  1.3213
 3281SOL     OW21304   1.980   3.087   4.862 -0.2607 -0.1750  0.1757
 3281SOL    HW121305   1.974   3.056   4.772 -0.6690  0.1197  0.1028
 3281SOL    HW221306   1.893   3.115   4.890  0.2882  1.0278  0.7164
 3282SOL     OW21307   2.104   2.294   0.223  0.0027 -0.2860 -0.3093
 3282SOL    HW121308   2.199   2.304   0.236  0.1150 -1.7110 -0.0790
 3282SOL    HW221309   2.079   2.241   0.299 -2.4625  1.3356  0.0113
 3283SOL     OW21310   1.856   4.363   1.351 -0.2032  0.4001 -0.2719
 3283SOL    HW121311   1.909   4.290   1.385  1.3974  2.6217  1.9548
 3283SOL    HW221312   1.866   4.435   1.413 -1.0607 -0.0646  0.4021
 3284SOL     OW21313   2.159   3.277  11.077  0.2968 -0.4964 -0.2909
 3284SOL    HW121314   2.192   3.258  11.164  1.4136  2.0904 -0.1304
 3284SOL    HW221315   2.084   3.325  11.112 -0.0987  0.7419 -2.8321
 3285SOL     OW21316   4.253   0.258   9.618  0.0913  0.1927  0.0520
 3285SOL    HW121317   4.201   0.276   9.696 -2.3607  1.6941 -1.9372
 3285SOL    HW221318   4.332   0.225   9.661 -0.1094  0.3762  0.5587
 3286SOL     OW21319   1.423   4.458   9.221  0.1074  0.4868  0.3099
 3286SOL    HW121320   1.331   4.472   9.241 -0.4264  2.0458 -3.3081
 3286SOL    HW221321   1.456   4.413   9.299 -0.0283  0.4663  0.3538
 3287SOL     OW21322   2.602   3.796   2.423 -0.0069  0.6716 -0.1110
 3287SOL    HW121323   2.673   3.848   2.460 -0.8672  0.1124  2.3102
 3287SOL    HW221324   2.576   3.852   2.349  1.4878  2.2361  0.5466
 3288SOL     OW21325   3.864   3.319  15.171 -0.0588  0.2739 -0.6149
 3288SOL    HW121326   3.946   3.290  15.133  1.1250 -0.2212  2.3014
 3288SOL    HW221327   3.835   3.243  15.222 -0.1376  0.6586 -0.0903
 3289SOL     OW21328   0.012   0.432  13.718  0.3196  0.0091 -0.3730
 3289SOL    HW121329   0.018   0.397  13.807 -0.2459 -0.4513 -0.5093
 3289SOL    HW221330   0.019   0.359  13.656 -1.1320  0.0822 -0.6280
 3290SOL     OW21331   1.181   0.738   5.842 -0.0642 -0.5113 -0.8062
 3290SOL    HW121332   1.098   0.735   5.889  0.5518 -0.5304  0.2716
 3290SOL    HW221333   1.176   0.652   5.801  0.2796 -0.9542  0.0850
 3291SOL     OW21334   3.933   3.783   8.805 -0.4927  0.7865 -0.3909
 3291SOL    HW121335   3.882   3.802   8.884  1.4054  1.3165  0.7125
 3291SOL    HW221336   3.973   3.700   8.832  1.9801  1.9945 -0.4132
 3292SOL     OW21337   1.414   0.943  15.529 -0.2711 -0.4973  0.1694
 3292SOL    HW121338   1.429   0.978  15.617 -1.1428 -0.7768  0.4355
 3292SOL    HW221339   1.321   0.919  15.529 -0.5376  0.5183 -1.3509
 3293SOL     OW21340   3.027   1.633   6.756  0.7855  0.0432 -0.6563
 3293SOL    HW121341   3.020   1.696   6.685 -2.5412  0.0148 -0.3877
 3293SOL    HW221342   3.112   1.658   6.792  0.2713 -0.0786  0.6545
 3294SOL     OW21343   4.696   0.183  14.837  0.2278  0.1333  0.3687
 3294SOL    HW121344   4.654   0.206  14.920  0.7067 -1.3309  1.0319
 3294SOL    HW221345   4.623   0.178  14.776 -2.0107  1.2669  2.9648
 3295SOL     OW21346   3.302   0.081   7.016 -0.3517 -0.2054  0.4888
 3295SOL    HW121347   3.264   0.007   6.970  2.4912 -0.2913 -1.6993
 3295SOL    HW221348   3.290   0.047   7.105 -1.2282 -0.2713  0.3442
 3296SOL     OW21349   0.128   1.967   9.332 -0.4301 -0.2068  0.4729
 3296SOL    HW121350   0.087   2.021   9.401 -1.1053  0.1695 -0.2251
 3296SOL    HW221351   0.219   1.966   9.362 -0.7870 -1.3190  1.5047
 3297SOL     OW21352   3.914   3.037   7.926  0.4293 -0.4261 -0.4988
 3297SOL    HW121353   3.963   3.108   7.885 -0.9961  1.0885  0.4203
 3297SOL    HW221354   3.912   2.976   7.851  0.3473  0.1660 -0.9773
 3298SOL     OW21355   0.275   2.846  13.419 -0.3034  0.4676  0.3711
 3298SOL    HW121356   0.207   2.834  13.485  0.1463  1.0853  0.9398
 3298SOL    HW221357   0.313   2.930  13.445 -0.9679  0.8200  0.2063
 3299SOL     OW21358   3.322   4.694  13.716  0.2857  0.0312  0.0536
 3299SOL    HW121359   3.391   0.035  13.730  0.6657 -0.0287 -1.5270
 3299SOL    HW221360   3.314   4.659  13.804 -0.7545 -2.1200 -0.8780
 3300SOL     OW21361   0.476   2.499   2.740  0.2580 -0.1715  0.5900
 3300SOL    HW121362   0.429   2.419   2.713  2.0443 -0.0109 -2.9242
 3300SOL    HW221363   0.569   2.481   2.725  1.0754  2.5684  2.6127
 3301SOL     OW21364   1.679   1.472  14.886 -0.3507  0.5762 -0.4024
 3301SOL    HW121365   1.604   1.464  14.946 -0.0226 -1.0349 -0.2082
 3301SOL    HW221366   1.710   1.382  14.878 -0.3152  0.8934 -3.6758
 3302SOL     OW21367   4.001   0.280   3.666 -0.2527  0.3470  0.3755
 3302SOL    HW121368   3.957   0.277   3.581 -0.1836  0.6476  0.3289
 3302SOL    HW221369   3.950   0.353   3.702  0.0389  1.3727 -1.3043
 3303SOL     OW21370   3.929   3.240   5.067 -0.1780  0.1090 -0.2671
 3303SOL    HW121371   3.856   3.294   5.099 -1.2252 -1.4489 -0.0415
 3303SOL    HW221372   3.893   3.208   4.984  0.5610  2.2932 -1.4197
 3304SOL     OW21373   1.960   0.018   5.091  0.2230 -0.1899 -0.8357
 3304SOL    HW121374   2.055   0.017   5.080  0.3054 -2.9577  0.1517
 3304SOL    HW221375   1.944   0.066   5.173 -0.3364 -0.0063 -1.0455
 3305SOL     OW21376   3.969   0.601   2.727 -0.5858  0.3590  0.3677
 3305SOL    HW121377   3.919   0.668   2.774 -0.0295  0.6650  0.5152
 3305SOL    HW221378   3.988   0.537   2.795  1.4863 -1.4223 -1.8895
 3306SOL     OW21379   4.413   2.104   5.514 -0.0529  0.0322  0.0298
 3306SOL    HW121380   4.328   2.148   5.514 -0.2377 -0.3333  1.5590
 3306SOL    HW221381   4.425   2.080   5.605 -0.4909  0.4966  0.2135
 3307SOL     OW21382   3.236   1.633   5.970  0.0286  0.8398 -0.0002
 3307SOL    HW121383   3.219   1.538   5.970 -0.4381  0.9371  1.7125
 3307SOL    HW221384   3.292   1.638   5.893  0.5852  1.2648  0.4335
 3308SOL     OW21385   2.230   3.926   7.342  0.2753  0.3243  0.0118
 3308SOL    HW121386   2.135   3.923   7.351  0.2068  1.0351 -0.5410
 3308SOL    HW221387   2.249   3.931   7.436  1.2453  1.1251 -0.2293
 3309SOL     OW21388   1.668   2.128  15.852 -0.2796 -0.2605 -0.8746
 3309SOL    HW121389   1.617   2.206  15.829  2.1751  1.4286 -0.6147
 3309SOL    HW221390   1.597   2.072  15.883 -0.2354 -0.5688 -1.3227
 3310SOL     OW21391   4.108   3.224   5.645  0.3882 -0.0091 -0.2286
 3310SOL    HW121392   4.047   3.162   5.684  2.6546 -1.2996  1.2440
 3310SOL    HW221393   4.057   3.265   5.575  1.5068  1.1226 -0.3746
 3311SOL     OW21394   1.551   2.221   3.173  0.4149  0.1388 -0.0561
 3311SOL    HW121395   1.592   2.298   3.134  0.2759  0.8588  1.2433
 3311SOL    HW221396   1.508   2.265   3.245 -3.1095 -0.0740 -2.0488
 3312SOL     OW21397   2.634   1.662  12.564  0.1083 -0.0060 -0.2801
 3312SOL    HW121398   2.576   1.720  12.513 -0.7641  0.5007  1.2957
 3312SOL    HW221399   2.626   1.682  12.657 -1.2269  0.8518 -0.5710
 3313SOL     OW21400   4.604   0.719   3.048 -0.3942 -0.1551  0.2455
 3313SOL    HW121401   4.639   0.630   3.053  2.3936  1.0577  2.6841
 3313SOL    HW221402   4.650   0.770   3.115 -0.4019  0.3473 -0.1297
 3314SOL     OW21403   4.414   2.547   1.415 -0.6320 -0.1196  0.4448
 3314SOL    HW121404   4.496   2.590   1.390  0.0673 -1.2098  0.8623
 3314SOL    HW221405   4.353   2.601   1.365  0.4106 -0.2881 -1.0109
 3315SOL     OW21406   2.628   4.680   8.089 -0.4718  0.3452 -0.3631
 3315SOL    HW121407   2.572   4.607   8.062 -1.1678  0.5021  0.6296
 3315SOL    HW221408   2.710   4.667   8.042 -1.2110  0.4416 -1.7004
 3316SOL     OW21409   1.181   4.289   5.605 -0.0932 -0.2819  0.0334
 3316SOL    HW121410   1.175   4.285   5.509  0.5273 -0.3119 -0.0062
 3316SOL    HW221411   1.096   4.252   5.629  0.2043 -0.4861  0.7525
 3317SOL     OW21412   2.096   4.375   5.719 -0.1120  0.0595 -0.4561
 3317SOL    HW121413   2.013   4.331   5.737  0.7606 -0.7673  1.5383
 3317SOL    HW221414   2.151   4.303   5.690  1.4917  0.8434  0.6229
 3318SOL     OW21415   0.843   1.803   6.463  0.2364 -0.2756 -0.4127
 3318SOL    HW121416   0.868   1.738   6.529 -1.2093 -0.8622 -0.4566
 3318SOL    HW221417   0.795   1.869   6.512  1.8820  0.3045  0.3986
 3319SOL     OW21418   3.649   0.764   6.314 -0.5937 -0.4061 -0.1270
 3319SOL    HW121419   3.704   0.841   6.324  0.5433 -1.1809 -0.3311
 3319SOL    HW221420   3.591   0.798   6.246 -2.4104 -1.0148  1.1275
 3320SOL     OW21421   2.868   3.442  15.859 -0.2549  0.0082  0.3085
 3320SOL    HW121422   2.784   3.486  15.849 -0.1932  0.0958  0.1598
 3320SOL    HW221423   2.911   3.489  15.787  2.4616 -1.4465  0.9785
 3321SOL     OW21424   2.963   3.160  10.565 -0.1883  0.2846  0.0010
 3321SOL    HW121425   2.898   3.186  10.630  0.1706 -0.3192  0.6059
 3321SOL    HW221426   3.033   3.157  10.630 -1.3607 -0.5254  1.2385
 3322SOL     OW21427   1.171   2.818   7.588 -0.0978  0.5566 -0.1926
 3322SOL    HW121428   1.181   2.908   7.618 -0.3411  0.8238 -0.9237
 3322SOL    HW221429   1.108   2.783   7.652 -0.1350  0.1805 -0.4287
 3323SOL     OW21430   1.586   2.280   1.153 -0.8358  0.0166 -0.1100
 3323SOL    HW121431   1.605   2.324   1.236  0.5926  0.0413 -0.4544
 3323SOL    HW221432   1.493   2.266   1.172 -1.6890  3.4846 -1.8147
 3324SOL     OW21433   4.088   1.870   4.563 -0.5696 -0.4397  0.2982
 3324SOL    HW121434   4.182   1.860   4.547 -0.3749  1.4068  0.3244
 3324SOL    HW221435   4.053   1.806   4.501 -0.8525 -0.5997  0.6268
 3325SOL     OW21436   0.876   4.169   4.025  0.1685  0.3360 -0.2676
 3325SOL    HW121437   0.962   4.199   4.056 -1.5474  3.4930  1.3974
 3325SOL    HW221438   0.828   4.251   4.013 -0.2292  0.4216  1.9702
 3326SOL     OW21439   1.381   3.188   0.815  0.5362  0.5033  0.2228
 3326SOL    HW121440   1.344   3.224   0.895  3.3523  0.5025  1.5261
 3326SOL    HW221441   1.471   3.220   0.819  0.2630  1.2569  0.4083
 3327SOL     OW21442   1.489   1.231   0.616 -0.2949  0.3731  0.2248
 3327SOL    HW121443   1.528   1.169   0.677 -0.7149 -0.1533 -0.0404
 3327SOL    HW221444   1.504   1.175   0.540  1.2568  1.3682 -0.2032
 3328SOL     OW21445   0.520   0.447   7.270 -0.1884 -0.1016  0.3643
 3328SOL    HW121446   0.504   0.354   7.258  0.6720 -0.0401 -1.1738
 3328SOL    HW221447   0.601   0.440   7.320  0.6192  2.6052 -0.5602
 3329SOL     OW21448   1.650   3.480   3.117  0.0122  0.0221 -0.0144
 3329SOL    HW121449   1.730   3.459   3.165 -1.3222  3.2493  3.6704
 3329SOL    HW221450   1.610   3.401   3.151 -3.5308  0.8403 -2.2253
 3330SOL     OW21451   2.010   0.452   7.671 -0.4815 -0.1949 -0.3795
 3330SOL    HW121452   1.938   0.464   7.734  0.5851  0.7185  0.6714
 3330SOL    HW221453   2.055   0.534   7.693  2.0946 -1.5582 -0.6393
 3331SOL     OW21454   0.826   3.324   1.176  0.4793  0.4393 -0.1695
 3331SOL    HW121455   0.903   3.267   1.171  1.3013  1.5594 -0.2602
 3331SOL    HW221456   0.756   3.278   1.221  0.0814 -0.6492 -1.9149
 3332SOL     OW21457   0.538   1.833  10.482  0.0131  0.3346 -0.1895
 3332SOL    HW121458   0.480   1.820  10.557 -1.3877  0.4574 -1.2561
 3332SOL    HW221459   0.520   1.926  10.467 -0.4544  0.4184  0.8653
 3333SOL     OW21460   0.642   1.839  13.207  0.2200 -0.3923 -0.4836
 3333SOL    HW121461   0.682   1.925  13.213  2.2378 -1.4923  2.1398
 3333SOL    HW221462   0.711   1.791  13.161  1.8581  0.2819  1.2848
 3334SOL     OW21463   1.427   3.851   7.495 -0.0333  0.2582 -0.2437
 3334SOL    HW121464   1.465   3.776   7.450  0.5934  0.3874  0.0756
 3334SOL    HW221465   1.498   3.910   7.470  0.8555 -0.6348  0.1790
 3335SOL     OW21466   1.128   3.428   3.792 -0.2668  0.2475  0.1687
 3335SOL    HW121467   1.043   3.470   3.784  0.0166  0.9415  0.7516
 3335SOL    HW221468   1.170   3.494   3.848 -0.8967  1.5098 -0.8400
 3336SOL     OW21469   3.897   2.019   9.534 -0.1500  0.0643 -0.1795
 3336SOL    HW121470   3.909   2.109   9.564  2.1994 -0.7680  1.3866
 3336SOL    HW221471   3.814   1.996   9.576 -0.3813  0.8389 -0.2085
 3337SOL     OW21472   0.669   2.039  17.412 -0.1654 -0.2477  0.1054
 3337SOL    HW121473   0.716   1.974  17.465  0.3884  0.1497  0.0971
 3337SOL    HW221474   0.588   1.990  17.394  0.6134 -0.2023 -3.3580
 3338SOL     OW21475   4.710   0.689   3.506 -0.0208  0.3071 -0.0097
 3338SOL    HW121476   4.621   0.697   3.471 -0.6906  0.6595  1.7719
 3338SOL    HW221477   0.039   0.756   3.460  1.6261 -1.6482 -0.9721
 3339SOL     OW21478   3.780   1.108   6.841  0.0841  0.5470 -0.3599
 3339SOL    HW121479   3.818   1.032   6.884  2.9772  1.7756 -0.7431
 3339SOL    HW221480   3.690   1.091   6.867 -0.1244 -0.2211 -1.5855
 3340SOL     OW21481   1.533   4.562   3.069 -0.1532 -0.0392 -0.0244
 3340SOL    HW121482   1.502   4.635   3.016  0.2455 -0.1202 -0.3712
 3340SOL    HW221483   1.628   4.572   3.068 -0.1657  0.0300 -0.6281
 3341SOL     OW21484   4.254   4.257  14.079 -0.5271 -0.7478 -0.0280
 3341SOL    HW121485   4.167   4.261  14.119 -1.6153 -1.0959 -2.3653
 3341SOL    HW221486   4.244   4.211  13.996  0.8527 -0.8743 -0.1332
 3342SOL     OW21487   4.290   4.270   6.172  0.0830  0.2973  0.0416
 3342SOL    HW121488   4.232   4.201   6.206 -0.6769  1.4446  1.0660
 3342SOL    HW221489   4.297   4.336   6.241  1.9974 -0.3423  0.4553
 3343SOL     OW21490   0.253   0.789  10.143 -0.0356 -0.1886  0.3038
 3343SOL    HW121491   0.312   0.716  10.124 -0.0013  0.0926 -0.6441
 3343SOL    HW221492   0.267   0.832  10.059 -1.6368  0.0816  0.1826
 3344SOL     OW21493   3.003   3.856  12.829  0.1752 -0.6826  0.0078
 3344SOL    HW121494   2.951   3.935  12.845  0.9879  0.1606 -1.4891
 3344SOL    HW221495   2.968   3.829  12.744 -0.5172  0.6887 -0.1481
 3345SOL     OW21496   1.023   1.917   3.989  0.2972  0.2929  0.6949
 3345SOL    HW121497   1.051   1.927   4.079  0.4124  3.9898  0.2471
 3345SOL    HW221498   0.929   1.912   4.005 -0.2295 -3.8228 -3.4661
 3346SOL     OW21499   2.520   2.085   9.627 -0.7691  0.0129  0.4948
 3346SOL    HW121500   2.443   2.103   9.574 -1.6632 -2.0837  1.0615
 3346SOL    HW221501   2.508   2.142   9.703 -2.1433  0.1871  0.1514
 3347SOL     OW21502   2.767   0.138   8.468  0.2216  0.0178  0.7997
 3347SOL    HW121503   2.770   0.042   8.463  2.2044  0.2346 -2.1165
 3347SOL    HW221504   2.678   0.151   8.501 -0.5138 -0.0815 -1.1329
 3348SOL     OW21505   4.053   1.127   5.824  0.0035 -0.1870  0.1886
 3348SOL    HW121506   4.087   1.140   5.913  1.5290  0.6432 -0.5210
 3348SOL    HW221507   4.113   1.058   5.797  0.9359 -0.1469  2.1338
 3349SOL     OW21508   2.686   3.323   8.028  0.4348  0.1469  0.2358
 3349SOL    HW121509   2.764   3.362   8.068  0.4614 -0.9242  1.2644
 3349SOL    HW221510   2.732   3.247   7.992  0.3301 -0.2407  0.9109
 3350SOL     OW21511   4.037   1.017   5.108  0.0825  0.1235 -0.0144
 3350SOL    HW121512   4.004   0.928   5.112  1.8782 -0.5648 -0.6036
 3350SOL    HW221513   4.009   1.038   5.019 -0.7400  1.4981  0.5759
 3351SOL     OW21514   4.388   3.789   9.972 -0.0684  0.1134 -0.1302
 3351SOL    HW121515   4.418   3.849   9.905  0.3091  0.3792  0.2785
 3351SOL    HW221516   4.315   3.747   9.926 -0.6860  2.3479 -1.1727
 3352SOL     OW21517   0.622   0.982   2.568 -0.0263  0.5009  0.1412
 3352SOL    HW121518   0.659   0.910   2.517  0.3298  0.1173  0.9272
 3352SOL    HW221519   0.696   1.039   2.588  1.8473 -0.9055 -2.7631
 3353SOL     OW21520   3.058   2.354  13.421  0.1484 -0.2756 -0.4405
 3353SOL    HW121521   3.141   2.310  13.440 -0.9784 -3.1684 -2.4050
 3353SOL    HW221522   3.077   2.445  13.442 -1.0394  0.2968 -1.8356
 3354SOL     OW21523   1.956   0.810   3.063  0.8146 -0.5574  0.0541
 3354SOL    HW121524   1.898   0.818   2.987  1.0843  1.4557  0.0724
 3354SOL    HW221525   1.970   0.715   3.062 -0.5195 -0.7110 -4.3946
 3355SOL     OW21526   3.592   2.483  12.531 -0.3106  0.3965 -0.7684
 3355SOL    HW121527   3.572   2.559  12.585 -0.0665 -0.3339  0.3401
 3355SOL    HW221528   3.678   2.515  12.503 -0.6885  1.5347 -0.6145
 3356SOL     OW21529   3.677   2.893  14.135 -0.4926  0.2305  0.1572
 3356SOL    HW121530   3.648   2.963  14.194 -1.2453 -0.6338  0.7947
 3356SOL    HW221531   3.695   2.819  14.193 -0.1695 -0.4073 -0.7576
 3357SOL     OW21532   2.619   1.720   2.138  0.0782 -0.2153  0.3778
 3357SOL    HW121533   2.655   1.745   2.053 -3.2261  0.9533 -0.6844
 3357SOL    HW221534   2.533   1.759   2.124  0.9593  2.0680  1.2239
 3358SOL     OW21535   4.173   1.047   8.258  0.1577 -0.2744  0.3197
 3358SOL    HW121536   4.122   1.123   8.233 -0.0289 -0.5304 -0.0762
 3358SOL    HW221537   4.202   1.016   8.172  0.3256  0.4719  0.1121
 3359SOL     OW21538   2.001   2.878   6.748  0.4980 -0.2947 -0.0658
 3359SOL    HW121539   2.076   2.925   6.712 -3.3981  3.8943 -2.7613
 3359SOL    HW221540   1.952   2.851   6.670  1.6999  3.4324 -2.1098
 3360SOL     OW21541   3.286   2.426   2.556 -0.1599 -0.2649  0.5724
 3360SOL    HW121542   3.224   2.393   2.492  2.7578  0.4294 -2.5973
 3360SOL    HW221543   3.261   2.518   2.549 -0.7205 -0.3868  1.0050
 3361SOL     OW21544   1.195   3.758   8.436  0.3349  0.7319 -0.5092
 3361SOL    HW121545   1.191   3.684   8.497  0.8549  1.0624 -0.0788
 3361SOL    HW221546   1.188   3.709   8.354 -0.2055  0.8003 -0.5054
 3362SOL     OW21547   1.483   0.677   7.308  0.5284  0.3346  0.2265
 3362SOL    HW121548   1.484   0.618   7.382 -1.2522  0.1280  0.0883
 3362SOL    HW221549   1.488   0.765   7.346 -0.2128  0.8990 -0.9677
 3363SOL     OW21550   2.716   3.729   9.295 -0.1101  0.2295 -0.0315
 3363SOL    HW121551   2.741   3.762   9.381 -1.1303  0.7692  0.0674
 3363SOL    HW221552   2.724   3.634   9.302  0.5761  0.2205 -0.9587
 3364SOL     OW21553   0.881   1.232  11.634  0.0536 -0.1282  0.1826
 3364SOL    HW121554   0.946   1.247  11.703  0.2542  0.9150 -0.2252
 3364SOL    HW221555   0.828   1.311  11.633 -2.3520 -1.7562  1.9450
 3365SOL     OW21556   0.469   1.911  15.881  0.1047 -0.7113  0.1846
 3365SOL    HW121557   0.552   1.947  15.852 -0.7136  1.3892  0.4147
 3365SOL    HW221558   0.491   1.854  15.955  0.9199  1.0288  1.2869
 3366SOL     OW21559   2.099   4.708   1.616  0.3197 -0.1217 -0.2558
 3366SOL    HW121560   2.027   4.677   1.561 -0.8368  2.8144 -0.3679
 3366SOL    HW221561   2.094   0.078   1.596  0.6566 -0.7698 -3.3200
 3367SOL     OW21562   1.817   3.365   3.358 -0.0379 -0.2370  0.2802
 3367SOL    HW121563   1.734   3.336   3.397 -0.7075  1.8955  0.4136
 3367SOL    HW221564   1.846   3.419   3.431  1.1331  0.2133 -0.5210
 3368SOL     OW21565   0.991   1.222  10.795 -0.2705  0.0446  0.1727
 3368SOL    HW121566   1.004   1.128  10.806 -2.0474 -0.1478  0.6741
 3368SOL    HW221567   0.946   1.249  10.875  1.0276 -2.3585  1.6999
 3369SOL     OW21568   2.403   1.188   3.094  0.5878  0.0502 -0.3542
 3369SOL    HW121569   2.384   1.156   3.006 -1.6380  3.0113 -0.9599
 3369SOL    HW221570   2.399   1.101   3.134  0.1727 -0.1022 -0.7267
 3370SOL     OW21571   3.046   2.321   4.650  0.1330  0.4935 -0.1895
 3370SOL    HW121572   3.108   2.255   4.618  0.2198  0.7073 -0.4610
 3370SOL    HW221573   3.065   2.391   4.587 -0.9008  0.9666  0.0233
 3371SOL     OW21574   3.527   3.710   9.677  0.5387  0.1314  0.2421
 3371SOL    HW121575   3.488   3.796   9.694  1.1893  0.4361  0.1753
 3371SOL    HW221576   3.462   3.652   9.717 -0.0434  0.0652 -0.7976
 3372SOL     OW21577   2.440   0.396   5.192  0.2491 -0.0419 -0.0733
 3372SOL    HW121578   2.449   0.311   5.236 -1.2575  0.1055  0.5175
 3372SOL    HW221579   2.515   0.399   5.132  0.2013  1.4217 -0.0562
 3373SOL     OW21580   0.258   4.700   8.121 -0.2323 -0.6364 -0.5339
 3373SOL    HW121581   0.303   4.621   8.092  0.7012  0.0696 -0.9908
 3373SOL    HW221582   0.256   4.699   8.216 -1.1508  0.1410 -0.5464
 3374SOL     OW21583   0.899   3.041   9.577 -1.0020  0.3612  0.0527
 3374SOL    HW121584   0.906   3.120   9.631 -0.8120 -1.1674  2.2271
 3374SOL    HW221585   0.977   2.998   9.612 -0.2066  0.2101 -1.9121
 3375SOL     OW21586   3.537   3.818   0.151  0.6023  0.1574 -0.0597
 3375SOL    HW121587   3.576   3.739   0.186 -0.4188  0.0736  0.8905
 3375SOL    HW221588   3.591   3.885   0.193  0.7552 -0.0774  0.1150
 3376SOL     OW21589   3.585   3.877  11.146  0.0539  0.1496 -0.3365
 3376SOL    HW121590   3.647   3.827  11.198 -2.8659 -1.9643  1.0842
 3376SOL    HW221591   3.527   3.912  11.214  0.2186  1.4897 -0.8794
 3377SOL     OW21592   2.822   3.046  15.356  0.1750  0.2503  0.2751
 3377SOL    HW121593   2.746   3.063  15.411  0.0442 -1.3239  0.5594
 3377SOL    HW221594   2.884   3.016  15.423  0.0131  3.2852  1.8116
 3378SOL     OW21595   2.583   1.192  15.444  0.5317  0.8861  0.1417
 3378SOL    HW121596   2.555   1.116  15.393  1.9061  0.7621 -0.4343
 3378SOL    HW221597   2.641   1.234  15.380 -0.5541  1.6801 -0.3050
 3379SOL     OW21598   4.421   3.320   0.356  0.1126  0.2784  0.4550
 3379SOL    HW121599   4.482   3.376   0.404  0.3057 -0.9105  1.5801
 3379SOL    HW221600   4.344   3.330   0.412 -1.5101 -0.3028 -1.6576
 3380SOL     OW21601   3.853   2.305  11.738  1.1358  0.3354 -0.5248
 3380SOL    HW121602   3.924   2.308  11.674  1.6242 -0.4886 -0.0156
 3380SOL    HW221603   3.830   2.398  11.745  0.3184  0.1213 -0.3589
 3381SOL     OW21604   0.389   0.247  15.797 -0.5129  0.2257  0.4016
 3381SOL    HW121605   0.303   0.261  15.758 -0.3937 -2.5312 -0.8821
 3381SOL    HW221606   0.441   0.289  15.728 -0.2198 -1.5165 -0.4315
 3382SOL     OW21607   3.447   3.239   1.724 -0.2258  0.3315  0.0804
 3382SOL    HW121608   3.472   3.302   1.793 -1.3424  0.3902  0.4267
 3382SOL    HW221609   3.352   3.241   1.728 -0.2207 -1.2039  0.8520
 3383SOL     OW21610   1.200   4.512   7.089  0.9105 -0.0527 -0.1178
 3383SOL    HW121611   1.121   4.539   7.043  0.7236 -1.5308 -0.6542
 3383SOL    HW221612   1.230   4.597   7.121  0.1548 -0.8562  2.7258
 3384SOL     OW21613   2.533   1.626  16.450  0.0321 -0.4296  0.1749
 3384SOL    HW121614   2.450   1.625  16.402 -0.4195  4.5578  0.9124
 3384SOL    HW221615   2.548   1.531  16.449 -1.1687 -0.6069 -1.5579
 3385SOL     OW21616   4.261   1.266   9.226 -0.1583 -0.7105 -0.2014
 3385SOL    HW121617   4.246   1.336   9.163  0.7206 -0.1924  0.1677
 3385SOL    HW221618   4.327   1.295   9.289 -0.7271 -0.5474  0.3113
 3386SOL     OW21619   1.080   3.116  10.856  0.1463  0.3101  0.0594
 3386SOL    HW121620   1.060   3.181  10.923 -1.0633  0.4343 -0.4208
 3386SOL    HW221621   1.166   3.143  10.822 -0.4876 -0.8604 -2.4576
 3387SOL     OW21622   4.641   2.132  13.970  0.5978 -0.4863 -0.6505
 3387SOL    HW121623   4.722   2.150  13.921  1.6969  1.5748  1.9234
 3387SOL    HW221624   4.668   2.068  14.036  1.3279 -0.6908 -1.1431
 3388SOL     OW21625   0.303   0.477   4.719  0.1076  0.2126 -0.0025
 3388SOL    HW121626   0.304   0.572   4.733 -1.4972  0.4158 -1.2658
 3388SOL    HW221627   0.390   0.459   4.755 -0.1159  0.5544  0.7247
 3389SOL     OW21628   2.328   0.109  10.300  0.1959  0.2967  0.1547
 3389SOL    HW121629   2.268   0.042  10.336 -0.1782  0.6631  0.2165
 3389SOL    HW221630   2.285   0.132  10.217  3.8683  0.1067 -1.7714
 3390SOL     OW21631   0.640   2.683  11.198  0.0976 -0.0117  0.4238
 3390SOL    HW121632   0.603   2.672  11.110 -0.1059  1.9482  0.2756
 3390SOL    HW221633   0.592   2.760  11.228 -0.0158 -0.5347  1.5969
 3391SOL     OW21634   0.122   2.357   3.011 -0.4448  0.4159  0.1646
 3391SOL    HW121635   0.203   2.395   3.046 -1.2366  1.6702  0.5991
 3391SOL    HW221636   0.138   2.267   3.041 -1.9749 -0.4702 -1.7027
 3392SOL     OW21637   0.221   2.371   1.865 -0.1179  0.3846  0.2184
 3392SOL    HW121638   0.317   2.369   1.865 -0.1100  0.8393 -0.5032
 3392SOL    HW221639   0.203   2.365   1.771  1.4466  3.8279 -0.3063
 3393SOL     OW21640   0.061   1.984  16.095  0.2262 -0.4948 -0.7900
 3393SOL    HW121641   0.114   1.905  16.101  0.0848 -0.6644 -1.7705
 3393SOL    HW221642   4.692   1.958  16.105  0.3934 -0.0863  1.9707
 3394SOL     OW21643   0.646   2.284   5.729 -0.0971 -0.0252 -0.1710
 3394SOL    HW121644   0.670   2.356   5.671  0.2547  0.6397  0.8158
 3394SOL    HW221645   0.728   2.255   5.770 -0.1480 -0.4439 -0.3568
 3395SOL     OW21646   3.371   0.204   2.559  0.0895 -0.6358  0.4304
 3395SOL    HW121647   3.313   0.158   2.619 -2.5818  0.9361 -0.8749
 3395SOL    HW221648   3.322   0.191   2.477 -2.9707  0.6514  2.0654
 3396SOL     OW21649   0.927   0.221   5.474 -0.6542 -0.0100 -0.5571
 3396SOL    HW121650   0.962   0.245   5.560  2.1949 -2.6971 -0.9644
 3396SOL    HW221651   0.843   0.267   5.473 -0.8457 -0.3140  1.2025
 3397SOL     OW21652   2.783   0.813   1.769 -0.1750 -0.3001 -0.8558
 3397SOL    HW121653   2.859   0.836   1.822 -0.8534 -2.1577  0.9189
 3397SOL    HW221654   2.728   0.784   1.841 -1.1295  0.5375 -1.2383
 3398SOL     OW21655   0.130   2.815   3.720 -0.2020  0.4534  0.1488
 3398SOL    HW121656   0.093   2.751   3.659  0.5488  1.5410 -1.4473
 3398SOL    HW221657   0.050   2.844   3.763 -0.9335  0.2430 -1.0668
 3399SOL     OW21658   0.525   4.521  12.351  0.0885 -0.4436 -0.8947
 3399SOL    HW121659   0.568   4.528  12.437  0.6687 -1.1388 -1.1265
 3399SOL    HW221660   0.553   4.606  12.317  1.0189  0.2487  1.5924
 3400SOL     OW21661   0.601   4.402   7.241  0.4217  0.8374  0.3457
 3400SOL    HW121662   0.539   4.412   7.313  0.9684  1.5109  0.7236
 3400SOL    HW221663   0.565   4.326   7.196 -2.1424  4.0309 -2.9656
 3401SOL     OW21664   0.074   0.887   3.880  0.1489  0.0521 -0.3014
 3401SOL    HW121665   0.074   0.798   3.915  0.7477 -0.4038 -1.4589
 3401SOL    HW221666   0.151   0.919   3.928  0.7794  0.4271 -1.5626
 3402SOL     OW21667   0.271   1.973   6.693  0.1000 -0.2762  0.1482
 3402SOL    HW121668   0.336   1.908   6.667  4.8062  3.5475  2.2868
 3402SOL    HW221669   0.300   2.047   6.640  0.7036 -0.2706  0.4743
 3403SOL     OW21670   2.591   4.044  11.480 -0.0722  0.0533  0.4648
 3403SOL    HW121671   2.519   4.104  11.462 -1.1859 -0.7005  2.4211
 3403SOL    HW221672   2.656   4.104  11.518  1.1903 -0.8465 -0.2965
 3404SOL     OW21673   3.913   1.598  11.180 -0.7618  0.1310 -0.0221
 3404SOL    HW121674   3.862   1.653  11.120  1.3752  3.9281  1.6900
 3404SOL    HW221675   3.846   1.571  11.243  0.3678  0.3234  1.2429
 3405SOL     OW21676   3.370   3.495   3.338  0.1033 -0.5064 -0.7010
 3405SOL    HW121677   3.286   3.535   3.315 -1.0657 -1.5766  1.6857
 3405SOL    HW221678   3.400   3.533   3.420  1.5661 -1.7889 -0.6341
 3406SOL     OW21679   0.488   4.322  12.140 -0.3016 -0.2271 -0.0394
 3406SOL    HW121680   0.499   4.383  12.213  0.9311  0.4770 -0.8152
 3406SOL    HW221681   0.489   4.385  12.068 -0.8531  1.1820  1.1856
 3407SOL     OW21682   0.102   2.464   8.911  0.7205 -0.0750 -0.2709
 3407SOL    HW121683   0.179   2.410   8.926  0.1785 -1.7985 -3.6799
 3407SOL    HW221684   0.047   2.405   8.859 -1.3242  2.0375 -0.5353
 3408SOL     OW21685   0.089   3.543   6.774 -0.0911 -0.0579  0.1187
 3408SOL    HW121686   0.117   3.546   6.683 -0.8800  1.6958 -0.0686
 3408SOL    HW221687   0.041   3.461   6.779 -2.7673  1.5163  0.2120
 3409SOL     OW21688   3.376   3.842   6.229  0.1659 -0.3678  0.4241
 3409SOL    HW121689   3.323   3.891   6.292 -0.5965 -0.6422 -0.0008
 3409SOL    HW221690   3.462   3.853   6.269 -0.9193  1.9565  2.1037
 3410SOL     OW21691   2.832   1.450   8.136  0.8104  0.2522 -0.4897
 3410SOL    HW121692   2.821   1.359   8.161  0.2298 -0.2598 -2.6252
 3410SOL    HW221693   2.926   1.461   8.153  0.7734 -1.6263  0.8850
 3411SOL     OW21694   0.402   1.955   5.030  0.5312 -0.3021 -0.8245
 3411SOL    HW121695   0.407   2.024   4.964  0.6020  0.9933  0.5581
 3411SOL    HW221696   0.430   1.884   4.972 -5.1820 -1.9616 -1.5353
 3412SOL     OW21697   2.822   1.079  15.090  0.4177 -0.1763 -0.0624
 3412SOL    HW121698   2.739   1.122  15.112 -0.3325 -1.3284 -0.6652
 3412SOL    HW221699   2.875   1.086  15.170  0.6389 -0.0778 -0.2175
 3413SOL     OW21700   2.742   2.032   8.214 -0.5277  0.4006 -0.0710
 3413SOL    HW121701   2.807   1.977   8.171 -1.7006 -0.1532 -1.1282
 3413SOL    HW221702   2.776   2.121   8.202 -1.0974  0.6298 -0.0435
 3414SOL     OW21703   1.134   4.690   9.084 -0.1947 -0.4153 -0.0624
 3414SOL    HW121704   1.177   4.717   9.164  1.1312 -1.0808 -0.5534
 3414SOL    HW221705   1.048   0.001   9.110 -1.0781 -2.0813 -0.7640
 3415SOL     OW21706   1.385   1.452  12.539 -0.5347 -0.0361 -0.5241
 3415SOL    HW121707   1.398   1.514  12.611  0.9970  0.0538 -0.8772
 3415SOL    HW221708   1.470   1.408  12.544 -1.1206 -1.0931  0.1780
 3416SOL     OW21709   3.156   0.938   8.454 -0.6031  0.5988  0.4260
 3416SOL    HW121710   3.086   0.923   8.517 -0.7395 -2.5733 -0.4563
 3416SOL    HW221711   3.107   0.958   8.374  0.9924  1.6405 -0.2926
 3417SOL     OW21712   0.525   0.513  11.452  0.6854  0.3757 -0.5398
 3417SOL    HW121713   0.473   0.582  11.494 -0.6014  0.4755 -2.2936
 3417SOL    HW221714   0.603   0.556  11.419  1.4193  0.0537  0.8126
 3418SOL     OW21715   2.835   3.189   5.253 -0.2553  0.5217 -0.1804
 3418SOL    HW121716   2.743   3.187   5.279 -1.0570 -1.7035 -3.2273
 3418SOL    HW221717   2.877   3.171   5.337 -0.2783 -1.0361 -0.5107
 3419SOL     OW21718   0.848   2.801   8.572  0.3429  0.0714 -0.3236
 3419SOL    HW121719   0.885   2.713   8.568 -0.0419 -0.0214 -1.9405
 3419SOL    HW221720   0.766   2.775   8.614  0.0711  1.6253  0.1224
 3420SOL     OW21721   3.615   1.057  16.644  0.0573 -0.3216 -0.4802
 3420SOL    HW121722   3.559   0.979  16.636  1.8273 -1.8201  1.6621
 3420SOL    HW221723   3.596   1.078  16.735  0.9509 -0.2277 -0.3125
 3421SOL     OW21724   1.500   2.570   5.465 -0.2204  0.0156 -0.1589
 3421SOL    HW121725   1.507   2.475   5.469  0.4595  0.1771  2.5672
 3421SOL    HW221726   1.537   2.599   5.548 -0.2853  0.0743 -0.1505
 3422SOL     OW21727   4.056   2.509   7.943 -0.6880 -0.1280 -0.7156
 3422SOL    HW121728   4.009   2.590   7.925 -2.7122 -0.6168  2.3875
 3422SOL    HW221729   4.009   2.434   7.906 -0.7391  0.1266 -1.1697
 3423SOL     OW21730   4.466   1.707   4.345 -0.4146 -0.1784  0.4106
 3423SOL    HW121731   4.484   1.660   4.263 -1.9078  1.3950 -0.8446
 3423SOL    HW221732   4.414   1.637   4.385  1.1260 -2.4852 -1.6316
 3424SOL     OW21733   0.548   0.688   5.560  0.3309 -0.3251  0.8291
 3424SOL    HW121734   0.462   0.670   5.597  1.0033  0.0374  2.5863
 3424SOL    HW221735   0.579   0.605   5.521 -0.9011 -0.6501  0.5474
 3425SOL     OW21736   2.476   1.716   0.107  0.4284 -0.8555 -0.2977
 3425SOL    HW121737   2.424   1.637   0.116  0.8064 -1.0985 -0.2457
 3425SOL    HW221738   2.459   1.732   0.014 -1.6433 -1.2659  0.0279
 3426SOL     OW21739   1.068   1.118  13.672  0.3451  0.0997 -0.2121
 3426SOL    HW121740   1.094   1.190  13.729  0.6963 -1.0669  1.1225
 3426SOL    HW221741   0.974   1.134  13.664  0.5215  0.5506 -1.2933
 3427SOL     OW21742   2.477   1.277   4.225  0.0244  0.4017  0.9580
 3427SOL    HW121743   2.444   1.358   4.263  1.8943  1.0967  1.1046
 3427SOL    HW221744   2.462   1.212   4.294  1.1636 -1.2010 -0.2970
 3428SOL     OW21745   0.168   2.769   1.726 -0.3070  0.1234 -0.2258
 3428SOL    HW121746   0.113   2.708   1.677  0.1530  1.5532 -2.4956
 3428SOL    HW221747   0.240   2.792   1.668  1.0246 -0.6437  1.1059
 3429SOL     OW21748   4.486   0.144   9.731  0.0307  0.4084  0.8983
 3429SOL    HW121749   4.533   0.095   9.798  0.5349 -1.4772 -0.8490
 3429SOL    HW221750   4.550   0.204   9.692 -0.6120  0.2558 -0.3886
 3430SOL     OW21751   0.494   0.472  10.697  0.4564  0.0441 -0.1582
 3430SOL    HW121752   0.483   0.435  10.785  1.8933  0.6213  0.2550
 3430SOL    HW221753   0.537   0.395  10.660  0.7150  0.7313 -1.2725
 3431SOL     OW21754   1.050   4.647   4.491 -0.0723 -0.2223  0.7092
 3431SOL    HW121755   1.008   4.637   4.406 -1.2372  2.1255  1.0206
 3431SOL    HW221756   1.135   4.676   4.458 -0.7889  0.9894 -0.0349
 3432SOL     OW21757   0.250   0.455   0.179 -0.3527 -0.2534 -0.2417
 3432SOL    HW121758   0.226   0.541   0.144 -0.0614 -0.4231 -0.8423
 3432SOL    HW221759   0.240   0.401   0.101  1.2335  2.1820 -2.1211
 3433SOL     OW21760   2.558   0.422   2.576 -0.5286 -0.1494 -0.1087
 3433SOL    HW121761   2.539   0.514   2.592 -1.2116 -0.0891 -1.3432
 3433SOL    HW221762   2.598   0.435   2.490  0.3608 -1.3851  0.1122
 3434SOL     OW21763   1.160   1.660   8.248 -0.3536  0.0655 -0.1731
 3434SOL    HW121764   1.226   1.707   8.197 -0.3507  1.9069  1.5044
 3434SOL    HW221765   1.163   1.711   8.329 -0.3377 -0.7156  0.3222
 3435SOL     OW21766   1.985   1.298   8.560 -0.2123 -0.0383  0.5272
 3435SOL    HW121767   1.910   1.262   8.607  0.9813  0.1227  2.5567
 3435SOL    HW221768   2.058   1.261   8.611  1.0038  1.4854 -0.1017
 3436SOL     OW21769   2.004   2.929   1.002 -0.0855 -0.3056  0.5232
 3436SOL    HW121770   2.078   2.870   1.012  1.3459  1.1240 -1.4790
 3436SOL    HW221771   1.956   2.906   1.081 -0.3121 -0.3238  0.3814
 3437SOL     OW21772   3.132   0.453   4.165  0.3012  0.0596  0.0821
 3437SOL    HW121773   3.051   0.414   4.132 -0.9400  2.3141  0.3875
 3437SOL    HW221774   3.194   0.398   4.117  0.4345  0.9946 -0.8258
 3438SOL     OW21775   3.188   0.761  16.422 -0.1753 -0.4562 -0.4196
 3438SOL    HW121776   3.167   0.672  16.448 -1.0801 -0.2215 -0.3242
 3438SOL    HW221777   3.266   0.756  16.367 -0.2185  2.7759 -0.7744
 3439SOL     OW21778   3.658   3.711  16.131 -0.1885  0.2033  0.3962
 3439SOL    HW121779   3.681   3.721  16.223  0.0863  0.2218  0.3263
 3439SOL    HW221780   3.613   3.790  16.103 -2.9288 -1.3764  0.3890
 3440SOL     OW21781   1.048   3.101   7.525  0.1148 -0.2379  0.9147
 3440SOL    HW121782   1.075   3.117   7.615  0.5861  0.9900  0.5446
 3440SOL    HW221783   1.093   3.171   7.480  0.0207 -1.6611 -1.3946
 3441SOL     OW21784   3.248   2.496   2.278 -0.0597 -0.0046 -0.1186
 3441SOL    HW121785   3.191   2.572   2.269 -1.8171 -0.8193  3.6438
 3441SOL    HW221786   3.186   2.427   2.304 -0.1047 -0.2977 -0.9966
 3442SOL     OW21787   0.750   4.412   7.946 -0.5864  0.0150 -0.2664
 3442SOL    HW121788   0.741   4.317   7.939  0.5212  0.2269 -4.6239
 3442SOL    HW221789   0.810   4.424   8.019 -1.4131 -1.1785  0.6068
 3443SOL     OW21790   2.075   0.632   5.911  0.1464 -0.2712  0.7367
 3443SOL    HW121791   2.030   0.579   5.845  0.1408  0.9461 -0.2416
 3443SOL    HW221792   2.092   0.581   5.991 -0.2852 -0.0353  0.9798
 3444SOL     OW21793   2.070   1.323  12.034  0.1502  0.1629  0.2105
 3444SOL    HW121794   2.162   1.335  12.011  0.4468 -0.7333  0.9711
 3444SOL    HW221795   2.050   1.236  11.999 -1.5211  1.2378 -1.5269
 3445SOL     OW21796   1.083   2.674  13.522 -0.0427 -0.4160  0.3288
 3445SOL    HW121797   1.014   2.636  13.577 -1.6419 -0.3487 -1.6363
 3445SOL    HW221798   1.029   2.729  13.466  1.8783 -0.4145 -1.5268
 3446SOL     OW21799   4.635   1.247   7.680  0.7059  0.2727 -0.2676
 3446SOL    HW121800   4.541   1.237   7.665  0.2110  0.6455  2.6521
 3446SOL    HW221801   4.665   1.222   7.593 -2.2835  0.0553 -1.2369
 3447SOL     OW21802   0.000   2.667  15.448 -0.4665  0.2181 -0.7852
 3447SOL    HW121803   0.090   2.656  15.481 -0.9651  1.5773  0.9795
 3447SOL    HW221804   4.688   2.706  15.527  3.3156  0.9036  0.5795
 3448SOL     OW21805   1.250   1.782   3.218  0.2661  0.2440 -0.4393
 3448SOL    HW121806   1.329   1.789   3.272  0.3959  0.0920 -0.6076
 3448SOL    HW221807   1.272   1.862   3.170 -0.0336 -0.0168 -1.0084
 3449SOL     OW21808   1.923   0.452  17.624  0.0310 -0.4721  0.5721
 3449SOL    HW121809   1.976   0.449   0.010 -0.9883 -0.4560  1.2552
 3449SOL    HW221810   1.854   0.513  17.647 -0.1663 -0.2659 -0.5515
 3450SOL     OW21811   3.477   2.112   8.225 -0.3535 -0.5408 -0.2490
 3450SOL    HW121812   3.391   2.152   8.215 -0.3702 -0.7927 -1.0480
 3450SOL    HW221813   3.464   2.057   8.303  0.1540 -1.5236 -0.8538
 3451SOL     OW21814   2.459   4.465   8.012 -0.4206  0.4004  0.2611
 3451SOL    HW121815   2.386   4.411   8.043 -1.8509  0.3665 -3.1823
 3451SOL    HW221816   2.444   4.470   7.917 -0.8161 -0.7654  0.2639
 3452SOL     OW21817   1.744   4.595  17.582 -0.1649  0.0197 -0.3141
 3452SOL    HW121818   1.743   4.636  17.669  0.7547  1.5362 -1.0199
 3452SOL    HW221819   1.835   4.602  17.554 -0.1324 -1.8692 -0.6860
 3453SOL     OW21820   0.775   2.449   3.342  0.1022  0.0691 -0.8961
 3453SOL    HW121821   0.755   2.539   3.318  1.2561  0.1807 -1.4036
 3453SOL    HW221822   0.779   2.403   3.258  0.6540 -2.8043  0.6819
 3454SOL     OW21823   3.104   3.920   2.525 -0.1327  0.5757  0.5668
 3454SOL    HW121824   3.195   3.940   2.506  0.1535 -0.1090  1.2026
 3454SOL    HW221825   3.093   3.951   2.615 -1.7182  0.3215  0.4564
 3455SOL     OW21826   2.142   4.649   6.490  0.5293 -0.0539  0.8009
 3455SOL    HW121827   2.201   0.001   6.493  0.1105  0.2346  2.0149
 3455SOL    HW221828   2.090   4.655   6.570 -0.6687 -0.7317  0.0621
 3456SOL     OW21829   3.475   2.757   4.863 -0.6681 -0.4980 -0.6565
 3456SOL    HW121830   3.388   2.729   4.892 -0.3530 -2.2632 -1.4296
 3456SOL    HW221831   3.463   2.842   4.820  3.1196  0.0903 -0.4953
 3457SOL     OW21832   4.435   2.346   7.478 -0.2259 -0.3652 -0.3992
 3457SOL    HW121833   4.452   2.267   7.426  3.9236  0.5970 -0.5480
 3457SOL    HW221834   4.517   2.367   7.523  0.0154 -0.8096 -0.6342
 3458SOL     OW21835   0.786   2.548   9.056  0.4369  0.1268 -0.1974
 3458SOL    HW121836   0.733   2.545   9.135 -1.9471 -0.2653 -1.8297
 3458SOL    HW221837   0.767   2.639   9.036  0.6135  0.5555  1.5457
 3459SOL     OW21838   4.346   3.543   9.551 -0.0101 -0.8059 -0.2613
 3459SOL    HW121839   4.302   3.567   9.469  1.1078 -1.0613 -0.9255
 3459SOL    HW221840   4.386   3.460   9.526  0.5457 -0.7663  0.4882
 3460SOL     OW21841   3.660   0.853   4.190  0.3408  0.0346  0.3225
 3460SOL    HW121842   3.691   0.807   4.268  0.5864 -1.0629 -0.4310
 3460SOL    HW221843   3.584   0.797   4.173  0.8244 -0.4888 -0.0811
 3461SOL     OW21844   2.353   2.609  11.953  0.3864  0.5937 -0.4791
 3461SOL    HW121845   2.417   2.651  11.896  1.4774 -0.5557 -0.1182
 3461SOL    HW221846   2.351   2.674  12.023  1.3399 -0.8454  0.8921
 3462SOL     OW21847   1.051   0.057   1.077 -1.3410  0.0358 -0.2833
 3462SOL    HW121848   1.025   0.146   1.100  0.1249 -0.4481  3.3242
 3462SOL    HW221849   1.146   0.059   1.063 -1.2800 -0.8603  0.0068
 3463SOL     OW21850   4.519   4.543   3.455 -0.4043  0.1474 -0.3792
 3463SOL    HW121851   4.428   4.568   3.436 -0.7359 -0.8026 -0.0082
 3463SOL    HW221852   4.556   4.624   3.489  0.5425  0.4792 -2.2024
 3464SOL     OW21853   2.895   4.427  16.195  0.3863  0.1824 -0.4200
 3464SOL    HW121854   2.851   4.444  16.279 -0.6531 -0.0257 -0.9128
 3464SOL    HW221855   2.986   4.426  16.223  0.3116 -2.6059 -0.3004
 3465SOL     OW21856   1.383   3.901   0.469  0.5373  0.1163 -0.5709
 3465SOL    HW121857   1.393   3.982   0.519  2.5802 -0.6213  0.2240
 3465SOL    HW221858   1.326   3.849   0.526  2.0807  0.2634  1.1272
 3466SOL     OW21859   0.789   0.484   7.344 -0.8559 -0.1020  0.0636
 3466SOL    HW121860   0.794   0.577   7.367  2.2422  0.4282 -2.8572
 3466SOL    HW221861   0.864   0.460   7.291 -0.2972  2.2006 -0.1833
 3467SOL     OW21862   4.074   3.285  12.010 -0.0463  0.2925 -0.0472
 3467SOL    HW121863   4.084   3.299  12.104 -0.0282 -0.5462  0.0720
 3467SOL    HW221864   4.061   3.191  11.999  0.4872  0.2650 -0.4718
 3468SOL     OW21865   3.000   3.397   8.266  0.0060  0.0431  0.0331
 3468SOL    HW121866   3.001   3.457   8.340  0.1509 -0.7785  0.6867
 3468SOL    HW221867   2.918   3.353   8.289 -0.1527  0.5845  0.5198
 3469SOL     OW21868   2.970   2.125   3.983  1.2664  0.6090  0.0162
 3469SOL    HW121869   2.961   2.083   4.068 -0.4520 -2.6126 -1.7797
 3469SOL    HW221870   2.887   2.112   3.938  0.2533  0.7863  1.8552
 3470SOL     OW21871   2.537   2.068  13.269 -0.0196 -0.3585 -0.2294
 3470SOL    HW121872   2.610   2.026  13.315 -0.0154 -0.0697  0.0332
 3470SOL    HW221873   2.490   1.991  13.237  0.8336 -1.1132  0.3359
 3471SOL     OW21874   0.009   2.251   8.211  0.0103 -0.0736 -0.6236
 3471SOL    HW121875   4.685   2.232   8.131  0.5540 -1.6915 -0.5586
 3471SOL    HW221876   0.083   2.299   8.174  0.0726  0.9929  0.8662
 3472SOL     OW21877   0.154   2.098   8.450  0.2686 -0.5135  0.1337
 3472SOL    HW121878   0.091   2.157   8.492  2.3812  1.4146  0.5757
 3472SOL    HW221879   0.212   2.072   8.521  0.3013 -2.0537 -0.4432
 3473SOL     OW21880   1.123   3.521   1.052  0.3759 -0.7906  0.0455
 3473SOL    HW121881   1.099   3.581   1.123  0.2250  1.2422 -1.6993
 3473SOL    HW221882   1.040   3.526   1.005  0.2830  0.1383  0.2984
 3474SOL     OW21883   1.516   4.681  10.860  0.2646  0.0727  0.3450
 3474SOL    HW121884   1.425   4.654  10.846 -0.5988  2.2967  1.8341
 3474SOL    HW221885   1.514   0.050  10.885 -1.9338 -0.2225  1.2963
 3475SOL     OW21886   1.379   0.452   4.126 -0.1337  0.4626  0.6253
 3475SOL    HW121887   1.340   0.485   4.046 -1.0100 -0.1175  0.8195
 3475SOL    HW221888   1.453   0.513   4.130  0.4249 -0.2254  0.9357
 3476SOL     OW21889   1.949   4.517   6.982 -0.4280 -0.1119 -0.4337
 3476SOL    HW121890   1.862   4.477   6.995  0.4789 -2.6986 -2.2014
 3476SOL    HW221891   1.935   4.611   6.988  1.2986  0.0557  0.7691
 3477SOL     OW21892   4.394   1.405  12.024  0.1300  0.0713 -0.6081
 3477SOL    HW121893   4.303   1.391  12.052 -0.2031  2.4261 -0.5029
 3477SOL    HW221894   4.396   1.339  11.954 -2.1513 -1.1902  0.4722
 3478SOL     OW21895   1.597   1.149   3.628  0.6299  0.1852  0.0807
 3478SOL    HW121896   1.663   1.198   3.678  0.5604  1.2010 -0.8481
 3478SOL    HW221897   1.540   1.107   3.693  0.8430  1.7419  1.2779
 3479SOL     OW21898   0.607   0.512   1.223  0.3160 -0.1317 -0.6514
 3479SOL    HW121899   0.602   0.595   1.270  4.0481 -0.3735  0.1062
 3479SOL    HW221900   0.540   0.524   1.156 -1.5871 -3.6108  0.6072
 3480SOL     OW21901   3.420   1.804   5.510  0.1842  0.4504  0.4722
 3480SOL    HW121902   3.509   1.789   5.479 -0.3548  0.2994 -0.9925
 3480SOL    HW221903   3.421   1.898   5.491 -1.5042  0.0014 -1.9090
 3481SOL     OW21904   1.866   2.864   3.619  0.2985  0.2098  0.0612
 3481SOL    HW121905   1.952   2.907   3.614  0.7304 -0.8800 -2.0086
 3481SOL    HW221906   1.881   2.770   3.632 -0.9754 -0.0917 -0.6903
 3482SOL     OW21907   3.480   0.391   6.088 -0.2947 -0.0579 -0.4415
 3482SOL    HW121908   3.544   0.453   6.053  0.7103 -1.0674 -0.3821
 3482SOL    HW221909   3.435   0.436   6.159 -0.2771  2.4810 -2.0551
 3483SOL     OW21910   1.979   1.261  12.290 -0.2650  0.1029  0.1157
 3483SOL    HW121911   2.064   1.217  12.292 -0.9075 -1.0853  2.0698
 3483SOL    HW221912   1.983   1.305  12.205  0.5294  0.5684  0.3901
 3484SOL     OW21913   3.014   1.458   7.504 -0.0245  0.5541 -0.0990
 3484SOL    HW121914   3.027   1.365   7.520  0.5482  0.4959 -0.9023
 3484SOL    HW221915   2.918   1.457   7.503 -0.0219 -2.0684  1.9290
 3485SOL     OW21916   3.575   3.421   7.761  0.8667  1.1516 -0.0926
 3485SOL    HW121917   3.639   3.452   7.697 -0.2308  1.6381 -0.9527
 3485SOL    HW221918   3.559   3.490   7.825 -0.9283  0.0612  0.6397
 3486SOL     OW21919   3.083   1.434   7.920 -0.2365 -0.7656  0.5352
 3486SOL    HW121920   3.050   1.511   7.874 -1.5334 -0.7896  1.4132
 3486SOL    HW221921   3.100   1.478   8.003 -2.1195  1.9630 -0.5314
 3487SOL     OW21922   1.248   2.039   6.215 -0.1335  0.0885 -0.2351
 3487SOL    HW121923   1.215   2.051   6.304 -1.2352 -2.2149 -0.3296
 3487SOL    HW221924   1.299   1.958   6.220 -0.7526 -0.1858  1.2880
 3488SOL     OW21925   0.757   3.302   9.423  0.0335  0.0727 -0.7231
 3488SOL    HW121926   0.813   3.294   9.499  0.5305  1.9379 -0.8836
 3488SOL    HW221927   0.725   3.213   9.406 -2.1458  1.0489 -1.8124
 3489SOL     OW21928   2.863   1.536   5.335  0.6814 -0.4934  0.0797
 3489SOL    HW121929   2.885   1.625   5.363  1.1581 -0.6911  0.3393
 3489SOL    HW221930   2.801   1.516   5.405  0.6169  0.3884  0.2767
 3490SOL     OW21931   0.443   1.959  15.512 -0.1327 -0.1238 -0.0595
 3490SOL    HW121932   0.433   1.879  15.564 -2.0664  0.1727  0.0392
 3490SOL    HW221933   0.354   1.994  15.503  0.3729  0.8012 -1.3861
 3491SOL     OW21934   1.020   3.388   4.139 -0.2942  0.0783  0.0122
 3491SOL    HW121935   0.933   3.359   4.166  0.4510 -0.9136  1.3088
 3491SOL    HW221936   1.031   3.473   4.181  0.8350  0.8320 -1.7680
 3492SOL     OW21937   1.531   0.474   0.012 -0.1186 -0.0784  0.1887
 3492SOL    HW121938   1.517   0.382  17.685 -1.4454  0.0602  0.4335
 3492SOL    HW221939   1.548   0.467   0.106 -1.1890 -0.0495  0.3926
 3493SOL     OW21940   0.558   1.986   2.713 -0.2835 -0.2758  0.0750
 3493SOL    HW121941   0.530   1.900   2.682  0.7666 -0.6671  0.2059
 3493SOL    HW221942   0.495   2.021   2.777  1.4955 -2.8203  3.2274
 3494SOL     OW21943   1.702   0.804   8.855 -0.4837  0.6929 -0.3927
 3494SOL    HW121944   1.738   0.794   8.767  1.3864  0.2714  0.4365
 3494SOL    HW221945   1.625   0.747   8.851  0.1740 -0.4212  2.8311
 3495SOL     OW21946   4.518   1.446  10.457 -0.0299  0.0490  0.2061
 3495SOL    HW121947   4.520   1.541  10.444 -1.8188  0.3054  1.8008
 3495SOL    HW221948   4.435   1.431  10.501  0.0592 -1.3190 -0.0840
 3496SOL     OW21949   0.419   2.737  14.391 -0.3639  0.2519  1.5307
 3496SOL    HW121950   0.358   2.722  14.464 -1.2822  1.5579  1.0281
 3496SOL    HW221951   0.465   2.653  14.397 -0.7391  0.0523  1.6093
 3497SOL     OW21952   3.028   4.619  11.169 -0.0375  0.1129 -0.0448
 3497SOL    HW121953   3.029   4.672  11.249  2.2653  1.0137 -0.6716
 3497SOL    HW221954   3.069   4.681  11.109  1.2221  0.7067  1.4150
 3498SOL     OW21955   3.897   3.069   3.011 -0.3006  0.0656 -0.2522
 3498SOL    HW121956   3.885   3.023   2.927 -1.3005 -2.6059  1.3459
 3498SOL    HW221957   3.830   3.134   2.988 -0.8751 -0.0847  0.9585
 3499SOL     OW21958   0.764   3.275  10.111 -0.5115  0.2347 -0.3455
 3499SOL    HW121959   0.852   3.306  10.094 -1.1164  2.2600  0.2029
 3499SOL    HW221960   0.785   3.189  10.148  0.5693  0.1262 -1.2264
 3500SOL     OW21961   1.566   3.285   3.750 -0.5657 -0.8482  0.3846
 3500SOL    HW121962   1.553   3.200   3.793 -0.3165 -1.1599 -0.1613
 3500SOL    HW221963   1.553   3.340   3.828 -0.0149  2.4678 -1.8591
 3501SOL     OW21964   0.680   1.165   2.847  0.2202  0.5920 -0.1434
 3501SOL    HW121965   0.727   1.149   2.765 -0.5877 -1.9848 -0.1116
 3501SOL    HW221966   0.613   1.222   2.810  0.1925  0.1713 -0.7533
 3502SOL     OW21967   3.249   4.074   4.493  0.2240 -0.2243  0.8529
 3502SOL    HW121968   3.320   4.032   4.445  1.0314 -1.3008  2.9504
 3502SOL    HW221969   3.297   4.115   4.565  1.7077 -1.0785  0.3505
 3503SOL     OW21970   4.395   2.133   5.062 -0.4416 -0.3273  0.1831
 3503SOL    HW121971   4.471   2.080   5.082 -0.5322 -0.6088 -0.2341
 3503SOL    HW221972   4.392   2.187   5.141 -0.6795 -0.1273  0.0398
 3504SOL     OW21973   4.502   2.484  16.802 -0.2652  0.0958  0.0745
 3504SOL    HW121974   4.564   2.448  16.737 -0.2474  1.8430 -0.8673
 3504SOL    HW221975   4.539   2.448  16.883  0.6831  1.3301  0.1917
 3505SOL     OW21976   4.101   3.660   8.337  0.6270  0.2390 -0.1093
 3505SOL    HW121977   4.117   3.725   8.406 -0.6078 -0.9032  1.2287
 3505SOL    HW221978   4.053   3.595   8.389 -0.8660 -0.1923 -2.0424
 3506SOL     OW21979   1.377   3.272  14.618  0.4641 -0.5272  0.6106
 3506SOL    HW121980   1.301   3.224  14.649 -0.2391  1.6029  2.2108
 3506SOL    HW221981   1.340   3.360  14.606 -2.3742 -1.7920  0.3080
 3507SOL     OW21982   3.171   3.664   5.544  0.2494 -0.2884 -0.1234
 3507SOL    HW121983   3.109   3.592   5.531  0.4013 -0.5830  0.7838
 3507SOL    HW221984   3.253   3.615   5.536  0.0266 -0.6116 -0.4673
 3508SOL     OW21985   0.932   1.705   7.405  0.2790 -0.0632  0.0244
 3508SOL    HW121986   0.970   1.786   7.441 -2.4671  2.0101 -1.7316
 3508SOL    HW221987   0.842   1.737   7.407  0.5679  1.0207 -3.7575
 3509SOL     OW21988   4.561   3.511   8.932 -0.0204 -0.2844  0.7931
 3509SOL    HW121989   4.506   3.458   8.875  0.2232 -0.9959  1.2282
 3509SOL    HW221990   4.648   3.509   8.892 -0.9153 -1.3488 -1.1189
 3510SOL     OW21991   4.350   2.545   9.360  0.1401  0.4775  0.2741
 3510SOL    HW121992   4.356   2.565   9.266 -1.1389 -0.1229  0.0703
 3510SOL    HW221993   4.426   2.593   9.393 -0.5986  1.2537  0.8477
 3511SOL     OW21994   4.069   0.481   9.132  0.2973 -0.0593  0.4936
 3511SOL    HW121995   4.137   0.538   9.168  0.4554 -1.0096  1.7001
 3511SOL    HW221996   4.036   0.429   9.205 -1.2611 -2.0079 -1.5654
 3512SOL     OW21997   4.361   1.801   4.604  0.1079  0.1726  0.1240
 3512SOL    HW121998   4.340   1.736   4.671  1.3286  1.7266  2.0263
 3512SOL    HW221999   4.367   1.736   4.534  1.4768  1.0093 -0.5344
 3513SOL     OW22000   1.434   2.481   9.930 -0.1748  0.3075  0.5371
 3513SOL    HW122001   1.523   2.512   9.946  1.2353 -3.0765 -0.7839
 3513SOL    HW222002   1.399   2.487  10.019  1.9354 -1.3922  1.4772
 3514SOL     OW22003   4.174   3.720   3.500  0.8177 -0.0148 -0.4496
 3514SOL    HW122004   4.248   3.781   3.495  0.5828  0.4416  1.9215
 3514SOL    HW222005   4.183   3.664   3.422 -3.0658 -1.9318  0.5026
 3515SOL     OW22006   2.539   1.241   5.853 -0.4272  0.5075  0.1575
 3515SOL    HW122007   2.451   1.211   5.829  0.7461 -0.8009 -2.5488
 3515SOL    HW222008   2.574   1.157   5.883  2.0673  1.8266  0.9349
 3516SOL     OW22009   2.322   4.575   5.931 -0.1485 -0.2056 -0.1977
 3516SOL    HW122010   2.327   4.504   5.994 -0.0104  2.1727  2.4526
 3516SOL    HW222011   2.371   4.644   5.974  0.6000 -0.8047 -0.1010
 3517SOL     OW22012   2.559   3.822   6.062 -0.1092 -0.3968  0.5859
 3517SOL    HW122013   2.503   3.784   6.129 -0.5100 -0.1040  0.4183
 3517SOL    HW222014   2.638   3.842   6.114  0.0622 -0.1472  0.2270
 3518SOL     OW22015   0.144   2.975  12.903  0.2766 -0.6523 -0.3284
 3518SOL    HW122016   0.183   2.924  12.831  2.2064 -0.8004  0.7997
 3518SOL    HW222017   0.052   2.951  12.893 -0.0176  1.3203 -2.2386
 3519SOL     OW22018   2.080   3.983   4.786  0.2238  0.4470  0.2277
 3519SOL    HW122019   2.062   4.077   4.788  1.7079  0.7428 -0.8626
 3519SOL    HW222020   2.156   3.979   4.728 -1.2339 -2.8213 -1.4767
 3520SOL     OW22021   0.158   0.899   7.934 -0.3147 -0.2358  0.2824
 3520SOL    HW122022   0.183   0.809   7.914 -2.5364 -0.8363  0.1904
 3520SOL    HW222023   0.178   0.895   8.027  0.3037  0.9338  0.1876
 3521SOL     OW22024   0.889   0.975  15.041 -0.0234 -0.4406  0.2952
 3521SOL    HW122025   0.808   0.928  15.023 -2.2975  1.8153  4.5759
 3521SOL    HW222026   0.863   1.063  15.013 -1.4761 -1.5015 -1.7104
 3522SOL     OW22027   1.534   1.527   5.892 -0.3641 -0.2388  0.1203
 3522SOL    HW122028   1.471   1.455   5.889 -1.8879  1.0994 -0.2652
 3522SOL    HW222029   1.480   1.589   5.942  1.7194  0.4364  1.5371
 3523SOL     OW22030   0.521   0.525  12.831  0.1362  0.4635 -0.0955
 3523SOL    HW122031   0.542   0.450  12.886 -0.5970 -0.4842 -1.1143
 3523SOL    HW222032   0.486   0.582  12.900  1.1457 -0.1096  0.8733
 3524SOL     OW22033   0.206   1.508   5.266  0.4593  0.2900 -0.3456
 3524SOL    HW122034   0.290   1.462   5.254 -0.4934 -1.4597 -0.3265
 3524SOL    HW222035   0.231   1.567   5.337 -1.7407 -0.2673  0.9084
 3525SOL     OW22036   0.372   1.728   4.448  0.1690 -0.3706 -0.1688
 3525SOL    HW122037   0.390   1.647   4.399  4.3793 -0.0597  0.8955
 3525SOL    HW222038   0.432   1.716   4.521 -0.2373  1.3189  0.4376
 3526SOL     OW22039   2.008   2.469   2.306  0.5398  0.0270 -0.3354
 3526SOL    HW122040   2.023   2.397   2.245  2.1980 -0.1924  0.3312
 3526SOL    HW222041   2.090   2.474   2.354  0.5708 -1.2824 -0.2449
 3527SOL     OW22042   3.410   2.174   7.121 -0.2662  0.1500  0.0643
 3527SOL    HW122043   3.486   2.116   7.127 -0.8515 -0.6349 -0.1685
 3527SOL    HW222044   3.444   2.243   7.064  2.3636 -2.0322 -0.9867
 3528SOL     OW22045   0.787   1.289   4.712  0.1903  0.0617 -0.3995
 3528SOL    HW122046   0.831   1.208   4.686  0.5021 -0.6165  2.1557
 3528SOL    HW222047   0.796   1.305   4.806 -0.6656 -0.4380 -0.2274
 3529SOL     OW22048   2.762   3.989  14.253  0.0711  0.3399 -0.1182
 3529SOL    HW122049   2.721   4.051  14.192 -2.1672 -1.1781 -0.1526
 3529SOL    HW222050   2.842   3.971  14.205 -0.0683  1.0126 -0.6042
 3530SOL     OW22051   4.158   3.983   7.905  0.6275 -0.2374  0.3294
 3530SOL    HW122052   4.247   3.949   7.911  0.4573 -0.6703  0.4550
 3530SOL    HW222053   4.179   4.072   7.879 -1.7293  0.1537 -0.2567
 3531SOL     OW22054   1.489   4.032   6.012 -0.3717  0.1362 -0.2203
 3531SOL    HW122055   1.417   4.094   6.018  1.0893  1.8231 -0.1543
 3531SOL    HW222056   1.436   3.954   6.030 -0.0398 -0.2756 -1.0522
 3532SOL     OW22057   3.168   2.338  11.771  1.0148  0.0319 -0.2909
 3532SOL    HW122058   3.214   2.264  11.811  1.8150 -0.2896 -1.7966
 3532SOL    HW222059   3.081   2.302  11.753 -0.3377  2.4951  1.3065
 3533SOL     OW22060   3.426   3.682   2.831 -0.5517  0.1245 -0.3554
 3533SOL    HW122061   3.406   3.591   2.853  1.6513 -0.5586 -1.2278
 3533SOL    HW222062   3.434   3.690   2.736  2.1441  0.4019 -0.1046
 3534SOL     OW22063   1.478   0.821   3.959 -0.2401  0.3209 -0.1151
 3534SOL    HW122064   1.555   0.829   3.903 -0.2494 -1.7083 -0.4121
 3534SOL    HW222065   1.515   0.788   4.041  1.8283  0.2127 -1.0955
 3535SOL     OW22066   4.571   2.809  13.361 -0.5690  0.2867 -0.3192
 3535SOL    HW122067   4.585   2.716  13.379 -0.8114  0.6234  1.6826
 3535SOL    HW222068   4.508   2.833  13.429 -0.5243 -0.5930  0.0347
 3536SOL     OW22069   0.067   2.034   6.874  0.3137  0.8078 -0.2987
 3536SOL    HW122070   0.151   1.997   6.847  0.5104  0.0115  1.3734
 3536SOL    HW222071   0.087   2.127   6.875  0.1997  0.8331 -0.3271
 3537SOL     OW22072   2.242   1.744   2.395 -0.1960 -0.4478 -0.6461
 3537SOL    HW122073   2.167   1.719   2.342 -0.0728 -3.0064  0.4150
 3537SOL    HW222074   2.304   1.682   2.358 -0.3072 -1.4211  0.8139
 3538SOL     OW22075   3.330   2.899   3.034 -0.2642  0.1557  0.1209
 3538SOL    HW122076   3.282   2.823   3.000 -0.7981  1.5065 -2.0661
 3538SOL    HW222077   3.345   2.952   2.957  0.8251 -0.6661 -0.2391
 3539SOL     OW22078   1.316   4.553   1.447 -0.1987 -0.5866  0.0079
 3539SOL    HW122079   1.226   4.528   1.426  0.6315 -1.5606 -2.3947
 3539SOL    HW222080   1.366   4.489   1.396 -1.8001 -1.4848 -0.4330
 3540SOL     OW22081   4.501   4.344  13.913  0.0286  0.4269  0.0791
 3540SOL    HW122082   4.541   4.258  13.899  0.4490  0.4553  1.1689
 3540SOL    HW222083   4.527   4.370  14.001  1.1307  0.1013 -0.1600
 3541SOL     OW22084   2.872   3.781   4.041  0.4027 -0.1917 -0.5267
 3541SOL    HW122085   2.825   3.704   4.072 -2.9584  0.6791 -3.5233
 3541SOL    HW222086   2.813   3.827   3.982  1.1908 -0.3886 -1.4638
 3542SOL     OW22087   1.862   1.656   7.623  1.1366 -0.1248 -0.3128
 3542SOL    HW122088   1.841   1.655   7.529  1.9590 -2.4181 -0.4581
 3542SOL    HW222089   1.783   1.615   7.658  0.0843 -0.4484 -3.0409
 3543SOL     OW22090   2.206   0.017   7.185  0.5144 -0.2165  0.1463
 3543SOL    HW122091   2.264   0.034   7.259  2.0856  1.4038 -1.4372
 3543SOL    HW222092   2.144   0.088   7.201 -0.1381 -0.7699  0.0545
 3544SOL     OW22093   3.473   4.303  17.476 -0.6150 -0.2807 -0.5772
 3544SOL    HW122094   3.417   4.320  17.551  2.6465 -1.2305  2.0779
 3544SOL    HW222095   3.447   4.363  17.406  0.4762 -0.4184 -1.1002
 3545SOL     OW22096   4.692   3.026   6.717 -0.1700  0.2072 -0.5213
 3545SOL    HW122097   4.634   2.967   6.766  0.2563 -0.2699 -0.5840
 3545SOL    HW222098   0.053   2.980   6.719  0.3973  1.3464  2.1006
 3546SOL     OW22099   1.380   1.060  17.515  0.6810  0.7387 -0.0640
 3546SOL    HW122100   1.391   1.109  17.434  0.5032 -3.3520 -2.5704
 3546SOL    HW222101   1.379   0.970  17.480 -2.4462  0.0366  1.8115
 3547SOL     OW22102   2.381   2.692  13.560  0.3700  0.1500 -0.6681
 3547SOL    HW122103   2.293   2.716  13.533 -0.7342 -0.8713  1.9944
 3547SOL    HW222104   2.361   2.598  13.563  3.1154 -0.3408  2.4017
 3548SOL     OW22105   1.458   2.775  14.744  0.1075  0.3302  0.0442
 3548SOL    HW122106   1.498   2.714  14.681 -1.5061 -2.2219  1.5058
 3548SOL    HW222107   1.478   2.857  14.698  1.9198 -0.3857 -0.4617
 3549SOL     OW22108   2.780   0.819   2.538 -0.2536 -0.2579 -0.2753
 3549SOL    HW122109   2.778   0.875   2.460 -2.5769  2.0601  1.4259
 3549SOL    HW222110   2.858   0.845   2.586 -0.4000 -0.4519  0.0731
 3550SOL     OW22111   1.998   4.650  17.576 -0.6066  0.1515  0.0894
 3550SOL    HW122112   2.013   0.022  17.577  2.6232 -0.3736  1.6318
 3550SOL    HW222113   2.066   4.615  17.519  0.7709  2.5512  0.2540
 3551SOL     OW22114   2.995   4.023  12.550  0.2423 -0.0592 -0.0795
 3551SOL    HW122115   2.926   4.063  12.496 -0.5689 -2.6752 -1.0206
 3551SOL    HW222116   2.973   3.930  12.542 -0.4020  0.2466 -1.9453
 3552SOL     OW22117   0.327   1.116   9.412 -0.2063  0.3083 -0.7397
 3552SOL    HW122118   0.273   1.128   9.334 -2.5030  0.3031  0.8327
 3552SOL    HW222119   0.412   1.101   9.371  0.5179 -0.6200  1.1107
 3553SOL     OW22120   0.953   0.197  10.685  0.0268  0.0648 -0.2531
 3553SOL    HW122121   1.047   0.180  10.671 -0.4665 -1.3497 -1.8431
 3553SOL    HW222122   0.925   0.190  10.594 -0.0701  1.0950 -0.2981
 3554SOL     OW22123   3.917   4.523   2.202 -0.2072 -0.3539  0.0620
 3554SOL    HW122124   3.917   4.614   2.232  1.4723 -0.5158  0.5459
 3554SOL    HW222125   4.004   4.514   2.163  0.5761 -1.6669  2.1139
 3555SOL     OW22126   2.084   0.102   3.670 -0.2709 -0.2564 -0.3081
 3555SOL    HW122127   2.078   0.009   3.649  0.2179 -0.8594  2.3044
 3555SOL    HW222128   1.995   0.134   3.651 -0.0030 -0.2960 -1.6648
 3556SOL     OW22129   4.061   0.359   6.660  0.1406  0.1457 -0.3411
 3556SOL    HW122130   3.996   0.352   6.590 -0.0182  4.2451 -0.5902
 3556SOL    HW222131   4.107   0.275   6.662  0.6648  0.3882 -2.7242
 3557SOL     OW22132   2.562   2.538  10.152 -0.1065 -0.2802  0.1501
 3557SOL    HW122133   2.476   2.532  10.195 -0.3332 -0.6727 -0.3663
 3557SOL    HW222134   2.608   2.504  10.229  1.6743 -1.4384 -1.4423
 3558SOL     OW22135   3.408   3.901   0.398  0.4102  0.6185 -0.2181
 3558SOL    HW122136   3.495   3.922   0.431  0.3098 -0.0380  0.4826
 3558SOL    HW222137   3.428   3.896   0.305 -2.7431  2.7659 -1.0231
 3559SOL     OW22138   0.454   4.700   4.113 -0.0849  0.3583  0.0381
 3559SOL    HW122139   0.427   4.623   4.062  0.5674 -0.4573  0.9080
 3559SOL    HW222140   0.419   0.050   4.062 -1.0021 -0.0772  0.0516
 3560SOL     OW22141   3.994   2.125   7.141  0.1347 -0.3151  0.0208
 3560SOL    HW122142   3.983   2.060   7.071  2.5392  0.2266 -0.8462
 3560SOL    HW222143   4.028   2.069   7.211  1.0455 -0.4123 -0.5043
 3561SOL     OW22144   4.677   4.312   2.830 -0.3678  0.2108  0.5504
 3561SOL    HW122145   0.036   4.327   2.783  0.9205 -1.7105  2.2156
 3561SOL    HW222146   4.633   4.397   2.830  0.8021  0.8140 -1.3332
 3562SOL     OW22147   4.062   0.488   1.707 -0.1075 -0.0815  0.0965
 3562SOL    HW122148   3.972   0.467   1.733 -0.6890  0.5719 -1.4077
 3562SOL    HW222149   4.074   0.420   1.641 -0.5786 -0.8782  0.8381
 3563SOL     OW22150   0.402   4.656  15.678 -0.2721  0.1796  0.2199
 3563SOL    HW122151   0.316   4.681  15.711 -1.4777 -1.1415 -1.9058
 3563SOL    HW222152   0.378   4.613  15.596 -0.0185  0.2767  0.0953
 3564SOL     OW22153   2.741   4.259   9.005 -0.3790 -0.6021 -0.0589
 3564SOL    HW122154   2.687   4.308   8.943  1.0075 -0.9657 -1.5359
 3564SOL    HW222155   2.685   4.248   9.083 -2.2137  0.9883 -1.1582
 3565SOL     OW22156   2.394   3.035  14.318  0.3340 -0.1798 -0.0777
 3565SOL    HW122157   2.472   3.033  14.262  1.4646  0.2989  1.4974
 3565SOL    HW222158   2.380   3.129  14.323 -0.2840 -0.3509  1.4393
 3566SOL     OW22159   4.221   3.336  10.947  0.3674  0.2847  0.0095
 3566SOL    HW122160   4.311   3.307  10.931  0.6238  2.4350 -2.4918
 3566SOL    HW222161   4.191   3.342  10.856  0.4465 -0.0169 -0.0349
 3567SOL     OW22162   1.257   3.592  15.748  0.4932  0.0030  0.0971
 3567SOL    HW122163   1.294   3.575  15.834  1.5550 -1.8907 -0.7334
 3567SOL    HW222164   1.294   3.522  15.694  1.9295  0.7060  0.1706
 3568SOL     OW22165   2.007   0.492  11.348 -0.0053  0.3133  0.3910
 3568SOL    HW122166   2.019   0.488  11.254 -0.6803  1.0826  0.2790
 3568SOL    HW222167   1.952   0.569  11.359  0.0476  0.4773 -0.5016
 3569SOL     OW22168   2.624   4.592   5.507 -0.3266 -0.0967 -0.2734
 3569SOL    HW122169   2.563   4.543   5.563 -0.8147  2.0114  1.0784
 3569SOL    HW222170   2.589   4.561   5.424  1.1001  0.7486 -1.1923
 3570SOL     OW22171   3.751   4.550   7.020 -0.0784 -0.1088  0.0770
 3570SOL    HW122172   3.701   4.469   7.026  2.2603 -1.3729  2.6339
 3570SOL    HW222173   3.689   4.606   6.974 -2.1115 -0.4654  2.4067
 3571SOL     OW22174   3.509   1.339   8.357 -0.0956  0.1769  0.2049
 3571SOL    HW122175   3.450   1.309   8.426  1.2774  0.0175  1.3121
 3571SOL    HW222176   3.591   1.338   8.408  1.2768 -0.9818 -2.0184
 3572SOL     OW22177   2.715   0.780   1.210 -0.2292  0.3876  0.1301
 3572SOL    HW122178   2.770   0.732   1.272 -0.6543 -0.8569 -0.4638
 3572SOL    HW222179   2.671   0.838   1.273 -0.6846 -0.5449  0.6665
 3573SOL     OW22180   1.108   4.301   4.147 -0.5623  0.9165 -0.1842
 3573SOL    HW122181   1.180   4.283   4.087  0.6521  0.0214  1.5545
 3573SOL    HW222182   1.132   4.385   4.187  0.3596  0.3856  0.4004
 3574SOL     OW22183   2.393   2.865   4.354  0.0765 -0.2932 -0.2042
 3574SOL    HW122184   2.463   2.928   4.373  0.1894 -0.5171  0.1261
 3574SOL    HW222185   2.400   2.816   4.436 -0.1812  0.4873  0.2932
 3575SOL     OW22186   3.278   1.597   8.555  0.0685 -0.5662 -0.0270
 3575SOL    HW122187   3.228   1.517   8.538 -1.7684  0.2855  1.4448
 3575SOL    HW222188   3.279   1.600   8.650  0.0860  1.0474 -0.0925
 3576SOL     OW22189   1.275   2.365   3.705  0.3634 -0.7814  0.5363
 3576SOL    HW122190   1.352   2.322   3.669  0.2734 -1.1994  0.8420
 3576SOL    HW222191   1.299   2.356   3.798  0.4837 -0.3079  0.5530
 3577SOL     OW22192   0.073   1.040   4.207 -0.2249  0.4223 -0.0205
 3577SOL    HW122193   0.141   0.995   4.257  1.1897 -0.3598 -2.6524
 3577SOL    HW222194   0.028   0.959   4.180 -0.2965  1.3320 -2.5794
 3578SOL     OW22195   1.466   1.826   9.283 -0.4828 -0.2154 -0.0809
 3578SOL    HW122196   1.496   1.762   9.218  0.2853  1.4066 -1.3174
 3578SOL    HW222197   1.486   1.800   9.373  0.3756 -0.9627 -0.4792
 3579SOL     OW22198   3.020   1.796   4.945 -0.6459  0.4722  0.3517
 3579SOL    HW122199   3.084   1.795   5.016  1.1546  0.0783 -1.2814
 3579SOL    HW222200   3.021   1.705   4.916 -2.0277  0.6938 -0.4045
 3580SOL     OW22201   1.268   1.861   7.425 -0.2906 -0.3764 -0.0329
 3580SOL    HW122202   1.175   1.845   7.445 -0.7420 -0.4732 -2.2276
 3580SOL    HW222203   1.310   1.777   7.441  0.6930  0.3819  1.3747
 3581SOL     OW22204   0.842   0.030  15.650 -0.1261 -0.3079 -0.5381
 3581SOL    HW122205   0.907   4.683  15.642 -0.5379 -0.8610  1.1825
 3581SOL    HW222206   0.767   4.698  15.671 -0.0015  0.1835  1.1577
 3582SOL     OW22207   1.934   0.980   8.619  0.0656 -0.3789  0.2432
 3582SOL    HW122208   1.887   1.038   8.679 -1.2109 -1.0315 -0.1355
 3582SOL    HW222209   2.023   0.985   8.655 -0.0259 -0.8126  0.5349
 3583SOL     OW22210   1.746   0.088   9.469 -0.1056  0.5854 -0.1567
 3583SOL    HW122211   1.781   0.031   9.537  1.4103 -0.7208 -2.0094
 3583SOL    HW222212   1.821   0.091   9.410  0.9494 -2.9025  1.0460
 3584SOL     OW22213   2.956   1.893   7.242  0.4669 -0.0577  0.2147
 3584SOL    HW122214   2.969   1.967   7.301  0.2897 -2.2261  2.9508
 3584SOL    HW222215   3.018   1.829   7.277 -0.3503  0.9482  3.5092
 3585SOL     OW22216   3.605   3.117   7.485  0.3342  0.1537 -1.0340
 3585SOL    HW122217   3.577   3.122   7.576  0.0045  1.8402 -1.2403
 3585SOL    HW222218   3.700   3.132   7.487  0.5145 -1.4160  1.4633
 3586SOL     OW22219   3.918   1.361   6.019 -0.9774 -0.0124 -0.5863
 3586SOL    HW122220   3.925   1.331   5.929 -1.3073  1.0563 -0.9722
 3586SOL    HW222221   3.833   1.318   6.033 -0.9176 -0.0568 -0.3647
 3587SOL     OW22222   3.629   3.911  10.196 -0.2340 -0.1561  0.2431
 3587SOL    HW122223   3.661   3.839  10.140  0.5379 -0.6047  1.2652
 3587SOL    HW222224   3.545   3.928  10.154  1.0304  2.3852 -1.3047
 3588SOL     OW22225   3.278   3.421   9.234 -0.5294 -0.4703 -0.0800
 3588SOL    HW122226   3.195   3.438   9.190 -0.2018  0.1506 -0.4584
 3588SOL    HW222227   3.335   3.440   9.160  0.2389 -2.4219  0.0152
 3589SOL     OW22228   1.343   4.159   9.144 -0.3620 -0.2178 -0.1285
 3589SOL    HW122229   1.396   4.175   9.067 -0.9854  2.1461 -0.0624
 3589SOL    HW222230   1.404   4.113   9.202 -0.0713 -2.1290 -1.9297
 3590SOL     OW22231   3.673   4.445  16.731 -0.0189 -0.1101  0.6824
 3590SOL    HW122232   3.699   4.364  16.773 -0.5327 -0.2181  0.7893
 3590SOL    HW222233   3.676   4.416  16.640 -0.2155 -0.5317  0.8094
 3591SOL     OW22234   2.796   1.986   5.047  0.5258 -0.2927  0.0881
 3591SOL    HW122235   2.733   1.937   4.993  0.1397  1.8129 -1.4137
 3591SOL    HW222236   2.874   1.966   4.995  0.8823 -1.8745  1.2616
 3592SOL     OW22237   2.119   0.668   7.808  0.3381 -0.8388  0.5216
 3592SOL    HW122238   2.210   0.660   7.779  0.6802  1.6199  0.9533
 3592SOL    HW222239   2.130   0.686   7.901 -0.6361  0.7388  0.3242
 3593SOL     OW22240   4.387   3.539   1.741  0.0421 -0.0135  0.4407
 3593SOL    HW122241   4.427   3.465   1.788  0.4309  0.4638  0.8605
 3593SOL    HW222242   4.368   3.597   1.815 -1.1463  1.5491 -1.0734
 3594SOL     OW22243   4.118   1.734  10.255 -0.0607 -0.4540  0.2495
 3594SOL    HW122244   4.042   1.722  10.312 -2.6656 -1.5115 -3.3918
 3594SOL    HW222245   4.079   1.713  10.169  2.6473 -2.0605 -0.5955
 3595SOL     OW22246   1.936   2.687  14.224  0.2031 -0.2622 -0.6323
 3595SOL    HW122247   1.921   2.674  14.318  1.7989  0.1601 -0.3026
 3595SOL    HW222248   2.005   2.754  14.230 -0.4208  0.1518  2.1705
 3596SOL     OW22249   2.875   1.138   9.350  0.0955 -0.6930 -0.0049
 3596SOL    HW122250   2.805   1.081   9.383 -2.0700  1.5326 -0.7165
 3596SOL    HW222251   2.954   1.121   9.401  0.4573 -1.9282 -0.9566
 3597SOL     OW22252   0.839   1.662   4.586 -0.0087  0.2255 -0.7588
 3597SOL    HW122253   0.913   1.634   4.639 -1.2740 -1.7188 -0.0161
 3597SOL    HW222254   0.856   1.755   4.572  0.6151  0.0428 -1.2477
 3598SOL     OW22255   2.748   3.835   5.313  0.5144  0.3216 -0.1280
 3598SOL    HW122256   2.839   3.855   5.292  0.9692 -0.5012  1.0574
 3598SOL    HW222257   2.751   3.850   5.408  0.7022 -1.6092  0.1558
 3599SOL     OW22258   0.215   1.958  11.872  0.4386  0.5804 -0.1777
 3599SOL    HW122259   0.137   2.001  11.909 -0.2333 -1.2414  0.5379
 3599SOL    HW222260   0.215   1.872  11.912 -0.1217  0.9100  0.5278
 3600SOL     OW22261   3.727   4.074   5.342 -0.6561 -0.1060  0.0372
 3600SOL    HW122262   3.748   4.166   5.358  0.8308 -0.4824  0.3029
 3600SOL    HW222263   3.643   4.062   5.386  0.7581 -2.7200  2.0112
 3601SOL     OW22264   4.708   2.321   8.473  0.0771  0.3192  0.4046
 3601SOL    HW122265   4.621   2.301   8.505  0.1696 -0.7614 -0.0351
 3601SOL    HW222266   4.698   2.296   8.381  2.1055 -0.9199  0.5250
 3602SOL     OW22267   0.059   3.543   5.766  0.1418 -0.4142  0.0387
 3602SOL    HW122268   0.143   3.577   5.797 -0.8922  0.7998  1.5117
 3602SOL    HW222269   0.012   3.543   5.850  0.3245  3.1170  0.1648
 3603SOL     OW22270   0.529   3.733   3.498  0.7645 -0.2400 -0.0666
 3603SOL    HW122271   0.491   3.648   3.521  0.2230  0.2397  0.8367
 3603SOL    HW222272   0.502   3.743   3.407  0.8815 -3.9813 -0.4931
 3604SOL     OW22273   2.688   1.043   7.244  0.3954 -0.5391  0.3757
 3604SOL    HW122274   2.749   1.009   7.178  0.8200  0.9701  0.0110
 3604SOL    HW222275   2.602   1.022   7.207  1.2393 -0.4647 -1.6498
 3605SOL     OW22276   3.511   3.617   5.848 -0.1038 -0.0782 -0.5063
 3605SOL    HW122277   3.500   3.547   5.912 -3.8841 -0.1466 -1.1957
 3605SOL    HW222278   3.506   3.575   5.763  0.8794  0.0294 -0.6174
 3606SOL     OW22279   0.413   0.526   6.137  0.1895 -0.4605  0.1918
 3606SOL    HW122280   0.340   0.473   6.170  0.0747  0.5747  1.5684
 3606SOL    HW222281   0.400   0.606   6.188 -0.9986 -2.5375  3.1154
 3607SOL     OW22282   4.009   2.818   1.890  0.4504 -0.3092 -0.0392
 3607SOL    HW122283   4.067   2.796   1.817 -0.8697  0.4878 -1.3473
 3607SOL    HW222284   3.919   2.791   1.869 -0.7500  3.9368 -0.4673
 3608SOL     OW22285   0.558   3.280   0.840  0.0309  0.5081  0.7188
 3608SOL    HW122286   0.498   3.206   0.846  1.4683 -0.7394 -0.0375
 3608SOL    HW222287   0.626   3.251   0.779 -0.9740  2.5224 -1.3643
 3609SOL     OW22288   0.429   0.126   7.838 -0.6837 -0.3097 -0.3807
 3609SOL    HW122289   0.508   0.095   7.794 -1.0811 -2.8944  0.7494
 3609SOL    HW222290   0.365   0.085   7.779 -1.9561  0.9090  0.1486
 3610SOL     OW22291   0.150   2.176   3.897  0.3475  0.0340 -0.2220
 3610SOL    HW122292   0.187   2.124   3.825 -0.6098 -1.0476  0.0558
 3610SOL    HW222293   0.227   2.229   3.913  1.6321 -2.0592  0.5941
 3611SOL     OW22294   0.820   2.406   4.410 -0.3448  0.1707 -0.4421
 3611SOL    HW122295   0.891   2.411   4.346  0.8628  2.2647  1.0444
 3611SOL    HW222296   0.814   2.494   4.447  0.8315  0.6950 -1.5021
 3612SOL     OW22297   0.290   3.026   8.695  0.3014 -0.3862 -0.5475
 3612SOL    HW122298   0.280   2.933   8.677 -1.0000  0.4395 -4.2530
 3612SOL    HW222299   0.222   3.054   8.756  1.6243 -1.8365  1.5501
 3613SOL     OW22300   0.344   4.607   1.151  0.1942 -0.5763 -0.3632
 3613SOL    HW122301   0.393   4.676   1.104 -2.2403  2.5656  1.7264
 3613SOL    HW222302   0.418   4.559   1.188 -0.6439 -1.7145 -0.1813
 3614SOL     OW22303   3.025   3.607   8.477 -0.2636  0.6534  0.2580
 3614SOL    HW122304   3.059   3.688   8.440  1.8835 -0.8900 -1.1510
 3614SOL    HW222305   2.935   3.620   8.506 -0.1809  1.6957  0.0346
 3615SOL     OW22306   2.328   1.717   5.558 -0.7678 -0.0748 -0.9405
 3615SOL    HW122307   2.361   1.655   5.493  0.2749  1.2886 -1.7183
 3615SOL    HW222308   2.238   1.687   5.574 -0.9965  0.2054 -1.6697
 3616SOL     OW22309   4.582   2.457   7.906  0.2270  0.5004 -0.6887
 3616SOL    HW122310   4.487   2.460   7.921  0.2103 -2.1997 -0.1456
 3616SOL    HW222311   4.612   2.523   7.968  0.8540 -2.5645  2.2784
 3617SOL     OW22312   0.183   0.684   0.067  0.5041 -0.1448  0.1271
 3617SOL    HW122313   0.243   0.757   0.051  0.4047  0.3706  2.1340
 3617SOL    HW222314   0.116   0.735   0.111 -2.3854 -4.7383  1.0127
 3618SOL     OW22315   1.187   0.045   1.864 -0.6969  0.6596  0.0382
 3618SOL    HW122316   1.230   0.126   1.837  2.2746 -0.9282  0.0469
 3618SOL    HW222317   1.177   0.063   1.957  2.5179  0.6021  0.3709
 3619SOL     OW22318   2.213   3.984   6.479  0.7697  0.6455  0.3197
 3619SOL    HW122319   2.201   4.063   6.533  2.7316  0.1870  1.4448
 3619SOL    HW222320   2.181   3.918   6.541  1.4808  0.1603  0.1679
 3620SOL     OW22321   0.306   4.319   8.332  0.6810  1.0591 -0.3941
 3620SOL    HW122322   0.356   4.288   8.407 -0.2278 -0.0879 -0.2567
 3620SOL    HW222323   0.249   4.245   8.310 -0.7772  1.8958  0.4974
 3621SOL     OW22324   3.709   4.604   8.476  0.0907 -0.4274  0.0902
 3621SOL    HW122325   3.739   4.515   8.494  1.2471 -0.1212 -0.3444
 3621SOL    HW222326   3.709   4.645   8.563  0.2722 -2.0345  0.8312
 3622SOL     OW22327   4.080   1.636   8.657  0.1008 -0.2236  0.0648
 3622SOL    HW122328   4.096   1.705   8.722 -0.2852  0.0392 -0.1197
 3622SOL    HW222329   4.110   1.561   8.709  0.2115 -0.0271  0.2862
 3623SOL     OW22330   1.922   1.727   9.201  0.2403 -0.0247 -0.0310
 3623SOL    HW122331   1.957   1.813   9.224  1.1774 -0.7032  1.0856
 3623SOL    HW222332   1.842   1.757   9.159 -1.2202 -2.3995  1.0575
 3624SOL     OW22333   3.872   3.466  13.599  0.0077 -0.4735 -0.1633
 3624SOL    HW122334   3.833   3.493  13.516  1.5641 -0.2021 -0.8047
 3624SOL    HW222335   3.808   3.482  13.669 -0.8145 -0.7015 -0.8689
 3625SOL     OW22336   3.031   3.284   7.961  0.5427 -0.2935  1.3903
 3625SOL    HW122337   3.076   3.363   7.989 -1.5879  1.5121 -0.2927
 3625SOL    HW222338   3.101   3.218   7.955 -0.6509 -1.4281 -0.0702
 3626SOL     OW22339   0.296   3.290   0.605 -0.2141  0.2209  0.1590
 3626SOL    HW122340   0.217   3.303   0.553  0.2642 -0.2312 -0.6658
 3626SOL    HW222341   0.275   3.201   0.633  0.3438 -0.1168 -0.5080
 3627SOL     OW22342   1.937   4.224   2.747  0.0393 -0.2401 -0.2555
 3627SOL    HW122343   1.888   4.221   2.665 -1.1906  1.8380  0.4075
 3627SOL    HW222344   2.009   4.162   2.736 -0.7794 -1.0299 -1.1758
 3628SOL     OW22345   2.883   2.566   3.409 -0.1582  0.2534 -0.2681
 3628SOL    HW122346   2.828   2.573   3.488  0.7118  0.0959  0.3513
 3628SOL    HW222347   2.968   2.581   3.451  0.5165  0.0538 -1.5868
 3629SOL     OW22348   4.695   0.799   5.289  0.1053  0.3310 -0.0292
 3629SOL    HW122349   4.637   0.735   5.332 -0.4652  0.7884 -0.1118
 3629SOL    HW222350   4.637   0.822   5.217 -0.3496  0.0745  0.2511
 3630SOL     OW22351   0.295   4.667   3.600  0.3981  0.6130 -0.5814
 3630SOL    HW122352   0.258   4.581   3.581  1.1753  0.5402 -1.7287
 3630SOL    HW222353   0.373   4.673   3.545 -0.2242 -1.1191 -1.6314
 3631SOL     OW22354   2.017   3.825  16.818  0.0331 -0.5564  0.1473
 3631SOL    HW122355   1.959   3.755  16.788 -1.9389  1.0595  0.1729
 3631SOL    HW222356   1.969   3.854  16.896 -1.7108  2.4931 -2.0580
 3632SOL     OW22357   3.134   2.641   8.191  0.1141  0.0165 -0.0217
 3632SOL    HW122358   3.222   2.679   8.195  0.1280 -0.1341  1.2080
 3632SOL    HW222359   3.075   2.715   8.182  2.0433  1.3766 -1.5480
 3633SOL     OW22360   3.758   1.856  10.437 -0.2670 -0.0275  0.6703
 3633SOL    HW122361   3.733   1.813  10.355 -1.3032  0.0604  0.9437
 3633SOL    HW222362   3.765   1.777  10.492  0.8454  0.5749  1.3830
 3634SOL     OW22363   1.914   2.413  16.645  0.2610 -0.1179 -0.1788
 3634SOL    HW122364   1.866   2.481  16.692  0.0529 -0.9140  0.7673
 3634SOL    HW222365   2.001   2.430  16.682  0.4452  0.1420 -0.7266
 3635SOL     OW22366   3.417   3.477   3.043  0.0184 -0.0126 -0.1392
 3635SOL    HW122367   3.423   3.462   3.137 -3.6362 -1.4009 -0.1201
 3635SOL    HW222368   3.501   3.436   3.020  1.1432  1.0488  2.0504
 3636SOL     OW22369   3.442   0.166   6.715 -0.1371  0.2942 -0.1607
 3636SOL    HW122370   3.439   0.221   6.637 -1.4837 -2.1156 -1.8010
 3636SOL    HW222371   3.355   0.129   6.700 -0.4683  1.1962 -0.4200
 3637SOL     OW22372   4.259   3.915  11.019 -0.3224  0.3278  0.1401
 3637SOL    HW122373   4.222   4.002  11.007 -0.0432  0.7016  1.9338
 3637SOL    HW222374   4.327   3.937  11.083  0.2817 -0.0237 -0.3802
 3638SOL     OW22375   1.192   0.695   8.321  0.6516 -0.2327 -0.0663
 3638SOL    HW122376   1.189   0.623   8.384  1.9225 -0.7611 -0.6190
 3638SOL    HW222377   1.279   0.736   8.323 -0.3388  1.8155  1.3477
 3639SOL     OW22378   0.495   0.074   2.727  0.4271  0.3083  0.2245
 3639SOL    HW122379   0.436   0.135   2.683 -0.0866 -1.3713 -1.4156
 3639SOL    HW222380   0.482   4.707   2.697 -0.7845  0.2372  0.9567
 3640SOL     OW22381   3.712   1.710   1.928  0.1730 -0.1127  0.4075
 3640SOL    HW122382   3.722   1.617   1.947  0.3362 -0.4387 -1.2163
 3640SOL    HW222383   3.727   1.701   1.833 -2.0067  1.3394 -0.0616
 3641SOL     OW22384   4.049   4.475  10.923  0.1512 -0.6298 -0.1441
 3641SOL    HW122385   4.011   4.548  10.972 -2.5317 -1.5013 -0.9030
 3641SOL    HW222386   4.140   4.496  10.943 -0.2389  0.5407  0.4155
 3642SOL     OW22387   3.315   3.820   5.936  0.2250  0.5335 -0.1151
 3642SOL    HW122388   3.349   3.835   6.024  0.9673 -1.9091 -0.0027
 3642SOL    HW222389   3.322   3.725   5.930 -0.4823  0.4460  0.3919
 3643SOL     OW22390   2.812   1.888   2.775  0.0424 -0.3307  0.1029
 3643SOL    HW122391   2.787   1.876   2.866 -2.6070  1.3631 -0.3998
 3643SOL    HW222392   2.903   1.917   2.771  0.7392 -2.1803  2.7557
 3644SOL     OW22393   3.468   4.221  10.269 -0.0414 -0.6284  0.1745
 3644SOL    HW122394   3.443   4.163  10.197  0.5269  0.3805 -0.8505
 3644SOL    HW222395   3.456   4.163  10.344  1.9147 -2.4835 -0.9551
 3645SOL     OW22396   3.909   0.669   8.990 -0.4440  0.2541  0.3979
 3645SOL    HW122397   3.964   0.748   8.993  1.1400 -0.7485 -2.7604
 3645SOL    HW222398   3.952   0.619   9.059 -1.4823 -0.0658  0.8117
 3646SOL     OW22399   2.185   0.892  13.871  0.1386 -0.4087 -0.3921
 3646SOL    HW122400   2.146   0.867  13.955 -0.4870  0.0106 -0.5643
 3646SOL    HW222401   2.124   0.959  13.841  1.0222  0.4861 -0.2193
 3647SOL     OW22402   4.619   2.798  14.234 -0.0709 -0.1280 -0.1813
 3647SOL    HW122403   4.699   2.786  14.182 -0.1295 -1.3691  0.0252
 3647SOL    HW222404   4.646   2.874  14.286  1.8674 -0.7924 -0.1930
 3648SOL     OW22405   3.091   4.255   1.128 -0.7644  0.7033  0.3778
 3648SOL    HW122406   3.115   4.172   1.170 -0.6019  0.3976 -0.3274
 3648SOL    HW222407   3.139   4.319   1.182  2.0502 -0.7341 -0.3931
 3649SOL     OW22408   4.217   4.025  11.440  0.4256  0.3932  0.1474
 3649SOL    HW122409   4.251   4.084  11.506  1.8992  0.5895 -0.7952
 3649SOL    HW222410   4.236   3.940  11.479  0.7688  0.8293  0.9275
 3650SOL     OW22411   2.749   0.776   5.290 -0.4425  0.3980 -0.2483
 3650SOL    HW122412   2.792   0.861   5.281  1.1117 -0.4872 -1.1229
 3650SOL    HW222413   2.679   0.786   5.225  0.4592 -0.0774 -1.2717
 3651SOL     OW22414   3.397   1.160   5.744 -0.3858 -0.0312 -0.1109
 3651SOL    HW122415   3.381   1.220   5.671  0.7921  0.1149 -0.2405
 3651SOL    HW222416   3.324   1.098   5.753 -0.3963 -0.1399 -0.9335
 3652SOL     OW22417   2.420   3.211  13.512  0.0672 -0.0344  0.0845
 3652SOL    HW122418   2.368   3.219  13.592  0.6062 -1.9096  0.6137
 3652SOL    HW222419   2.391   3.125  13.481 -1.1682  0.8372 -1.2025
 3653SOL     OW22420   4.115   2.119   6.726  0.4782  0.3200 -0.0110
 3653SOL    HW122421   4.062   2.194   6.754  2.5160  1.0616  1.8914
 3653SOL    HW222422   4.202   2.139   6.762 -0.6556  2.6653  1.4352
 3654SOL     OW22423   0.460   4.327  16.305  0.2594 -0.2362  0.1183
 3654SOL    HW122424   0.446   4.310  16.398  0.5287 -0.9951  0.0179
 3654SOL    HW222425   0.509   4.247  16.288  0.2013 -0.2779  0.1482
 3655SOL     OW22426   4.311   1.704  16.123  0.5215 -0.5276 -0.6553
 3655SOL    HW122427   4.364   1.627  16.139 -1.4177 -2.0318 -1.5270
 3655SOL    HW222428   4.228   1.669  16.091  0.0606 -0.6066  0.6166
 3656SOL     OW22429   4.627   3.315   8.302  0.0838  0.4698  0.3077
 3656SOL    HW122430   4.562   3.383   8.320  0.8297  0.7250  1.9966
 3656SOL    HW222431   4.608   3.248   8.367  0.6191 -1.4735 -1.5609
 3657SOL     OW22432   2.771   4.100  10.267  0.0820 -0.4646 -0.1323
 3657SOL    HW122433   2.807   4.025  10.220 -2.4074 -1.0315 -1.1200
 3657SOL    HW222434   2.738   4.053  10.343  0.9621 -1.0046 -0.0787
 3658SOL     OW22435   1.391   1.251  14.314 -0.1582  0.5480  0.2617
 3658SOL    HW122436   1.426   1.333  14.350  0.6027 -0.7550  2.4475
 3658SOL    HW222437   1.470   1.205  14.286 -0.0304  0.8053  0.1977
 3659SOL     OW22438   3.702   0.381  15.803 -0.6547  1.1561  0.0714
 3659SOL    HW122439   3.730   0.428  15.724 -1.5493  1.3917 -0.1063
 3659SOL    HW222440   3.771   0.413  15.860 -1.0619 -1.2808  1.9447
 3660SOL     OW22441   2.104   2.858   5.833  0.5313 -0.2436 -0.1833
 3660SOL    HW122442   2.024   2.908   5.815 -0.2646 -1.0505  1.1397
 3660SOL    HW222443   2.087   2.774   5.790  1.0481  0.1040 -1.0664
 3661SOL     OW22444   3.923   4.567   7.944 -0.5788  0.0417  0.0925
 3661SOL    HW122445   3.968   4.537   7.865  0.7269  0.1494  0.7937
 3661SOL    HW222446   3.905   4.660   7.934  0.1999  0.3369  1.5213
 3662SOL     OW22447   2.017   4.496   4.558  0.1267  0.0448  0.5370
 3662SOL    HW122448   1.929   4.473   4.527  0.2960  1.7855 -1.2601
 3662SOL    HW222449   1.988   4.558   4.625 -0.8768  0.7157 -0.5050
 3663SOL     OW22450   0.573   3.947  13.321  0.6563 -0.2872 -0.1636
 3663SOL    HW122451   0.578   3.856  13.293  0.3476  0.2266 -1.9083
 3663SOL    HW222452   0.657   3.967  13.362  0.7216 -0.4357 -0.2263
 3664SOL     OW22453   3.255   1.119   2.474  0.5509  0.4190  0.0663
 3664SOL    HW122454   3.215   1.033   2.481  0.4732  0.4215 -0.3228
 3664SOL    HW222455   3.182   1.165   2.431 -0.7306 -1.1077  0.5972
 3665SOL     OW22456   3.729   4.616  11.043 -0.2360 -0.3087 -0.2847
 3665SOL    HW122457   3.729   4.611  10.947 -3.0421  0.4686 -0.3432
 3665SOL    HW222458   3.816   4.646  11.068 -1.8052  4.1309 -0.1757
 3666SOL     OW22459   0.266   1.544   8.059  0.0429 -0.0533 -0.5703
 3666SOL    HW122460   0.189   1.563   8.114  2.0722 -0.6483  2.4764
 3666SOL    HW222461   0.305   1.466   8.099 -1.0008  0.3087  1.1767
 3667SOL     OW22462   4.487   1.453  15.902  0.2273 -0.3710  0.5383
 3667SOL    HW122463   4.498   1.438  15.995 -1.9492 -0.1794  0.8310
 3667SOL    HW222464   4.392   1.445  15.893  0.4175 -0.3456 -1.5828
 3668SOL     OW22465   4.705   2.941   5.984 -0.3102 -0.1836 -0.1469
 3668SOL    HW122466   0.046   3.012   5.979 -1.1753  0.6011 -0.1447
 3668SOL    HW222467   0.010   2.910   6.071 -1.4122  1.9088  0.9476
 3669SOL     OW22468   0.462   2.647   4.355  0.0396  0.1351 -0.0120
 3669SOL    HW122469   0.534   2.674   4.298  0.5860 -1.3794 -0.0620
 3669SOL    HW222470   0.394   2.626   4.291 -2.1943  0.6574  2.1968
 3670SOL     OW22471   4.590   0.452   0.612 -0.0492 -0.0138 -1.2024
 3670SOL    HW122472   4.552   0.433   0.527  0.7631  0.8443 -1.7576
 3670SOL    HW222473   4.598   0.365   0.651  0.7633  0.2348 -0.8065
 3671SOL     OW22474   1.052   2.547  10.377 -0.1266  0.3090  0.5092
 3671SOL    HW122475   1.130   2.599  10.395 -0.9122  1.9534 -0.8047
 3671SOL    HW222476   1.018   2.600  10.305 -1.0941 -0.1366  0.6420
 3672SOL     OW22477   3.084   4.168   3.714 -0.1556 -0.3905 -0.1224
 3672SOL    HW122478   3.054   4.102   3.775  0.1680 -0.8633 -0.4701
 3672SOL    HW222479   3.094   4.117   3.633  0.3710 -2.8940  1.5226
 3673SOL     OW22480   3.723   0.612   7.082 -0.4551  0.1127  0.6515
 3673SOL    HW122481   3.659   0.597   7.152 -1.7091 -1.8738 -0.9229
 3673SOL    HW222482   3.736   0.525   7.045 -0.1596  0.0810  0.8280
 3674SOL     OW22483   4.272   2.407   2.482  0.3889  0.1780 -0.0001
 3674SOL    HW122484   4.261   2.328   2.428 -2.2622  1.2986 -1.1132
 3674SOL    HW222485   4.184   2.409   2.519  0.3101 -0.4663 -0.1563
 3675SOL     OW22486   4.401   3.628  12.193  0.3931  0.2605 -0.3851
 3675SOL    HW122487   4.413   3.723  12.197  0.2464  0.0923  3.7090
 3675SOL    HW222488   4.338   3.611  12.123  0.3177 -2.1140  0.2342
 3676SOL     OW22489   1.091   2.689   1.880  0.9030  0.0904 -0.4183
 3676SOL    HW122490   1.070   2.776   1.913 -1.4952 -1.4814  2.1239
 3676SOL    HW222491   1.080   2.648   1.966  1.6980  1.4829  0.3307
 3677SOL     OW22492   0.557   0.813   3.178 -0.7065 -0.1338  1.1229
 3677SOL    HW122493   0.578   0.784   3.089 -1.9462  1.7828  0.2000
 3677SOL    HW222494   0.630   0.862   3.214 -1.5059  2.5805 -0.9887
 3678SOL     OW22495   1.599   2.998   1.051 -0.2684  0.3288 -0.0038
 3678SOL    HW122496   1.615   3.076   1.105 -1.0932  1.1093 -0.9139
 3678SOL    HW222497   1.600   3.040   0.965 -0.9954  0.5806  0.1150
 3679SOL     OW22498   1.661   2.551   4.863 -0.3475 -0.1790  0.3909
 3679SOL    HW122499   1.629   2.610   4.795  1.0840  1.3528  1.0133
 3679SOL    HW222500   1.583   2.537   4.917 -1.4051  0.1548 -1.0676
 3680SOL     OW22501   4.681   0.358   6.665 -0.2235 -0.2581 -0.0665
 3680SOL    HW122502   4.588   0.378   6.672 -0.2014 -0.6908  1.4923
 3680SOL    HW222503   4.713   0.398   6.746  1.6826  0.9450 -1.3951
 3681SOL     OW22504   0.407   2.794   1.589 -0.5977 -0.1563  0.4811
 3681SOL    HW122505   0.424   2.795   1.495 -2.9501  0.5340  0.0715
 3681SOL    HW222506   0.480   2.743   1.626 -0.2410  0.8110  1.1169
 3682SOL     OW22507   3.969   2.146   6.478  0.3220  0.0412  0.3779
 3682SOL    HW122508   4.041   2.208   6.468  0.1899  0.1957  0.3906
 3682SOL    HW222509   4.010   2.061   6.494  3.1325  1.2137 -0.7511
 3683SOL     OW22510   3.003   0.946   7.591  0.5823  0.9583  0.1527
 3683SOL    HW122511   3.041   1.005   7.656  0.9151  0.5342  0.3437
 3683SOL    HW222512   2.998   0.865   7.642  0.7693  0.1229 -1.1546
 3684SOL     OW22513   4.490   2.355   2.632 -0.2021  0.6025 -0.1977
 3684SOL    HW122514   4.435   2.293   2.679  0.3615  1.7230  1.9668
 3684SOL    HW222515   4.421   2.394   2.580 -0.0246  0.4499 -0.5475
 3685SOL     OW22516   2.264   4.206   7.074 -0.7505 -0.6466 -0.1983
 3685SOL    HW122517   2.311   4.138   7.122  0.1191 -0.5239 -0.8717
 3685SOL    HW222518   2.289   4.289   7.114  1.5423 -2.2321  1.6029
 3686SOL     OW22519   2.550   4.367   8.836 -0.3492 -0.3389  0.5000
 3686SOL    HW122520   2.494   4.444   8.849 -0.9376 -0.4525 -1.3889
 3686SOL    HW222521   2.511   4.331   8.756 -0.9915 -0.5222  0.8974
 3687SOL     OW22522   1.908   2.733   1.479 -0.0029  0.1661 -0.4419
 3687SOL    HW122523   1.856   2.744   1.558 -3.2166  0.2022 -2.5966
 3687SOL    HW222524   1.997   2.747   1.512 -1.0569  2.7667  1.2279
 3688SOL     OW22525   1.876   2.486   3.110 -0.1323 -0.1981  0.1115
 3688SOL    HW122526   1.800   2.501   3.054 -0.7560  0.9771  1.2668
 3688SOL    HW222527   1.886   2.576   3.140 -2.0079 -0.2345  0.8527
 3689SOL     OW22528   2.106   3.777   1.751 -0.0913 -0.6253  0.1333
 3689SOL    HW122529   2.038   3.844   1.744  0.0896 -0.4986 -0.4054
 3689SOL    HW222530   2.131   3.756   1.661  0.1198  3.4179 -0.7371
 3690SOL     OW22531   0.855   1.917   2.809  0.3538 -0.2987  0.5688
 3690SOL    HW122532   0.798   1.968   2.752 -3.1070 -7.0743 -2.0460
 3690SOL    HW222533   0.865   1.829   2.771  2.3196  0.7004 -1.1967
 3691SOL     OW22534   2.235   0.265   1.225  0.6767 -0.5737 -0.4102
 3691SOL    HW122535   2.255   0.189   1.281 -0.8469 -0.6234  0.0902
 3691SOL    HW222536   2.309   0.260   1.165  1.8678 -0.3076  1.0272
 3692SOL     OW22537   2.743   4.193   3.211 -0.0106 -0.2746 -0.3412
 3692SOL    HW122538   2.755   4.143   3.130  1.4994  0.7152 -0.7177
 3692SOL    HW222539   2.735   4.280   3.173  2.3635  0.0572 -0.1193
 3693SOL     OW22540   2.067   4.690   1.220 -0.3347 -0.6591  0.5954
 3693SOL    HW122541   1.988   0.015   1.245  1.9939  2.6780  1.5477
 3693SOL    HW222542   2.075   4.633   1.297 -0.8866  0.7993  1.7324
 3694SOL     OW22543   0.907   2.807   5.215 -0.3321 -0.2662 -0.2910
 3694SOL    HW122544   0.878   2.831   5.303  1.4488 -0.1187  0.2412
 3694SOL    HW222545   1.001   2.798   5.229 -0.5510 -0.6892  0.8520
 3695SOL     OW22546   1.725   2.780   1.722  0.0770  0.0432 -0.1719
 3695SOL    HW122547   1.650   2.733   1.759  0.3582 -1.5918 -1.6594
 3695SOL    HW222548   1.744   2.849   1.785 -1.4830 -0.5335  0.9448
 3696SOL     OW22549   0.167   1.489   4.712  0.1792  0.2243 -0.0087
 3696SOL    HW122550   0.110   1.559   4.682 -1.1021  0.1131  2.1444
 3696SOL    HW222551   0.116   1.412   4.687  1.3961 -0.5975  0.0131
 3697SOL     OW22552   1.703   2.508   7.322 -0.1926 -0.2971 -0.1090
 3697SOL    HW122553   1.732   2.554   7.401 -0.3354 -0.6278  0.1358
 3697SOL    HW222554   1.785   2.485   7.279  0.2461  1.1295 -0.0487
 3698SOL     OW22555   4.316   0.722   4.639 -0.7629 -0.1475  0.3790
 3698SOL    HW122556   4.350   0.636   4.664  1.0063  0.2371 -0.7565
 3698SOL    HW222557   4.222   0.704   4.627 -1.1549  0.9669  1.8072
 3699SOL     OW22558   3.802   4.041   8.199  0.2441 -0.2920  0.2262
 3699SOL    HW122559   3.878   4.067   8.251  0.4684 -3.3221  1.4115
 3699SOL    HW222560   3.829   4.063   8.110 -1.2933 -1.5605 -0.5483
 3700SOL     OW22561   0.170   4.360   6.156  0.2097  0.0955  0.4099
 3700SOL    HW122562   0.165   4.379   6.062  2.1286  1.7721  0.6549
 3700SOL    HW222563   0.205   4.441   6.192  0.9666  0.2215 -0.6125
 3701SOL     OW22564   0.671   2.818   5.083 -0.0253  0.9654  0.4742
 3701SOL    HW122565   0.747   2.851   5.130 -0.3295  2.5592 -0.1871
 3701SOL    HW222566   0.674   2.727   5.115  0.3875 -0.2011 -2.9328
 3702SOL     OW22567   1.519   3.299   2.431  0.4985  0.3845 -0.6219
 3702SOL    HW122568   1.568   3.318   2.352  0.2107 -1.7697 -1.3091
 3702SOL    HW222569   1.465   3.225   2.403 -0.2176  0.1970  1.2544
 3703SOL     OW22570   0.497   0.979  14.692 -0.0056  0.1667  0.4717
 3703SOL    HW122571   0.505   1.065  14.731  2.7419  0.4382 -0.6870
 3703SOL    HW222572   0.424   0.998  14.633  1.2059  2.7360 -0.1876
 3704SOL     OW22573   4.387   2.158   4.161 -0.0049  0.5600 -0.4122
 3704SOL    HW122574   4.421   2.069   4.175  1.1415  0.8719 -1.2061
 3704SOL    HW222575   4.461   2.213   4.188  0.1000  0.2000  0.0391
 3705SOL     OW22576   1.656   1.491   8.944  0.3845 -0.0294  0.0143
 3705SOL    HW122577   1.651   1.416   8.884 -1.7943  0.5352 -0.5221
 3705SOL    HW222578   1.679   1.563   8.885  2.3128  0.0234  0.8277
 3706SOL     OW22579   3.192   1.042   0.343 -0.6834 -0.2606 -0.5238
 3706SOL    HW122580   3.257   1.018   0.277  1.6274  1.3654  1.1449
 3706SOL    HW222581   3.219   1.004   0.427 -1.4198 -3.0814 -1.5486
 3707SOL     OW22582   0.408   2.316   4.971 -0.2679  0.1455 -0.1478
 3707SOL    HW122583   0.405   2.403   4.932 -0.2654 -0.3046 -1.1401
 3707SOL    HW222584   0.462   2.259   4.916 -0.0382  0.2048  0.0145
 3708SOL     OW22585   4.607   3.773   3.998  0.1545 -0.1198 -0.4741
 3708SOL    HW122586   4.600   3.714   3.923  3.0756  0.3204 -1.1335
 3708SOL    HW222587   4.569   3.722   4.069  1.9592 -0.5320  0.2064
 3709SOL     OW22588   3.756   0.292   1.265  0.2283 -0.0943 -0.0909
 3709SOL    HW122589   3.849   0.269   1.268 -0.0614 -1.6483 -2.7607
 3709SOL    HW222590   3.739   0.293   1.171  3.0890  0.7782 -0.6057
 3710SOL     OW22591   4.448   4.372   7.081 -0.8678  0.7899 -0.0707
 3710SOL    HW122592   4.395   4.295   7.100 -0.5512  0.7838  0.8120
 3710SOL    HW222593   4.402   4.404   7.004  0.8499  3.2379 -0.0809
 3711SOL     OW22594   0.584   0.110   8.872  0.5094 -0.1972  0.3871
 3711SOL    HW122595   0.586   0.046   8.800  0.3957  0.7121 -0.4291
 3711SOL    HW222596   0.529   0.182   8.839  0.6854 -0.4914 -0.5592
 3712SOL     OW22597   1.581   3.726   7.145 -0.7526  0.7254 -0.0855
 3712SOL    HW122598   1.573   3.694   7.235 -0.3128  0.0377 -0.2919
 3712SOL    HW222599   1.561   3.648   7.094  0.8104  0.8764 -0.9413
 3713SOL     OW22600   3.266   2.598   6.924 -0.2737 -0.2526  0.0193
 3713SOL    HW122601   3.234   2.688   6.921 -0.6323 -0.3316  1.4090
 3713SOL    HW222602   3.281   2.589   7.018 -0.9165  0.0533  0.1561
 3714SOL     OW22603   0.506   2.549   5.868 -0.0345 -0.5241 -0.6414
 3714SOL    HW122604   0.476   2.459   5.857  1.5314 -0.8997 -1.8005
 3714SOL    HW222605   0.427   2.601   5.854 -0.4419 -1.0133 -0.1562
 3715SOL     OW22606   4.375   0.347   7.682  0.0351  0.2153  0.6093
 3715SOL    HW122607   4.406   0.353   7.772 -2.1718 -1.4850  1.4898
 3715SOL    HW222608   4.442   0.397   7.635 -1.7521 -0.8349 -3.1058
 3716SOL     OW22609   2.167   1.186   8.241 -0.2412  0.0146  0.0171
 3716SOL    HW122610   2.259   1.206   8.257 -0.1564  0.0381 -0.4978
 3716SOL    HW222611   2.176   1.139   8.158  0.6058 -0.3801  0.3332
 3717SOL     OW22612   2.350   0.443  12.799 -0.4357  0.1587  0.8256
 3717SOL    HW122613   2.259   0.454  12.772 -0.6856 -2.4084  0.6436
 3717SOL    HW222614   2.376   0.530  12.830 -1.8817  0.3014  1.6045
 3718SOL     OW22615   2.237   0.785   8.036 -0.0599 -0.2151  0.3783
 3718SOL    HW122616   2.188   0.866   8.020  0.4530  0.3170  1.4754
 3718SOL    HW222617   2.323   0.825   8.049 -1.1070  1.7516  1.2998
 3719SOL     OW22618   2.348   1.374   8.916  0.3988 -0.0245 -0.4152
 3719SOL    HW122619   2.348   1.336   9.003 -0.4775 -2.1053 -1.3419
 3719SOL    HW222620   2.304   1.455   8.942  0.2845 -0.1723 -0.1605
 3720SOL     OW22621   4.393   1.807  15.506 -0.3603  0.0402 -0.1261
 3720SOL    HW122622   4.363   1.806  15.415 -0.8446 -0.6308  0.0396
 3720SOL    HW222623   4.480   1.845  15.494 -0.5201  0.5034  0.1713
 3721SOL     OW22624   3.258   1.239   6.836  0.1735 -0.3215 -0.9005
 3721SOL    HW122625   3.190   1.293   6.876 -0.2393 -0.9798 -0.7131
 3721SOL    HW222626   3.309   1.215   6.914 -1.2185  1.8052  0.6619
 3722SOL     OW22627   0.915   4.461   3.727 -0.0682  0.3578 -0.2514
 3722SOL    HW122628   1.005   4.487   3.749 -1.0527  1.1947  2.7123
 3722SOL    HW222629   0.869   4.456   3.810 -0.0887 -0.6233 -0.3260
 3723SOL     OW22630   1.432   1.631   8.474 -0.7997  0.2127  0.1059
 3723SOL    HW122631   1.502   1.659   8.415 -1.2006  1.2870  0.1274
 3723SOL    HW222632   1.443   1.681   8.555  2.7376 -0.2594 -0.1008
 3724SOL     OW22633   3.419   0.559  15.582  0.0034 -0.0567  0.2742
 3724SOL    HW122634   3.421   0.530  15.673 -0.9832 -0.5792  0.1346
 3724SOL    HW222635   3.498   0.519  15.546 -2.2602 -3.4702 -0.8912
 3725SOL     OW22636   4.281   1.604   3.758 -0.0118  0.1941 -0.3976
 3725SOL    HW122637   4.210   1.555   3.802 -0.0941 -1.8700 -2.8331
 3725SOL    HW222638   4.335   1.634   3.831  0.5038 -0.1021 -0.6610
 3726SOL     OW22639   4.041   0.455   6.363 -0.2255 -0.5477  0.3950
 3726SOL    HW122640   4.048   0.360   6.371 -0.2822 -0.8593 -3.1608
 3726SOL    HW222641   3.973   0.462   6.296  0.5722 -0.1690 -0.3759
 3727SOL     OW22642   1.858   4.684  12.611  0.1301  0.3059 -0.0166
 3727SOL    HW122643   1.905   4.610  12.572 -0.9961 -1.0311  1.1876
 3727SOL    HW222644   1.893   0.031  12.555  0.0726  0.3134 -0.0440
 3728SOL     OW22645   2.985   1.534   4.848  0.0837  0.2460 -0.3521
 3728SOL    HW122646   3.017   1.448   4.876  0.7356  0.7086  0.3104
 3728SOL    HW222647   2.900   1.541   4.891  1.2079  0.2178  1.8590
 3729SOL     OW22648   0.886   1.094   9.977  0.3058 -0.5310 -0.2087
 3729SOL    HW122649   0.832   1.152   9.924  1.1512  0.0698 -0.4088
 3729SOL    HW222650   0.876   1.005   9.943  0.8161 -0.6730  0.0048
 3730SOL     OW22651   3.336   3.613  10.696  0.0997 -0.2178  0.3004
 3730SOL    HW122652   3.269   3.675  10.724  1.0422  1.1865 -0.5525
 3730SOL    HW222653   3.398   3.671  10.652 -0.5718 -0.1055 -0.4961
 3731SOL     OW22654   0.114   3.772   5.184  0.4717  0.1866  0.9454
 3731SOL    HW122655   0.065   3.785   5.265 -2.0697  2.1923 -0.9025
 3731SOL    HW222656   0.185   3.718   5.218 -0.5408 -2.3004 -0.7882
 3732SOL     OW22657   0.826   0.252   1.199  0.4981  0.2036 -0.4048
 3732SOL    HW122658   0.776   0.324   1.237 -1.3991 -0.9543 -0.7041
 3732SOL    HW222659   0.887   0.232   1.270  0.6962  0.4464 -0.5037
 3733SOL     OW22660   3.084   4.370   4.640  0.1681  0.0610  0.1793
 3733SOL    HW122661   3.161   4.315   4.655 -0.1148 -0.2055  0.6654
 3733SOL    HW222662   3.022   4.311   4.597  0.4999  1.4734 -2.2043
 3734SOL     OW22663   2.110   4.494   6.271  0.5819 -0.0013  0.2112
 3734SOL    HW122664   2.189   4.482   6.219  0.4768 -0.7140  0.2109
 3734SOL    HW222665   2.127   4.546   6.349 -0.7912  0.8058 -0.0215
 3735SOL     OW22666   0.583   0.313  10.919  0.2538  0.0431  0.2109
 3735SOL    HW122667   0.635   0.348  10.992  1.3694 -0.4162 -0.3547
 3735SOL    HW222668   0.615   0.223  10.932 -0.4731 -0.0400  1.4059
 3736SOL     OW22669   4.022   0.376   8.840 -0.0643  0.2467 -0.3244
 3736SOL    HW122670   3.976   0.397   8.921 -1.2640 -0.4806 -0.8284
 3736SOL    HW222671   4.077   0.305   8.873  0.9961  1.1247 -0.1688
 3737SOL     OW22672   1.120   2.538   7.127 -0.9651  0.0950  0.2017
 3737SOL    HW122673   1.151   2.603   7.190  1.1380 -3.0808  2.4675
 3737SOL    HW222674   1.147   2.451   7.155  1.8206  0.9080 -0.0123
 3738SOL     OW22675   3.473   4.598   5.451 -0.0963  0.2098  0.8795
 3738SOL    HW122676   3.381   4.621   5.449 -0.2225 -0.4414 -0.7832
 3738SOL    HW222677   3.479   4.534   5.522 -0.4174  0.3541  1.0347
 3739SOL     OW22678   2.490   0.062   3.753 -0.3071 -0.7686  0.0717
 3739SOL    HW122679   2.522   0.132   3.810 -1.5932 -0.5184  0.4916
 3739SOL    HW222680   2.448   0.000   3.812 -0.2651  0.5916  1.5227
 3740SOL     OW22681   0.545   1.055  13.417  0.0742  0.0614  0.2883
 3740SOL    HW122682   0.627   1.085  13.377  1.1263 -0.3632  2.1105
 3740SOL    HW222683   0.585   1.000  13.485 -0.2510 -0.8254 -0.2499
 3741SOL     OW22684   0.509   2.952  12.203 -0.4476 -0.1168 -0.0538
 3741SOL    HW122685   0.435   2.956  12.143 -1.0251 -0.3487  0.6465
 3741SOL    HW222686   0.546   3.040  12.209  1.3783 -0.9670  1.4796
 3742SOL     OW22687   2.048   4.715  10.326 -0.2581  0.8220  0.1580
 3742SOL    HW122688   1.993   0.071  10.330 -1.5838 -0.1861  1.4582
 3742SOL    HW222689   1.992   4.647  10.289  0.1199  1.0306 -0.7994
 3743SOL     OW22690   0.517   2.259   9.743 -0.1237 -0.2789  0.1988
 3743SOL    HW122691   0.580   2.329   9.721 -1.0494  1.1162  2.0212
 3743SOL    HW222692   0.457   2.306   9.801 -1.6989 -0.9787 -0.8664
 3744SOL     OW22693   2.921   2.266   1.066 -0.3726  0.3280 -0.0331
 3744SOL    HW122694   2.877   2.287   1.148  0.6930  0.9827  0.3745
 3744SOL    HW222695   2.944   2.347   1.021  1.8991 -0.2760  0.0601
 3745SOL     OW22696   2.847   0.408  10.456 -0.2968 -1.0256 -0.1225
 3745SOL    HW122697   2.842   0.333  10.515  2.7209  0.9251  2.6377
 3745SOL    HW222698   2.924   0.454  10.491 -0.2072 -1.5764  0.4021
 3746SOL     OW22699   0.481   4.295  14.521 -0.6857 -0.1770  0.0576
 3746SOL    HW122700   0.497   4.389  14.528 -1.0387 -0.1528  0.5237
 3746SOL    HW222701   0.562   4.272  14.476 -0.3211 -0.1397  0.6961
 3747SOL     OW22702   1.425   3.617   8.781 -0.2897  0.5339  0.4160
 3747SOL    HW122703   1.345   3.628   8.730  1.3083  3.5261 -1.4846
 3747SOL    HW222704   1.399   3.608   8.872  0.4693 -0.1373  0.5615
 3748SOL     OW22705   2.608   2.903   3.686  0.2794 -0.3333 -0.1050
 3748SOL    HW122706   2.677   2.957   3.724  0.4855 -0.5851 -0.1249
 3748SOL    HW222707   2.609   2.827   3.744  0.4994 -0.7478 -0.6573
 3749SOL     OW22708   2.472   0.965   2.543 -0.2243  0.1356 -0.9728
 3749SOL    HW122709   2.511   0.974   2.630  0.1608 -0.9725 -1.0343
 3749SOL    HW222710   2.484   1.055   2.512 -1.7979  1.4091  2.0305
 3750SOL     OW22711   2.594   3.589   2.586  0.4993 -0.0901  0.0762
 3750SOL    HW122712   2.534   3.533   2.536  2.1057 -0.5419 -1.3749
 3750SOL    HW222713   2.600   3.670   2.536  0.4372 -0.4053 -0.4481
 3751SOL     OW22714   1.339   0.657   5.240 -0.1085 -0.4286 -0.0330
 3751SOL    HW122715   1.259   0.681   5.287 -0.3181  1.4524 -1.3470
 3751SOL    HW222716   1.397   0.728   5.269 -1.2152 -0.7229  2.8406
 3752SOL     OW22717   1.082   0.940   9.796  0.1765  0.7522  0.0665
 3752SOL    HW122718   1.116   0.950   9.707 -1.3977 -1.0240 -0.7360
 3752SOL    HW222719   0.987   0.942   9.785  0.2078 -2.5939 -0.7035
 3753SOL     OW22720   4.080   2.399   6.365  0.1738 -0.6800  0.0419
 3753SOL    HW122721   4.076   2.478   6.418 -0.4300 -2.1696  2.1873
 3753SOL    HW222722   4.161   2.365   6.403  1.1353  1.0874 -0.4077
 3754SOL     OW22723   4.363   2.061  15.782 -0.3487  0.7170 -1.0065
 3754SOL    HW122724   4.270   2.048  15.762 -0.6438 -0.6964  1.2600
 3754SOL    HW222725   4.388   2.134  15.725 -0.1531  1.2086 -0.2992
 3755SOL     OW22726   0.828   1.440   6.381  0.1319 -0.9501  0.1352
 3755SOL    HW122727   0.851   1.348   6.370  2.5233 -0.2973 -0.5918
 3755SOL    HW222728   0.901   1.467   6.437 -1.3879  2.6374  0.3473
 3756SOL     OW22729   1.149   2.631   5.486 -0.2155  0.4884  0.3038
 3756SOL    HW122730   1.127   2.636   5.579  1.5031 -0.1617  0.7513
 3756SOL    HW222731   1.244   2.622   5.497 -0.5988 -1.5171  1.9011
 3757SOL     OW22732   0.491   4.648   3.454 -0.2119  0.5249  0.4679
 3757SOL    HW122733   0.506   4.554   3.440  0.2786  0.6999 -0.1867
 3757SOL    HW222734   0.438   4.676   3.379 -0.2331  0.5730  0.5007
 3758SOL     OW22735   1.359   4.697  11.641  0.1631  0.6584  0.0819
 3758SOL    HW122736   1.390   4.707  11.551 -1.5375 -1.0672 -0.7005
 3758SOL    HW222737   1.419   4.631  11.676 -1.9192 -0.6875  1.0662
 3759SOL     OW22738   1.269   0.754  13.322  0.1289 -0.2002  0.0802
 3759SOL    HW122739   1.251   0.666  13.355 -0.3712 -0.2388 -0.2948
 3759SOL    HW222740   1.247   0.797  13.405 -1.3949  0.1299 -0.4893
 3760SOL     OW22741   1.523   1.190   7.603 -0.4038  0.7012  0.0391
 3760SOL    HW122742   1.479   1.224   7.682 -0.2051  1.6907 -0.2723
 3760SOL    HW222743   1.545   1.100   7.628 -1.7581  0.1170 -0.8713
 3761SOL     OW22744   4.573   0.355   4.985  0.1005 -0.2684  0.3667
 3761SOL    HW122745   4.590   0.262   4.969  2.2558  0.4001 -1.3946
 3761SOL    HW222746   4.516   0.347   5.061 -1.4483  0.8766 -0.6698
 3762SOL     OW22747   2.379   4.332   3.839  0.1315  0.0885 -0.2923
 3762SOL    HW122748   2.336   4.281   3.907 -0.9499 -2.8421 -3.2059
 3762SOL    HW222749   2.462   4.286   3.827  1.5726  2.7983 -0.8214
 3763SOL     OW22750   1.610   2.261   4.735  0.3791  0.0295 -0.2396
 3763SOL    HW122751   1.626   2.187   4.676  0.2248  0.0967 -0.3672
 3763SOL    HW222752   1.655   2.335   4.694 -0.5435  0.5971 -0.2496
 3764SOL     OW22753   2.645   3.473   5.076 -0.2596  0.0614 -0.2556
 3764SOL    HW122754   2.655   3.380   5.056  1.8160  0.2416 -0.0738
 3764SOL    HW222755   2.553   3.486   5.051  0.1806  1.7936 -1.0044
 3765SOL     OW22756   3.439   3.569   5.439 -0.6690  0.3474  0.2137
 3765SOL    HW122757   3.475   3.580   5.351 -1.6841  1.8877  0.0024
 3765SOL    HW222758   3.523   3.568   5.485  0.2408 -1.7499 -1.4867
 3766SOL     OW22759   3.415   1.490  14.749  0.5627  0.6167  0.5009
 3766SOL    HW122760   3.498   1.521  14.714  1.4894 -0.7769  1.4714
 3766SOL    HW222761   3.417   1.510  14.843 -1.2919  1.4006  0.3876
 3767SOL     OW22762   2.903   0.914   8.549  0.3937 -0.0631 -0.1021
 3767SOL    HW122763   2.914   0.824   8.518 -3.9314 -0.9518  1.0322
 3767SOL    HW222764   2.814   0.916   8.584  0.0297  0.1029 -1.0592
 3768SOL     OW22765   1.644   2.699   0.949 -0.1813  0.4176  0.1351
 3768SOL    HW122766   1.624   2.747   1.030  1.3389  0.2712  0.5918
 3768SOL    HW222767   1.566   2.725   0.899 -1.0993 -2.2659  0.1881
 3769SOL     OW22768   0.035   1.577   9.757  0.1834  0.4255 -0.1442
 3769SOL    HW122769   0.128   1.597   9.748  0.4597 -1.4305 -1.3803
 3769SOL    HW222770   0.036   1.487   9.789 -2.2588  0.2846 -0.4677
 3770SOL     OW22771   4.090   1.146   6.119  0.4884  0.3764 -0.3089
 3770SOL    HW122772   4.119   1.236   6.135  3.1895 -0.7617  1.2315
 3770SOL    HW222773   4.061   1.126   6.208 -0.4301 -1.5152 -1.0448
 3771SOL     OW22774   3.711   3.451   5.631  0.6585 -0.5401  0.3731
 3771SOL    HW122775   3.677   3.423   5.716 -1.2245 -1.1867 -0.5893
 3771SOL    HW222776   3.727   3.363   5.595  2.0052  0.1205 -0.6591
 3772SOL     OW22777   1.537   0.891  10.156  0.0384 -0.0580 -0.1647
 3772SOL    HW122778   1.608   0.896  10.219 -1.0835  0.7535  1.0331
 3772SOL    HW222779   1.541   0.979  10.120  1.3270  0.6350  1.6833
 3773SOL     OW22780   4.402   1.941   5.782 -0.1673  0.1994  0.5301
 3773SOL    HW122781   4.478   1.883   5.788 -1.1966 -1.2532 -0.3119
 3773SOL    HW222782   4.376   1.943   5.874  2.4633 -0.5107  1.2935
 3774SOL     OW22783   0.345   2.206   6.240  0.5906  0.1017 -0.1629
 3774SOL    HW122784   0.302   2.256   6.171 -0.1959  2.5860  2.1619
 3774SOL    HW222785   0.379   2.131   6.190  1.5364  1.0475 -0.9489
 3775SOL     OW22786   2.825   3.418   2.610  0.6326  0.4583 -0.0380
 3775SOL    HW122787   2.776   3.500   2.602  3.0485  1.8245 -0.7744
 3775SOL    HW222788   2.783   3.364   2.543  0.2599  0.0925  0.4817
 3776SOL     OW22789   4.303   0.846   4.884 -0.8468 -0.2110  0.7186
 3776SOL    HW122790   4.273   0.935   4.864 -0.2186  0.4417  2.6486
 3776SOL    HW222791   4.311   0.803   4.799 -0.2967  0.6454  0.3288
 3777SOL     OW22792   3.458   0.852  17.013 -0.2623  0.0149 -0.0029
 3777SOL    HW122793   3.389   0.914  17.038 -0.3980  0.0090 -0.3618
 3777SOL    HW222794   3.402   0.775  17.020 -0.5592  0.2517  0.2609
 3778SOL     OW22795   3.405   1.087   6.395 -0.1355  0.1305 -0.0218
 3778SOL    HW122796   3.364   1.003   6.374  0.3355 -0.8931  3.1921
 3778SOL    HW222797   3.350   1.158   6.361 -0.8462 -0.4280 -0.0372
 3779SOL     OW22798   3.030   2.453   4.067 -0.1613  0.5021  0.2596
 3779SOL    HW122799   2.948   2.404   4.069 -0.1817  0.5091 -0.2600
 3779SOL    HW222800   3.040   2.455   3.972  0.1500 -2.1289  0.2330
 3780SOL     OW22801   1.652   2.849  10.406 -0.1347 -0.1180 -0.3306
 3780SOL    HW122802   1.744   2.836  10.428  0.3046 -1.4721 -2.9495
 3780SOL    HW222803   1.617   2.760  10.410  1.2186 -0.7290 -2.2861
 3781SOL     OW22804   2.182   4.301  11.949 -0.1491  0.3166  0.5013
 3781SOL    HW122805   2.216   4.351  12.023 -0.5417  0.7863  0.3624
 3781SOL    HW222806   2.088   4.292  11.966 -0.0056 -0.0714  1.0848
 3782SOL     OW22807   3.065   4.332   0.592 -0.5663 -0.0217 -0.0382
 3782SOL    HW122808   2.988   4.316   0.539 -1.2247  4.0124 -0.3285
 3782SOL    HW222809   3.029   4.378   0.668  1.6392  1.3453  0.1996
 3783SOL     OW22810   1.306   0.118   8.231  0.3918 -0.1970  0.2463
 3783SOL    HW122811   1.343   0.123   8.143 -1.2005  0.6456 -0.3707
 3783SOL    HW222812   1.216   0.148   8.219  0.3918 -1.0244 -1.8067
 3784SOL     OW22813   4.250   4.014   8.456  0.7492  0.3074  0.2959
 3784SOL    HW122814   4.336   4.002   8.415  0.8930  1.6732  0.1979
 3784SOL    HW222815   4.225   3.932   8.498 -1.5294  1.1174  0.5351
 3785SOL     OW22816   1.152   3.173   9.338  0.0517 -1.0168  0.2772
 3785SOL    HW122817   1.068   3.136   9.363 -0.4567 -0.0903 -0.0545
 3785SOL    HW222818   1.178   3.220   9.417  0.6338  0.4079 -0.7391
 3786SOL     OW22819   2.995   1.465   3.076  0.0582 -0.3415 -0.3224
 3786SOL    HW122820   3.054   1.405   3.032  0.3668  0.2030 -0.6544
 3786SOL    HW222821   3.044   1.509   3.146  1.9921 -2.7318 -0.1709
 3787SOL     OW22822   2.055   4.124  16.859  0.5628 -0.4327 -0.2029
 3787SOL    HW122823   2.027   4.033  16.865 -1.0990  0.0458 -0.5582
 3787SOL    HW222824   2.057   4.135  16.764 -0.0531  0.6013 -0.1036
 3788SOL     OW22825   0.061   1.602   8.250 -0.4719  0.0487 -0.2911
 3788SOL    HW122826   0.053   1.555   8.333  3.9024  0.1711  0.2190
 3788SOL    HW222827   0.055   1.693   8.280  1.6653 -0.1445  0.7616
 3789SOL     OW22828   0.146   0.034  12.858 -0.2681 -0.2124 -0.6360
 3789SOL    HW122829   0.184   4.692  12.799  1.3395  0.4512 -0.3182
 3789SOL    HW222830   0.060   0.045  12.816 -1.0007 -0.4359  0.7831
 3790SOL     OW22831   3.831   2.111  10.460 -0.0297  1.1768  0.2739
 3790SOL    HW122832   3.886   2.109  10.538  2.0614 -1.4213 -1.2359
 3790SOL    HW222833   3.814   2.018  10.443  0.5036  1.1548 -0.1457
 3791SOL     OW22834   2.168   1.125  16.296  1.5154 -0.2634  0.2358
 3791SOL    HW122835   2.199   1.114  16.206 -0.3510  0.8085 -0.5584
 3791SOL    HW222836   2.152   1.034  16.322 -0.7761 -0.5624 -2.1512
 3792SOL     OW22837   2.086   3.686   3.740  0.6226 -0.4319 -0.0462
 3792SOL    HW122838   2.116   3.730   3.820  0.4510  0.6023 -0.5645
 3792SOL    HW222839   2.131   3.743   3.678  0.2096 -0.1584 -0.0962
 3793SOL     OW22840   0.391   2.293   5.704 -0.3302  0.5454  0.5734
 3793SOL    HW122841   0.485   2.279   5.711 -0.5249 -0.5424  1.0558
 3793SOL    HW222842   0.372   2.247   5.623  1.4969  0.3029  0.2841
 3794SOL     OW22843   1.205   2.768   8.561  0.6125 -0.4297  0.2929
 3794SOL    HW122844   1.163   2.793   8.644  2.6322  1.8636  0.6278
 3794SOL    HW222845   1.224   2.850   8.514  1.7622  0.0587  1.5908
 3795SOL     OW22846   3.982   4.660   9.977 -0.2592  0.4835 -0.0562
 3795SOL    HW122847   3.891   4.629   9.979  0.0290 -0.3399  0.3079
 3795SOL    HW222848   3.989   4.699  10.064  0.0724 -0.2511  0.2420
 3796SOL     OW22849   0.510   2.579   9.699  0.7526 -0.1209 -0.3771
 3796SOL    HW122850   0.567   2.541   9.766 -0.2909 -0.3362  0.3938
 3796SOL    HW222851   0.428   2.562   9.746 -0.4143  1.3052 -1.8691
 3797SOL     OW22852   2.845   4.243  15.902  0.4476  0.4245 -0.0861
 3797SOL    HW122853   2.810   4.180  15.840  0.0345  2.0146 -1.4575
 3797SOL    HW222854   2.774   4.257  15.965 -0.8023  0.9479 -1.6165
 3798SOL     OW22855   1.466   0.159   2.191 -0.2337  0.7888  0.0603
 3798SOL    HW122856   1.390   0.216   2.205  1.4456  2.7367  1.4170
 3798SOL    HW222857   1.482   0.163   2.097 -4.6654 -0.1145 -0.7350
 3799SOL     OW22858   2.431   3.453   1.977 -0.4876 -0.3364  0.6300
 3799SOL    HW122859   2.512   3.494   2.008  0.1836 -1.5196  0.4470
 3799SOL    HW222860   2.370   3.527   1.980  1.2264  1.1063  0.1048
 3800SOL     OW22861   0.442   2.998   1.940 -0.3549  0.3673 -0.0244
 3800SOL    HW122862   0.487   3.066   1.990 -0.8000 -0.2252  1.1981
 3800SOL    HW222863   0.510   2.973   1.878 -1.2168 -1.4892 -0.2386
 3801SOL     OW22864   2.639   0.851   7.534 -0.0552  0.4141  0.5614
 3801SOL    HW122865   2.679   0.936   7.516  2.4720 -0.8050  0.5326
 3801SOL    HW222866   2.657   0.803   7.454  1.2269 -0.3131  1.2912
 3802SOL     OW22867   3.058   4.470  11.831  0.7662  0.4969 -0.0047
 3802SOL    HW122868   2.996   4.543  11.827 -0.3357 -0.3934  1.1843
 3802SOL    HW222869   3.007   4.415  11.890 -0.7188  0.9815 -0.8169
 3803SOL     OW22870   2.029   3.648   7.965 -0.0098 -0.1316  0.1844
 3803SOL    HW122871   2.100   3.706   7.990 -1.4070  1.5330  0.2985
 3803SOL    HW222872   2.062   3.566   8.003  0.5111 -0.6014 -1.2877
 3804SOL     OW22873   3.501   2.803   4.506 -0.7830  0.6918 -0.4338
 3804SOL    HW122874   3.479   2.884   4.552 -2.6163 -0.3430  0.4738
 3804SOL    HW222875   3.428   2.783   4.448 -0.3410 -0.4503 -0.5881
 3805SOL     OW22876   0.034   3.219   9.217  0.3407  0.2034  0.2329
 3805SOL    HW122877   0.098   3.250   9.281  0.8995  1.2165 -0.8230
 3805SOL    HW222878   0.094   3.216   9.143  0.0085  2.8477 -0.1535
 3806SOL     OW22879   1.782   3.258  10.989  0.2240 -0.5423 -1.2455
 3806SOL    HW122880   1.797   3.178  11.039  1.4111 -0.5790 -1.6736
 3806SOL    HW222881   1.801   3.226  10.900 -1.0799  0.8644 -2.0282
 3807SOL     OW22882   0.661   3.409   7.743 -0.5210 -0.1970  0.2254
 3807SOL    HW122883   0.645   3.477   7.808 -1.7792  1.0229 -1.3637
 3807SOL    HW222884   0.713   3.454   7.677 -0.1874 -0.7516  0.1057
 3808SOL     OW22885   1.344   0.539   7.861 -0.5408 -0.1323 -0.1614
 3808SOL    HW122886   1.293   0.534   7.942 -1.3281 -1.0004 -0.7126
 3808SOL    HW222887   1.273   0.559   7.799  1.5880  0.2943 -2.4511
 3809SOL     OW22888   1.127   0.715   4.653 -0.6576 -0.2734 -0.0798
 3809SOL    HW122889   1.165   0.765   4.725  0.8769 -0.5359 -0.7005
 3809SOL    HW222890   1.118   0.625   4.686  0.9774 -0.5797 -0.4548
 3810SOL     OW22891   2.293   4.431  15.738  0.2298  0.0344  0.1644
 3810SOL    HW122892   2.261   4.477  15.660  0.0084  0.4573  0.5054
 3810SOL    HW222893   2.281   4.343  15.703 -2.6566  0.1081  0.9751
 3811SOL     OW22894   0.723   4.150   7.990 -0.1082  0.5015  0.0744
 3811SOL    HW122895   0.761   4.100   7.918  0.3544  2.4383 -1.0326
 3811SOL    HW222896   0.641   4.099   7.988 -0.6446  1.3243  1.7347
 3812SOL     OW22897   0.235   4.038   2.196 -0.0699  0.5867 -0.5661
 3812SOL    HW122898   0.210   3.985   2.120  0.2854 -0.1077 -0.2010
 3812SOL    HW222899   0.160   4.097   2.201 -0.8843 -0.5034 -0.0898
 3813SOL     OW22900   2.793   0.615  14.202 -0.2145 -0.1183  0.1641
 3813SOL    HW122901   2.822   0.527  14.227  1.0277  0.1062 -0.4846
 3813SOL    HW222902   2.855   0.633  14.131 -0.1331 -3.9651 -0.7831
 3814SOL     OW22903   2.822   2.600   1.646  0.2073 -0.8210  0.0570
 3814SOL    HW122904   2.886   2.546   1.692  0.8995  0.0979  0.1665
 3814SOL    HW222905   2.875   2.677   1.625  0.8287 -0.3825  3.3250
 3815SOL     OW22906   0.559   0.464   2.744 -0.5953  0.3310  0.2991
 3815SOL    HW122907   0.496   0.425   2.683 -0.5715  0.1133  0.4148
 3815SOL    HW222908   0.623   0.392   2.743 -0.2608  0.6547 -1.1679
 3816SOL     OW22909   4.106   1.220   4.454 -0.2170  0.0655 -0.0344
 3816SOL    HW122910   4.014   1.229   4.480 -0.2754  1.4339 -0.7215
 3816SOL    HW222911   4.137   1.222   4.544  0.7053  0.5574 -0.3685
 3817SOL     OW22912   0.786   0.666  11.423 -1.1385  0.3944  0.0296
 3817SOL    HW122913   0.743   0.745  11.456  0.0075  1.8960 -2.0697
 3817SOL    HW222914   0.878   0.682  11.446 -0.0919 -3.0539 -1.8266
 3818SOL     OW22915   0.750   2.636   5.889  0.1471  0.5208  0.6738
 3818SOL    HW122916   0.775   2.631   5.797  2.3420  1.8569  1.1811
 3818SOL    HW222917   0.659   2.608   5.882  0.4795 -0.1818 -0.6694
 3819SOL     OW22918   4.286   3.975   3.701  0.4171 -0.1136  0.0060
 3819SOL    HW122919   4.270   4.043   3.635  2.1141  1.3977  1.1553
 3819SOL    HW222920   4.380   3.973   3.715  0.2074 -0.0482  1.4377
 3820SOL     OW22921   3.497   2.738   9.505  0.6980 -0.3934 -0.2731
 3820SOL    HW122922   3.565   2.767   9.566 -0.3361 -0.3949  0.8831
 3820SOL    HW222923   3.430   2.806   9.514 -0.2567 -1.5762  1.5931
 3821SOL     OW22924   1.169   3.891   5.863  0.1947  0.7723  0.6249
 3821SOL    HW122925   1.107   3.821   5.880 -0.1515  0.7743 -0.6746
 3821SOL    HW222926   1.251   3.860   5.902 -0.5112 -0.1748  1.3744
 3822SOL     OW22927   0.454   1.877   3.528 -0.2762  0.7735 -0.1836
 3822SOL    HW122928   0.412   1.860   3.444  1.2710  0.5567 -0.9190
 3822SOL    HW222929   0.437   1.799   3.580 -0.8103  2.1980  1.8153
 3823SOL     OW22930   4.215   2.046   1.622  0.1691 -0.0805  0.6610
 3823SOL    HW122931   4.269   2.062   1.544  0.5660  1.3830  1.2472
 3823SOL    HW222932   4.159   2.124   1.620  0.5061  0.1053 -1.6339
 3824SOL     OW22933   2.853   2.074   5.966  0.0215  0.7542 -0.2228
 3824SOL    HW122934   2.867   2.063   5.871 -1.5119  0.5512 -0.4254
 3824SOL    HW222935   2.820   2.162   5.978  2.3551  1.9023 -2.1116
 3825SOL     OW22936   0.146   0.344   3.136 -0.5203  0.1754  0.5811
 3825SOL    HW122937   0.201   0.388   3.072 -0.1893  1.9960  2.1137
 3825SOL    HW222938   0.209   0.275   3.153 -0.7453  0.1656  1.3903
 3826SOL     OW22939   3.860   0.826   7.205  0.2330  0.5311 -0.4498
 3826SOL    HW122940   3.787   0.869   7.248  1.9170  0.1229  2.8492
 3826SOL    HW222941   3.814   0.754   7.160 -1.9820  1.5419  0.2312
 3827SOL     OW22942   4.165   3.544   0.256 -0.2236 -0.2689 -0.2833
 3827SOL    HW122943   4.182   3.508   0.169 -1.0004  0.7917 -0.8637
 3827SOL    HW222944   4.141   3.635   0.241  0.5876 -0.0175 -0.0625
 3828SOL     OW22945   1.804   3.771   7.862 -0.1564 -1.0617  0.5509
 3828SOL    HW122946   1.876   3.710   7.877 -0.7137 -2.2920 -1.8408
 3828SOL    HW222947   1.842   3.843   7.913 -1.3505 -0.6119  0.8003
 3829SOL     OW22948   3.601   4.455   8.813 -0.0765 -0.6201  0.7233
 3829SOL    HW122949   3.544   4.532   8.815  1.4388  0.4940  1.0965
 3829SOL    HW222950   3.539   4.382   8.810  0.2973 -1.0025  2.3005
 3830SOL     OW22951   1.846   1.087   0.456 -0.1846 -0.4891  0.1673
 3830SOL    HW122952   1.754   1.063   0.452 -0.6000  1.3316 -0.8765
 3830SOL    HW222953   1.841   1.182   0.455 -0.7128 -0.5488 -2.1247
 3831SOL     OW22954   4.651   0.282   3.740 -0.2529 -0.0797 -0.4454
 3831SOL    HW122955   4.672   0.375   3.731  0.0336 -0.0012  0.9262
 3831SOL    HW222956   4.579   0.285   3.803  0.8690 -1.5800  0.9382
 3832SOL     OW22957   0.680   0.282  10.661 -0.0757  0.0865 -0.2002
 3832SOL    HW122958   0.684   0.197  10.705  0.9469 -0.0366 -0.5154
 3832SOL    HW222959   0.759   0.319  10.701  0.2631  0.2311 -0.9922
 3833SOL     OW22960   3.942   4.311   2.754  0.0173  0.2481  0.5604
 3833SOL    HW122961   3.900   4.225   2.741  0.8804  0.1851 -1.7772
 3833SOL    HW222962   3.972   4.327   2.665 -1.1066 -1.2654 -0.0947
 3834SOL     OW22963   2.852   4.277   8.202 -0.5071  0.0567 -0.1576
 3834SOL    HW122964   2.905   4.350   8.170  1.2984 -1.2120  0.0150
 3834SOL    HW222965   2.919   4.218   8.236 -0.2642  0.1352 -0.5063
 3835SOL     OW22966   4.227   1.838   6.843  0.0570  0.3039 -0.5765
 3835SOL    HW122967   4.202   1.919   6.798  1.3593  1.4855  0.8329
 3835SOL    HW222968   4.169   1.769   6.811 -0.5030  0.9288 -0.8950
 3836SOL     OW22969   3.868   3.082   7.563  0.3953 -0.0675 -0.1059
 3836SOL    HW122970   3.958   3.109   7.578  0.8112 -1.3610 -0.2453
 3836SOL    HW222971   3.874   3.009   7.625  0.9097 -0.7258 -0.9244
 3837SOL     OW22972   2.796   4.033   1.807 -0.1699 -0.1899 -0.2863
 3837SOL    HW122973   2.717   4.025   1.754 -0.4520  0.7662 -0.0156
 3837SOL    HW222974   2.754   4.048   1.891  0.3354 -2.1431  0.3069
 3838SOL     OW22975   1.988   3.714   3.113 -0.8186 -0.0998  0.1650
 3838SOL    HW122976   1.971   3.804   3.085 -2.2208 -0.0755  1.1158
 3838SOL    HW222977   1.968   3.717   3.206 -1.0144 -1.0878  0.1583
 3839SOL     OW22978   1.428   2.590   7.701 -0.1355  0.0297  0.0773
 3839SOL    HW122979   1.350   2.639   7.677 -1.5482 -1.1588  2.2105
 3839SOL    HW222980   1.422   2.519   7.637  1.3769  0.8219 -0.9186
 3840SOL     OW22981   0.472   2.854   2.395 -0.1801 -0.0310  0.1022
 3840SOL    HW122982   0.422   2.924   2.437  0.6146  0.7001 -0.1572
 3840SOL    HW222983   0.483   2.806   2.476 -0.7938  0.0860  0.2550
 3841SOL     OW22984   2.380   0.973  12.295 -0.1340 -0.1856 -0.3136
 3841SOL    HW122985   2.361   1.043  12.358 -2.7424 -0.2507 -1.0360
 3841SOL    HW222986   2.361   0.896  12.348 -2.1131  1.3406  1.2394
 3842SOL     OW22987   0.392   4.347   9.061  0.3693  0.0578 -0.1795
 3842SOL    HW122988   0.429   4.394   9.135  0.1457 -0.6617  0.3913
 3842SOL    HW222989   0.408   4.257   9.089  1.2896  0.2901  0.0565
 3843SOL     OW22990   1.741   1.346   4.120  0.0742  0.2458  0.5686
 3843SOL    HW122991   1.692   1.270   4.150  1.8172 -0.8797  0.5357
 3843SOL    HW222992   1.685   1.407   4.071 -0.3252  0.8377  1.7361
 3844SOL     OW22993   4.075   4.044  13.574 -0.7599 -0.1004  0.3286
 3844SOL    HW122994   3.983   4.019  13.577 -1.0046  0.7522  0.1388
 3844SOL    HW222995   4.083   4.088  13.489  1.5003 -0.0033  0.5891
 3845SOL     OW22996   4.687   1.811  13.800 -0.0037 -0.2379  0.3646
 3845SOL    HW122997   4.616   1.865  13.766 -0.6196 -1.6552 -0.6124
 3845SOL    HW222998   0.025   1.796  13.727 -0.4880  0.2987 -0.1538
 3846SOL     OW22999   1.690   0.777   2.375  0.8637 -0.4148 -0.1913
 3846SOL    HW123000   1.680   0.736   2.461  2.3427  0.0563  0.2144
 3846SOL    HW223001   1.618   0.841   2.376  1.1697 -0.0585 -0.9550
 3847SOL     OW23002   2.556   2.872  11.564 -1.1808  0.3736 -0.0224
 3847SOL    HW123003   2.627   2.815  11.534  0.5115  1.2772  2.2304
 3847SOL    HW223004   2.549   2.829  11.649 -0.2631  0.4517  0.0964
 3848SOL     OW23005   4.539   1.255   4.695  0.3909  0.7350  1.0617
 3848SOL    HW123006   4.541   1.273   4.789  1.7076 -1.8023  1.5087
 3848SOL    HW223007   4.629   1.251   4.662 -0.5863 -3.8610 -1.0534
 3849SOL     OW23008   2.287   2.900   1.797 -0.0187  0.0953  0.6354
 3849SOL    HW123009   2.226   2.920   1.868  1.3416 -0.7104  2.0375
 3849SOL    HW223010   2.352   2.969   1.813  0.7241 -0.1597 -1.3066
 3850SOL     OW23011   2.549   3.344   6.683  0.0244 -0.4156 -0.1004
 3850SOL    HW123012   2.598   3.262   6.686 -0.6893 -0.8850 -1.5341
 3850SOL    HW223013   2.603   3.373   6.610 -1.7142 -2.2273 -2.0723
 3851SOL     OW23014   3.799   2.932   4.448 -0.1131 -0.0076 -0.3093
 3851SOL    HW123015   3.883   2.892   4.472 -0.3253 -0.3660 -0.1563
 3851SOL    HW223016   3.774   2.874   4.376  0.0564 -0.4621 -0.0004
 3852SOL     OW23017   1.478   2.445   7.458 -0.0199  0.4669 -0.2061
 3852SOL    HW123018   1.468   2.352   7.438  1.1449  1.0471 -3.4456
 3852SOL    HW223019   1.550   2.480   7.406 -1.3133  2.5957 -0.6113
 3853SOL     OW23020   0.361   2.039   0.529 -0.4391  0.1494 -0.0740
 3853SOL    HW123021   0.330   2.025   0.439 -0.3341  1.4828 -0.3283
 3853SOL    HW223022   0.282   2.089   0.551  0.6322  2.5233 -1.5784
 3854SOL     OW23023   2.019   2.250   2.160 -0.2327  0.3541 -0.3009
 3854SOL    HW123024   1.988   2.190   2.227  2.1126 -0.9782 -0.4172
 3854SOL    HW223025   1.974   2.226   2.079 -0.9867 -0.0354  0.2448
 3855SOL     OW23026   0.725   3.977   4.883  0.4465  0.2365 -0.3307
 3855SOL    HW123027   0.704   4.059   4.928 -1.4535 -0.4376 -0.0086
 3855SOL    HW223028   0.816   3.990   4.856 -0.0534 -0.5438 -2.3293
 3856SOL     OW23029   3.006   1.866  11.853  0.1776  0.4423  0.9967
 3856SOL    HW123030   2.913   1.844  11.854  0.4190 -0.6428 -0.3538
 3856SOL    HW223031   2.996   1.913  11.770 -0.8425 -0.7001  0.4732
 3857SOL     OW23032   2.931   1.905   2.452  0.8933 -0.1986  0.0214
 3857SOL    HW123033   2.839   1.880   2.443  0.6337  0.5555  0.6662
 3857SOL    HW223034   2.942   1.910   2.547 -0.1336 -2.1055  0.2286
 3858SOL     OW23035   2.407   2.526   9.371 -0.0852 -0.0044  0.1371
 3858SOL    HW123036   2.471   2.573   9.319  0.2108 -0.5585  0.0051
 3858SOL    HW223037   2.384   2.463   9.302  0.5223 -0.6677  0.5338
 3859SOL     OW23038   4.423   1.535   6.111  0.0562 -0.3920  0.0794
 3859SOL    HW123039   4.384   1.509   6.027 -0.9158  1.0324  0.0758
 3859SOL    HW223040   4.424   1.456   6.164  1.3988  1.0570  2.2196
 3860SOL     OW23041   2.021   0.047  16.032  0.1838 -0.3123 -0.1531
 3860SOL    HW123042   2.022   0.141  16.013 -1.4702  0.0172  1.3108
 3860SOL    HW223043   2.096   0.026  15.976  0.8963  0.8227  0.3729
 3861SOL     OW23044   0.543   0.814   3.675 -0.6387  0.0896  0.0891
 3861SOL    HW123045   0.458   0.814   3.630 -0.3632 -0.1373 -0.4315
 3861SOL    HW223046   0.538   0.749   3.745  0.1494  0.6101  0.6293
 3862SOL     OW23047   4.183   1.464   8.846 -0.7074 -0.0407 -0.3095
 3862SOL    HW123048   4.176   1.480   8.940 -0.4783 -0.1584 -0.2716
 3862SOL    HW223049   4.266   1.505   8.818  0.1505 -2.0697 -0.7166
 3863SOL     OW23050   2.979   2.611   6.800  0.3142 -0.3458 -0.9201
 3863SOL    HW123051   3.011   2.592   6.888  0.9035  0.8917 -0.8711
 3863SOL    HW223052   2.934   2.528   6.784 -2.8739  0.7584  2.3790
 3864SOL     OW23053   0.758   2.098   6.524 -0.5094 -0.1698 -0.1481
 3864SOL    HW123054   0.720   2.069   6.607  1.5255 -0.0289  0.8378
 3864SOL    HW223055   0.715   2.182   6.515 -0.9031 -0.2391  1.1050
 3865SOL     OW23056   2.505   1.619   2.378  0.1355  0.3028  0.0256
 3865SOL    HW123057   2.509   1.524   2.377  1.1463  0.3538 -1.0359
 3865SOL    HW223058   2.517   1.647   2.287  3.7731 -0.4961  0.2640
 3866SOL     OW23059   2.169   3.783  15.339  0.1323  0.3309  0.4035
 3866SOL    HW123060   2.244   3.754  15.288 -1.0373  0.2485 -1.2821
 3866SOL    HW223061   2.106   3.717  15.310 -1.2464  2.2389 -0.9262
 3867SOL     OW23062   3.022   3.327  15.596 -0.6332 -0.1281  0.0249
 3867SOL    HW123063   2.980   3.334  15.682 -0.7402 -0.3222 -0.0107
 3867SOL    HW223064   3.083   3.256  15.615  0.3432  0.7954  0.3404
 3868SOL     OW23065   1.289   2.883   6.134  0.1076 -0.0825  0.0625
 3868SOL    HW123066   1.380   2.907   6.152 -0.3519  1.2378  0.6056
 3868SOL    HW223067   1.256   2.876   6.223 -0.6204  0.5193 -0.1536
 3869SOL     OW23068   0.707   3.225   7.467 -0.1099  0.1068 -0.6706
 3869SOL    HW123069   0.670   3.269   7.544 -0.0659 -1.0228  0.0127
 3869SOL    HW223070   0.755   3.301   7.435 -0.2533  0.5501  0.1663
 3870SOL     OW23071   3.822   3.118   2.084  0.0482 -0.4465  0.0498
 3870SOL    HW123072   3.898   3.107   2.027 -0.2875  2.1388 -0.8845
 3870SOL    HW223073   3.845   3.197   2.132  0.7089 -0.3808 -0.3830
 3871SOL     OW23074   2.306   2.804  13.189  0.1815 -0.3984 -0.5484
 3871SOL    HW123075   2.297   2.894  13.159 -1.2822  0.0253  1.1906
 3871SOL    HW223076   2.278   2.753  13.113 -1.3315  1.4293 -1.2168
 3872SOL     OW23077   0.969   2.142   7.274  0.2214  0.6236 -0.0688
 3872SOL    HW123078   0.977   2.113   7.183  2.6921  1.8695 -0.2601
 3872SOL    HW223079   0.876   2.126   7.286  0.1427 -0.6390 -2.4956
 3873SOL     OW23080   0.534   1.663   3.028  0.2285 -0.0408  0.2469
 3873SOL    HW123081   0.578   1.661   2.943  0.9960  1.1589  0.6106
 3873SOL    HW223082   0.591   1.707   3.092  0.3881  1.8042 -1.1881
 3874SOL     OW23083   0.523   0.330  11.218 -0.3207 -0.3798 -0.2193
 3874SOL    HW123084   0.457   0.262  11.232  0.0555 -0.5308  0.8355
 3874SOL    HW223085   0.495   0.405  11.271 -0.5110 -0.5433 -0.0886
 3875SOL     OW23086   1.573   0.973   9.790 -0.1008 -0.1967 -0.0703
 3875SOL    HW123087   1.483   0.980   9.822  0.6565  0.1352  2.0073
 3875SOL    HW223088   1.624   0.996   9.868  2.2436 -1.8811 -1.0868
 3876SOL     OW23089   3.016   0.295  17.667 -0.3732 -0.1599 -0.3491
 3876SOL    HW123090   3.016   0.210  17.624  4.4743 -0.0413 -0.6028
 3876SOL    HW223091   3.077   0.337  17.606 -0.8873 -0.1362 -0.8468
 3877SOL     OW23092   0.560   3.205  11.610 -0.3604 -0.0056 -0.0366
 3877SOL    HW123093   0.526   3.206  11.521  0.8996 -3.6069 -0.5405
 3877SOL    HW223094   0.593   3.116  11.622 -0.1774 -0.1886 -2.0620
 3878SOL     OW23095   0.713   4.651   5.454  0.3075 -0.4517 -0.0255
 3878SOL    HW123096   0.753   4.657   5.541  1.9531 -0.7177 -0.7592
 3878SOL    HW223097   0.760   4.584   5.404  0.6736 -0.6647  0.6069
 3879SOL     OW23098   1.514   3.829  15.990 -0.0496  0.5423 -0.2119
 3879SOL    HW123099   1.557   3.857  16.071 -1.3899 -1.9853  1.4150
 3879SOL    HW223100   1.506   3.734  16.005 -0.8708  0.9739  2.1579
 3880SOL     OW23101   0.598   3.214   9.678  0.0900  0.1074 -0.4822
 3880SOL    HW123102   0.504   3.215   9.661  0.4665  2.5923 -2.3070
 3880SOL    HW223103   0.624   3.152   9.610  2.1651  0.0930  0.3101
 3881SOL     OW23104   2.623   2.906   5.095  0.0584  0.8315  0.1529
 3881SOL    HW123105   2.676   2.927   5.172 -1.0650  0.7964  0.9331
 3881SOL    HW223106   2.555   2.850   5.135  1.5304 -0.1498  1.2784
 3882SOL     OW23107   2.122   2.978   3.593 -0.1576  0.5983 -0.6055
 3882SOL    HW123108   2.118   2.974   3.498  1.9672  2.1158 -0.7620
 3882SOL    HW223109   2.203   2.928   3.604 -0.5363  0.3300  0.9361
 3883SOL     OW23110   3.055   3.905   2.152 -0.3819  0.3849 -0.5347
 3883SOL    HW123111   3.080   3.876   2.064  0.6064  2.0587 -0.8082
 3883SOL    HW223112   3.113   3.981   2.158  0.9784 -0.8452  1.7369
 3884SOL     OW23113   3.835   1.284   4.524  0.5636 -0.4933  0.2927
 3884SOL    HW123114   3.797   1.338   4.455 -0.7786 -1.1020  0.5555
 3884SOL    HW223115   3.801   1.196   4.506 -0.1492 -0.2991  0.6873
 3885SOL     OW23116   4.224   2.678   1.275 -0.6544  0.3095 -0.5218
 3885SOL    HW123117   4.223   2.751   1.214 -2.6847 -0.8845 -1.9232
 3885SOL    HW223118   4.149   2.625   1.248  0.7300 -0.1622 -3.4564
 3886SOL     OW23119   2.221   1.061   8.009 -0.2645  0.2693  0.5969
 3886SOL    HW123120   2.162   1.100   7.944 -0.9462  1.3242  1.8392
 3886SOL    HW223121   2.306   1.096   7.981  0.3361 -1.4407  0.2782
 3887SOL     OW23122   4.310   2.190   2.748  0.1993 -0.2009  0.5596
 3887SOL    HW123123   4.268   2.251   2.808  1.4115 -0.1749  1.3898
 3887SOL    HW223124   4.240   2.184   2.683  0.4509 -0.7903  0.3386
 3888SOL     OW23125   4.522   4.576   1.237 -0.0795 -0.4650  0.5016
 3888SOL    HW123126   4.440   4.612   1.270 -0.7348  1.1248 -2.7838
 3888SOL    HW223127   4.579   4.598   1.311  3.0606 -2.5486 -1.3038
 3889SOL     OW23128   0.063   3.211   6.046 -0.2102  0.2235  0.5892
 3889SOL    HW123129   4.695   3.239   6.036  0.6285  2.8466  0.3408
 3889SOL    HW223130   0.093   3.246   6.129 -0.1120  1.6419 -0.0412
 3890SOL     OW23131   3.272   4.495   6.119  0.2609  0.1018 -0.1907
 3890SOL    HW123132   3.254   4.429   6.186 -2.6348 -0.8896 -1.9516
 3890SOL    HW223133   3.259   4.579   6.163  0.9416  1.9969 -3.5909
 3891SOL     OW23134   0.431   0.681  13.053 -0.1738 -0.1482  0.0537
 3891SOL    HW123135   0.345   0.666  13.092  0.1732 -3.7545 -0.4842
 3891SOL    HW223136   0.452   0.770  13.078  1.8272 -1.0048  1.4343
 3892SOL     OW23137   2.734   0.558   6.218  0.5939  0.3170  0.2692
 3892SOL    HW123138   2.777   0.478   6.247 -2.5275 -0.7699  1.8651
 3892SOL    HW223139   2.679   0.514   6.154  1.1909 -0.7561  0.4947
 3893SOL     OW23140   0.471   1.927   3.077  1.0974  0.7745 -0.7619
 3893SOL    HW123141   0.523   1.997   3.118  2.1343 -0.4748  0.0546
 3893SOL    HW223142   0.538   1.905   3.013  1.4849  0.4613 -0.2509
 3894SOL     OW23143   3.126   2.516   6.480 -0.3212 -0.4087 -0.1239
 3894SOL    HW123144   3.138   2.474   6.565  1.3187  0.8087  0.2484
 3894SOL    HW223145   3.213   2.553   6.463 -1.6255  2.5218 -0.3183
 3895SOL     OW23146   0.814   1.681   7.733  0.4611 -0.9713 -0.2270
 3895SOL    HW123147   0.839   1.626   7.660  1.9493 -0.6350  0.0283
 3895SOL    HW223148   0.719   1.665   7.740  0.5236 -0.1162  2.5542
 3896SOL     OW23149   3.186   0.624  14.363  0.1210  0.2613  0.6957
 3896SOL    HW123150   3.091   0.623  14.354  0.2425 -0.1328 -0.5537
 3896SOL    HW223151   3.215   0.535  14.345  0.0010  0.2072  0.7740
 3897SOL     OW23152   0.490   4.272   8.819  0.3364 -0.0420  0.0342
 3897SOL    HW123153   0.464   4.184   8.793 -1.7164  0.3967  0.6246
 3897SOL    HW223154   0.441   4.286   8.900 -0.1015 -0.9859 -0.0661
 3898SOL     OW23155   1.966   1.337  16.081 -0.0571  0.1470 -0.4433
 3898SOL    HW123156   2.010   1.272  16.136 -0.6678  0.7889  0.8139
 3898SOL    HW223157   2.031   1.405  16.064  0.8547  0.0096  2.4937
 3899SOL     OW23158   1.910   3.005   2.977  0.1362 -1.0086  0.7599
 3899SOL    HW123159   1.942   3.069   3.041  0.3939  1.4580 -1.8578
 3899SOL    HW223160   1.893   2.930   3.034  3.4683 -2.7428 -0.5633
 3900SOL     OW23161   1.628   2.798   9.268 -0.0081  0.2901 -0.2551
 3900SOL    HW123162   1.559   2.732   9.264  0.2258  0.0008  0.5317
 3900SOL    HW223163   1.704   2.742   9.285 -0.6206 -0.9991 -1.8181
 3901SOL     OW23164   4.699   0.648   1.054 -0.5119  0.7036  0.3013
 3901SOL    HW123165   0.026   0.678   0.978 -1.7330  1.6451 -0.1335
 3901SOL    HW223166   4.681   0.726   1.106  2.7770  0.9389  1.1016
 3902SOL     OW23167   0.265   4.480   7.380 -0.3924  0.0026 -0.0426
 3902SOL    HW123168   0.345   4.448   7.421  0.1760 -1.2927 -2.1833
 3902SOL    HW223169   0.214   4.400   7.365  0.9833 -0.1954 -3.6621
 3903SOL     OW23170   3.869   0.976   9.223 -0.1959  0.1418  0.4800
 3903SOL    HW123171   3.949   0.925   9.210  0.3036  0.9131  0.5169
 3903SOL    HW223172   3.904   1.062   9.201 -1.0126  0.5354  0.6991
 3904SOL     OW23173   2.606   0.875   0.959  0.3008 -0.4845  0.3160
 3904SOL    HW123174   2.534   0.905   1.014  0.8748 -1.4101  1.5625
 3904SOL    HW223175   2.682   0.879   1.017 -0.1951 -2.6521  1.1212
 3905SOL     OW23176   0.132   3.661   3.183  0.0480  0.4843  1.0567
 3905SOL    HW123177   0.173   3.663   3.097 -2.3321 -2.5106 -0.1496
 3905SOL    HW223178   0.109   3.754   3.188 -1.0813  0.2844 -0.4217
 3906SOL     OW23179   3.234   1.201  16.716  0.3777 -0.7229 -0.3132
 3906SOL    HW123180   3.169   1.255  16.672  2.0561  0.9667 -0.7011
 3906SOL    HW223181   3.304   1.194  16.650  0.9099  1.1013  0.0680
 3907SOL     OW23182   0.238   0.525  12.177 -0.6763 -0.5047  0.5746
 3907SOL    HW123183   0.165   0.467  12.197  0.2083 -1.5006  0.9194
 3907SOL    HW223184   0.286   0.465  12.119 -0.2670  0.2493  0.1280
 3908SOL     OW23185   1.516   4.417   0.928  0.2936  0.4881  0.4885
 3908SOL    HW123186   1.557   4.454   0.850  2.6999  3.7442  3.2773
 3908SOL    HW223187   1.581   4.426   0.998  0.3963  1.6412  0.2483
 3909SOL     OW23188   4.647   3.683   2.916  0.1782  0.3650 -0.0012
 3909SOL    HW123189   4.574   3.644   2.868  0.5327 -1.2811  0.8119
 3909SOL    HW223190   4.606   3.764   2.944  2.9011  1.7864 -0.0566
 3910SOL     OW23191   2.382   1.849   2.145  0.1662  0.3592  0.4291
 3910SOL    HW123192   2.364   1.851   2.051 -1.9304  3.7505  0.8987
 3910SOL    HW223193   2.328   1.919   2.182 -0.4839  1.7912 -3.2140
 3911SOL     OW23194   0.721   3.818   7.898  0.4914 -0.1865  0.0686
 3911SOL    HW123195   0.719   3.722   7.902  3.9763 -0.2983 -0.5816
 3911SOL    HW223196   0.814   3.840   7.888  0.2498  0.7105 -0.1917
 3912SOL     OW23197   2.466   4.173   5.155 -0.5123  0.5854  0.6579
 3912SOL    HW123198   2.520   4.099   5.183 -0.0865  1.5226  2.3101
 3912SOL    HW223199   2.411   4.119   5.097  0.8610  1.4169 -1.4168
 3913SOL     OW23200   3.370   1.712   9.199  0.1399 -0.2742 -0.5966
 3913SOL    HW123201   3.290   1.689   9.151 -1.0535 -1.2682  1.8785
 3913SOL    HW223202   3.375   1.805   9.176 -0.6091 -1.1076 -4.1575
 3914SOL     OW23203   3.712   2.279  11.983 -0.0251 -0.0859 -0.1668
 3914SOL    HW123204   3.780   2.261  11.918  1.3243 -0.7242  1.4318
 3914SOL    HW223205   3.751   2.351  12.032  0.5186  1.0033 -2.1637
 3915SOL     OW23206   4.415   3.179  17.674 -1.1033 -0.3711  0.2312
 3915SOL    HW123207   4.434   3.273  17.677 -0.3954 -0.4843 -0.5636
 3915SOL    HW223208   4.379   3.173   0.069 -0.4597 -0.9134  0.4617
 3916SOL     OW23209   0.108   1.701  15.524  0.6436 -0.3213  0.1889
 3916SOL    HW123210   0.168   1.674  15.593 -0.7037 -0.4886  1.2871
 3916SOL    HW223211   0.024   1.682  15.566 -0.2404  1.0538 -0.9522
 3917SOL     OW23212   1.793   2.052  13.621 -0.0141  0.2442  0.2447
 3917SOL    HW123213   1.754   2.128  13.577 -0.3481  0.2213  0.5004
 3917SOL    HW223214   1.854   2.105  13.673 -2.0894  0.6813  2.2694
 3918SOL     OW23215   1.710   3.165   4.977 -0.5130 -0.5277  0.1318
 3918SOL    HW123216   1.696   3.143   5.069  2.0604 -0.3380  0.5712
 3918SOL    HW223217   1.739   3.256   4.979  0.6005 -0.8500 -1.6827
 3919SOL     OW23218   1.775   4.015   9.698  0.6101 -0.0818 -0.5161
 3919SOL    HW123219   1.762   4.107   9.678  1.0589  0.3296  1.0632
 3919SOL    HW223220   1.684   3.984   9.699  1.6220 -3.0540  0.6373
 3920SOL     OW23221   2.468   0.326   9.714  0.1631 -0.1722  0.3977
 3920SOL    HW123222   2.531   0.394   9.690  0.1389 -0.0940  0.5557
 3920SOL    HW223223   2.411   0.341   9.638  0.7303 -1.9896 -0.3759
 3921SOL     OW23224   1.422   4.023   6.849 -0.1266  0.2602  0.9886
 3921SOL    HW123225   1.494   4.007   6.789 -0.5878  0.3149  0.4232
 3921SOL    HW223226   1.373   4.089   6.800 -0.2821 -1.5446 -1.2782
 3922SOL     OW23227   0.648   4.611   3.039  0.7598 -0.5581  0.2243
 3922SOL    HW123228   0.620   4.528   3.078 -2.0161 -0.5888 -1.8727
 3922SOL    HW223229   0.690   4.581   2.958  4.3403  0.1757  1.8035
 3923SOL     OW23230   3.736   2.151   9.808  0.2657 -0.0310  0.3500
 3923SOL    HW123231   3.804   2.191   9.753  3.0428 -2.8503  1.7326
 3923SOL    HW223232   3.683   2.102   9.745  3.0666  0.6815 -2.5614
 3924SOL     OW23233   1.642   2.613   5.753 -0.9146 -0.3514  0.3178
 3924SOL    HW123234   1.598   2.559   5.819  2.1172 -2.0494  0.9659
 3924SOL    HW223235   1.707   2.548   5.726 -0.1708  0.6503 -0.3058
 3925SOL     OW23236   0.144   2.367   6.581 -0.3783  0.1992 -0.4076
 3925SOL    HW123237   0.098   2.406   6.506 -1.4583  0.6439  0.4754
 3925SOL    HW223238   0.206   2.306   6.543 -1.3517 -1.2278  0.3088
 3926SOL     OW23239   3.400   1.615   5.714  0.1314  0.1632  0.7370
 3926SOL    HW123240   3.390   1.683   5.648  0.8000  0.2382  0.7124
 3926SOL    HW223241   3.493   1.617   5.736  0.7082  0.1222 -1.7208
 3927SOL     OW23242   1.728   1.635  12.387  0.5189  0.0202 -0.2166
 3927SOL    HW123243   1.783   1.702  12.430 -0.5309  1.0050 -0.4096
 3927SOL    HW223244   1.753   1.546  12.413  0.9198 -0.4265 -2.1313
 3928SOL     OW23245   1.882   2.717  10.532  0.7447  0.2342 -0.3014
 3928SOL    HW123246   1.850   2.724  10.622 -0.5688  1.5434 -0.8641
 3928SOL    HW223247   1.949   2.784  10.542  0.3736  0.7426 -1.1966
 3929SOL     OW23248   0.513   2.197   6.870  0.2027  0.3575 -0.3542
 3929SOL    HW123249   0.557   2.135   6.813  1.6667  0.5736  0.5552
 3929SOL    HW223250   0.529   2.150   6.952  1.2593  3.0100  0.9666
 3930SOL     OW23251   4.031   3.114  15.855  0.3293 -0.2232 -0.1566
 3930SOL    HW123252   3.991   3.192  15.893 -0.4133 -0.0613 -1.2830
 3930SOL    HW223253   4.121   3.142  15.837 -0.4074  1.8493 -0.6049
 3931SOL     OW23254   4.660   1.710   9.121  0.4319 -0.2086  0.1051
 3931SOL    HW123255   4.579   1.730   9.074  0.6182 -0.0169 -0.1423
 3931SOL    HW223256   4.618   1.669   9.196 -0.6840 -0.6627 -0.7696
 3932SOL     OW23257   3.845   3.554   1.767  0.7434  0.4308  0.4515
 3932SOL    HW123258   3.767   3.569   1.821 -1.0854  0.8433 -2.3130
 3932SOL    HW223259   3.868   3.636   1.725  3.4212 -0.8104 -0.4988
 3933SOL     OW23260   1.615   4.360   7.722  0.2682 -0.2110  0.2424
 3933SOL    HW123261   1.689   4.306   7.694  1.4252  0.3171  2.2513
 3933SOL    HW223262   1.654   4.406   7.797  1.2501 -0.2812 -0.2209
 3934SOL     OW23263   2.658   0.951   0.695 -0.5058 -0.0163  0.3417
 3934SOL    HW123264   2.647   0.900   0.775 -0.4157 -0.3278  0.1534
 3934SOL    HW223265   2.593   0.899   0.650 -1.9317 -0.6628  3.1311
 3935SOL     OW23266   1.712   0.566   4.387 -0.0135  0.3754 -0.2582
 3935SOL    HW123267   1.748   0.575   4.476 -1.0496  0.3347  0.1578
 3935SOL    HW223268   1.665   0.484   4.402  0.8333 -0.1880 -0.6143
 3936SOL     OW23269   3.526   1.984  13.536  0.3664  0.4608 -0.3617
 3936SOL    HW123270   3.569   1.909  13.495 -0.9894  0.4256 -1.7180
 3936SOL    HW223271   3.562   1.977  13.625  0.1864  2.1350 -0.1500
 3937SOL     OW23272   4.444   4.652  14.176  0.1473  0.6057  0.3985
 3937SOL    HW123273   4.350   4.664  14.188 -0.1159 -0.3199 -0.6849
 3937SOL    HW223274   4.486   0.005  14.215  3.5084 -1.8397  1.6016
 3938SOL     OW23275   0.417   2.781   4.717 -0.4055  0.1266  0.3612
 3938SOL    HW123276   0.439   2.724   4.644 -1.3233  0.6441 -0.3171
 3938SOL    HW223277   0.330   2.814   4.693 -0.3988 -0.5161 -0.5192
 3939SOL     OW23278   1.249   0.513   7.204  0.3122 -0.6294  0.4703
 3939SOL    HW123279   1.318   0.569   7.240  1.5357 -0.7009 -1.7446
 3939SOL    HW223280   1.224   0.472   7.287 -1.1521 -0.7449 -0.0139
 3940SOL     OW23281   2.122   2.979  16.142  0.2270 -0.3598  0.2253
 3940SOL    HW123282   2.201   3.023  16.173  0.8973 -1.9759  0.7618
 3940SOL    HW223283   2.060   2.991  16.214  0.9274 -0.2237  0.7973
 3941SOL     OW23284   3.788   0.598   4.705  0.3868  0.3926  0.3080
 3941SOL    HW123285   3.773   0.509   4.674 -1.1647  0.2368  1.4751
 3941SOL    HW223286   3.882   0.600   4.723  0.5547 -0.0785 -0.5296
 3942SOL     OW23287   4.615   1.884   2.981  0.2767  0.0426 -0.3675
 3942SOL    HW123288   4.524   1.912   2.964  0.1587 -0.3821 -0.4528
 3942SOL    HW223289   4.646   1.929   3.059 -1.8612  1.1665 -0.1532
 3943SOL     OW23290   1.708   3.233   7.027 -0.2789 -0.1931  0.1005
 3943SOL    HW123291   1.782   3.289   7.051 -0.8190  1.1765 -1.4202
 3943SOL    HW223292   1.687   3.199   7.114 -0.0141 -0.6948 -0.0350
 3944SOL     OW23293   3.396   3.355   6.449  0.2717 -0.2926  0.3751
 3944SOL    HW123294   3.412   3.261   6.444 -0.5366 -0.4178  0.0733
 3944SOL    HW223295   3.480   3.400   6.452 -0.3034  0.7025  1.3496
 3945SOL     OW23296   3.139   0.281   6.227  0.2379 -0.2337  0.2664
 3945SOL    HW123297   3.161   0.287   6.134 -0.2656 -0.0151  0.1610
 3945SOL    HW223298   3.150   0.373   6.254  0.1003  0.0407 -0.6265
 3946SOL     OW23299   1.247   1.948   9.355  0.3968 -0.2527  0.0867
 3946SOL    HW123300   1.206   1.882   9.410  0.6234  0.8988  1.6324
 3946SOL    HW223301   1.330   1.904   9.334  0.7256  0.5979 -0.4160
 3947SOL     OW23302   2.581   0.303   3.543 -0.2478  0.2209 -0.7795
 3947SOL    HW123303   2.505   0.313   3.487 -0.0265  1.7308 -0.7959
 3947SOL    HW223304   2.565   0.214   3.575 -1.4008  0.6476 -0.2038
 3948SOL     OW23305   2.909   2.385   3.189 -0.2204 -0.4583  0.3210
 3948SOL    HW123306   2.904   2.440   3.267  0.0773 -1.4239  1.0304
 3948SOL    HW223307   2.947   2.303   3.219 -1.5029 -0.9933  0.4978
 3949SOL     OW23308   3.797   2.915   7.047 -0.2061  0.2641 -0.2924
 3949SOL    HW123309   3.890   2.901   7.030 -0.5542 -3.4231  0.6967
 3949SOL    HW223310   3.793   2.928   7.141 -1.1685 -0.9946 -0.1447
 3950SOL     OW23311   0.353   2.951   3.636  0.1279 -0.2744 -0.3307
 3950SOL    HW123312   0.419   2.910   3.580  0.3736  0.7860 -0.8172
 3950SOL    HW223313   0.307   2.877   3.675  0.0633 -0.0116  0.0852
 3951SOL     OW23314   0.506   0.106   7.186 -0.3273 -0.2175 -0.5421
 3951SOL    HW123315   0.512   0.065   7.272 -0.0742 -1.0485 -0.9625
 3951SOL    HW223316   0.421   0.070   7.162  1.0493 -2.0486 -2.6642
 3952SOL     OW23317   0.381   0.922  12.809  0.5809  0.8241  0.0763
 3952SOL    HW123318   0.325   0.863  12.760  0.4100  0.3074  0.8878
 3952SOL    HW223319   0.321   0.960  12.874 -0.9938 -0.0869 -0.8556
 3953SOL     OW23320   3.922   3.700  13.225 -0.3793 -0.0474  0.4815
 3953SOL    HW123321   3.941   3.619  13.177 -0.4723 -1.4976  2.9250
 3953SOL    HW223322   3.863   3.662  13.290 -0.0060 -2.2599 -0.4971
 3954SOL     OW23323   0.171   3.144  10.509 -0.0004  0.4732 -0.3846
 3954SOL    HW123324   0.222   3.209  10.556  2.7548 -1.4243 -0.6996
 3954SOL    HW223325   0.121   3.201  10.451 -0.0216  0.3996 -0.4396
 3955SOL     OW23326   4.299   1.146   9.527 -0.0979  1.0566  0.4958
 3955SOL    HW123327   4.329   1.219   9.473  1.7029 -0.6674 -0.8220
 3955SOL    HW223328   4.275   1.197   9.604 -2.2806  0.9878 -0.1334
 3956SOL     OW23329   0.851   4.174   5.600 -0.3878  1.1745  0.1573
 3956SOL    HW123330   0.845   4.102   5.662 -0.6266  2.2531  1.3762
 3956SOL    HW223331   0.834   4.249   5.657  1.3678  1.2136  0.6322
 3957SOL     OW23332   4.410   4.250  13.665 -0.3413  0.1762 -0.5111
 3957SOL    HW123333   4.400   4.329  13.611  0.3925  0.6932  0.1095
 3957SOL    HW223334   4.419   4.299  13.747  0.8868 -0.4318 -0.2735
 3958SOL     OW23335   0.536   0.230   6.143  0.1184 -0.4992  0.3613
 3958SOL    HW123336   0.614   0.232   6.087 -0.1910 -0.7440 -0.0799
 3958SOL    HW223337   0.497   0.314   6.118  1.0484  0.0932  0.8940
 3959SOL     OW23338   4.061   2.988   8.409  0.2699 -0.3789 -0.1867
 3959SOL    HW123339   4.028   2.917   8.465  1.4077 -0.8122 -0.0639
 3959SOL    HW223340   3.999   2.979   8.337  0.4434 -0.9187 -0.2734
 3960SOL     OW23341   0.423   4.375   4.051 -0.0284  0.1756 -0.0100
 3960SOL    HW123342   0.395   4.284   4.065 -1.8854  0.8942  0.9647
 3960SOL    HW223343   0.342   4.416   4.020 -0.5436  0.4418  1.6738
 3961SOL     OW23344   4.694   3.171   6.476 -0.1620  0.1509 -0.1876
 3961SOL    HW123345   4.661   3.097   6.426  0.0751 -0.6869  0.8966
 3961SOL    HW223346   4.700   3.131   6.563 -2.7590  0.4541  0.1435
 3962SOL     OW23347   1.918   3.732   9.672  0.5379  0.4414 -0.3003
 3962SOL    HW123348   1.999   3.782   9.660  0.1452  1.7620  2.5254
 3962SOL    HW223349   1.854   3.803   9.673  1.3180  1.1502 -1.1672
 3963SOL     OW23350   4.309   1.087   2.889  0.1481  0.1036 -0.8520
 3963SOL    HW123351   4.309   1.005   2.839  0.7451 -1.8614  2.3950
 3963SOL    HW223352   4.393   1.126   2.866 -0.0518  1.5121  0.7703
 3964SOL     OW23353   1.195   0.285   6.858  0.0566 -0.1364 -0.7689
 3964SOL    HW123354   1.156   0.259   6.775 -0.4058  1.3446 -1.0227
 3964SOL    HW223355   1.184   0.380   6.854  0.5038 -0.0604 -0.2818
 3965SOL     OW23356   1.964   1.824   3.234  0.6103  0.2606 -0.2520
 3965SOL    HW123357   2.014   1.874   3.170 -0.1863  0.1080 -0.9879
 3965SOL    HW223358   1.956   1.891   3.302  0.2743  1.0259 -1.0487
 3966SOL     OW23359   4.627   2.645  12.778 -0.6087  0.0341  0.2395
 3966SOL    HW123360   4.591   2.720  12.827  0.0975 -0.5743  1.6869
 3966SOL    HW223361   4.721   2.652  12.793 -0.7001  1.4838  0.1611
 3967SOL     OW23362   1.712   3.664   8.211 -0.2624  0.2426  0.2595
 3967SOL    HW123363   1.719   3.715   8.131 -3.0034 -0.2385 -0.2865
 3967SOL    HW223364   1.785   3.696   8.265  1.4745 -2.3502 -0.5200
 3968SOL     OW23365   1.950   2.992  11.255 -0.2130  0.5858 -0.2075
 3968SOL    HW123366   1.960   2.925  11.188  1.0288  0.5932 -0.0442
 3968SOL    HW223367   1.918   2.945  11.332  2.8379 -0.3084  0.5269
 3969SOL     OW23368   2.285   0.669   9.029  0.1112  0.2180 -0.1483
 3969SOL    HW123369   2.379   0.654   9.018  0.5087  1.2852  1.8334
 3969SOL    HW223370   2.265   0.588   9.075  1.1841  1.1353  1.9417
 3970SOL     OW23371   0.177   0.423   2.380 -0.3089 -0.4065  0.0994
 3970SOL    HW123372   0.123   0.492   2.419  3.1274  1.7683  1.0261
 3970SOL    HW223373   0.117   0.420   2.305 -0.3667 -0.6665  0.1582
 3971SOL     OW23374   1.891   4.658   1.466  0.1435  0.1810  0.3490
 3971SOL    HW123375   1.801   4.633   1.487  0.2596  0.3762  1.0689
 3971SOL    HW223376   1.872   0.010   1.409 -0.7798  0.6376  1.2496
 3972SOL     OW23377   0.510   0.161   8.120 -0.4832  0.4431  0.1353
 3972SOL    HW123378   0.445   0.128   8.182 -1.9616  2.8242 -0.1632
 3972SOL    HW223379   0.469   0.129   8.040  0.7899  1.1448 -0.7840
 3973SOL     OW23380   2.697   4.142   8.015 -0.1058  0.1380 -0.0161
 3973SOL    HW123381   2.754   4.067   8.028  0.7072  0.4786 -1.5410
 3973SOL    HW223382   2.745   4.207   8.067  0.0498 -0.9356  1.1658
 3974SOL     OW23383   1.703   1.422  16.092  1.0040  0.4936  0.5226
 3974SOL    HW123384   1.788   1.378  16.083  0.4123 -1.0735  2.7143
 3974SOL    HW223385   1.650   1.348  16.122  0.8221  1.4976  2.6637
 3975SOL     OW23386   3.815   0.824   6.920 -0.1133  0.1305  0.4376
 3975SOL    HW123387   3.791   0.750   6.976  1.9612  0.5416  1.8699
 3975SOL    HW223388   3.904   0.832   6.953  0.6756  0.0547 -1.6868
 3976SOL     OW23389   0.236   1.761   0.610  0.8568 -0.0813  0.3516
 3976SOL    HW123390   0.254   1.772   0.517 -1.2258 -0.6242 -0.1263
 3976SOL    HW223391   0.190   1.678   0.619 -0.1915  0.3401 -1.0991
 3977SOL     OW23392   3.363   3.162   5.941  0.1628  0.0638  0.1492
 3977SOL    HW123393   3.307   3.221   5.991 -0.6755 -1.5801  1.1734
 3977SOL    HW223394   3.361   3.188   5.849  1.8105  1.4974  0.5358
 3978SOL     OW23395   0.801   3.497  10.862  0.5009  0.4337  0.2137
 3978SOL    HW123396   0.880   3.461  10.903  0.3466  2.9842  2.7592
 3978SOL    HW223397   0.749   3.508  10.941 -0.0419 -0.5126 -0.0146
 3979SOL     OW23398   2.997   2.935  15.177 -0.1808 -0.2980 -0.1677
 3979SOL    HW123399   2.926   2.980  15.223 -1.1307 -1.2296 -0.7439
 3979SOL    HW223400   3.071   2.996  15.165 -1.1852  1.0292  0.3668
 3980SOL     OW23401   0.494   0.485   6.941  0.1086 -0.3411  0.2457
 3980SOL    HW123402   0.488   0.581   6.946  1.5102 -0.3191  1.6628
 3980SOL    HW223403   0.549   0.458   7.015  2.9700  2.2814 -0.9347
 3981SOL     OW23404   1.953   0.893  12.107  0.0275  0.0877 -0.1645
 3981SOL    HW123405   1.934   0.968  12.051  0.5631  0.5114  0.2239
 3981SOL    HW223406   2.046   0.874  12.090 -0.3366 -1.9333  0.0823
 3982SOL     OW23407   0.801   2.284   9.197  0.3081  0.4979 -0.4662
 3982SOL    HW123408   0.729   2.223   9.180  0.7048 -0.8221  2.6050
 3982SOL    HW223409   0.857   2.263   9.123  0.0599 -1.0770 -0.2276
 3983SOL     OW23410   2.230   0.879   6.637 -0.2407  0.4443 -0.2294
 3983SOL    HW123411   2.324   0.865   6.625  0.0559  0.1118  2.3378
 3983SOL    HW223412   2.236   0.913   6.727  1.6411  1.3293 -0.6803
 3984SOL     OW23413   2.289   3.377  10.856  0.0357  0.3352 -0.2203
 3984SOL    HW123414   2.281   3.472  10.863 -0.0600  0.4162 -1.5287
 3984SOL    HW223415   2.244   3.359  10.939  0.1653  2.3344  0.2861
 3985SOL     OW23416   2.258   4.258   2.620  0.1169  0.0697 -0.2361
 3985SOL    HW123417   2.346   4.232   2.594  0.2558  1.4816 -1.2133
 3985SOL    HW223418   2.216   4.173   2.634 -1.5021  0.8693 -0.2349
 3986SOL     OW23419   4.447   3.285   1.857  0.0764  0.0044  0.2830
 3986SOL    HW123420   4.435   3.330   1.940  1.4989  0.2344  0.3602
 3986SOL    HW223421   4.378   3.219   1.866  0.5252 -0.9953 -3.2917
 3987SOL     OW23422   4.442   1.828  11.722  0.3514  0.3687 -0.3091
 3987SOL    HW123423   4.488   1.751  11.690  3.2450  1.5247  1.0782
 3987SOL    HW223424   4.360   1.796  11.685  0.9966 -0.4678 -1.0152
 3988SOL     OW23425   2.284   4.374   3.099 -0.1259 -0.2616  0.1700
 3988SOL    HW123426   2.299   4.466   3.078  0.4667 -0.3549  0.2104
 3988SOL    HW223427   2.335   4.362   3.179  0.3313  0.0345 -0.0777
 3989SOL     OW23428   1.238   2.726   2.573  0.1291 -0.0202  0.0991
 3989SOL    HW123429   1.297   2.657   2.544  0.5556  0.9966 -1.5071
 3989SOL    HW223430   1.297   2.782   2.623  1.1380 -2.2437  1.3472
 3990SOL     OW23431   2.884   4.023   4.195 -0.4478  0.2701 -0.4342
 3990SOL    HW123432   2.958   3.965   4.214 -1.7215 -1.3069 -0.1928
 3990SOL    HW223433   2.849   3.974   4.120  2.0608 -0.9095 -0.8327
 3991SOL     OW23434   2.813   3.189   4.499  0.4068  0.2807 -0.8241
 3991SOL    HW123435   2.855   3.111   4.536  1.0149  1.2409  0.5133
 3991SOL    HW223436   2.880   3.205   4.432  2.7069 -2.1660  0.8718
 3992SOL     OW23437   3.957   4.524   9.100  0.1227  0.6629  0.0673
 3992SOL    HW123438   4.038   4.489   9.063 -0.0746  1.8857 -1.5348
 3992SOL    HW223439   3.898   4.450   9.081  0.2375  0.6553 -0.2675
 3993SOL     OW23440   2.736   0.121   1.256 -0.1068  0.1509 -0.0498
 3993SOL    HW123441   2.737   0.207   1.212  0.8929 -0.6885 -1.6739
 3993SOL    HW223442   2.819   0.083   1.226 -0.3107 -1.8252  1.8634
 3994SOL     OW23443   1.135   0.888  15.099 -0.2203  0.0560 -0.6388
 3994SOL    HW123444   1.162   0.953  15.034 -0.1356  2.3153  1.6316
 3994SOL    HW223445   1.041   0.882  15.087 -0.5334  2.8763  0.4490
 3995SOL     OW23446   3.314   3.338  16.851 -0.0731 -0.0482  0.0224
 3995SOL    HW123447   3.338   3.284  16.927 -1.2175 -1.5291 -0.6755
 3995SOL    HW223448   3.238   3.391  16.876  1.3249  1.5552  0.8522
 3996SOL     OW23449   3.655   1.759   9.260  0.6457 -0.1811  0.6251
 3996SOL    HW123450   3.597   1.766   9.336 -0.2646  0.8759 -0.1519
 3996SOL    HW223451   3.657   1.665   9.245  1.0563 -0.1266  0.3380
 3997SOL     OW23452   3.037   1.433  12.557 -0.9659  0.2996 -0.4345
 3997SOL    HW123453   3.051   1.518  12.597  2.4365 -0.4033 -0.1847
 3997SOL    HW223454   3.071   1.376  12.626  1.2053 -0.2228 -1.9371
 3998SOL     OW23455   3.507   4.289   4.929  0.0660 -0.2194  0.1317
 3998SOL    HW123456   3.568   4.217   4.913  2.3768  1.9804 -0.8814
 3998SOL    HW223457   3.550   4.360   4.883  2.2521 -1.2974  0.5169
 3999SOL     OW23458   0.201   2.519   8.508 -0.3436 -0.0553  0.3519
 3999SOL    HW123459   0.263   2.460   8.551  1.1022 -0.1972 -1.9604
 3999SOL    HW223460   0.128   2.457   8.508 -0.0832 -0.3633  0.7451
 4000SOL     OW23461   4.596   4.536   1.982  0.3736  0.4481  0.0228
 4000SOL    HW123462   4.535   4.542   2.055 -1.5582  2.1376 -1.7385
 4000SOL    HW223463   4.556   4.461   1.938 -1.2045  1.0990  0.3231
 4001SOL     OW23464   0.165   3.029   1.984  0.1347  0.0819 -0.5921
 4001SOL    HW123465   0.257   3.008   1.999 -0.0423 -0.3074 -0.0719
 4001SOL    HW223466   0.155   3.026   1.889 -0.4210 -1.7783 -0.4591
 4002SOL     OW23467   1.665   3.125   3.568 -0.2501  0.1453 -0.3153
 4002SOL    HW123468   1.695   3.091   3.653 -1.7198  0.1093  0.1900
 4002SOL    HW223469   1.636   3.213   3.591  3.2754  1.2551 -0.0380
 4003SOL     OW23470   3.614   4.006   8.392 -0.1707 -0.5654 -0.0978
 4003SOL    HW123471   3.679   4.047   8.449  0.2131 -0.1245 -0.8464
 4003SOL    HW223472   3.666   4.022   8.313  1.5790  1.4033  1.4220
 4004SOL     OW23473   4.640   1.248  12.858  0.0332 -0.2953  0.8868
 4004SOL    HW123474   4.584   1.325  12.864  0.7244  0.4735 -2.6585
 4004SOL    HW223475   4.639   1.247  12.763  2.0133 -0.4611  0.8494
 4005SOL     OW23476   4.021   4.039  13.264  0.4265  0.0343  0.0702
 4005SOL    HW123477   4.095   3.984  13.236 -0.6589 -1.9704  1.1793
 4005SOL    HW223478   3.958   3.989  13.315  0.0721  0.1506 -0.2537
 4006SOL     OW23479   1.331   4.380   3.182 -0.2884  0.2513 -0.2807
 4006SOL    HW123480   1.394   4.442   3.145  0.4173 -1.4684 -1.9383
 4006SOL    HW223481   1.362   4.293   3.156  0.9392  0.8981 -0.9893
 4007SOL     OW23482   4.476   3.662   3.709  0.1841 -0.5087 -0.2309
 4007SOL    HW123483   4.402   3.702   3.754 -0.1494 -3.3657  1.7712
 4007SOL    HW223484   4.438   3.583   3.670  0.7195 -0.7406 -0.2899
 4008SOL     OW23485   1.841   3.822   5.238  0.3457  0.2874  0.2032
 4008SOL    HW123486   1.784   3.834   5.162  1.4583  1.2905 -0.4551
 4008SOL    HW223487   1.925   3.847   5.201 -0.7582  2.1443 -1.0460
 4009SOL     OW23488   2.531   1.769   0.356  0.7269 -0.3233 -0.0692
 4009SOL    HW123489   2.511   1.753   0.263  1.1080  0.2479 -0.2528
 4009SOL    HW223490   2.455   1.813   0.393  1.3839 -0.1508  1.0855
 4010SOL     OW23491   1.908   2.369   0.781 -0.0980  0.3441 -0.1562
 4010SOL    HW123492   1.853   2.352   0.857 -1.7301 -0.4233 -1.5294
 4010SOL    HW223493   1.992   2.401   0.815  0.0717  0.1311 -0.3771
 4011SOL     OW23494   1.646   1.806   2.890 -0.3727  1.0713  0.1779
 4011SOL    HW123495   1.733   1.767   2.875 -2.2024 -2.7994 -0.3707
 4011SOL    HW223496   1.661   1.868   2.961 -0.4558 -0.6172  1.6812
 4012SOL     OW23497   2.564   0.502   8.381 -0.1878 -0.1298 -0.3542
 4012SOL    HW123498   2.612   0.447   8.443  0.0366 -0.4574 -0.8166
 4012SOL    HW223499   2.486   0.448   8.369 -0.5057 -0.3182  2.4529
 4013SOL     OW23500   1.759   0.318   1.368 -0.2308 -0.3641  0.1810
 4013SOL    HW123501   1.741   0.317   1.462 -0.4744 -0.9306  0.1296
 4013SOL    HW223502   1.702   0.389   1.339  1.8758  0.9742 -0.6590
 4014SOL     OW23503   3.061   2.423  15.279  0.3194 -0.1116 -0.3903
 4014SOL    HW123504   3.076   2.501  15.225  2.1709 -0.9497 -1.0819
 4014SOL    HW223505   3.141   2.418  15.331 -0.6749 -1.4729  1.0159
 4015SOL     OW23506   4.638   4.396   3.234 -0.1975 -0.1643  0.2985
 4015SOL    HW123507   4.612   4.459   3.301 -1.3829  0.5110 -0.7948
 4015SOL    HW223508   4.616   4.455   3.162 -0.7394 -1.0532 -0.2600
 4016SOL     OW23509   4.657   2.735   2.027 -0.2793  0.0632  0.0766
 4016SOL    HW123510   4.571   2.713   2.063  0.5281 -1.0059  1.3610
 4016SOL    HW223511   4.659   2.705   1.936 -1.9091 -0.0485  0.0776
 4017SOL     OW23512   4.007   0.201   4.126 -0.6177  0.1608  0.2455
 4017SOL    HW123513   3.954   0.242   4.058 -1.7153 -3.0043 -0.7777
 4017SOL    HW223514   3.950   0.126   4.140  1.9843 -1.4229  2.3958
 4018SOL     OW23515   2.161   0.363   1.848 -0.5179 -0.1938 -0.4696
 4018SOL    HW123516   2.088   0.382   1.788 -0.8666 -0.9810 -0.2943
 4018SOL    HW223517   2.141   0.397   1.935 -2.3434 -0.6592 -0.7039
 4019SOL     OW23518   3.649   0.111   5.656 -0.1359  0.3978 -0.0475
 4019SOL    HW123519   3.557   0.109   5.629 -0.1071 -0.3571 -0.0895
 4019SOL    HW223520   3.657   0.175   5.726 -2.1040  0.3920  0.1798
 4020SOL     OW23521   0.323   2.000   6.041  0.1426 -0.5018 -0.0875
 4020SOL    HW123522   0.245   2.020   5.988  0.5247  1.1565 -0.0297
 4020SOL    HW223523   0.368   1.947   5.975 -1.7510 -1.1959 -0.8354
 4021SOL     OW23524   3.923   3.417   4.475 -0.3406 -0.2107  0.4052
 4021SOL    HW123525   4.004   3.468   4.471 -0.3063 -0.2079  1.1904
 4021SOL    HW223526   3.904   3.395   4.566  1.6836 -0.6334  0.7167
 4022SOL     OW23527   4.453   4.085  17.570  0.4029  0.1335 -0.2046
 4022SOL    HW123528   4.475   4.142  17.644 -2.3401  2.4679 -1.1967
 4022SOL    HW223529   4.518   4.017  17.586 -0.9326 -0.7960  1.1603
 4023SOL     OW23530   3.865   3.428   4.044 -0.1369  0.1187  0.1092
 4023SOL    HW123531   3.861   3.518   4.011  2.3745  0.2507  0.1927
 4023SOL    HW223532   3.939   3.432   4.104 -0.3578  1.3764  0.2974
 4024SOL     OW23533   2.562   1.263   7.363 -0.4614 -0.1336 -0.3931
 4024SOL    HW123534   2.560   1.333   7.298 -1.3229  0.3108  0.1025
 4024SOL    HW223535   2.634   1.206   7.336 -1.8637 -1.4892 -1.3033
 4025SOL     OW23536   1.295   2.789   6.402 -0.9632 -0.0490  0.1488
 4025SOL    HW123537   1.336   2.863   6.446 -1.7122  1.0839 -1.0655
 4025SOL    HW223538   1.269   2.739   6.479  0.3218  0.6505  1.0309
 4026SOL     OW23539   3.238   3.918   7.688  0.4461 -0.2710  0.0006
 4026SOL    HW123540   3.210   3.862   7.615  0.3814 -1.3675  0.8820
 4026SOL    HW223541   3.302   3.865   7.736  0.9224  0.9221  0.7032
 4027SOL     OW23542   1.444   0.500   7.522 -0.7781 -0.2235  0.6913
 4027SOL    HW123543   1.501   0.431   7.487 -0.0797  1.0454 -0.7067
 4027SOL    HW223544   1.364   0.460   7.555 -1.5608  2.7434  2.3712
 4028SOL     OW23545   1.403   3.391   6.670 -0.0571 -0.7897 -0.2199
 4028SOL    HW123546   1.428   3.327   6.737  0.3856  1.2374  1.5573
 4028SOL    HW223547   1.490   3.426   6.652 -0.1221 -0.9942 -0.9012
 4029SOL     OW23548   2.894   4.310   7.095  0.3689 -0.2882  0.0349
 4029SOL    HW123549   2.819   4.251   7.090  0.6904 -0.7502  0.6610
 4029SOL    HW223550   2.916   4.290   7.186  1.1188 -0.5136 -0.1948
 4030SOL     OW23551   0.622   2.159   8.658 -0.3008 -0.8785  0.2106
 4030SOL    HW123552   0.706   2.146   8.702  1.8999  1.7397 -3.1969
 4030SOL    HW223553   0.581   2.209   8.728  2.8720  1.0446  0.6762
 4031SOL     OW23554   2.094   2.655  10.758 -0.2515 -0.0021  0.1954
 4031SOL    HW123555   2.007   2.692  10.767  1.2437  3.6927 -0.5013
 4031SOL    HW223556   2.129   2.681  10.843  0.4887  1.7390 -0.6320
 4032SOL     OW23557   3.696   2.441  15.754  0.1835  0.3203 -0.7367
 4032SOL    HW123558   3.768   2.437  15.691  0.8896 -2.2855  0.2386
 4032SOL    HW223559   3.701   2.529  15.791 -0.2467  1.0240 -2.3443
 4033SOL     OW23560   0.629   2.547   2.981 -0.2396  0.1368 -0.7297
 4033SOL    HW123561   0.722   2.559   2.960 -0.3743 -0.0933 -1.4764
 4033SOL    HW223562   0.596   2.511   2.899 -2.6389  0.3580  0.1558
 4034SOL     OW23563   4.628   1.527   8.028 -0.4550  0.0066  0.2754
 4034SOL    HW123564   4.693   1.553   8.094  1.2146 -0.1695 -1.3199
 4034SOL    HW223565   4.615   1.433   8.039  0.4907  0.2390  3.3043
 4035SOL     OW23566   0.814   0.966   6.916  0.3784 -0.5298  0.0640
 4035SOL    HW123567   0.785   1.004   6.999 -1.7374  0.5821 -1.1810
 4035SOL    HW223568   0.857   0.889   6.953 -0.1934  0.3513  2.5710
 4036SOL     OW23569   0.161   4.460  12.086  0.5006 -0.3149 -0.1657
 4036SOL    HW123570   0.249   4.472  12.051  0.7712  1.5836  1.2142
 4036SOL    HW223571   0.128   4.549  12.079  1.6015  0.1230  0.2393
 4037SOL     OW23572   3.602   2.817   5.893 -0.3079 -0.6464  0.3525
 4037SOL    HW123573   3.598   2.898   5.943  0.0628 -0.1702 -0.4035
 4037SOL    HW223574   3.610   2.751   5.963 -1.3272 -1.5092 -0.3317
 4038SOL     OW23575   3.285   3.540   0.919 -0.4845  0.5310 -0.2241
 4038SOL    HW123576   3.289   3.447   0.897  0.4069  0.8707 -1.5459
 4038SOL    HW223577   3.329   3.572   0.840 -0.0322  1.4235  0.3895
 4039SOL     OW23578   0.404   2.709   7.225  0.7505  0.6680 -0.0613
 4039SOL    HW123579   0.469   2.660   7.174 -0.3322 -2.1869  1.2950
 4039SOL    HW223580   0.467   2.753   7.282  1.6794  0.7573 -1.1646
 4040SOL     OW23581   3.350   4.314   4.355 -0.1094  0.1355  0.5633
 4040SOL    HW123582   3.279   4.262   4.391 -2.2866  1.9764 -1.0697
 4040SOL    HW223583   3.363   4.276   4.269 -1.4555  1.7912 -0.3819
 4041SOL     OW23584   0.517   1.680   9.512  0.1654  0.3182  0.2861
 4041SOL    HW123585   0.505   1.715   9.600  0.0829  0.4693  0.2150
 4041SOL    HW223586   0.454   1.730   9.460  4.0124  2.6006 -2.2289
 4042SOL     OW23587   3.753   0.477  15.537 -0.1749 -0.4409 -0.2634
 4042SOL    HW123588   3.779   0.529  15.462  0.9868  0.8182  1.0064
 4042SOL    HW223589   3.792   0.391  15.519 -3.2055 -1.3851 -2.2379
 4043SOL     OW23590   3.953   1.433   1.447 -0.6644  0.2992 -0.8575
 4043SOL    HW123591   3.891   1.427   1.519 -1.0641  2.0350 -1.0560
 4043SOL    HW223592   3.979   1.524   1.451 -0.7110  0.4898 -4.4337
 4044SOL     OW23593   0.134   0.256   2.778 -0.0971 -0.1568  0.6214
 4044SOL    HW123594   0.162   0.165   2.788  1.0518  0.1415  0.0402
 4044SOL    HW223595   0.041   0.239   2.763  0.0299  1.1550 -1.6853
 4045SOL     OW23596   2.443   3.386  10.474 -0.5360 -0.2762 -0.4277
 4045SOL    HW123597   2.360   3.350  10.440 -2.0289  0.8001  2.0705
 4045SOL    HW223598   2.497   3.384  10.396 -0.5557  1.5291 -0.4909
 4046SOL     OW23599   0.765   3.437   2.016  0.1011 -0.4377  0.3070
 4046SOL    HW123600   0.804   3.503   1.959 -1.8095  1.5383  1.3113
 4046SOL    HW223601   0.850   3.400   2.041  0.5236  0.2745 -0.0631
 4047SOL     OW23602   3.831   0.470  12.065  0.4052 -0.1223  0.4096
 4047SOL    HW123603   3.830   0.426  11.980 -1.0952 -0.2359  0.4878
 4047SOL    HW223604   3.862   0.401  12.124 -1.4374 -0.8295  0.5273
 4048SOL     OW23605   0.596   3.486   4.989  0.1349  0.0776 -0.2473
 4048SOL    HW123606   0.504   3.464   4.981  0.3736 -0.5030 -1.4623
 4048SOL    HW223607   0.613   3.509   4.897 -0.9047  0.0900 -0.4302
 4049SOL     OW23608   1.049   2.205   8.577 -0.0658  0.2262  0.4426
 4049SOL    HW123609   1.037   2.207   8.482 -2.6267  0.7502  0.8021
 4049SOL    HW223610   1.097   2.285   8.598  2.7914 -0.8423 -1.8425
 4050SOL     OW23611   3.355   1.229   8.568 -0.3458  0.6346 -0.1753
 4050SOL    HW123612   3.359   1.223   8.663 -1.1523  0.2701 -0.1579
 4050SOL    HW223613   3.291   1.299   8.553 -0.7445  0.9000  2.7407
 4051SOL     OW23614   0.227   2.839   6.465  0.3491 -0.3251 -0.1813
 4051SOL    HW123615   0.318   2.810   6.476  0.5817  0.7160  0.6752
 4051SOL    HW223616   0.208   2.863   6.556  1.1857 -2.8136  0.6544
 4052SOL     OW23617   2.324   3.010   0.483 -0.8490  0.2771 -0.2094
 4052SOL    HW123618   2.322   3.105   0.492 -1.4794  0.1654  0.8063
 4052SOL    HW223619   2.412   2.994   0.448 -0.2307  4.8707 -0.8304
 4053SOL     OW23620   4.571   3.030   1.932 -0.0196  0.0755  0.3069
 4053SOL    HW123621   4.604   3.119   1.927  2.9137 -1.1084 -2.0253
 4053SOL    HW223622   4.531   3.020   1.846 -2.7767  4.0159  1.1893
 4054SOL     OW23623   0.923   0.457  13.558 -0.2110 -0.0704 -0.5054
 4054SOL    HW123624   0.906   0.550  13.545 -0.8048  0.2071  2.2895
 4054SOL    HW223625   0.856   0.427  13.496 -0.3863 -0.8517  0.0638
 4055SOL     OW23626   0.668   3.092   6.764 -0.2454 -0.3493 -0.6724
 4055SOL    HW123627   0.709   3.109   6.849 -0.9358  0.1111 -0.4291
 4055SOL    HW223628   0.602   3.024   6.780 -0.7271 -0.0103 -1.1976
 4056SOL     OW23629   4.242   2.182  14.023  0.0340 -0.7192 -0.2195
 4056SOL    HW123630   4.187   2.172  13.946 -1.6971  2.7469  0.5376
 4056SOL    HW223631   4.191   2.249  14.070  0.0168 -0.2771 -0.8647
 4057SOL     OW23632   0.931   0.072   3.094 -0.1192  0.2686  0.2426
 4057SOL    HW123633   1.018   0.093   3.129  0.7059  0.6202 -2.0400
 4057SOL    HW223634   0.955   0.009   3.027 -1.0244  2.6372 -2.3018
 4058SOL     OW23635   0.427   3.408   6.886  0.1161 -0.1372 -0.4211
 4058SOL    HW123636   0.477   3.349   6.942  1.1718  0.1709 -1.0183
 4058SOL    HW223637   0.496   3.434   6.824  2.0577 -0.4685  1.6179
 4059SOL     OW23638   2.159   2.393   8.159  0.0022  0.6095  0.0977
 4059SOL    HW123639   2.170   2.475   8.111 -1.5947  1.0972  0.5481
 4059SOL    HW223640   2.111   2.427   8.235  2.5433  0.4471  1.7826
 4060SOL     OW23641   0.254   4.084   5.230  0.1047 -0.1325 -0.3690
 4060SOL    HW123642   0.213   4.054   5.149 -0.8141  2.8060 -1.0010
 4060SOL    HW223643   0.344   4.055   5.215  1.2227  3.0866  0.0391
 4061SOL     OW23644   2.937   0.139   7.239  0.3209  0.1931  0.2267
 4061SOL    HW123645   2.866   0.081   7.268 -0.2147 -0.1954 -1.8878
 4061SOL    HW223646   2.927   0.195   7.316  0.4283  0.7071 -0.1394
 4062SOL     OW23647   0.089   4.684   1.266 -0.3073  0.3673  0.0551
 4062SOL    HW123648   0.072   4.593   1.294  3.1623 -0.7531 -1.4753
 4062SOL    HW223649   0.159   4.671   1.202 -0.4065  1.9581 -0.3537
 4063SOL     OW23650   0.656   3.702   7.011  0.0276 -0.6685 -0.2367
 4063SOL    HW123651   0.647   3.636   7.081 -0.0303 -0.0506  0.3387
 4063SOL    HW223652   0.732   3.659   6.971  1.7728  0.5863  1.7096
 4064SOL     OW23653   3.847   2.951   4.975 -0.1839  0.1616  0.5147
 4064SOL    HW123654   3.783   2.885   5.001  1.4587 -0.9591  1.7231
 4064SOL    HW223655   3.923   2.894   4.987  1.9489  2.9454  0.0604
 4065SOL     OW23656   0.905   1.989   1.399 -0.2413 -0.2433  0.7020
 4065SOL    HW123657   0.998   1.977   1.422 -0.3103 -1.3532  0.4339
 4065SOL    HW223658   0.920   2.064   1.341  0.4633 -1.2403 -0.4180
 4066SOL     OW23659   1.183   4.543   8.109 -0.0567  0.0348  0.0691
 4066SOL    HW123660   1.164   4.602   8.036 -3.4429 -0.1080  0.8455
 4066SOL    HW223661   1.161   4.460   8.067 -0.4472  0.0132  0.3195
 4067SOL     OW23662   1.488   0.721   7.692  0.9266  0.0815  0.0609
 4067SOL    HW123663   1.496   0.662   7.617  0.5820 -1.1473  1.0099
 4067SOL    HW223664   1.449   0.666   7.759  0.1218  0.2566 -0.2668
 4068SOL     OW23665   4.163   2.741   1.540 -0.0779  0.4526  0.1142
 4068SOL    HW123666   4.167   2.748   1.445 -0.0589 -2.3192 -0.0851
 4068SOL    HW223667   4.250   2.704   1.553 -1.2509 -1.9828  1.1114
 4069SOL     OW23668   2.243   0.634   6.939 -0.5126  0.5367  0.2930
 4069SOL    HW123669   2.302   0.633   6.863  1.0294  0.6145  1.4917
 4069SOL    HW223670   2.177   0.567   6.922 -0.1027 -1.0554  4.9292
 4070SOL     OW23671   0.804   0.327   3.002  0.2021  0.5377  0.0621
 4070SOL    HW123672   0.838   0.247   3.042  0.2201  0.0304 -0.9715
 4070SOL    HW223673   0.774   0.307   2.913  2.6888  0.6921 -0.8352
 4071SOL     OW23674   1.409   0.315   1.192  0.1810 -0.3951 -0.1586
 4071SOL    HW123675   1.337   0.311   1.129  1.3077  1.4990 -1.5501
 4071SOL    HW223676   1.410   0.222   1.213 -0.8729 -0.3688  0.0149
 4072SOL     OW23677   2.554   4.122   4.606 -0.2798  0.1623 -0.2376
 4072SOL    HW123678   2.624   4.087   4.660 -0.6315 -1.0815 -0.5774
 4072SOL    HW223679   2.514   4.181   4.670  0.1223  0.4612 -0.2640
 4073SOL     OW23680   3.657   1.807   8.632 -0.2300  0.6461 -0.1465
 4073SOL    HW123681   3.608   1.792   8.712 -0.1142  0.2045 -0.1563
 4073SOL    HW223682   3.670   1.718   8.599 -2.2572  0.6707 -0.9999
 4074SOL     OW23683   2.925   1.560   5.849 -0.0276 -0.3198  0.1736
 4074SOL    HW123684   2.879   1.511   5.917 -1.0773 -1.1394 -1.1361
 4074SOL    HW223685   2.970   1.490   5.803 -1.0929 -1.7634  1.3405
 4075SOL     OW23686   0.689   1.843   9.328  0.2727 -0.1386 -0.0898
 4075SOL    HW123687   0.612   1.830   9.384  0.0863 -0.4365 -0.4132
 4075SOL    HW223688   0.757   1.849   9.395  0.3168 -0.6623 -0.0860
 4076SOL     OW23689   3.655   2.785   5.072 -0.2289  0.6601 -0.0284
 4076SOL    HW123690   3.581   2.769   5.012 -1.1292  2.1123  0.7033
 4076SOL    HW223691   3.643   2.878   5.093 -1.5372  0.2776  0.9584
 4077SOL     OW23692   4.474   1.618   1.439  0.1045 -0.3507 -0.0250
 4077SOL    HW123693   4.404   1.570   1.483 -0.0373 -0.3896 -0.2868
 4077SOL    HW223694   4.530   1.542   1.423  0.2034 -0.1987 -0.4034
 4078SOL     OW23695   0.199   3.726   3.883 -0.1630  0.2828 -0.3242
 4078SOL    HW123696   0.289   3.699   3.868 -0.2690 -1.8859  2.8550
 4078SOL    HW223697   0.155   3.644   3.863 -2.2000  0.7334  2.2715
 4079SOL     OW23698   1.999   3.478   2.986  0.1846  0.1366  0.0252
 4079SOL    HW123699   1.931   3.452   2.924 -0.0212 -1.5197  0.9529
 4079SOL    HW223700   1.975   3.566   3.015 -1.8656 -1.0989  2.0034
 4080SOL     OW23701   3.418   1.868   3.474  0.1174 -0.3171 -0.5209
 4080SOL    HW123702   3.478   1.934   3.439 -1.5681  1.8869  0.7510
 4080SOL    HW223703   3.480   1.795   3.474  1.7649  1.0893  0.9739
 4081SOL     OW23704   0.582   2.930   8.731  0.2341  0.0281  0.3029
 4081SOL    HW123705   0.636   2.983   8.672 -1.5781 -2.2215 -3.3542
 4081SOL    HW223706   0.514   2.996   8.745 -1.5015 -2.6259  4.3795
 4082SOL     OW23707   2.307   3.569   8.054  0.1331  0.0042 -0.7246
 4082SOL    HW123708   2.349   3.483   8.058 -0.8232 -0.3277  2.2904
 4082SOL    HW223709   2.373   3.626   8.014  1.6670 -0.4800  1.1073
 4083SOL     OW23710   2.536   3.216   1.581  0.0412  0.3310 -0.0338
 4083SOL    HW123711   2.539   3.122   1.595  1.9249  0.4631  0.5205
 4083SOL    HW223712   2.630   3.232   1.571  0.4380 -0.8772  1.7151
 4084SOL     OW23713   2.182   2.997  12.940  0.2485 -0.2017 -0.2643
 4084SOL    HW123714   2.267   3.029  12.972  0.9087  0.1823 -2.3916
 4084SOL    HW223715   2.121   2.999  13.013  2.6162 -0.5688  1.7072
 4085SOL     OW23716   3.446   3.232  13.969 -1.1875 -0.5951 -0.4421
 4085SOL    HW123717   3.529   3.272  13.943 -0.0914 -3.1914 -0.9684
 4085SOL    HW223718   3.385   3.304  13.954 -2.3251 -1.6686 -0.9923
 4086SOL     OW23719   2.963   4.366   7.757  0.0031  0.0487 -0.1467
 4086SOL    HW123720   2.983   4.307   7.685 -0.0228 -0.1084 -0.0252
 4086SOL    HW223721   2.875   4.357   7.793 -0.2513 -1.1149 -1.0595
 4087SOL     OW23722   1.124   4.631   4.085  0.0697  0.3233 -0.3290
 4087SOL    HW123723   1.196   4.636   4.147 -0.0026  1.2358 -0.3259
 4087SOL    HW223724   1.044   4.635   4.138  1.8850  0.0056  2.4054
 4088SOL     OW23725   0.055   3.123  13.469  0.1129 -0.6115  0.5765
 4088SOL    HW123726   0.003   3.057  13.514  0.4565 -2.3941 -1.6717
 4088SOL    HW223727   0.005   3.203  13.486  0.4048 -0.1381 -0.8340
 4089SOL     OW23728   1.743   1.571   2.109 -0.7138  0.2237  0.3953
 4089SOL    HW123729   1.648   1.577   2.114 -0.7234  1.6980 -1.6034
 4089SOL    HW223730   1.763   1.653   2.063  0.1005 -0.1268  0.1362
 4090SOL     OW23731   0.828   0.265   0.920 -0.1028 -0.1615 -0.1889
 4090SOL    HW123732   0.893   0.198   0.899 -1.4510 -1.2055 -1.0244
 4090SOL    HW223733   0.838   0.272   1.015  1.0340 -1.9274 -0.1732
 4091SOL     OW23734   0.149   2.821   4.323  0.8460  0.6930  0.4575
 4091SOL    HW123735   0.137   2.734   4.286 -0.2563  0.8681  0.4064
 4091SOL    HW223736   0.229   2.854   4.282  2.3057 -2.0316  1.0681
 4092SOL     OW23737   0.049   2.875   4.072  0.0373  0.1596  0.1388
 4092SOL    HW123738   0.050   2.901   4.164 -0.8952  2.8254 -0.6075
 4092SOL    HW223739   0.141   2.856   4.055  0.2848  0.5166  1.0990
 4093SOL     OW23740   4.304   0.716   5.946 -0.5259 -0.5215  0.1538
 4093SOL    HW123741   4.286   0.624   5.964 -0.0258 -0.3967  1.2690
 4093SOL    HW223742   4.281   0.756   6.030 -0.2911  0.0306 -0.0455
 4094SOL     OW23743   4.413   0.594  15.209 -0.2250 -0.3717  0.1040
 4094SOL    HW123744   4.359   0.672  15.218 -2.3169 -1.4939 -2.7943
 4094SOL    HW223745   4.383   0.542  15.284  1.7686 -1.1974  0.3391
 4095SOL     OW23746   1.546   3.097   7.637 -0.0480  0.3856 -0.4244
 4095SOL    HW123747   1.466   3.049   7.662  1.0392 -1.1181  0.1311
 4095SOL    HW223748   1.598   3.088   7.717  0.8240  0.7386 -0.9550
 4096SOL     OW23749   4.285   0.091   1.475 -0.1903 -0.9595 -0.3667
 4096SOL    HW123750   4.237   0.036   1.537  1.6384 -2.1421  0.0216
 4096SOL    HW223751   4.254   0.075   1.386 -2.9822 -0.7199  0.5681
 4097SOL     OW23752   0.426   2.383  16.140 -0.1034 -0.7610  0.1993
 4097SOL    HW123753   0.517   2.404  16.117 -0.6313 -0.3349 -1.5411
 4097SOL    HW223754   0.415   2.312  16.077  1.6575  0.7064 -1.8010
 4098SOL     OW23755   4.316   3.914   0.522  0.1206  0.1519 -0.1225
 4098SOL    HW123756   4.322   3.830   0.476 -1.5466  0.5829 -1.1303
 4098SOL    HW223757   4.375   3.895   0.595 -1.2158 -0.2549  0.8483
 4099SOL     OW23758   1.793   2.718   5.981  0.0423  0.4593 -0.1206
 4099SOL    HW123759   1.703   2.688   5.982  0.0956  0.3886  1.2842
 4099SOL    HW223760   1.792   2.779   5.907 -1.6728  2.8846  1.8927
 4100SOL     OW23761   3.079   0.899   2.526 -0.0146  0.0119 -0.3188
 4100SOL    HW123762   3.024   0.930   2.598 -0.4603 -0.2241 -0.5652
 4100SOL    HW223763   3.107   0.811   2.553  0.6907  0.0838 -0.8080
 4101SOL     OW23764   0.306   2.952  11.523  0.0181 -0.5234 -0.0739
 4101SOL    HW123765   0.345   3.025  11.475  0.0962 -0.5353 -0.0282
 4101SOL    HW223766   0.238   3.006  11.564  1.1220  1.5895 -1.0506
 4102SOL     OW23767   1.948   2.914   7.046  0.0174  0.1234 -0.4667
 4102SOL    HW123768   2.034   2.895   7.009  0.1960 -1.8343  0.9594
 4102SOL    HW223769   1.924   2.977   6.979 -0.6901 -0.2287 -0.5430
 4103SOL     OW23770   1.711   0.044   8.691  0.4351  0.1321 -0.1225
 4103SOL    HW123771   1.745   4.678   8.688  1.6891  0.6560 -1.5547
 4103SOL    HW223772   1.681   0.058   8.600  1.3208 -2.3959 -0.7792
 4104SOL     OW23773   2.604   4.378  15.810  0.5914 -0.4504  0.2619
 4104SOL    HW123774   2.695   4.351  15.806  0.2816 -1.8392  2.4484
 4104SOL    HW223775   2.574   4.408  15.724  1.9269  2.4627  0.8057
 4105SOL     OW23776   0.702   0.495  13.817  0.3558 -0.1157 -0.1641
 4105SOL    HW123777   0.659   0.558  13.759 -0.5301  0.3277  0.9814
 4105SOL    HW223778   0.685   0.410  13.775 -0.7848  0.6980 -1.3046
 4106SOL     OW23779   3.471   2.165   6.421  0.6084 -0.8974 -0.5149
 4106SOL    HW123780   3.532   2.100   6.386  1.9949 -1.3895  2.8144
 4106SOL    HW223781   3.389   2.132   6.385 -0.4707 -1.2186  2.1979
 4107SOL     OW23782   2.249   0.781   1.237 -0.5792 -0.0696 -0.0157
 4107SOL    HW123783   2.213   0.723   1.304 -0.9684 -0.2520 -0.3840
 4107SOL    HW223784   2.177   0.801   1.177 -0.1220 -0.2987 -0.6359
 4108SOL     OW23785   0.404   1.214   4.186 -0.5720  0.1846  0.1334
 4108SOL    HW123786   0.469   1.197   4.117 -1.6836 -0.9191 -0.6546
 4108SOL    HW223787   0.361   1.293   4.154  1.0047  0.8120 -0.4111
 4109SOL     OW23788   1.021   2.250  10.363 -0.4448 -0.4717  0.0819
 4109SOL    HW123789   0.996   2.341  10.380  1.8013 -0.0849  1.3503
 4109SOL    HW223790   0.942   2.199  10.381  0.5619 -2.3277 -0.7644
 4110SOL     OW23791   3.850   2.334   5.587  0.3761  0.2109  0.1882
 4110SOL    HW123792   3.789   2.377   5.646  0.5597 -0.0779  0.5841
 4110SOL    HW223793   3.798   2.315   5.509  1.1124 -1.5197  0.1086
 4111SOL     OW23794   0.754   2.764   2.281 -0.0965  1.0010  0.0177
 4111SOL    HW123795   0.671   2.812   2.276 -1.2122 -1.0603 -1.3588
 4111SOL    HW223796   0.815   2.802   2.344  1.0388 -0.2975 -0.3128
 4112SOL     OW23797   0.993   0.302  11.454 -0.1564  0.0996  0.1181
 4112SOL    HW123798   0.908   0.259  11.451 -0.4781  0.7700 -0.5435
 4112SOL    HW223799   1.017   0.299  11.547  0.8862 -1.0207 -0.1949
 4113SOL     OW23800   1.433   4.415   1.984 -0.4092 -0.2329 -0.4301
 4113SOL    HW123801   1.338   4.427   1.980 -0.2861  0.4770 -1.1170
 4113SOL    HW223802   1.453   4.496   2.032  1.3048 -0.3924 -0.8997
 4114SOL     OW23803   2.282   4.058   4.968 -0.5208 -0.0283  0.4355
 4114SOL    HW123804   2.233   3.993   4.918 -0.7247 -0.3806  1.1024
 4114SOL    HW223805   2.223   4.133   4.977  2.2140  2.1489  0.2501
 4115SOL     OW23806   0.296   2.986  14.181  0.5217 -0.4321 -0.1827
 4115SOL    HW123807   0.231   2.986  14.111 -1.1254  0.4010  1.3305
 4115SOL    HW223808   0.271   3.065  14.229 -0.6282 -0.9447  0.0556
 4116SOL     OW23809   4.115   0.913   8.516 -0.0754  0.2760  0.2007
 4116SOL    HW123810   4.140   0.945   8.429  0.1482 -0.9579 -0.1875
 4116SOL    HW223811   4.050   0.845   8.498  0.3177 -0.5186  1.8055
 4117SOL     OW23812   3.184   2.672   1.967  0.5198  0.6337  0.0255
 4117SOL    HW123813   3.230   2.749   2.001  0.8256  0.8844 -0.9482
 4117SOL    HW223814   3.100   2.706   1.936  1.3853  0.3673 -2.6119
 4118SOL     OW23815   0.620   0.012   9.482 -0.0302 -0.0387  0.2518
 4118SOL    HW123816   0.534   0.027   9.522 -0.0342 -0.0263  0.2384
 4118SOL    HW223817   0.645   0.091   9.435 -1.1806 -0.1023 -0.4861
 4119SOL     OW23818   3.846   1.638   3.888 -0.1217  0.1001 -0.4322
 4119SOL    HW123819   3.919   1.668   3.942  0.9962 -2.5171 -0.5185
 4119SOL    HW223820   3.845   1.545   3.907  1.5598  0.3010  0.6441
 4120SOL     OW23821   2.420   2.127  15.440  0.4340  0.3257  0.8055
 4120SOL    HW123822   2.342   2.103  15.390  2.1621 -2.4150 -0.5478
 4120SOL    HW223823   2.427   2.218  15.409 -0.1692  0.0942 -0.0112
 4121SOL     OW23824   0.309   3.449  16.762 -0.2862 -0.2240 -0.4955
 4121SOL    HW123825   0.326   3.522  16.822 -0.4079 -0.5786 -0.0316
 4121SOL    HW223826   0.265   3.387  16.820  2.9295 -1.0524  1.0445
 4122SOL     OW23827   1.243   1.510   5.783  0.5000  0.3884  0.8701
 4122SOL    HW123828   1.250   1.415   5.776  0.1606  0.1752  3.4533
 4122SOL    HW223829   1.229   1.524   5.689  3.3101 -0.0339  0.3756
 4123SOL     OW23830   3.490   0.562   3.590 -0.5444 -0.0194 -0.3862
 4123SOL    HW123831   3.518   0.595   3.676  1.2531  0.8494 -1.3048
 4123SOL    HW223832   3.516   0.470   3.599  0.2102  0.4692  2.4525
 4124SOL     OW23833   1.066   4.516   8.890 -0.2815  0.1547 -0.0650
 4124SOL    HW123834   1.028   4.437   8.928 -0.3375  1.0200  1.7194
 4124SOL    HW223835   1.076   4.570   8.969 -1.4966 -0.4826  0.5258
 4125SOL     OW23836   0.124   1.623  11.002 -0.1378  0.3555 -0.1867
 4125SOL    HW123837   0.213   1.613  11.033  0.4322  0.6189 -1.7240
 4125SOL    HW223838   0.094   1.540  11.039  2.7800 -0.4410  0.3511
 4126SOL     OW23839   3.580   3.758   6.458  0.0625  0.0529  0.4198
 4126SOL    HW123840   3.577   3.815   6.535 -0.9119 -2.6627  2.3931
 4126SOL    HW223841   3.627   3.816   6.398  2.2475  1.1655  3.1811
 4127SOL     OW23842   4.004   2.964   1.428  0.4694 -0.1162  0.0960
 4127SOL    HW123843   3.974   2.897   1.489 -0.6776  0.3367  0.0405
 4127SOL    HW223844   3.919   2.977   1.385 -0.4112 -4.2941  0.6097
 4128SOL     OW23845   3.862   2.162   1.528  0.2398 -0.4388  0.2946
 4128SOL    HW123846   3.924   2.158   1.600 -1.5987 -2.1073  1.7715
 4128SOL    HW223847   3.916   2.203   1.461 -1.4111  3.6544  1.4556
 4129SOL     OW23848   2.228   3.648   1.959 -1.0708 -0.1911 -0.0536
 4129SOL    HW123849   2.214   3.703   1.882  2.1285  0.3208 -0.2755
 4129SOL    HW223850   2.137   3.652   1.989 -0.7260 -1.4801  1.1901
 4130SOL     OW23851   2.262   0.412   2.845  0.0954  0.0048 -0.0975
 4130SOL    HW123852   2.344   0.363   2.836  0.4749  0.4272  1.1137
 4130SOL    HW223853   2.270   0.467   2.767  2.4094 -1.6022 -0.9873
 4131SOL     OW23854   0.981   4.056   1.666 -0.7109  0.0241  0.4152
 4131SOL    HW123855   0.993   4.151   1.671 -0.4250 -0.0954  1.8551
 4131SOL    HW223856   0.966   4.049   1.572  1.5163  1.3052 -0.0202
 4132SOL     OW23857   4.592   2.691   1.238  0.2408  0.1246 -0.0487
 4132SOL    HW123858   4.563   2.741   1.161  0.3025 -0.9108 -0.7388
 4132SOL    HW223859   4.686   2.694   1.219  0.2400 -1.1870 -0.2219
 4133SOL     OW23860   1.131   3.372  11.781  0.5150 -0.2988  0.4307
 4133SOL    HW123861   1.077   3.438  11.823 -0.0229 -0.3979 -0.1150
 4133SOL    HW223862   1.066   3.328  11.727  2.2916 -1.7792 -0.5038
 4134SOL     OW23863   0.885   3.102   7.914  0.2226 -0.5391  0.0597
 4134SOL    HW123864   0.830   3.034   7.877 -0.4396  0.7297 -1.2709
 4134SOL    HW223865   0.843   3.104   8.000 -0.3031 -2.0186 -0.1536
 4135SOL     OW23866   3.434   0.221   1.995  0.3884 -0.3212 -0.6519
 4135SOL    HW123867   3.530   0.220   1.992  0.4414 -1.3644  1.4811
 4135SOL    HW223868   3.432   0.292   2.060 -0.1940 -0.8688 -0.0714
 4136SOL     OW23869   4.074   4.361   4.880 -0.4444  0.2242 -0.5389
 4136SOL    HW123870   4.065   4.419   4.955 -0.7602 -0.1940 -0.2564
 4136SOL    HW223871   4.168   4.342   4.873 -0.2063  1.3467 -0.4001
 4137SOL     OW23872   3.303   0.338   0.745  0.4523  0.5628 -0.8756
 4137SOL    HW123873   3.312   0.243   0.747  0.4973  0.6243  2.1241
 4137SOL    HW223874   3.382   0.371   0.702  1.3492  1.9014  1.7712
 4138SOL     OW23875   1.645   2.800   3.794 -0.5644 -0.4158 -0.3046
 4138SOL    HW123876   1.667   2.810   3.701 -1.0014 -0.9207 -0.4648
 4138SOL    HW223877   1.594   2.721   3.778 -2.7470  0.5387  1.8946
 4139SOL     OW23878   1.839   4.231   7.193 -0.1232 -0.0665  0.3158
 4139SOL    HW123879   1.880   4.167   7.135 -2.7090  0.0379 -1.6686
 4139SOL    HW223880   1.773   4.271   7.135  2.3782  2.6065 -0.7048
 4140SOL     OW23881   1.087   2.093   6.983  0.3416 -0.2705  0.2005
 4140SOL    HW123882   1.072   2.004   6.951  0.3084 -0.1419 -0.1406
 4140SOL    HW223883   1.122   2.135   6.904 -2.8492  4.0648  1.0820
 4141SOL     OW23884   1.175   4.329   6.201  0.3152 -1.1914  0.7161
 4141SOL    HW123885   1.212   4.363   6.282 -0.0262  0.8154  0.0504
 4141SOL    HW223886   1.258   4.321   6.154  1.5033  4.0104  1.9022
 4142SOL     OW23887   0.936   1.077  13.027  0.3172  0.3538 -0.3536
 4142SOL    HW123888   1.006   1.037  13.077 -0.5576 -2.7305 -1.5558
 4142SOL    HW223889   0.977   1.151  12.984 -0.2976  0.3228 -1.0013
 4143SOL     OW23890   2.789   0.987   2.346  0.2112  0.0328 -0.0924
 4143SOL    HW123891   2.711   1.005   2.294  0.5564 -0.7948 -0.9099
 4143SOL    HW223892   2.794   1.067   2.398  0.4329  1.3100 -2.0959
 4144SOL     OW23893   3.506   1.186  13.503  0.6195 -0.7576  0.2244
 4144SOL    HW123894   3.529   1.279  13.502 -0.4308 -0.5010  0.1536
 4144SOL    HW223895   3.557   1.158  13.579  0.0870  0.3802  0.9986
 4145SOL     OW23896   3.964   1.400   3.666 -0.0211  0.4607  0.7337
 4145SOL    HW123897   4.028   1.338   3.701  0.1770  0.3642  0.2083
 4145SOL    HW223898   3.896   1.392   3.733  0.0781 -1.5575  0.5884
 4146SOL     OW23899   4.409   0.600  14.897  0.0655  0.1102  0.5283
 4146SOL    HW123900   4.446   0.599  14.985  0.1345 -0.7812  0.4892
 4146SOL    HW223901   4.327   0.551  14.895 -0.8298  1.6408  0.0424
 4147SOL     OW23902   2.565   2.903   1.567 -0.3045  0.5033 -0.0680
 4147SOL    HW123903   2.568   2.885   1.473 -1.1021 -1.5929  0.3288
 4147SOL    HW223904   2.545   2.815   1.599  1.3560  0.2601  0.3374
 4148SOL     OW23905   1.290   1.344   3.935 -0.6909 -0.4117 -0.2089
 4148SOL    HW123906   1.278   1.254   3.966  1.4357 -1.0146 -1.1116
 4148SOL    HW223907   1.227   1.336   3.864 -1.6421  0.0153  0.5964
 4149SOL     OW23908   4.420   4.014   5.963  0.5972 -0.0106 -0.1682
 4149SOL    HW123909   4.341   4.068   5.966 -0.0148 -0.9135 -0.0677
 4149SOL    HW223910   4.495   4.074   5.973 -0.9984  2.1067 -0.8205
 4150SOL     OW23911   4.321   0.946  10.686  0.2567 -0.5915 -0.5468
 4150SOL    HW123912   4.405   0.938  10.732 -1.1696  0.4996  2.2703
 4150SOL    HW223913   4.336   1.026  10.635 -0.0125 -0.1512  0.0547
 4151SOL     OW23914   3.725   0.471  10.017  0.8095 -0.0715 -0.1033
 4151SOL    HW123915   3.776   0.443   9.941  1.1957  1.1066 -0.2702
 4151SOL    HW223916   3.646   0.421   9.996  0.3804  0.7031 -0.3509
 4152SOL     OW23917   4.485   3.862   5.237  0.4760  0.3390 -0.3301
 4152SOL    HW123918   4.505   3.817   5.320  3.6477  0.5643 -0.9881
 4152SOL    HW223919   4.447   3.791   5.185 -0.3749  0.2291  0.4369
 4153SOL     OW23920   1.479   2.488   5.202  0.4699  0.9383 -0.0655
 4153SOL    HW123921   1.565   2.447   5.210 -0.0586 -0.2704 -0.6588
 4153SOL    HW223922   1.473   2.540   5.283  1.0916 -1.2613  1.4084
 4154SOL     OW23923   1.224   0.077   3.183  0.3376 -0.4015  0.0807
 4154SOL    HW123924   1.217   0.044   3.273 -0.1787 -0.4225  0.0292
 4154SOL    HW223925   1.317   0.101   3.183 -0.2160  1.8587  2.6625
 4155SOL     OW23926   1.881   1.576   2.679  0.8747  0.4913  0.0706
 4155SOL    HW123927   1.871   1.630   2.600  0.8705 -0.4648 -0.5918
 4155SOL    HW223928   1.802   1.524   2.666  1.8150 -1.2107  1.1900
 4156SOL     OW23929   3.407   3.399  15.361  0.1017 -0.2498 -0.2398
 4156SOL    HW123930   3.421   3.396  15.456  1.6555  0.0727 -0.4478
 4156SOL    HW223931   3.408   3.305  15.340 -1.7191  0.0361 -1.6020
 4157SOL     OW23932   2.832   3.109   7.916 -0.0387  0.5062  0.0641
 4157SOL    HW123933   2.913   3.161   7.909 -1.6648  3.0827  0.0961
 4157SOL    HW223934   2.868   3.023   7.898 -1.8827 -0.2761  0.1625
 4158SOL     OW23935   0.811   0.947   3.212  0.2199  0.0694  0.3803
 4158SOL    HW123936   0.763   1.026   3.187 -2.8279 -2.0787 -0.4994
 4158SOL    HW223937   0.860   0.938   3.130  1.1529 -0.1213  0.9644
 4159SOL     OW23938   1.880   4.686   6.381  0.3188  0.2451  0.3364
 4159SOL    HW123939   1.936   4.628   6.432 -0.6372 -0.4584  0.5920
 4159SOL    HW223940   1.795   4.694   6.425 -0.0189  1.7466 -0.5778
 4160SOL     OW23941   4.290   3.789   4.658 -0.8648 -0.1155  0.7633
 4160SOL    HW123942   4.345   3.795   4.736 -0.9735 -0.9128  0.8934
 4160SOL    HW223943   4.205   3.783   4.701 -1.9145 -0.0587 -1.3026
 4161SOL     OW23944   4.127   4.196   0.278  0.0128  0.2191  0.6546
 4161SOL    HW123945   4.209   4.194   0.327  0.3775  0.4947  0.0555
 4161SOL    HW223946   4.153   4.160   0.193 -0.0280  2.0971 -0.1725
 4162SOL     OW23947   4.134   0.103   6.523  0.1146  0.1522 -0.5042
 4162SOL    HW123948   4.202   0.040   6.501 -0.1199 -0.9830  2.1268
 4162SOL    HW223949   4.086   0.094   6.440  1.4944  0.0931 -1.3062
 4163SOL     OW23950   2.457   3.538  13.546 -0.0847  0.2251 -0.2988
 4163SOL    HW123951   2.421   3.454  13.519 -2.1102  0.5579  1.4225
 4163SOL    HW223952   2.414   3.560  13.629  0.5477  0.0839  0.0736
 4164SOL     OW23953   4.674   2.462   7.110  0.5577  0.0102  0.4130
 4164SOL    HW123954   0.036   2.485   7.149  1.3016  1.0289 -1.8002
 4164SOL    HW223955   4.651   2.545   7.069  0.0229 -0.1827  0.3238
 4165SOL     OW23956   0.956   4.195   0.783  0.5158  0.0588 -0.0298
 4165SOL    HW123957   0.879   4.140   0.798 -0.5359  1.8545  1.2102
 4165SOL    HW223958   0.942   4.203   0.688 -4.8275  2.1354  0.9177
 4166SOL     OW23959   4.225   4.537   9.050 -0.3414 -0.5712  0.1047
 4166SOL    HW123960   4.308   4.569   9.087  0.1291 -0.3751 -1.1117
 4166SOL    HW223961   4.230   4.549   8.955 -0.8868  0.9307  0.2669
 4167SOL     OW23962   4.343   3.773   5.839 -0.5706  0.3709 -0.1505
 4167SOL    HW123963   4.346   3.855   5.888  0.1111 -0.0530  0.5153
 4167SOL    HW223964   4.274   3.728   5.887  0.4253 -1.0578 -0.0533
 4168SOL     OW23965   2.325   4.546  16.760  0.2279  0.5072  0.1850
 4168SOL    HW123966   2.232   4.526  16.774  0.4734 -0.8433 -0.1075
 4168SOL    HW223967   2.362   4.471  16.807 -0.5270  0.4604  0.7215
 4169SOL     OW23968   1.624   0.319   4.478 -0.4716 -0.5192  0.0378
 4169SOL    HW123969   1.589   0.236   4.446 -1.0200  0.1730 -1.1039
 4169SOL    HW223970   1.705   0.277   4.510  0.1937  0.3141 -0.5577
 4170SOL     OW23971   2.439   4.010   4.165 -0.2253 -0.0203 -0.1904
 4170SOL    HW123972   2.501   3.947   4.129 -1.3428 -1.3265  0.1716
 4170SOL    HW223973   2.367   3.951   4.188  0.7255 -0.7173  0.9850
 4171SOL     OW23974   1.835   2.769   4.468 -0.0510  0.2319  0.3227
 4171SOL    HW123975   1.892   2.699   4.436  2.0563  1.7050  0.8447
 4171SOL    HW223976   1.826   2.826   4.391  0.4280  0.8101  0.6916
 4172SOL     OW23977   0.216   0.533   1.791 -0.1032  0.3065  0.1421
 4172SOL    HW123978   0.274   0.588   1.843 -2.4518  2.8380  0.0595
 4172SOL    HW223979   0.274   0.479   1.737 -0.1510  0.3929  0.0038
 4173SOL     OW23980   2.800   4.310   5.698  0.4020  0.2024  0.0048
 4173SOL    HW123981   2.801   4.255   5.620 -1.0120  0.3368 -0.0998
 4173SOL    HW223982   2.712   4.348   5.697 -0.3891 -1.6401 -0.9295
 4174SOL     OW23983   3.749   0.357   6.812  0.0027 -0.3285 -0.1214
 4174SOL    HW123984   3.670   0.399   6.779 -0.6966 -0.6564  1.1540
 4174SOL    HW223985   3.798   0.370   6.730 -0.0879  0.1532 -0.0981
 4175SOL     OW23986   1.689   1.838   4.973  0.3656  0.0032 -0.3707
 4175SOL    HW123987   1.621   1.890   4.930 -2.3386 -2.6262  0.7831
 4175SOL    HW223988   1.731   1.805   4.894  1.2002  0.6631 -0.2102
 4176SOL     OW23989   0.172   0.541   7.454 -0.4912 -0.1786 -0.3174
 4176SOL    HW123990   0.242   0.533   7.519 -0.6401  0.6694 -0.0561
 4176SOL    HW223991   0.111   0.472   7.482 -0.2770 -1.4401 -2.9528
 4177SOL     OW23992   4.586   2.385   2.965  0.3511  0.5762  0.3960
 4177SOL    HW123993   4.557   2.476   2.967 -1.2338  0.0570  1.4341
 4177SOL    HW223994   4.680   2.398   2.976  0.7398  0.8044 -3.3285
 4178SOL     OW23995   4.632   3.335   4.706 -0.5158 -0.5506 -0.0370
 4178SOL    HW123996   4.573   3.261   4.692  0.5367 -1.0970 -1.4959
 4178SOL    HW223997   4.703   3.321   4.644  1.5172  2.3560  1.5804
 4179SOL     OW23998   2.374   0.051  16.889 -0.0119 -0.0600  0.8838
 4179SOL    HW123999   2.360   4.686  16.852  1.0380 -0.1073  0.5894
 4179SOL    HW224000   2.346   0.113  16.822 -0.5828 -1.1287  0.1175
 4180SOL     OW24001   2.482   1.771  12.832  0.5352 -0.6139 -0.0129
 4180SOL    HW124002   2.449   1.860  12.847 -0.1251 -0.3014 -3.3897
 4180SOL    HW224003   2.413   1.717  12.870 -0.6709  0.4996 -0.6389
 4181SOL     OW24004   3.778   3.106  15.317 -0.2856  0.0560  1.0033
 4181SOL    HW124005   3.823   3.028  15.347  0.6325  0.1038 -0.2648
 4181SOL    HW224006   3.754   3.155  15.395 -0.0206  1.0936  0.4412
 4182SOL     OW24007   4.646   4.104   4.384  0.2820  0.1878  0.7331
 4182SOL    HW124008   4.561   4.066   4.361  1.9645 -3.2664  0.2824
 4182SOL    HW224009   4.644   4.105   4.480  0.6984  1.5429  0.7371
 4183SOL     OW24010   2.456   0.117   3.304 -0.1283 -0.5538  0.1351
 4183SOL    HW124011   2.522   0.058   3.341  0.1004 -0.8144 -0.7005
 4183SOL    HW224012   2.373   0.070   3.308 -0.8609  0.9874  3.2841
 4184SOL     OW24013   0.996   4.370  15.095  0.0742 -0.5357  0.1337
 4184SOL    HW124014   1.010   4.278  15.073 -0.6188 -1.0529  1.8813
 4184SOL    HW224015   0.988   4.416  15.011 -0.5494 -0.7015  0.1085
 4185SOL     OW24016   1.271   0.131   4.741 -0.3488 -0.1046 -0.0228
 4185SOL    HW124017   1.311   0.210   4.775 -0.7647 -0.7873  2.0279
 4185SOL    HW224018   1.245   0.170   4.657  0.0564  0.3570  0.0676
 4186SOL     OW24019   1.935   4.552   9.327  0.0229 -0.5362  0.1561
 4186SOL    HW124020   1.851   4.516   9.355  0.3360 -0.5432  1.1034
 4186SOL    HW224021   1.986   4.513   9.398 -0.5495 -3.0116 -0.7994
 4187SOL     OW24022   4.622   1.604   0.201 -0.0515 -0.3182 -0.3651
 4187SOL    HW124023   4.701   1.654   0.180  1.9552 -2.8123  1.1182
 4187SOL    HW224024   4.564   1.667   0.244  0.0289 -0.6432  0.2309
 4188SOL     OW24025   3.939   2.957   6.058 -0.2290  0.0173  0.1466
 4188SOL    HW124026   3.864   2.900   6.077  0.8430 -1.7235 -0.7529
 4188SOL    HW224027   3.923   3.050   6.072 -0.9953  0.1111 -1.3527
 4189SOL     OW24028   3.398   0.350   6.520 -0.7753 -0.1423  0.3412
 4189SOL    HW124029   3.349   0.410   6.463  1.2861 -1.1082 -2.5036
 4189SOL    HW224030   3.446   0.412   6.574  0.8782 -0.2835 -0.9649
 4190SOL     OW24031   3.939   4.074   6.132 -0.5273 -0.3456 -0.4673
 4190SOL    HW124032   4.011   4.093   6.192 -0.0630  3.0541 -2.1222
 4190SOL    HW224033   3.994   4.040   6.061 -1.1164  0.7435 -1.4331
 4191SOL     OW24034   0.909   0.084   9.187 -0.4724 -0.0898  0.2274
 4191SOL    HW124035   0.838   0.044   9.137 -1.0459  1.2074 -0.0016
 4191SOL    HW224036   0.867   0.112   9.268  0.5682  0.1843  0.6628
 4192SOL     OW24037   2.673   3.504   7.144 -0.6985 -0.0201 -0.2268
 4192SOL    HW124038   2.686   3.493   7.050 -1.0834 -0.9879 -0.1671
 4192SOL    HW224039   2.587   3.546   7.139 -0.3873  0.7192  0.7383
 4193SOL     OW24040   1.469   2.138   5.763 -0.0297 -0.2004 -0.4083
 4193SOL    HW124041   1.392   2.152   5.818  0.6827 -0.2957  0.5968
 4193SOL    HW224042   1.492   2.052   5.799  1.5243  0.6278  0.5470
 4194SOL     OW24043   0.497   4.294  15.593  0.4848 -0.6539  0.4353
 4194SOL    HW124044   0.591   4.307  15.607  0.1037  1.9016  0.7464
 4194SOL    HW224045   0.490   4.285  15.498  0.8065  0.6369  0.2848
 4195SOL     OW24046   1.045   2.665  11.077 -0.2486  0.3451  0.2187
 4195SOL    HW124047   0.972   2.726  11.084  1.0978  1.7943  1.5901
 4195SOL    HW224048   1.121   2.712  11.109 -0.9030  0.5080  1.5497
 4196SOL     OW24049   4.294   3.916   5.494  0.3410  0.0591  0.2157
 4196SOL    HW124050   4.217   3.945   5.446  1.0373  0.7746 -0.4820
 4196SOL    HW224051   4.287   3.822   5.476  0.3156  0.3221 -1.1187
 4197SOL     OW24052   3.312   0.716   1.323  0.4176 -0.1079 -0.5823
 4197SOL    HW124053   3.372   0.727   1.398  1.8045  0.4788 -1.7803
 4197SOL    HW224054   3.372   0.722   1.249  1.2082  1.1144  0.1455
 4198SOL     OW24055   3.141   2.979   1.845  0.5051 -0.1170  0.6862
 4198SOL    HW124056   3.170   3.053   1.792  0.7842  0.3833  1.5409
 4198SOL    HW224057   3.215   2.965   1.905  1.9542  1.3369 -0.7559
 4199SOL     OW24058   3.340   0.351   3.081  0.0489 -0.4762 -0.5189
 4199SOL    HW124059   3.316   0.406   3.155 -2.4752 -1.5639 -0.5375
 4199SOL    HW224060   3.283   0.275   3.094 -2.0407  1.0628 -0.7443
 4200SOL     OW24061   0.600   0.164  16.950  0.1027  0.2988  0.6320
 4200SOL    HW124062   0.654   0.242  16.940  0.4167  0.0120  0.0968
 4200SOL    HW224063   0.525   0.195  17.000  0.6499 -0.0913  1.7122
 4201SOL     OW24064   0.483   2.790   6.474 -0.1047 -0.0762 -0.4506
 4201SOL    HW124065   0.479   2.724   6.404  1.9744 -0.7431  0.0523
 4201SOL    HW224066   0.525   2.861   6.426 -2.0926  0.6856 -1.0575
 4202SOL     OW24067   1.077   1.926  12.908  0.6778  0.2230  0.4210
 4202SOL    HW124068   1.102   1.945  12.818  0.0939 -1.7598 -0.1721
 4202SOL    HW224069   0.984   1.950  12.908 -0.2689 -3.4251  2.3591
 4203SOL     OW24070   2.878   2.282   7.605 -0.3095  0.1601  0.4633
 4203SOL    HW124071   2.801   2.229   7.581  0.0011 -0.8706  1.7505
 4203SOL    HW224072   2.870   2.279   7.700 -0.1598  0.2453  0.4772
 4204SOL     OW24073   2.713   0.242  12.962 -0.3030  0.2999  0.2211
 4204SOL    HW124074   2.641   0.214  12.906  0.2692 -0.7097 -0.0101
 4204SOL    HW224075   2.688   0.204  13.046  4.2373 -4.3983 -0.5880
 4205SOL     OW24076   3.705   1.947  13.755 -0.1101  0.1902 -0.5207
 4205SOL    HW124077   3.689   1.870  13.809  0.0364  0.3073 -0.3144
 4205SOL    HW224078   3.738   2.002  13.826  0.2350  0.1482 -0.6501
 4206SOL     OW24079   2.388   0.204   5.583 -0.3121 -0.5112  0.5453
 4206SOL    HW124080   2.388   0.153   5.502  3.0221 -0.8490  0.7226
 4206SOL    HW224081   2.300   0.188   5.616 -0.4420  2.3327  1.5355
 4207SOL     OW24082   1.568   3.825   5.774 -0.2279  0.0848 -0.2275
 4207SOL    HW124083   1.512   3.892   5.735 -2.1877 -2.1405 -1.2081
 4207SOL    HW224084   1.609   3.867   5.850  1.3083  0.3669 -1.2159
 4208SOL     OW24085   1.497   1.944  16.183 -1.1774  0.2013 -0.1747
 4208SOL    HW124086   1.499   1.848  16.178  4.0590  0.3097 -0.2710
 4208SOL    HW224087   1.578   1.962  16.231  0.0308 -0.5614 -1.8993
 4209SOL     OW24088   1.082   0.846   8.931 -0.3657  0.5579 -0.3738
 4209SOL    HW124089   1.097   0.935   8.899  1.0148 -0.4678 -2.5671
 4209SOL    HW224090   1.073   0.803   8.846 -2.7813  2.5833 -1.1376
 4210SOL     OW24091   3.916   2.856   6.742  0.4163 -0.2106 -0.0791
 4210SOL    HW124092   3.825   2.829   6.752  0.5123 -0.0109  1.2730
 4210SOL    HW224093   3.945   2.825   6.656  0.1676  0.5802 -0.4614
 4211SOL     OW24094   0.019   1.471   7.520 -0.1016  0.1347  0.6452
 4211SOL    HW124095   0.058   1.423   7.593 -0.4931 -0.7559  0.2695
 4211SOL    HW224096   4.650   1.464   7.545 -0.5709  0.7241 -0.9594
 4212SOL     OW24097   2.100   2.236   1.097 -0.7792  0.0357 -0.1536
 4212SOL    HW124098   2.006   2.248   1.086 -1.0550 -2.0066  0.0077
 4212SOL    HW224099   2.122   2.172   1.030 -0.5600  0.8269 -0.8439
 4213SOL     OW24100   2.635   2.201  13.550 -0.0879  0.7100 -0.1116
 4213SOL    HW124101   2.668   2.121  13.510  0.1675  1.1214 -0.7299
 4213SOL    HW224102   2.546   2.181  13.577  0.9046 -2.1502  0.9610
 4214SOL     OW24103   4.711   3.984   3.513 -0.2929 -0.7388  0.1834
 4214SOL    HW124104   4.632   4.030   3.542 -0.7821 -1.1446 -0.5133
 4214SOL    HW224105   4.675   3.895   3.513 -0.6227 -0.6057 -0.1865
 4215SOL     OW24106   2.104   1.952   8.644  0.1515 -0.0234 -0.3367
 4215SOL    HW124107   2.179   1.900   8.617 -0.2462 -0.7935  0.0415
 4215SOL    HW224108   2.132   2.036   8.606  0.9359  0.0489  0.4037
 4216SOL     OW24109   3.424   0.489   2.818 -0.1951 -0.6880 -0.6918
 4216SOL    HW124110   3.476   0.412   2.793  0.6802 -0.4004  0.2515
 4216SOL    HW224111   3.425   0.486   2.913 -0.2147 -3.8161 -0.7842
 4217SOL     OW24112   1.448   1.527   6.529 -0.3746  0.3572  0.2649
 4217SOL    HW124113   1.524   1.516   6.471 -1.6298  0.8821 -1.4608
 4217SOL    HW224114   1.387   1.475   6.476  0.1117  1.9460 -1.8779
 4218SOL     OW24115   1.519   3.257   3.172  0.4956  0.3949 -0.0210
 4218SOL    HW124116   1.459   3.229   3.241 -0.2695  2.1437  0.0181
 4218SOL    HW224117   1.559   3.169   3.169  1.0424  0.6335  0.2681
 4219SOL     OW24118   2.942   4.104  11.281  0.4704 -0.1045  0.5882
 4219SOL    HW124119   2.936   4.066  11.369  0.9130  0.3867  0.8317
 4219SOL    HW224120   2.858   4.079  11.243  0.5811  1.5793 -0.7545
 4220SOL     OW24121   1.377   3.129  14.922  0.0304 -0.5718  0.1040
 4220SOL    HW124122   1.330   3.049  14.948 -1.6727  0.6713  0.8521
 4220SOL    HW224123   1.324   3.190  14.973  0.7699 -1.2602  1.7382
 4221SOL     OW24124   0.602   1.905   7.950  0.6453 -0.3259  0.0152
 4221SOL    HW124125   0.655   1.856   8.013 -0.5717  0.7210  1.8359
 4221SOL    HW224126   0.653   1.986   7.943 -1.0195  0.6573 -0.7109
 4222SOL     OW24127   3.004   4.202   4.895  0.2480  0.3650  0.4213
 4222SOL    HW124128   3.098   4.194   4.908  0.3908 -0.3540 -1.1180
 4222SOL    HW224129   2.992   4.291   4.929  2.7498  0.5801  0.6671
 4223SOL     OW24130   0.153   4.705  11.774  0.0500  0.1404 -0.1884
 4223SOL    HW124131   0.131   0.002  11.866 -1.0522 -1.1191 -0.1839
 4223SOL    HW224132   0.178   0.072  11.750 -0.0313  1.2831  4.0000
 4224SOL     OW24133   4.661   0.968   9.059  0.1546 -0.0359 -0.2362
 4224SOL    HW124134   4.694   0.899   9.001 -1.0509 -1.2521  0.5380
 4224SOL    HW224135   0.016   0.996   9.106  0.1405 -2.2161  1.0907
 4225SOL     OW24136   4.158   3.452  10.025 -0.0206 -0.2440  0.3596
 4225SOL    HW124137   4.131   3.432   9.935  0.4406  0.8152 -0.0160
 4225SOL    HW224138   4.097   3.524  10.043 -1.8805 -2.0517  1.3021
 4226SOL     OW24139   2.579   0.466   5.996 -0.2287  0.3603  0.0027
 4226SOL    HW124140   2.550   0.438   5.908 -0.3895  0.2908  0.0773
 4226SOL    HW224141   2.492   0.492   6.028  0.9534  0.8926  2.6935
 4227SOL     OW24142   1.748   3.872  12.860 -0.0051 -0.4983  0.1669
 4227SOL    HW124143   1.785   3.785  12.870  0.9300 -0.2124 -0.7695
 4227SOL    HW224144   1.657   3.849  12.880 -1.3886  2.3449 -2.6698
 4228SOL     OW24145   1.639   1.402   2.660  0.0263 -0.2270  0.2433
 4228SOL    HW124146   1.640   1.389   2.755  0.2828 -1.9979 -0.0074
 4228SOL    HW224147   1.557   1.451   2.661  0.3957  0.3539  1.6392
 4229SOL     OW24148   2.074   1.252   5.330 -0.0060  0.6034  0.3494
 4229SOL    HW124149   2.107   1.163   5.315 -1.1960 -0.0521  1.6513
 4229SOL    HW224150   1.993   1.227   5.375 -1.3752  1.7965 -1.4476
 4230SOL     OW24151   1.581   3.373  12.958  0.0842  0.1372  0.2401
 4230SOL    HW124152   1.674   3.351  12.956  0.1452  0.3503  0.9407
 4230SOL    HW224153   1.580   3.436  12.886  1.0318 -0.6604 -0.4760
 4231SOL     OW24154   0.194   2.030  12.790 -0.4600  0.2975 -0.0763
 4231SOL    HW124155   0.101   2.055  12.791 -0.5114  0.1286 -0.3607
 4231SOL    HW224156   0.216   2.008  12.880  0.2784  1.5352  0.0375
 4232SOL     OW24157   1.761   4.655   2.925 -0.0358 -0.7778 -0.0773
 4232SOL    HW124158   1.828   4.600   2.886  0.9099  0.4039 -0.1372
 4232SOL    HW224159   1.713   4.675   2.845  3.1012 -3.0962 -2.5600
 4233SOL     OW24160   0.869   0.483   0.773 -0.0870 -0.5854  0.1407
 4233SOL    HW124161   0.921   0.436   0.708 -2.2296  0.4696 -2.3740
 4233SOL    HW224162   0.852   0.408   0.829  2.3038  0.0445  1.7110
 4234SOL     OW24163   1.797   1.306   7.730 -0.2283  0.0072  0.5702
 4234SOL    HW124164   1.705   1.282   7.739 -0.5647  0.2357 -2.2760
 4234SOL    HW224165   1.796   1.401   7.740 -0.3680  0.0287  0.3372
 4235SOL     OW24166   0.909   0.300   5.062  0.0531 -0.3085  0.5402
 4235SOL    HW124167   0.975   0.314   5.130 -0.8440  0.8579  1.1809
 4235SOL    HW224168   0.845   0.241   5.101 -0.4991 -1.8679 -2.6629
 4236SOL     OW24169   1.813   4.056   8.790  0.4474 -0.5339 -0.9336
 4236SOL    HW124170   1.776   4.122   8.731  0.3228  0.1787 -0.0733
 4236SOL    HW224171   1.747   3.990   8.810  0.8898  0.0726  2.5973
 4237SOL     OW24172   3.132   1.370   4.349 -0.2470  0.2619  0.1278
 4237SOL    HW124173   3.175   1.351   4.432 -2.5775  0.0854  1.2942
 4237SOL    HW224174   3.050   1.411   4.376  0.7148 -0.0119  3.4280
 4238SOL     OW24175   4.048   3.302  11.724 -0.1848  0.5328  0.4331
 4238SOL    HW124176   4.077   3.305  11.815  1.6277  0.6038 -0.1466
 4238SOL    HW224177   4.134   3.304  11.681 -0.0683 -0.4435  0.6205
 4239SOL     OW24178   2.933   0.922   9.629  0.0866 -0.1734  0.3548
 4239SOL    HW124179   2.840   0.927   9.605 -0.1978  1.4438  1.7591
 4239SOL    HW224180   2.962   0.836   9.600  0.2344 -0.4286  1.2528
 4240SOL     OW24181   4.370   3.997   4.371  0.1318 -0.2908  0.4694
 4240SOL    HW124182   4.364   4.028   4.462 -0.9089  0.4837  0.1382
 4240SOL    HW224183   4.287   3.948   4.378  0.9221 -1.6251  0.5141
 4241SOL     OW24184   2.312   0.023   4.161 -0.4995 -0.4232 -0.3076
 4241SOL    HW124185   2.259   4.682   4.114  0.0530 -1.0206 -0.1138
 4241SOL    HW224186   2.261   0.094   4.122 -1.7495 -0.7390  0.7519
 4242SOL     OW24187   1.353   4.603   4.652 -0.3733 -0.1927  0.2208
 4242SOL    HW124188   1.345   4.686   4.697 -1.0192 -0.0200 -0.2006
 4242SOL    HW224189   1.311   4.546   4.716  0.0150 -2.1400 -1.2511
 4243SOL     OW24190   0.363   0.864   0.027  0.6922 -0.0291 -0.4875
 4243SOL    HW124191   0.395   0.905  17.640  0.9542 -1.0895 -0.9152
 4243SOL    HW224192   0.442   0.875   0.081 -0.7200  2.2164  1.1457
 4244SOL     OW24193   2.699   0.682   4.529 -0.4247  0.5120 -0.0863
 4244SOL    HW124194   2.678   0.626   4.454  0.7212  1.6548 -1.2662
 4244SOL    HW224195   2.673   0.769   4.499 -1.1898 -0.3822 -1.9997
 4245SOL     OW24196   2.422   0.195   2.858  0.2433  0.2027 -0.0298
 4245SOL    HW124197   2.460   0.174   2.943 -0.2036  2.7500  0.7924
 4245SOL    HW224198   2.451   0.120   2.807 -3.1500  0.3930 -2.2161
 4246SOL     OW24199   3.234   2.825   4.394  0.3812 -0.0965  0.1945
 4246SOL    HW124200   3.241   2.909   4.347 -0.2956  0.1249  0.4878
 4246SOL    HW224201   3.181   2.766   4.342  1.2909 -1.9008  1.3246
 4247SOL     OW24202   0.266   4.211   7.190 -0.0843 -0.0988 -0.1625
 4247SOL    HW124203   0.227   4.204   7.277 -0.5478 -1.1650 -0.4558
 4247SOL    HW224204   0.225   4.146   7.134 -3.7060  1.1028  1.1037
 4248SOL     OW24205   1.803   2.683   6.241 -0.4041 -0.3151  0.0396
 4248SOL    HW124206   1.821   2.714   6.152  0.3991 -0.0082  0.3095
 4248SOL    HW224207   1.858   2.604   6.237 -2.7132 -1.9699  0.7968
 4249SOL     OW24208   1.517   3.438   3.507  0.1630 -0.3449  0.4384
 4249SOL    HW124209   1.530   3.415   3.599  2.0138  0.8719  0.4767
 4249SOL    HW224210   1.427   3.405   3.504  0.1195 -0.0663 -1.4656
 4250SOL     OW24211   3.804   1.017   4.472  0.2245 -0.1288 -1.1481
 4250SOL    HW124212   3.849   0.988   4.551  0.1191  2.2169 -0.2196
 4250SOL    HW224213   3.782   0.935   4.430 -0.8863  0.1059 -1.0068
 4251SOL     OW24214   2.166   1.912   9.480  0.7746  0.0917  0.2016
 4251SOL    HW124215   2.222   1.989   9.479 -1.4504  1.6658 -1.0025
 4251SOL    HW224216   2.193   1.865   9.559 -1.4183 -0.0533  0.8794
 4252SOL     OW24217   0.310   1.521   9.779 -0.0025 -0.3896  0.3881
 4252SOL    HW124218   0.344   1.451   9.836 -0.0038 -1.3964 -0.8600
 4252SOL    HW224219   0.389   1.571   9.762 -2.2400  1.9936 -2.9078
 4253SOL     OW24220   2.659   0.546   1.827  0.0266 -0.5288 -0.3767
 4253SOL    HW124221   2.588   0.506   1.878 -0.0243  0.4546  0.3013
 4253SOL    HW224222   2.630   0.515   1.740  1.2086 -0.8629 -0.6469
 4254SOL     OW24223   2.906   0.734   0.709  0.8375  0.0125  0.2293
 4254SOL    HW124224   2.840   0.677   0.671  1.3372  0.8129 -1.8446
 4254SOL    HW224225   2.975   0.669   0.724  0.4789 -0.3771  0.1750
 4255SOL     OW24226   2.869   2.251  16.494 -0.5181 -0.1324 -0.9539
 4255SOL    HW124227   2.881   2.159  16.472  0.5448 -0.0855 -0.5603
 4255SOL    HW224228   2.774   2.260  16.482 -0.8494  2.4445  3.4505
 4256SOL     OW24229   2.998   2.247   6.393 -0.4848  0.1602  0.0499
 4256SOL    HW124230   3.062   2.198   6.342  1.1381  1.4664  0.8459
 4256SOL    HW224231   3.042   2.332   6.392 -2.1916  1.0443 -0.9446
 4257SOL     OW24232   1.437   0.597  15.485 -0.5742  0.0827  0.9722
 4257SOL    HW124233   1.407   0.522  15.433  2.6441 -0.9472  0.6413
 4257SOL    HW224234   1.450   0.662  15.416 -2.8541  0.0805  0.5339
 4258SOL     OW24235   0.350   1.391  16.884  0.0131 -0.3751 -0.2083
 4258SOL    HW124236   0.312   1.308  16.854 -2.0311  0.8288 -0.9793
 4258SOL    HW224237   0.401   1.415  16.807  1.2951 -2.7680 -0.1193
 4259SOL     OW24238   3.486   3.007  12.934 -0.1020  0.9295  0.5202
 4259SOL    HW124239   3.579   2.985  12.931 -0.6002 -1.1247 -0.1540
 4259SOL    HW224240   3.472   3.040  12.845  0.4993  1.8550  0.7700
 4260SOL     OW24241   1.902   0.296   2.671 -0.1250  0.9834 -0.0547
 4260SOL    HW124242   1.893   0.332   2.759  1.9147  2.2339 -0.3444
 4260SOL    HW224243   1.809   0.283   2.652 -0.7349  0.3281  3.4255
 4261SOL     OW24244   0.630   4.268   4.720  0.0792 -0.3432  0.3557
 4261SOL    HW124245   0.708   4.323   4.708  2.2055 -3.0517  1.7234
 4261SOL    HW224246   0.579   4.322   4.780 -1.1718 -1.0131 -0.0962
 4262SOL     OW24247   1.303   2.816   7.902 -0.1383  0.5212  0.1016
 4262SOL    HW124248   1.231   2.752   7.905  0.4400 -0.1574 -0.6029
 4262SOL    HW224249   1.349   2.797   7.984 -0.5880 -1.4755 -0.0898
 4263SOL     OW24250   1.500   0.561   5.617  0.0559  0.4565  0.2594
 4263SOL    HW124251   1.463   0.603   5.694 -1.7004 -2.5613  1.0625
 4263SOL    HW224252   1.487   0.468   5.636 -0.5714  0.3524 -0.6974
 4264SOL     OW24253   1.392   2.877   7.276  0.1391 -0.2172  0.1602
 4264SOL    HW124254   1.439   2.833   7.204  1.2295 -0.3248  0.9374
 4264SOL    HW224255   1.355   2.800   7.320  0.5278 -0.8996 -0.7078
 4265SOL     OW24256   0.850   1.583   9.588 -0.3517 -0.2183  0.0133
 4265SOL    HW124257   0.835   1.677   9.579 -0.8479 -0.0415  2.5265
 4265SOL    HW224258   0.870   1.550   9.501  1.7819  3.2127 -0.7786
 4266SOL     OW24259   3.552   1.392   5.368  0.5727  0.1506  0.3922
 4266SOL    HW124260   3.560   1.473   5.318  0.8353 -0.4019 -0.4547
 4266SOL    HW224261   3.642   1.373   5.392  0.0253 -0.5475  1.9196
 4267SOL     OW24262   0.515   4.443   5.623  0.1342  0.2345 -0.3125
 4267SOL    HW124263   0.501   4.454   5.717 -2.0952  0.9021 -0.7397
 4267SOL    HW224264   0.611   4.439   5.623  0.1173 -0.2412 -0.1084
 4268SOL     OW24265   4.302   2.214   2.265  0.1335 -0.1387  0.1182
 4268SOL    HW124266   4.310   2.299   2.222  0.5120  0.5285  1.5006
 4268SOL    HW224267   4.221   2.186   2.223  0.3898  0.5903 -0.8599
 4269SOL     OW24268   0.990   2.759   3.786 -0.4130 -0.1006  0.8765
 4269SOL    HW124269   1.078   2.739   3.757 -0.8144 -0.5374 -0.0226
 4269SOL    HW224270   0.943   2.745   3.704 -0.2133  1.9838  0.3904
 4270SOL     OW24271   3.155   2.643  12.400  0.2970 -0.0810  0.1712
 4270SOL    HW124272   3.122   2.729  12.373  1.3478  0.7771  1.6268
 4270SOL    HW224273   3.236   2.658  12.351  0.0814 -0.3170 -0.2555
 4271SOL     OW24274   2.352   4.317  16.043  0.0824 -0.4439 -0.1165
 4271SOL    HW124275   2.302   4.348  16.119 -0.4907 -2.9833  0.5449
 4271SOL    HW224276   2.289   4.330  15.972  0.0374 -0.6129 -0.1083
 4272SOL     OW24277   0.579   3.149  14.941  0.1687 -0.1383  0.3231
 4272SOL    HW124278   0.489   3.154  14.974  1.1144 -1.6228  3.1139
 4272SOL    HW224279   0.618   3.160  15.028  1.1156  1.6776 -0.3192
 4273SOL     OW24280   2.984   1.731  17.623  0.2117 -0.1595 -0.2170
 4273SOL    HW124281   2.973   1.636  17.619 -0.3198 -0.1871  2.2590
 4273SOL    HW224282   2.905   1.766  17.580  0.4583  1.5576  0.7640
 4274SOL     OW24283   0.713   4.644   7.780  0.3083 -0.1142  0.0246
 4274SOL    HW124284   0.675   4.557   7.770 -0.6790  0.3151  0.0594
 4274SOL    HW224285   0.715   4.671   7.872  0.3806 -0.7482  0.2064
 4275SOL     OW24286   3.751   4.629  16.129 -0.2036  0.0033  0.0095
 4275SOL    HW124287   3.669   4.629  16.080  0.0269  2.0298 -0.3838
 4275SOL    HW224288   3.807   4.653  16.055 -0.4134  0.9546  0.1640
 4276SOL     OW24289   2.260   3.921   2.045 -0.5850  0.0225  0.1702
 4276SOL    HW124290   2.325   3.977   2.088 -1.0293 -2.0636  3.6168
 4276SOL    HW224291   2.307   3.838   2.048  1.0696  0.8989 -1.8869
 4277SOL     OW24292   1.466   0.130   5.023  0.0041 -0.3661 -0.2963
 4277SOL    HW124293   1.553   0.156   4.992  0.3937  1.4801  2.3172
 4277SOL    HW224294   1.472   0.036   5.007 -0.3207 -0.6998  1.5534
 4278SOL     OW24295   4.465   1.445   7.545 -0.0371 -0.3048  0.0327
 4278SOL    HW124296   4.443   1.461   7.453  2.4201  0.9718 -0.3252
 4278SOL    HW224297   4.401   1.378   7.569 -0.0919 -1.4628 -3.4314
 4279SOL     OW24298   0.125   2.682   7.821 -0.0204 -0.2983  0.5613
 4279SOL    HW124299   0.085   2.675   7.907 -1.2039  1.3674  0.1278
 4279SOL    HW224300   0.050   2.719   7.775  0.4646  0.7043  0.5875
 4280SOL     OW24301   1.229   0.410   0.159  0.2584 -0.2817 -0.2106
 4280SOL    HW124302   1.224   0.315   0.158 -0.3394 -0.2543  1.2500
 4280SOL    HW224303   1.325   0.415   0.158  0.0147  4.7121 -0.0557
 4281SOL     OW24304   0.077   4.489   8.289 -0.0342  0.1864  0.5101
 4281SOL    HW124305   0.062   4.504   8.382  0.4587  2.5994  0.2038
 4281SOL    HW224306   0.158   4.439   8.284 -0.4133 -0.3930  0.1848
 4282SOL     OW24307   1.849   0.247   4.573  0.0314 -0.1773  0.1337
 4282SOL    HW124308   1.907   0.261   4.498 -1.0105  1.1950 -0.4137
 4282SOL    HW224309   1.909   0.227   4.645 -2.0020  0.5556  2.0178
 4283SOL     OW24310   3.987   4.005  17.529 -0.1876  0.7332 -0.5694
 4283SOL    HW124311   3.965   3.964  17.445  2.2795 -1.1047 -0.3033
 4283SOL    HW224312   3.897   4.027  17.553 -0.2108 -0.0902  0.0782
 4284SOL     OW24313   3.946   2.027  13.289 -0.1178  0.1276 -0.5014
 4284SOL    HW124314   3.895   2.104  13.265  0.0568  1.3432  2.9598
 4284SOL    HW224315   3.909   1.961  13.230 -0.3696  1.3062 -1.6486
 4285SOL     OW24316   4.515   0.321   8.651  0.4516 -0.3738  0.2393
 4285SOL    HW124317   4.519   0.227   8.663 -0.5295 -0.3594  0.7418
 4285SOL    HW224318   4.488   0.337   8.742 -0.0474  1.6700 -0.2582
 4286SOL     OW24319   1.428   2.700   0.754 -0.0911 -0.0556 -0.1200
 4286SOL    HW124320   1.426   2.699   0.658  0.8710  1.2831 -0.1490
 4286SOL    HW224321   1.390   2.784   0.780  1.6166  0.7754 -0.3185
 4287SOL     OW24322   4.322   2.822   1.908  0.9957 -0.2711 -0.4236
 4287SOL    HW124323   4.288   2.904   1.871  2.0609 -0.9777 -3.0239
 4287SOL    HW224324   4.414   2.834   1.883  1.2597 -0.7523  0.3176
 4288SOL     OW24325   0.856   4.019   2.533  0.1742  0.1252  0.3299
 4288SOL    HW124326   0.857   4.115   2.522  1.2535 -0.0797 -1.5005
 4288SOL    HW224327   0.886   3.981   2.450 -0.2683 -1.6146  0.9852
 4289SOL     OW24328   0.455   1.449   8.437  0.2366 -0.4965 -0.0532
 4289SOL    HW124329   0.406   1.399   8.373  1.4146 -1.9421  0.1745
 4289SOL    HW224330   0.540   1.452   8.393 -0.8698  1.9405 -2.0381
 4290SOL     OW24331   2.479   1.469  10.373  0.1834  0.2721 -0.1094
 4290SOL    HW124332   2.507   1.378  10.376 -0.1466  0.2240  1.8443
 4290SOL    HW224333   2.392   1.467  10.413 -0.0746 -0.4153 -0.7205
 4291SOL     OW24334   3.141   0.206   8.351  0.2214  0.2402 -0.7398
 4291SOL    HW124335   3.202   0.245   8.289  2.1087 -0.0952  0.8758
 4291SOL    HW224336   3.078   0.168   8.290 -0.2119 -1.0281  0.4825
 4292SOL     OW24337   2.957   2.584   6.227  0.2328  0.0012 -0.8658
 4292SOL    HW124338   3.013   2.659   6.244  0.4177 -0.3653  0.1354
 4292SOL    HW224339   3.011   2.542   6.160 -1.7862 -2.1080 -1.1957
 4293SOL     OW24340   1.142   3.808   0.620  0.3729  0.2328 -0.2817
 4293SOL    HW124341   1.119   3.733   0.566 -1.1644  0.4581  0.0734
 4293SOL    HW224342   1.066   3.819   0.676 -1.0191  0.3245 -2.1909
 4294SOL     OW24343   1.596   4.641   5.441 -0.1994  0.1313 -0.1886
 4294SOL    HW124344   1.564   4.555   5.411 -1.2384 -0.2658  2.0267
 4294SOL    HW224345   1.591   4.628   5.536  0.6153 -0.8141 -0.2779
 4295SOL     OW24346   3.704   1.213   2.697  0.1609  0.5709  0.1107
 4295SOL    HW124347   3.694   1.204   2.603 -2.0342  0.5697  0.3575
 4295SOL    HW224348   3.644   1.144   2.726  0.4685  0.0094 -0.5909
 4296SOL     OW24349   0.246   3.341   3.531 -0.2948  0.3502  0.0414
 4296SOL    HW124350   0.207   3.255   3.517  0.2494  0.0914  0.1586
 4296SOL    HW224351   0.209   3.395   3.461 -2.2697  2.0015  2.3068
 4297SOL     OW24352   1.956   0.800  11.301  0.4642  0.8921 -0.5022
 4297SOL    HW124353   1.986   0.883  11.340  0.8841 -0.3173  1.7218
 4297SOL    HW224354   1.877   0.790  11.354  1.3421  3.0659  1.2568
 4298SOL     OW24355   0.517   0.537   6.527 -0.1675 -0.1511 -0.5004
 4298SOL    HW124356   0.480   0.621   6.502 -0.4183 -0.2970 -0.6163
 4298SOL    HW224357   0.519   0.554   6.622  0.8009  0.5420 -0.6428
 4299SOL     OW24358   0.104   2.950  13.240  0.1643 -0.2726 -0.4492
 4299SOL    HW124359   0.044   2.968  13.312 -0.4688 -1.6061 -0.6498
 4299SOL    HW224360   0.177   2.899  13.275 -0.9739 -2.0362 -0.6440
 4300SOL     OW24361   1.349   1.711  10.110  0.7845 -0.0010  0.0380
 4300SOL    HW124362   1.267   1.674  10.144 -0.2657 -0.8239 -3.3595
 4300SOL    HW224363   1.369   1.668  10.026 -1.0357  2.9694 -1.9160
 4301SOL     OW24364   2.590   3.989   6.678 -0.5665  0.0841 -0.5168
 4301SOL    HW124365   2.635   3.905   6.664  0.0967  0.0855  1.5533
 4301SOL    HW224366   2.549   3.969   6.763  2.7537  0.8295  1.2716
 4302SOL     OW24367   0.285   4.348  12.869 -0.1430 -0.1019  0.2508
 4302SOL    HW124368   0.190   4.357  12.868 -0.3460 -2.4669  0.3246
 4302SOL    HW224369   0.309   4.378  12.956 -0.4926  0.0265  0.3028
 4303SOL     OW24370   1.304   0.235   7.840 -0.2063  0.0673 -0.9306
 4303SOL    HW124371   1.237   0.291   7.800  0.7796  0.5844 -1.8755
 4303SOL    HW224372   1.353   0.308   7.879  1.3686 -0.9707 -1.0004
 4304SOL     OW24373   1.373   0.659   2.460 -0.5506  0.3889 -0.4833
 4304SOL    HW124374   1.407   0.647   2.371  1.6776  0.9716  0.2755
 4304SOL    HW224375   1.454   0.649   2.510 -0.8220  0.2292 -0.0816
 4305SOL     OW24376   3.914   2.489   8.190  0.1530  0.1545  0.1570
 4305SOL    HW124377   3.971   2.488   8.113 -0.8761  2.4416 -0.6355
 4305SOL    HW224378   3.853   2.421   8.162  2.5815 -1.4274 -1.2071
 4306SOL     OW24379   1.658   2.890   3.436 -0.1327  0.4120  0.4378
 4306SOL    HW124380   1.650   2.966   3.495  0.1057  1.1937 -0.5251
 4306SOL    HW224381   1.728   2.844   3.482 -0.6589  0.3702  1.1949
 4307SOL     OW24382   2.274   2.885   2.605  0.3217 -0.1710  1.1127
 4307SOL    HW124383   2.208   2.931   2.656 -0.4353  0.5562 -0.5064
 4307SOL    HW224384   2.218   2.847   2.537  1.3510  1.0091 -0.3812
 4308SOL     OW24385   2.072   0.756   2.372  0.6156  0.5393  0.7288
 4308SOL    HW124386   1.986   0.720   2.350 -0.1625  2.4964  0.5769
 4308SOL    HW224387   2.065   0.752   2.467  1.0279 -0.1435  0.7368
 4309SOL     OW24388   4.717   2.644   4.579 -0.5732 -0.1264  0.3630
 4309SOL    HW124389   4.635   2.670   4.538 -1.0691 -0.1098  1.3479
 4309SOL    HW224390   0.008   2.563   4.531 -0.7401  0.1362 -0.1209
 4310SOL     OW24391   3.109   2.580   1.642 -0.4440 -0.1232 -0.9040
 4310SOL    HW124392   3.077   2.668   1.625  3.7595  1.6546  0.4027
 4310SOL    HW224393   3.205   2.586   1.636 -0.3353  1.7996  2.6793
 4311SOL     OW24394   4.306   4.718   4.963 -0.5854  0.1290 -0.2298
 4311SOL    HW124395   4.337   4.716   4.873  0.4205 -3.0269  0.1696
 4311SOL    HW224396   4.267   0.082   4.971 -0.9901 -0.0010 -0.7616
 4312SOL     OW24397   4.040   2.502  15.105 -0.2713  0.3242  0.8406
 4312SOL    HW124398   4.095   2.425  15.115 -0.7503 -0.3527 -1.7290
 4312SOL    HW224399   4.062   2.518  15.013  0.2663  1.5305  1.1724
 4313SOL     OW24400   1.337   2.445   3.971 -0.1458  0.0152  0.3057
 4313SOL    HW124401   1.253   2.490   3.987  0.2370  0.3053  1.4810
 4313SOL    HW224402   1.397   2.503   4.017  0.2363 -0.4944  0.4309
 4314SOL     OW24403   2.206   2.438  11.812  0.3229  0.8357 -0.1885
 4314SOL    HW124404   2.177   2.509  11.754 -1.8218 -1.6856 -2.2117
 4314SOL    HW224405   2.257   2.483  11.879  0.2866  0.3289  0.1726
 4315SOL     OW24406   0.840   2.399   5.538 -0.4871 -0.6519 -0.0280
 4315SOL    HW124407   0.889   2.435   5.464  1.7517 -1.5744  1.0176
 4315SOL    HW224408   0.774   2.340   5.501 -0.5308 -0.0739 -0.8702
 4316SOL     OW24409   2.840   0.259   2.205  0.3244  0.1463 -0.1658
 4316SOL    HW124410   2.929   0.282   2.178 -0.1034  1.0940 -0.7832
 4316SOL    HW224411   2.800   0.265   2.118  1.1496 -0.0646 -0.5590
 4317SOL     OW24412   3.372   1.627   0.480 -0.2851  0.1274 -0.2000
 4317SOL    HW124413   3.292   1.673   0.456 -1.5448 -2.1760 -0.3266
 4317SOL    HW224414   3.380   1.559   0.413 -2.3282  0.5037 -0.8180
 4318SOL     OW24415   3.868   2.864   8.144  0.3841 -0.0249 -0.1239
 4318SOL    HW124416   3.873   2.921   8.067  1.0262 -1.6397 -1.2665
 4318SOL    HW224417   3.922   2.787   8.125  1.0316  0.2413  0.6556
 4319SOL     OW24418   3.063   3.651   4.848  0.3126  0.1520  0.0848
 4319SOL    HW124419   3.038   3.681   4.760 -0.7250 -1.2069 -0.0814
 4319SOL    HW224420   3.068   3.735   4.894  1.4841 -0.7895  1.6304
 4320SOL     OW24421   4.622   3.730   0.255 -0.3652 -0.3181 -0.3990
 4320SOL    HW124422   4.612   3.822   0.232  1.2297  0.0225  0.2317
 4320SOL    HW224423   4.564   3.719   0.330  1.1968  0.8543  0.9872
 4321SOL     OW24424   0.645   3.543   7.257  0.1013  0.5495 -0.0308
 4321SOL    HW124425   0.587   3.471   7.231  2.0364 -1.3648  0.9654
 4321SOL    HW224426   0.590   3.574   7.329 -1.2322 -0.8464 -0.4442
 4322SOL     OW24427   1.533   3.134   6.807  0.3566  0.3990 -0.1791
 4322SOL    HW124428   1.602   3.087   6.761 -0.7759 -1.0436 -0.4313
 4322SOL    HW224429   1.572   3.163   6.890 -1.1660 -3.3741  1.8956
 4323SOL     OW24430   2.301   0.042   2.008  0.4780 -0.2812 -0.0563
 4323SOL    HW124431   2.325   0.092   1.930 -0.8340  1.0590  0.3958
 4323SOL    HW224432   2.321   0.108   2.074  0.6612  1.0992 -1.4771
 4324SOL     OW24433   2.779   1.922   4.342 -0.2522 -0.0179  0.2839
 4324SOL    HW124434   2.853   1.868   4.313 -1.0084 -1.8732  1.8007
 4324SOL    HW224435   2.795   1.927   4.436  1.1483  1.3596 -0.0325
 4325SOL     OW24436   0.995   2.633   1.533 -0.7155 -0.2205 -0.1266
 4325SOL    HW124437   1.075   2.613   1.581  1.8112  2.3450 -3.2279
 4325SOL    HW224438   1.023   2.680   1.455  1.4264 -1.7665 -0.2789
 4326SOL     OW24439   3.960   0.857  10.489 -0.3667  0.0466 -0.3431
 4326SOL    HW124440   3.894   0.794  10.461 -0.4767 -0.0772  0.2103
 4326SOL    HW224441   3.921   0.887  10.571 -0.1631  0.7383 -0.5029
 4327SOL     OW24442   2.654   0.412   6.487  0.2715  0.3902  0.0374
 4327SOL    HW124443   2.572   0.404   6.438 -1.0080  1.1239  2.0334
 4327SOL    HW224444   2.664   0.501   6.521 -2.8921  0.4847  0.7458
 4328SOL     OW24445   1.490   1.673   6.939  0.0963 -0.1912  0.7308
 4328SOL    HW124446   1.451   1.737   6.880 -3.6485 -1.8842  1.3835
 4328SOL    HW224447   1.573   1.716   6.958 -0.2891  1.5270 -1.5522
 4329SOL     OW24448   1.193   3.775  11.484 -0.6996  0.0394  0.1287
 4329SOL    HW124449   1.109   3.760  11.528 -0.3922  2.1486  1.4312
 4329SOL    HW224450   1.205   3.704  11.422 -3.3267 -1.2637  1.1139
 4330SOL     OW24451   2.683   1.289   4.052  0.0623  0.0629  0.0682
 4330SOL    HW124452   2.605   1.300   4.106 -0.9804  0.7831 -1.6079
 4330SOL    HW224453   2.655   1.357   3.992  1.7315  2.4904  2.0215
 4331SOL     OW24454   3.260   3.982   6.789  0.0496  0.3977 -0.3390
 4331SOL    HW124455   3.242   3.903   6.738 -0.2043  0.2640 -0.0423
 4331SOL    HW224456   3.322   4.023   6.729  2.7588  0.1947  2.3166
 4332SOL     OW24457   4.572   2.148  16.413 -0.5225  0.1295  0.3883
 4332SOL    HW124458   4.541   2.154  16.322 -1.2571  2.0412  0.7525
 4332SOL    HW224459   4.572   2.242  16.432  0.6459  0.1700  0.1841
 4333SOL     OW24460   0.717   4.017   0.742 -0.0387  0.3937 -0.1660
 4333SOL    HW124461   0.653   3.966   0.791 -0.6528  0.5101 -0.8443
 4333SOL    HW224462   0.669   4.041   0.662 -1.3239 -4.2093 -0.7825
 4334SOL     OW24463   1.174   1.519  14.322 -0.3249 -0.2636  0.1959
 4334SOL    HW124464   1.148   1.514  14.415  0.5607  2.2315  0.5631
 4334SOL    HW224465   1.100   1.568  14.288  1.5446  2.0125 -0.5400
 4335SOL     OW24466   4.461   3.021  16.338 -0.2468  0.3174 -0.3309
 4335SOL    HW124467   4.367   3.008  16.350 -0.1436 -0.3997 -0.2821
 4335SOL    HW224468   4.473   3.110  16.306  0.0244 -0.3824 -2.2045
 4336SOL     OW24469   2.880   1.452   2.806  0.2236 -0.4786  0.3558
 4336SOL    HW124470   2.942   1.502   2.752 -0.4383  0.9717  0.9348
 4336SOL    HW224471   2.946   1.409   2.861  0.9419 -0.2752 -0.3453
 4337SOL     OW24472   4.569   2.442   2.214 -0.1211  0.4566  0.1641
 4337SOL    HW124473   4.647   2.486   2.180  0.5625 -0.0600  1.0929
 4337SOL    HW224474   4.561   2.379   2.142  0.4246  1.4096 -0.7341
 4338SOL     OW24475   0.518   0.203   5.772 -0.5520  0.1317 -0.3107
 4338SOL    HW124476   0.530   0.296   5.795 -0.0470  0.8858 -3.6302
 4338SOL    HW224477   0.502   0.202   5.678 -0.7754  0.8517 -0.2831
 4339SOL     OW24478   4.019   2.045   5.732 -0.3923 -0.1004  0.2817
 4339SOL    HW124479   4.081   1.973   5.728 -1.7048 -1.3420  2.1441
 4339SOL    HW224480   4.061   2.109   5.675 -0.5221  0.8627  1.2638
 4340SOL     OW24481   1.180   1.329  12.419  0.0094 -0.5090 -0.0972
 4340SOL    HW124482   1.173   1.375  12.336 -0.7472  0.4990  0.5275
 4340SOL    HW224483   1.256   1.371  12.461 -1.4210  0.2907  1.6683
 4341SOL     OW24484   0.428   0.282   3.509  0.1804  0.4565  0.1186
 4341SOL    HW124485   0.370   0.245   3.576 -1.9862 -1.1887 -2.6318
 4341SOL    HW224486   0.362   0.342   3.474 -2.3949 -3.6630 -2.1263
 4342SOL     OW24487   2.998   1.659   5.557  0.1402  0.2433 -0.1329
 4342SOL    HW124488   2.940   1.735   5.557  0.3726  0.4199 -0.1112
 4342SOL    HW224489   3.015   1.664   5.651 -1.6344 -0.4571  0.2172
 4343SOL     OW24490   3.568   2.171   5.777  0.1826  0.0193 -0.0521
 4343SOL    HW124491   3.578   2.159   5.683  2.0337  1.3846 -0.0427
 4343SOL    HW224492   3.630   2.107   5.811 -1.4311 -0.1711  2.6012
 4344SOL     OW24493   0.638   2.788   9.587 -0.1328  0.5996 -0.2548
 4344SOL    HW124494   0.573   2.724   9.616  0.0887  1.1287  1.4018
 4344SOL    HW224495   0.684   2.792   9.670 -1.2771 -1.9997  0.5162
 4345SOL     OW24496   4.457   1.400   6.675 -0.1137  0.1855  0.1289
 4345SOL    HW124497   4.382   1.371   6.623  0.6720 -4.5101  1.6925
 4345SOL    HW224498   4.460   1.496   6.670  1.1255  0.2327  1.7207
 4346SOL     OW24499   1.556   4.041  11.786 -0.1775  0.5068  0.5529
 4346SOL    HW124500   1.554   4.007  11.876  0.1022  2.2069  1.2095
 4346SOL    HW224501   1.552   3.960  11.736  2.1780  1.2175 -0.7703
 4347SOL     OW24502   3.712   0.505   6.367 -0.5644  0.3851 -0.3018
 4347SOL    HW124503   3.634   0.499   6.312  0.0208  1.8782 -1.2802
 4347SOL    HW224504   3.702   0.591   6.408  2.1517  0.2747  0.5881
 4348SOL     OW24505   2.355   4.578   1.587 -0.6415  0.5822 -0.1507
 4348SOL    HW124506   2.284   4.643   1.586 -1.6516 -0.4793  2.0300
 4348SOL    HW224507   2.398   4.607   1.506  0.0915  0.8290  0.3218
 4349SOL     OW24508   2.968   4.273  10.411 -0.5790  0.4517 -0.2341
 4349SOL    HW124509   3.024   4.276  10.333 -0.2449  0.6880  0.0131
 4349SOL    HW224510   2.895   4.224  10.374  0.0700 -1.1453  0.6422
 4350SOL     OW24511   0.026   3.048  17.581 -0.5686  0.0732  0.1066
 4350SOL    HW124512   0.018   3.123  17.522 -0.2757 -0.3934 -0.5342
 4350SOL    HW224513   4.684   2.985  17.550  0.0161  0.4905 -1.9912
 4351SOL     OW24514   4.684   1.672  17.546 -0.2257 -0.5868  0.5930
 4351SOL    HW124515   0.014   1.720  17.482 -0.3042  0.3816  1.2469
 4351SOL    HW224516   4.622   1.623  17.492  1.6324 -0.7557 -1.4389
 4352SOL     OW24517   0.139   0.545   0.729 -0.4287 -0.1837 -0.2273
 4352SOL    HW124518   0.132   0.636   0.759  0.1596 -0.3168  0.3232
 4352SOL    HW224519   0.065   0.532   0.671  0.5457  0.1672 -1.5422
 4353SOL     OW24520   2.962   3.558   7.507 -0.3758  0.1883  0.3294
 4353SOL    HW124521   3.033   3.595   7.560  0.3595 -0.5688 -0.1202
 4353SOL    HW224522   2.936   3.493   7.573  0.7426  0.7952  1.3730
 4354SOL     OW24523   1.866   3.994   3.408 -0.1414  0.0776  0.1576
 4354SOL    HW124524   1.853   4.018   3.316 -0.7679  0.8405  0.4452
 4354SOL    HW224525   1.958   4.020   3.407 -0.4784  1.2810  0.7873
 4355SOL     OW24526   1.091   0.291   5.238 -0.3322  0.3766  0.4615
 4355SOL    HW124527   1.165   0.314   5.293  0.0658 -0.1177  0.1311
 4355SOL    HW224528   1.035   0.248   5.303 -0.0368  0.5613  0.8365
 4356SOL     OW24529   3.041   1.757   0.187  0.7566  0.2078  0.3228
 4356SOL    HW124530   3.024   1.759   0.093 -1.5753 -1.4640  0.7036
 4356SOL    HW224531   3.100   1.682   0.188  1.6658  0.9123  0.0008
 4357SOL     OW24532   3.443   2.822   3.274  0.5292 -0.1875 -0.3109
 4357SOL    HW124533   3.397   2.855   3.197  1.5913 -0.3453 -1.0042
 4357SOL    HW224534   3.518   2.880   3.264 -0.0728  0.8713  1.3119
 4358SOL     OW24535   1.430   3.030   6.556  0.0243  0.1169 -0.1692
 4358SOL    HW124536   1.382   3.069   6.629 -1.4374  0.3155 -1.2234
 4358SOL    HW224537   1.498   2.979   6.601 -0.8122 -0.7527  0.1096
 4359SOL     OW24538   3.526   1.856   4.367 -0.1581  0.5407  0.2283
 4359SOL    HW124539   3.591   1.845   4.436  0.8541  1.2910 -0.6114
 4359SOL    HW224540   3.586   1.850   4.293 -0.7079  0.5341 -0.2232
 4360SOL     OW24541   2.069   3.623   1.511 -0.0560  0.0205  0.1084
 4360SOL    HW124542   2.007   3.562   1.471 -0.5620  0.8305 -0.3487
 4360SOL    HW224543   2.147   3.568   1.508  0.8218  1.2400  0.5686
 4361SOL     OW24544   3.975   4.031   4.214  0.1612  0.0202  0.9125
 4361SOL    HW124545   4.025   4.061   4.138 -0.0394 -1.6445  0.1118
 4361SOL    HW224546   4.027   3.959   4.248  1.1598  0.0258 -0.6036
 4362SOL     OW24547   1.958   2.242  13.730  0.2309 -0.1705 -0.0160
 4362SOL    HW124548   1.887   2.304  13.714  0.6078  0.1849 -0.2944
 4362SOL    HW224549   2.038   2.291  13.713  1.5511 -2.1051  0.5194
 4363SOL     OW24550   2.160   2.075   5.026 -0.0110 -0.3935  0.1085
 4363SOL    HW124551   2.131   2.004   5.084 -1.4338 -1.2546 -1.6425
 4363SOL    HW224552   2.227   2.045   4.965  1.0316  1.1244  0.5110
 4364SOL     OW24553   3.052   4.370   8.728 -0.4914  0.2506  0.2982
 4364SOL    HW124554   2.966   4.389   8.689  0.5236  2.5506 -0.8856
 4364SOL    HW224555   3.024   4.361   8.819  0.7440 -1.3855  0.5059
 4365SOL     OW24556   0.358   3.449  17.557 -0.0030  0.0863  0.1595
 4365SOL    HW124557   0.315   3.413  17.480  0.9575 -1.0386  0.1346
 4365SOL    HW224558   0.425   3.507  17.523  1.8148 -1.0004  1.8340
 4366SOL     OW24559   2.627   4.194  14.148  0.6356  0.4247 -0.2723
 4366SOL    HW124560   2.662   4.244  14.221 -0.5770 -0.9417  1.2284
 4366SOL    HW224561   2.694   4.207  14.080  0.6761  1.0256 -0.1122
 4367SOL     OW24562   3.041   4.199   3.204 -0.0691 -0.0078 -0.7850
 4367SOL    HW124563   3.009   4.140   3.272 -2.1964  2.1822  0.1047
 4367SOL    HW224564   2.962   4.199   3.151  0.5589  0.6686 -1.7173
 4368SOL     OW24565   4.041   2.213   8.574 -0.2395 -0.2371 -0.0374
 4368SOL    HW124566   4.095   2.185   8.500  0.6785 -0.5461  0.7602
 4368SOL    HW224567   3.958   2.231   8.528  0.1098  1.3170 -0.0870
 4369SOL     OW24568   3.904   3.181   2.481  0.6266  0.1929  0.5900
 4369SOL    HW124569   3.887   3.240   2.407 -1.8385 -1.5231 -0.2179
 4369SOL    HW224570   3.941   3.104   2.439  0.4299 -0.5158  1.7132
 4370SOL     OW24571   2.113   0.988   3.188 -0.2348 -0.0953  0.5774
 4370SOL    HW124572   2.081   1.053   3.125  4.0673  0.8309 -0.6682
 4370SOL    HW224573   2.064   0.913   3.156  0.3147 -1.2644  2.4811
 4371SOL     OW24574   2.587   2.650  13.726 -0.3602 -0.0946  0.6956
 4371SOL    HW124575   2.514   2.649  13.664  0.1583 -1.9888  0.1206
 4371SOL    HW224576   2.647   2.705  13.675  1.1155 -3.2463 -0.9084
 4372SOL     OW24577   2.409   4.330   7.787  0.5642  0.3211 -0.5677
 4372SOL    HW124578   2.392   4.259   7.849  0.3378  1.8895  1.1568
 4372SOL    HW224579   2.337   4.324   7.724  0.5251  2.0681 -0.7012
 4373SOL     OW24580   3.407   4.559  14.975 -0.1062 -0.6395 -0.1696
 4373SOL    HW124581   3.420   4.654  14.970 -0.9060 -0.4411  1.5114
 4373SOL    HW224582   3.428   4.542  14.883 -3.0070 -1.7806 -0.6107
 4374SOL     OW24583   0.233   0.332   6.566 -0.1147  0.5068 -0.1869
 4374SOL    HW124584   0.212   0.384   6.644  1.7644  1.8236 -0.5720
 4374SOL    HW224585   0.163   0.269   6.582 -0.0508  0.5989  0.4477
 4375SOL     OW24586   4.472   4.109   2.780 -0.1085  0.2313 -0.6097
 4375SOL    HW124587   4.550   4.164   2.790 -1.3432  2.2768 -2.1710
 4375SOL    HW224588   4.406   4.178   2.787 -0.3153  0.0576 -0.8382
 4376SOL     OW24589   3.861   4.255   2.177 -0.3996 -0.0023  0.6776
 4376SOL    HW124590   3.892   4.342   2.200 -1.5187  0.4672  0.3942
 4376SOL    HW224591   3.793   4.236   2.242 -2.9255  1.2688 -1.5746
 4377SOL     OW24592   2.556   3.706   2.821  0.0972 -0.7732 -0.0148
 4377SOL    HW124593   2.621   3.701   2.891  0.6300 -1.2626 -0.5385
 4377SOL    HW224594   2.584   3.651   2.748 -0.3550  0.1366 -0.8699
 4378SOL     OW24595   2.861   4.300  14.011 -0.4252 -0.0178  0.3196
 4378SOL    HW124596   2.929   4.248  13.969  0.0251  0.8466 -0.0411
 4378SOL    HW224597   2.913   4.373  14.046  0.6738 -0.0137 -1.3083
 4379SOL     OW24598   1.971   1.872  16.840  0.0568 -0.5065 -0.0481
 4379SOL    HW124599   2.064   1.884  16.818 -0.6592 -0.6469 -3.1247
 4379SOL    HW224600   1.967   1.891  16.933 -0.1527  0.2972 -0.2197
 4380SOL     OW24601   0.868   1.996   5.199  0.0821  0.1498  0.1156
 4380SOL    HW124602   0.906   2.082   5.181  0.4338  0.2046  1.0983
 4380SOL    HW224603   0.839   1.972   5.112  1.8824  0.8209 -0.6723
 4381SOL     OW24604   0.618   1.144   8.639 -0.0770  0.1397 -0.1694
 4381SOL    HW124605   0.559   1.190   8.579 -1.5942 -1.3896  0.1649
 4381SOL    HW224606   0.700   1.192   8.626  0.1119  0.1337  1.0575
 4382SOL     OW24607   4.228   1.322   9.698  0.5299  0.6811 -0.2552
 4382SOL    HW124608   4.237   1.408   9.657 -2.3139  0.2017 -1.9044
 4382SOL    HW224609   4.235   1.346   9.790 -1.0083 -2.1900  0.6327
 4383SOL     OW24610   4.255   1.077  12.392 -0.4934  0.3057 -0.0210
 4383SOL    HW124611   4.187   1.018  12.425 -0.5609  0.6424  0.4498
 4383SOL    HW224612   4.231   1.089  12.300  0.3397  1.3636 -0.0953
 4384SOL     OW24613   2.754   0.581  13.831  0.1708 -0.5162  0.9823
 4384SOL    HW124614   2.790   0.627  13.906 -1.6987  2.6671 -0.1132
 4384SOL    HW224615   2.670   0.548  13.862 -0.9300  0.2739 -1.1146
 4385SOL     OW24616   0.471   3.373   9.003 -0.0692 -0.0349 -0.0715
 4385SOL    HW124617   0.511   3.412   9.081 -0.3257  0.5162 -0.2123
 4385SOL    HW224618   0.377   3.385   9.015  0.2031  0.7650  1.2146
 4386SOL     OW24619   0.323   3.552   5.822  0.3574  0.4710 -0.8422
 4386SOL    HW124620   0.396   3.501   5.787  0.3385 -0.9147  1.1497
 4386SOL    HW224621   0.364   3.623   5.870 -2.1566  1.5963 -0.3956
 4387SOL     OW24622   2.397   1.550   4.264 -0.3098 -1.3795  0.8185
 4387SOL    HW124623   2.320   1.579   4.215 -0.9053 -0.0773  2.5339
 4387SOL    HW224624   2.455   1.618   4.231 -0.9845 -1.1971 -0.0277
 4388SOL     OW24625   4.652   0.287  16.367  0.5292  0.0787  0.3067
 4388SOL    HW124626   4.640   0.196  16.395  1.0809 -0.1015 -0.0360
 4388SOL    HW224627   4.677   0.330  16.448 -0.9957  1.6889 -0.0757
 4389SOL     OW24628   1.632   4.719   8.396 -0.0039  0.0265 -0.3289
 4389SOL    HW124629   1.575   4.658   8.442 -1.3220  1.8497  0.4630
 4389SOL    HW224630   1.611   4.692   8.307  0.7701 -3.8621  0.6588
 4390SOL     OW24631   1.965   3.918   7.360  0.1791 -0.0260  0.2412
 4390SOL    HW124632   1.919   3.858   7.418  0.4462 -1.2288 -0.7977
 4390SOL    HW224633   1.891   3.948   7.307 -0.5748 -1.9006  0.2192
 4391SOL     OW24634   1.313   2.861   2.053  0.9313 -0.4945  0.4995
 4391SOL    HW124635   1.225   2.867   2.090  1.2229 -0.9290  1.2679
 4391SOL    HW224636   1.299   2.902   1.968  0.4492 -0.0013  0.8165
 4392SOL     OW24637   1.609   0.983   5.527 -0.2561  0.5667 -0.2592
 4392SOL    HW124638   1.627   0.914   5.463 -0.1512  1.4079 -1.1492
 4392SOL    HW224639   1.622   0.937   5.610 -0.1299  2.6819  0.8855
 4393SOL     OW24640   2.153   4.315   3.670  0.1088  0.4574  0.3518
 4393SOL    HW124641   2.122   4.405   3.660  0.6910  0.5958 -0.2315
 4393SOL    HW224642   2.241   4.320   3.707  0.3175 -2.6290  0.2638
 4394SOL     OW24643   0.865   0.799   7.555 -0.1556 -0.2085 -0.0402
 4394SOL    HW124644   0.924   0.823   7.626 -0.1239 -0.8611  0.1510
 4394SOL    HW224645   0.797   0.747   7.597 -1.4663  0.8747 -0.8031
 4395SOL     OW24646   1.834   4.376   5.479 -0.0765  0.5474 -0.4343
 4395SOL    HW124647   1.845   4.398   5.387 -0.1199 -0.9932 -0.8060
 4395SOL    HW224648   1.808   4.460   5.517 -1.1123 -1.0453  2.3984
 4396SOL     OW24649   4.443   3.449   2.060 -0.1088 -0.3904  1.1168
 4396SOL    HW124650   4.375   3.414   2.118 -2.0715  3.0449  0.8962
 4396SOL    HW224651   4.409   3.535   2.037 -1.0603 -0.8861  0.6928
 4397SOL     OW24652   2.905   2.818   1.883  0.2749  0.2545  0.4319
 4397SOL    HW124653   2.975   2.876   1.854  1.9906 -1.5859  0.9099
 4397SOL    HW224654   2.850   2.840   1.808 -0.4241 -1.4427  0.4596
 4398SOL     OW24655   1.094   1.117   7.680 -0.0724  0.6427 -0.1941
 4398SOL    HW124656   1.021   1.120   7.741 -1.4225 -0.0133 -1.7853
 4398SOL    HW224657   1.053   1.161   7.606 -1.9959 -0.3412  0.2979
 4399SOL     OW24658   2.447   2.278   3.381  0.4319  0.3377  0.2004
 4399SOL    HW124659   2.540   2.299   3.376  0.2616  0.7570 -1.1474
 4399SOL    HW224660   2.450   2.200   3.437 -2.0770 -0.6509 -1.0296
 4400SOL     OW24661   3.728   4.377  17.588  0.2580  0.6921 -0.3949
 4400SOL    HW124662   3.739   4.466  17.555  0.8239  0.0938 -1.8438
 4400SOL    HW224663   3.650   4.345  17.543 -1.1217 -1.7775  3.7497
 4401SOL     OW24664   3.377   0.161   1.053  0.0484  0.1220 -0.0516
 4401SOL    HW124665   3.442   0.141   0.986  0.1804  1.2126 -0.2493
 4401SOL    HW224666   3.431   0.154   1.132  0.1094  0.1107 -0.0946
 4402SOL     OW24667   0.990   0.342  11.731 -0.7373  0.0148 -0.0971
 4402SOL    HW124668   1.050   0.340  11.806 -1.5692 -1.0117  0.5483
 4402SOL    HW224669   0.959   0.432  11.723  1.5073  0.9811  1.9880
 4403SOL     OW24670   4.376   3.061   6.004  0.0310 -0.2238 -0.1228
 4403SOL    HW124671   4.337   2.980   5.971 -1.3680 -0.5412  2.3437
 4403SOL    HW224672   4.352   3.117   5.931 -0.4615 -0.7377 -0.3572
 4404SOL     OW24673   1.531   3.799   3.614 -0.1859  0.2405 -0.4074
 4404SOL    HW124674   1.549   3.713   3.653 -0.8133 -0.5589 -1.9085
 4404SOL    HW224675   1.520   3.775   3.522 -0.0786 -1.3766 -0.0028
 4405SOL     OW24676   4.439   0.365   8.886 -0.2706  0.2649 -0.0893
 4405SOL    HW124677   4.404   0.301   8.949 -0.4307  1.3604  0.9349
 4405SOL    HW224678   4.366   0.425   8.875 -0.7593 -0.0678  1.2456
 4406SOL     OW24679   3.245   4.515   8.586  0.0066 -0.1846 -0.2608
 4406SOL    HW124680   3.274   4.583   8.647  1.0342 -1.4481  0.6620
 4406SOL    HW224681   3.166   4.489   8.634 -0.2709 -0.3214 -0.7918
 4407SOL     OW24682   2.822   0.288   7.507 -0.8980  0.1571  0.0869
 4407SOL    HW124683   2.916   0.273   7.510 -0.5399  2.6322  1.2132
 4407SOL    HW224684   2.817   0.379   7.539 -0.3402 -0.8304  3.0025
 4408SOL     OW24685   1.553   3.661   3.352  0.1663 -0.0126 -0.2502
 4408SOL    HW124686   1.546   3.580   3.402  0.7509 -0.5715 -1.0690
 4408SOL    HW224687   1.528   3.637   3.263 -2.2877  2.4972 -0.2334
 4409SOL     OW24688   3.311   4.258   8.543  0.4052 -0.0209 -0.0114
 4409SOL    HW124689   3.255   4.335   8.550  0.6811  0.0461  1.3060
 4409SOL    HW224690   3.390   4.308   8.564  1.1607 -1.5326  0.7445
 4410SOL     OW24691   4.616   0.796  11.764  0.2448  0.2018  0.0943
 4410SOL    HW124692   4.698   0.835  11.735  0.4282  1.2137  1.9708
 4410SOL    HW224693   4.547   0.857  11.738 -0.5866 -0.9788 -0.4592
 4411SOL     OW24694   3.306   4.620   4.589  0.3043 -0.3619 -0.1210
 4411SOL    HW124695   3.300   4.632   4.683  1.2567  0.3038 -0.1473
 4411SOL    HW224696   3.212   4.621   4.570 -0.3431  1.3174  3.2333
 4412SOL     OW24697   2.485   4.206   8.635 -0.2328 -0.0854 -0.3471
 4412SOL    HW124698   2.403   4.158   8.643 -0.8310  1.0109  0.2059
 4412SOL    HW224699   2.495   4.212   8.540 -0.5702  1.9010 -0.2661
 4413SOL     OW24700   2.583   1.114   2.133 -0.3139  0.2239 -0.2185
 4413SOL    HW124701   2.511   1.053   2.118  1.1905 -1.4541 -0.6344
 4413SOL    HW224702   2.543   1.201   2.130 -0.5056  0.1015 -1.0678
 4414SOL     OW24703   0.745   3.942   3.520 -0.0029 -0.7290  0.0439
 4414SOL    HW124704   0.700   3.877   3.466 -1.1881  0.6174 -0.5629
 4414SOL    HW224705   0.708   4.023   3.486 -0.8738 -0.2066  2.2440
 4415SOL     OW24706   4.528   4.096  10.642  1.1986 -0.2564  0.5141
 4415SOL    HW124707   4.582   4.150  10.701 -2.3282  1.0098  2.5932
 4415SOL    HW224708   4.444   4.138  10.625  1.0868 -0.2323  1.1050
 4416SOL     OW24709   4.481   3.476   3.373  0.3702 -0.3446 -0.4591
 4416SOL    HW124710   4.491   3.405   3.311 -0.7459 -1.9220  1.1689
 4416SOL    HW224711   4.394   3.502   3.343  0.8520  2.3102  0.4201
 4417SOL     OW24712   2.352   1.888  16.188  0.4062 -0.1778 -0.3037
 4417SOL    HW124713   2.428   1.856  16.139  2.1564 -0.2424  2.4300
 4417SOL    HW224714   2.330   1.967  16.138 -1.8662  0.5617  1.8505
 4418SOL     OW24715   4.636   3.053   7.129 -0.2279 -0.5672  0.0883
 4418SOL    HW124716   0.005   3.027   7.128  0.3902  1.7086 -2.9521
 4418SOL    HW224717   4.627   3.092   7.216  0.7543  0.3072 -0.2024
 4419SOL     OW24718   1.189   0.408   2.451  0.3349  0.4133 -0.7983
 4419SOL    HW124719   1.226   0.461   2.521  0.8793  0.0263 -0.7887
 4419SOL    HW224720   1.176   0.326   2.499  1.2452  0.8477  0.1978
 4420SOL     OW24721   0.341   2.458  14.506  0.8753  0.3638  0.3510
 4420SOL    HW124722   0.310   2.486  14.592  2.6077 -0.0186  1.0986
 4420SOL    HW224723   0.266   2.476  14.450  0.3809 -0.6777  0.6875
 4421SOL     OW24724   3.766   4.110   2.697  0.0983  0.1430 -0.2108
 4421SOL    HW124725   3.754   4.018   2.675 -1.9346  1.0283 -2.7812
 4421SOL    HW224726   3.681   4.152   2.686  0.1117  0.4196  0.7074
 4422SOL     OW24727   0.413   1.464  16.411  0.6926  0.0153  0.2125
 4422SOL    HW124728   0.333   1.510  16.434 -0.3064 -1.9293  0.6449
 4422SOL    HW224729   0.433   1.416  16.492  1.0580  0.6686  0.5094
 4423SOL     OW24730   4.163   2.894   3.756  0.4326 -0.0374  0.0437
 4423SOL    HW124731   4.084   2.841   3.752 -0.0549  0.5856  1.8275
 4423SOL    HW224732   4.180   2.901   3.850  1.4712 -1.7003 -0.0240
 4424SOL     OW24733   2.259   3.885   5.366  0.3638  0.4502 -0.2770
 4424SOL    HW124734   2.333   3.875   5.307  0.0187  1.2227 -0.8386
 4424SOL    HW224735   2.297   3.910   5.451  3.6216  0.4057 -1.7267
 4425SOL     OW24736   1.031   0.967   4.147 -0.5742 -0.0110  0.0419
 4425SOL    HW124737   0.978   1.047   4.153 -2.1985 -1.1777  1.0598
 4425SOL    HW224738   0.990   0.914   4.079  0.1143  1.0364 -1.1933
 4426SOL     OW24739   0.363   2.666   9.006 -0.4002  0.5356  0.2920
 4426SOL    HW124740   0.277   2.652   8.966 -0.2064 -0.6823  0.3167
 4426SOL    HW224741   0.373   2.585   9.056 -0.8571  0.1076 -0.3084
 4427SOL     OW24742   3.452   3.360  16.609 -0.2837 -0.0815  0.0454
 4427SOL    HW124743   3.408   3.356  16.694  1.8798 -2.5776  1.0717
 4427SOL    HW224744   3.380   3.331  16.554 -1.6638  0.9919  1.2841
 4428SOL     OW24745   4.311   0.304   0.568 -0.5779  0.1785  0.0102
 4428SOL    HW124746   4.311   0.358   0.489 -0.1513  1.3761  0.8327
 4428SOL    HW224747   4.377   0.239   0.545  0.9819  1.6759  0.2910
 4429SOL     OW24748   3.341   2.360   2.856 -0.0019  0.3907  0.3543
 4429SOL    HW124749   3.259   2.311   2.861  1.8563 -2.6154  1.1882
 4429SOL    HW224750   3.332   2.401   2.770  1.5544 -1.7596 -0.8111
 4430SOL     OW24751   1.725   2.755  17.687  0.4922  0.0398  0.0629
 4430SOL    HW124752   1.815   2.786  17.685  0.1131  1.1609  0.3285
 4430SOL    HW224753   1.731   2.704  17.606  2.0217 -0.0227  0.2133
 4431SOL     OW24754   3.358   2.291   5.310 -0.0416 -0.6666  0.5148
 4431SOL    HW124755   3.309   2.276   5.229 -2.0354  1.6226  1.2887
 4431SOL    HW224756   3.335   2.382   5.329 -1.7655 -0.6133 -1.9047
 4432SOL     OW24757   0.609   3.672  13.292 -0.1093 -0.1348 -0.1198
 4432SOL    HW124758   0.606   3.636  13.204  1.2573  1.2148 -0.7145
 4432SOL    HW224759   0.603   3.603  13.359 -0.8748 -1.9906 -2.0984
 4433SOL     OW24760   0.935   3.908   7.591  0.4839 -0.3900 -0.2791
 4433SOL    HW124761   0.934   3.991   7.638  1.5399  0.8952 -2.5077
 4433SOL    HW224762   0.848   3.904   7.552  0.7512 -2.2891 -0.6562
 4434SOL     OW24763   4.368   1.867   1.986  0.6078 -0.3840 -0.2063
 4434SOL    HW124764   4.322   1.914   2.055 -0.5574 -2.5773  0.5127
 4434SOL    HW224765   4.440   1.928   1.967  2.8823 -2.6443  1.0990
 4435SOL     OW24766   4.434   3.014   5.681  0.1493  0.0978 -0.3360
 4435SOL    HW124767   4.496   2.947   5.711  0.9818 -0.0057 -2.3371
 4435SOL    HW224768   4.440   3.081   5.750 -2.9855 -1.9576  1.9711
 4436SOL     OW24769   2.681   1.089   7.760 -0.3253  0.6879  0.1465
 4436SOL    HW124770   2.747   1.033   7.801 -0.9305 -0.1297 -0.0135
 4436SOL    HW224771   2.713   1.174   7.791  2.7820 -0.3929 -0.1845
 4437SOL     OW24772   3.165   2.412   6.746  0.2482  0.5806  0.4404
 4437SOL    HW124773   3.168   2.325   6.785 -0.8865 -0.9439 -2.8139
 4437SOL    HW224774   3.211   2.474   6.802  0.7491 -0.9572  1.7243
 4438SOL     OW24775   2.741   4.041  15.404 -0.0551  0.2939 -0.3556
 4438SOL    HW124776   2.831   4.032  15.374  0.2439 -0.0234  0.6235
 4438SOL    HW224777   2.692   4.040  15.322 -1.4720  0.4124  0.4937
 4439SOL     OW24778   0.965   0.486  11.251 -0.5036 -0.4068  0.5605
 4439SOL    HW124779   0.913   0.547  11.303 -2.9913 -2.2314  0.2190
 4439SOL    HW224780   0.989   0.424  11.320  0.4040 -0.5863  0.0913
 4440SOL     OW24781   2.699   1.608  16.100 -0.3223 -0.1402 -0.3454
 4440SOL    HW124782   2.716   1.682  16.159  1.0224 -0.7340 -0.0004
 4440SOL    HW224783   2.606   1.621  16.084 -0.1100  0.4895 -1.0482
 4441SOL     OW24784   2.501   3.802  13.438 -0.6966  0.0593  0.0941
 4441SOL    HW124785   2.488   3.719  13.483  0.6810 -1.3310 -2.0953
 4441SOL    HW224786   2.525   3.776  13.349 -0.1014 -0.5817  0.4471
 4442SOL     OW24787   2.586   3.466   8.422 -0.7158  0.0430 -0.0681
 4442SOL    HW124788   2.598   3.555   8.389 -1.5595 -0.4604 -1.7399
 4442SOL    HW224789   2.596   3.476   8.517 -0.2894 -1.3888  0.0450
 4443SOL     OW24790   3.644   3.662   4.017 -0.2276  0.0303  0.1664
 4443SOL    HW124791   3.668   3.723   4.086  0.2519 -1.2199  1.0966
 4443SOL    HW224792   3.713   3.686   3.955  1.5728 -1.6404  1.5596
 4444SOL     OW24793   4.482   2.673   3.676 -0.2892 -0.4280  0.0838
 4444SOL    HW124794   4.394   2.654   3.708 -1.2491  2.0303 -1.0123
 4444SOL    HW224795   4.474   2.659   3.581 -1.3623  1.4951 -0.1136
 4445SOL     OW24796   4.412   1.584   2.391 -0.3973 -0.5428 -0.1994
 4445SOL    HW124797   4.421   1.627   2.476 -0.4244 -0.9503  0.0149
 4445SOL    HW224798   4.470   1.508   2.405  1.1448  0.6783  0.0200
 4446SOL     OW24799   0.403   1.804   4.767  0.4106 -0.1734 -0.1659
 4446SOL    HW124800   0.416   1.891   4.729 -1.3373  0.7463  1.3452
 4446SOL    HW224801   0.466   1.749   4.721  1.8928 -1.3265  3.2292
 4447SOL     OW24802   2.808   0.566   2.612 -0.8622 -0.1094  0.4541
 4447SOL    HW124803   2.824   0.634   2.546 -0.6217  0.3914  1.0288
 4447SOL    HW224804   2.740   0.514   2.570 -1.6360  0.6339  0.7950
 4448SOL     OW24805   4.545   0.058   8.647 -0.2704  0.6011  0.5144
 4448SOL    HW124806   4.552   0.018   8.733 -2.5947 -1.6079 -0.3198
 4448SOL    HW224807   4.620   0.016   8.606  1.1070  0.9227  2.7344
 4449SOL     OW24808   4.086   4.363   6.426 -0.1494  0.2315 -0.4516
 4449SOL    HW124809   3.992   4.352   6.411 -0.5380 -0.4309  2.4312
 4449SOL    HW224810   4.080   4.380   6.520 -1.8425  1.9563 -0.8647
 4450SOL     OW24811   0.084   1.114  13.199 -0.0742  0.6430 -0.2321
 4450SOL    HW124812   0.103   1.095  13.107 -0.2991  3.4030 -0.8465
 4450SOL    HW224813   0.174   1.123  13.231  0.0403 -0.9920 -0.1074
 4451SOL     OW24814   1.069   2.285   1.976  0.1085 -0.0823  0.1590
 4451SOL    HW124815   1.068   2.381   1.968 -2.0852 -0.0031  1.1513
 4451SOL    HW224816   1.037   2.261   1.889 -2.3010 -0.3698  1.0977
 4452SOL     OW24817   2.347   0.943   4.087 -0.7304 -0.6870  0.1424
 4452SOL    HW124818   2.397   0.942   4.006 -0.5105  0.7148  0.2550
 4452SOL    HW224819   2.262   0.976   4.058 -0.8514 -1.2996 -0.2007
 4453SOL     OW24820   2.550   2.314  15.664  0.4731 -0.6252 -0.1245
 4453SOL    HW124821   2.620   2.249  15.674  1.1061 -0.0667 -0.9370
 4453SOL    HW224822   2.468   2.274  15.691  0.8501 -1.8569 -0.8422
 4454SOL     OW24823   2.364   0.753   5.841  0.1138  0.5886 -0.1880
 4454SOL    HW124824   2.294   0.711   5.891 -1.0526  0.2002 -2.1585
 4454SOL    HW224825   2.334   0.749   5.750  1.2090 -0.1694 -0.5113
 4455SOL     OW24826   4.660   0.607  11.183  0.1714 -0.0295  0.0618
 4455SOL    HW124827   4.609   0.621  11.263  0.6465  0.7373  0.2212
 4455SOL    HW224828   4.606   0.535  11.150  1.7990 -0.8027 -0.9021
 4456SOL     OW24829   4.039   2.553   9.609  0.4619  0.1484 -0.4853
 4456SOL    HW124830   4.057   2.625   9.668 -0.1609  0.7579 -1.0391
 4456SOL    HW224831   3.994   2.602   9.540 -0.1342 -0.6431 -0.6611
 4457SOL     OW24832   1.279   1.159  15.325 -0.4685 -0.1744  0.2292
 4457SOL    HW124833   1.362   1.198  15.353  0.0286  0.7584 -2.5435
 4457SOL    HW224834   1.219   1.207  15.381  0.4688  1.5570 -0.2405
 4458SOL     OW24835   1.523   0.043   6.156 -0.1680  0.2078  0.3088
 4458SOL    HW124836   1.525   0.102   6.231 -0.3475  0.0067  0.4723
 4458SOL    HW224837   1.438   0.000   6.162 -0.8617  1.9459  2.6733
 4459SOL     OW24838   1.636   3.600  14.698 -0.0391 -0.1821  0.2573
 4459SOL    HW124839   1.611   3.546  14.624 -0.0967  0.8228 -0.4626
 4459SOL    HW224840   1.731   3.586  14.694  0.1763  1.6614 -0.9579
 4460SOL     OW24841   2.658   3.970  11.227 -0.2952  0.7869  0.4114
 4460SOL    HW124842   2.582   3.916  11.207  0.5822  0.0649 -1.0006
 4460SOL    HW224843   2.632   3.984  11.318 -2.6790  0.8130 -0.2717
 4461SOL     OW24844   2.420   4.229   8.281 -0.2687  0.2751 -0.4672
 4461SOL    HW124845   2.402   4.136   8.267 -3.3188  0.5175  1.8735
 4461SOL    HW224846   2.357   4.276   8.226  1.0269  0.5936 -1.6694
 4462SOL     OW24847   1.454   3.373   4.696  0.3502  0.4596  0.4792
 4462SOL    HW124848   1.488   3.335   4.776 -0.2216  2.6549  1.7692
 4462SOL    HW224849   1.417   3.455   4.727 -3.1942 -1.2890  0.7640
 4463SOL     OW24850   1.213   2.307   7.189 -0.1969  0.5595  0.1457
 4463SOL    HW124851   1.293   2.295   7.137 -0.1144 -0.0031  0.4022
 4463SOL    HW224852   1.202   2.216   7.215  2.3057  0.4657  0.8772
 4464SOL     OW24853   4.655   1.098   9.995 -0.5588  0.1900  0.3910
 4464SOL    HW124854   0.015   1.134  10.025 -0.0891 -2.4988  2.3417
 4464SOL    HW224855   4.582   1.151  10.027 -0.1409  0.7251  0.4547
 4465SOL     OW24856   4.267   2.615  12.088  0.8084 -0.2915 -0.3736
 4465SOL    HW124857   4.338   2.555  12.111 -0.4920 -2.0180 -0.8962
 4465SOL    HW224858   4.279   2.622  11.993  1.0648  1.4860 -0.2040
 4466SOL     OW24859   4.129   3.413   2.451 -0.2996  0.2906  0.3975
 4466SOL    HW124860   4.070   3.392   2.523 -1.5750  2.4126 -0.0417
 4466SOL    HW224861   4.161   3.497   2.484  1.2667 -0.7706  1.6088
 4467SOL     OW24862   0.223   4.097   4.280 -0.4069 -0.1508 -0.3451
 4467SOL    HW124863   0.136   4.090   4.321 -0.6480  0.7976 -0.6934
 4467SOL    HW224864   0.231   4.008   4.246 -2.0540 -0.4973  0.1562
 4468SOL     OW24865   4.703   0.604   4.564 -0.4156 -0.2475  0.0356
 4468SOL    HW124866   0.015   0.692   4.552  1.9601 -0.7675  3.3621
 4468SOL    HW224867   4.621   0.614   4.515  1.7950 -0.7115 -3.7474
 4469SOL     OW24868   3.188   2.692   2.536  0.3975 -0.3182 -0.0784
 4469SOL    HW124869   3.099   2.663   2.559  1.2728 -2.3498  0.7627
 4469SOL    HW224870   3.186   2.697   2.441 -2.4022 -0.7857 -0.0472
 4470SOL     OW24871   0.944   4.239   6.282 -0.3257  0.5732  0.3817
 4470SOL    HW124872   0.962   4.229   6.376  0.1287 -2.5277 -0.0466
 4470SOL    HW224873   1.026   4.280   6.254 -0.2773 -0.4748 -0.9626
 4471SOL     OW24874   2.897   1.552   6.442 -0.2599  0.5569 -0.0366
 4471SOL    HW124875   2.987   1.566   6.413 -0.2345 -0.6399 -0.5212
 4471SOL    HW224876   2.875   1.630   6.494 -0.9460  1.2197 -1.3153
 4472SOL     OW24877   4.177   1.234   4.711  0.0934 -0.0958 -0.0348
 4472SOL    HW124878   4.230   1.157   4.692 -2.0429 -1.3167 -1.0558
 4472SOL    HW224879   4.119   1.195   4.776  0.5698  2.1879  1.8013
 4473SOL     OW24880   2.412   4.240  15.540 -0.3540 -0.3611 -0.0800
 4473SOL    HW124881   2.356   4.296  15.486  1.6799  1.9575  0.2153
 4473SOL    HW224882   2.400   4.154  15.499  1.2025 -0.6072 -0.0556
 4474SOL     OW24883   3.175   4.269   6.449  0.3881  0.2024 -0.3929
 4474SOL    HW124884   3.145   4.333   6.385 -0.1486 -0.2947 -0.6352
 4474SOL    HW224885   3.130   4.294   6.530 -1.2462  2.3274 -1.9739
 4475SOL     OW24886   2.569   4.550  16.255 -0.1821 -0.7514  0.0412
 4475SOL    HW124887   2.639   4.593  16.306 -0.2748 -0.7516  0.1686
 4475SOL    HW224888   2.547   4.615  16.189 -0.5157 -0.9451 -0.0373
 4476SOL     OW24889   0.162   4.476   3.972  0.4597 -0.0290 -0.0106
 4476SOL    HW124890   0.109   4.521   3.906  0.0284 -2.5800 -1.3814
 4476SOL    HW224891   0.102   4.427   4.029  0.9284 -0.0508  0.4653
 4477SOL     OW24892   3.955   0.695  16.579 -0.0729  0.2068  0.0487
 4477SOL    HW124893   3.968   0.752  16.655 -2.0979 -2.2472  2.2288
 4477SOL    HW224894   3.950   0.605  16.610  0.3935 -0.3492 -1.4943
 4478SOL     OW24895   3.885   0.789   5.082 -0.0715 -0.1523  0.0335
 4478SOL    HW124896   3.928   0.706   5.062  0.0023  0.1719 -1.1890
 4478SOL    HW224897   3.796   0.776   5.051  0.6719  0.6468 -2.4911
 4479SOL     OW24898   0.897   1.513   2.216 -0.5909  0.0931  0.5055
 4479SOL    HW124899   0.837   1.587   2.211 -2.8129 -1.9247 -1.8817
 4479SOL    HW224900   0.976   1.560   2.245 -0.4351  0.0993  0.0614
 4480SOL     OW24901   0.728   3.114  11.279  0.2254 -0.0863 -0.3579
 4480SOL    HW124902   0.735   3.063  11.360 -1.7840 -0.2865 -0.2874
 4480SOL    HW224903   0.632   3.112  11.274  0.0740  2.0809  1.4545
 4481SOL     OW24904   2.115   4.660  15.621  0.2248  0.4463 -0.4467
 4481SOL    HW124905   2.091   0.015  15.570 -0.5268 -0.7514 -1.8982
 4481SOL    HW224906   2.209   4.644  15.611  0.0396 -0.5973 -0.4707
 4482SOL     OW24907   2.047   2.826   2.426 -0.7364 -0.2579  1.2168
 4482SOL    HW124908   1.995   2.889   2.475 -0.5460  1.5645 -0.9312
 4482SOL    HW224909   2.022   2.847   2.336  2.0466 -0.1884  0.4522
 4483SOL     OW24910   4.677   1.150   7.437  0.4726 -0.0190 -0.5971
 4483SOL    HW124911   0.023   1.116   7.380  1.1799  0.6388 -0.1372
 4483SOL    HW224912   4.613   1.181   7.372  1.2274 -1.6439 -2.0856
 4484SOL     OW24913   1.873   1.403  10.490 -0.2991  0.1420 -0.2816
 4484SOL    HW124914   1.830   1.390  10.574 -2.0895  0.7096 -1.1008
 4484SOL    HW224915   1.958   1.437  10.517  0.1887  0.0971 -1.7252
 4485SOL     OW24916   2.418   2.046   6.849  0.2278 -0.2373 -0.1162
 4485SOL    HW124917   2.513   2.042   6.845  0.1498 -0.2863 -2.0611
 4485SOL    HW224918   2.397   2.031   6.757 -0.2021 -1.5978  0.2028
 4486SOL     OW24919   0.647   0.329   1.421 -0.3893  0.0661  0.2731
 4486SOL    HW124920   0.594   0.382   1.480  1.4188  0.8116  1.2096
 4486SOL    HW224921   0.637   0.385   1.344  2.1165  0.8751  0.5208
 4487SOL     OW24922   4.161   3.433   2.826 -0.5214 -0.5069  0.2575
 4487SOL    HW124923   4.091   3.382   2.787 -1.4847  0.2306  1.0338
 4487SOL    HW224924   4.149   3.385   2.908 -1.4223  2.6494  1.9796
 4488SOL     OW24925   2.852   2.337   7.859  0.3503 -0.1171 -0.3586
 4488SOL    HW124926   2.769   2.380   7.882  1.3862  1.6838  0.0120
 4488SOL    HW224927   2.879   2.296   7.941  1.6440  2.0141  0.2745
 4489SOL     OW24928   2.034   0.503  14.142  0.1320 -0.0278  0.0512
 4489SOL    HW124929   2.115   0.452  14.143 -0.4668 -1.0009 -0.6086
 4489SOL    HW224930   1.976   0.450  14.198 -0.5228  0.1137 -0.4951
 4490SOL     OW24931   1.128   2.379  12.238 -0.3571 -0.0004  0.1952
 4490SOL    HW124932   1.100   2.316  12.172 -0.4161 -0.8939  1.0593
 4490SOL    HW224933   1.055   2.441  12.238 -0.0101  0.4118 -1.0126
 4491SOL     OW24934   1.929   4.393  11.205  0.0286  0.2259 -0.0768
 4491SOL    HW124935   1.976   4.317  11.238  2.3479  0.3318 -3.1457
 4491SOL    HW224936   1.889   4.357  11.126 -0.7028  1.0989 -0.1041
 4492SOL     OW24937   1.943   3.629   1.991 -0.1004  0.2942  0.3585
 4492SOL    HW124938   1.873   3.659   1.933  0.0018  1.4397  0.8235
 4492SOL    HW224939   1.917   3.663   2.077 -2.3777 -2.4826  0.7735
 4493SOL     OW24940   0.251   0.029   8.445  0.6611  0.0193 -0.0614
 4493SOL    HW124941   0.184   0.094   8.468 -0.6854 -0.5317 -2.3271
 4493SOL    HW224942   0.236   4.684   8.510 -0.7665  0.9233  0.5551
 4494SOL     OW24943   1.170   2.132   4.899  0.4083 -0.1604 -0.4060
 4494SOL    HW124944   1.134   2.189   4.968 -0.2726  1.5420 -2.1840
 4494SOL    HW224945   1.169   2.056   4.958 -1.6823 -0.1179 -0.3979
 4495SOL     OW24946   1.152   1.948   8.042 -0.1982 -0.3050  0.5645
 4495SOL    HW124947   1.076   1.902   8.006 -0.1174  0.1596 -0.2174
 4495SOL    HW224948   1.207   1.871   8.030  2.1797  1.6525 -1.1221
 4496SOL     OW24949   1.399   2.792  17.115  0.0227  0.8038  0.0922
 4496SOL    HW124950   1.420   2.809  17.207 -2.1179  1.6837  0.4233
 4496SOL    HW224951   1.337   2.720  17.131  2.4765 -1.5678 -1.0565
 4497SOL     OW24952   0.013   0.657   9.573  0.5149 -0.4644  0.0204
 4497SOL    HW124953   4.701   0.635   9.487  0.3805  2.5529 -0.7027
 4497SOL    HW224954   0.106   0.659   9.552 -0.4532  2.6352 -3.8169
 4498SOL     OW24955   1.571   3.819   9.165 -0.2105  0.3479 -0.0739
 4498SOL    HW124956   1.595   3.908   9.138  1.9463 -0.1262  0.2524
 4498SOL    HW224957   1.602   3.820   9.256 -0.0264 -0.9380 -0.1176
 4499SOL     OW24958   1.992   4.487   6.672  0.5339  0.4025  0.1818
 4499SOL    HW124959   2.017   4.411   6.620  0.1595  1.3329 -1.3562
 4499SOL    HW224960   1.999   4.455   6.762 -1.1211 -1.2747 -0.2889
 4500SOL     OW24961   0.323   0.712  12.653 -0.1314 -0.2814 -0.4135
 4500SOL    HW124962   0.419   0.716  12.649 -0.1573 -0.3104 -1.0979
 4500SOL    HW224963   0.310   0.622  12.624  0.4516 -0.5693  0.1957
 4501SOL     OW24964   1.342   3.421   1.198 -0.6212  0.4154  0.1534
 4501SOL    HW124965   1.325   3.502   1.246 -1.7103 -0.2387  0.8903
 4501SOL    HW224966   1.269   3.439   1.139  0.8674  2.4863 -1.0342
 4502SOL     OW24967   0.248   1.415   4.114 -0.0533 -0.1181  0.0983
 4502SOL    HW124968   0.222   1.436   4.204 -0.4536  0.6559 -0.2008
 4502SOL    HW224969   0.165   1.384   4.078 -0.4176  1.7402 -0.6239
 4503SOL     OW24970   3.192   2.084   8.337 -0.1184 -0.0252  1.0834
 4503SOL    HW124971   3.150   2.047   8.414 -0.5835 -1.9108 -0.0603
 4503SOL    HW224972   3.145   2.044   8.263  1.6498  0.7213 -0.4576
 4504SOL     OW24973   3.781   3.335  11.683  0.8797  0.0405 -0.0470
 4504SOL    HW124974   3.771   3.354  11.590  0.1787  0.6568  0.1605
 4504SOL    HW224975   3.877   3.342  11.687  0.7245  1.4565  1.3768
 4505SOL     OW24976   3.668   2.593   4.422  0.1826  0.0188  1.1731
 4505SOL    HW124977   3.648   2.597   4.328  1.6167 -0.8872  0.8262
 4505SOL    HW224978   3.634   2.676   4.454  0.0824  0.3532  0.2080
 4506SOL     OW24979   2.920   1.955   8.890 -0.0075 -0.3052  0.2154
 4506SOL    HW124980   2.942   1.924   8.978  0.6781 -0.3064  0.0492
 4506SOL    HW224981   3.009   1.983   8.868  0.0587 -1.1976 -0.6447
 4507SOL     OW24982   4.582   4.694  15.085  0.0183 -0.2941 -0.6313
 4507SOL    HW124983   4.495   4.684  15.048 -1.1665  0.5146  1.9272
 4507SOL    HW224984   4.614   4.604  15.086 -2.4614 -1.1976 -3.1627
 4508SOL     OW24985   2.952   0.330   2.610  0.0536  0.4113  0.3347
 4508SOL    HW124986   2.886   0.396   2.629  1.2773  1.9531 -0.7125
 4508SOL    HW224987   3.000   0.339   2.693 -0.0310 -0.7844  0.5150
 4509SOL     OW24988   2.779   1.423   3.577 -0.3193 -0.0152 -0.4282
 4509SOL    HW124989   2.774   1.447   3.669  0.2384  0.6149 -0.5591
 4509SOL    HW224990   2.694   1.455   3.547 -0.4741  0.9079  0.9848
 4510SOL     OW24991   0.076   4.556   8.567 -0.0712 -0.7597  0.3339
 4510SOL    HW124992   0.107   4.467   8.584  0.5883 -0.2390  1.8546
 4510SOL    HW224993   0.091   4.584   8.657  0.4881  0.5236 -0.1508
 4511SOL     OW24994   3.626   4.462   1.758 -0.5301 -0.7117  0.1255
 4511SOL    HW124995   3.712   4.487   1.793 -1.0427  1.3142 -0.0729
 4511SOL    HW224996   3.574   4.526   1.807  1.4464  1.7489 -0.9655
 4512SOL     OW24997   3.949   2.713   2.952  0.0149  0.1197 -0.2272
 4512SOL    HW124998   4.038   2.728   2.921  0.5683 -1.5510  0.4921
 4512SOL    HW224999   3.914   2.797   2.923  2.1159 -0.0818 -3.3907
 4513SOL     OW25000   2.063   0.544   2.989  0.1256  0.0070 -0.4581
 4513SOL    HW125001   2.135   0.518   2.931 -0.9753  0.9643 -2.2476
 4513SOL    HW225002   1.989   0.504   2.944 -0.6825 -0.2082  1.0830
 4514SOL     OW25003   0.239   4.394  15.738  0.1847  0.2644  0.4788
 4514SOL    HW125004   0.233   4.325  15.804 -3.2804  2.5007  2.4532
 4514SOL    HW225005   0.292   4.355  15.668 -2.2585 -1.0289 -0.6554
 4515SOL     OW25006   3.550   4.267   2.648 -0.3840  0.6062  0.6271
 4515SOL    HW125007   3.508   4.332   2.592 -0.8405 -0.9335 -0.8127
 4515SOL    HW225008   3.497   4.275   2.727 -0.9032 -1.9721  0.5299
 4516SOL     OW25009   3.908   4.571   0.648 -0.4901 -0.6685  0.3753
 4516SOL    HW125010   3.988   4.617   0.622  0.3188 -0.3483  3.4238
 4516SOL    HW225011   3.948   4.485   0.662  0.5045 -0.7579 -2.8350
 4517SOL     OW25012   3.491   2.997  10.123 -0.1221 -0.2265  0.3488
 4517SOL    HW125013   3.586   2.989  10.130 -0.5463 -3.3337  2.1452
 4517SOL    HW225014   3.469   2.910  10.157  1.9192 -0.6346  0.5702
 4518SOL     OW25015   3.676   2.375   2.398  0.4571  0.0972  0.0964
 4518SOL    HW125016   3.712   2.287   2.413  1.1204 -0.1459 -3.1059
 4518SOL    HW225017   3.731   2.395   2.323  0.0561 -2.7447 -0.9387
 4519SOL     OW25018   3.311   0.910   7.014 -0.3284 -0.2240  0.0937
 4519SOL    HW125019   3.288   0.818   7.010  3.5403 -1.2275  0.3692
 4519SOL    HW225020   3.300   0.930   7.107  1.9336  0.2370  0.2623
 4520SOL     OW25021   4.698   1.339   3.608  0.1772  0.2142 -0.8439
 4520SOL    HW125022   4.706   1.314   3.516  1.2682  0.2056 -0.7493
 4520SOL    HW225023   4.678   1.256   3.652 -0.2914  0.4147 -0.6766
 4521SOL     OW25024   4.249   4.634   3.269  0.1162  0.5360 -0.2838
 4521SOL    HW125025   4.213   4.552   3.235 -0.8280  0.7344  0.2134
 4521SOL    HW225026   4.226   4.627   3.361  1.4439  0.1314  0.0138
 4522SOL     OW25027   3.875   3.218   8.678 -1.0710 -0.1254 -0.2649
 4522SOL    HW125028   3.805   3.257   8.730  0.2777  0.7058  0.9234
 4522SOL    HW225029   3.824   3.189   8.602  0.4385 -1.6636 -0.6785
 4523SOL     OW25030   4.528   3.399   3.901 -0.2872  0.2165  0.1158
 4523SOL    HW125031   4.590   3.340   3.858  1.7580  2.3605  0.1243
 4523SOL    HW225032   4.472   3.418   3.826 -0.3239  2.0273  0.6137
 4524SOL     OW25033   0.120   3.926  16.079  0.1702  0.1930 -0.0580
 4524SOL    HW125034   0.034   3.954  16.112 -0.3321 -2.0782  0.5808
 4524SOL    HW225035   0.156   4.005  16.038  0.8940 -0.5906 -0.9168
 4525SOL     OW25036   4.079   0.595   4.578  0.0848  0.1415 -0.4261
 4525SOL    HW125037   4.125   0.511   4.571 -1.9426 -1.1443  1.6880
 4525SOL    HW225038   4.060   0.596   4.484  0.9734  0.5080 -0.5996
 4526SOL     OW25039   4.538   2.935   2.811 -0.4081 -0.1439  0.2462
 4526SOL    HW125040   4.476   2.986   2.862 -0.4848  0.2506 -0.2438
 4526SOL    HW225041   4.490   2.910   2.732 -0.7214  0.2626  0.3113
 4527SOL     OW25042   3.209   0.876   4.786 -0.6042 -0.2062 -0.6117
 4527SOL    HW125043   3.252   0.824   4.855  0.2704 -0.7349 -1.5397
 4527SOL    HW225044   3.190   0.818   4.712  0.6063 -1.0315 -0.2911
 4528SOL     OW25045   0.438   0.063  16.003 -0.4139 -0.3749 -0.0497
 4528SOL    HW125046   0.520   0.106  16.030 -1.6633  1.5690  0.6967
 4528SOL    HW225047   0.425   0.099  15.916 -0.7858  0.4655  0.3487
 4529SOL     OW25048   2.665   3.590  11.933  0.0179  0.2127 -0.4625
 4529SOL    HW125049   2.655   3.505  11.976  1.2838  0.2715 -0.0387
 4529SOL    HW225050   2.745   3.627  11.971 -0.2895  0.3318  0.0647
 4530SOL     OW25051   2.504   2.732   7.750  0.2659 -0.2867  0.2897
 4530SOL    HW125052   2.476   2.700   7.836 -1.3679  1.9336  0.5609
 4530SOL    HW225053   2.424   2.757   7.704 -0.8307 -1.3236  1.6097
 4531SOL     OW25054   1.233   3.078   5.358 -0.0465  0.0302  0.0126
 4531SOL    HW125055   1.293   3.137   5.404 -1.9892  0.9873  1.3103
 4531SOL    HW225056   1.186   3.050   5.436  2.8982 -0.6085  1.5559
 4532SOL     OW25057   2.582   4.409   2.691  0.3126 -0.6811  0.7248
 4532SOL    HW125058   2.638   4.388   2.617 -2.1239 -0.2527 -1.2248
 4532SOL    HW225059   2.628   4.370   2.766 -0.5251  0.6372  1.9246
 4533SOL     OW25060   4.616   3.777   8.817 -0.5057 -0.3832 -1.1964
 4533SOL    HW125061   4.588   3.697   8.861  0.1423  0.0781  0.0639
 4533SOL    HW225062   4.681   3.740   8.757  1.5611 -2.1391  2.1529
 4534SOL     OW25063   1.373   2.112   5.193  0.1198  0.3053 -0.3942
 4534SOL    HW125064   1.407   2.187   5.144 -0.7417  1.4317  0.7103
 4534SOL    HW225065   1.437   2.098   5.263  0.0306 -0.5092 -0.4762
 4535SOL     OW25066   3.179   2.270   5.086 -0.6209  0.2385 -0.0213
 4535SOL    HW125067   3.138   2.194   5.127  0.5289  0.7473  2.0379
 4535SOL    HW225068   3.110   2.335   5.101 -1.0777 -0.2095 -0.1616
 4536SOL     OW25069   1.224   0.740   4.976 -0.4724  0.1817 -0.2907
 4536SOL    HW125070   1.264   0.698   5.052 -2.1380 -2.0277 -0.6261
 4536SOL    HW225071   1.137   0.701   4.985 -0.7712  1.1209  0.8416
 4537SOL     OW25072   1.021   2.010   2.984 -0.0187  0.0875 -0.1966
 4537SOL    HW125073   1.042   1.916   2.980 -1.5372 -0.3073  0.8512
 4537SOL    HW225074   0.940   1.997   2.934 -0.6103 -0.0797  0.8023
 4538SOL     OW25075   2.866   3.952   8.115 -0.4367  0.5520  0.1093
 4538SOL    HW125076   2.932   3.909   8.061 -1.0646  1.3406 -1.3073
 4538SOL    HW225077   2.921   4.005   8.172 -0.7591  1.8963 -0.8257
 4539SOL     OW25078   0.731   3.714  12.348  0.0490  0.6853 -0.3720
 4539SOL    HW125079   0.747   3.701  12.441  0.9384 -1.1454 -0.7695
 4539SOL    HW225080   0.681   3.795  12.341  0.8818  1.3394  1.2455
 4540SOL     OW25081   3.687   1.200   8.165  0.7616  0.1188 -0.0078
 4540SOL    HW125082   3.684   1.116   8.211 -3.0251 -0.8638 -2.0816
 4540SOL    HW225083   3.637   1.258   8.223 -0.8694 -1.3243  0.0220
 4541SOL     OW25084   2.368   4.386   6.127  0.1606 -0.3455 -0.0677
 4541SOL    HW125085   2.328   4.302   6.150 -0.9032 -0.3037 -1.7718
 4541SOL    HW225086   2.459   4.364   6.146  0.4717  1.1057  0.0825
 4542SOL     OW25087   3.224   2.674   4.915  0.2462  0.4484  0.2844
 4542SOL    HW125088   3.233   2.733   4.840  0.7490 -1.1828 -0.9269
 4542SOL    HW225089   3.157   2.617   4.879 -2.5924  3.3024  1.0449
 4543SOL     OW25090   3.215   2.340   8.438  0.2029 -0.2373  0.1036
 4543SOL    HW125091   3.246   2.251   8.420  1.6528  0.1007  0.9480
 4543SOL    HW225092   3.167   2.321   8.519 -1.2006 -3.0304 -1.3770
 4544SOL     OW25093   3.133   2.229  14.286 -0.0590  0.0571 -0.0950
 4544SOL    HW125094   3.087   2.295  14.234 -1.0582 -0.8235 -0.3389
 4544SOL    HW225095   3.056   2.192  14.329  0.9570 -0.9283  0.8622
 4545SOL     OW25096   1.295   0.775  17.483 -0.3190 -0.5484  0.1710
 4545SOL    HW125097   1.294   0.798  17.390  0.2128  3.3489  1.1492
 4545SOL    HW225098   1.284   0.680  17.477  2.8542 -0.9178  0.1688
 4546SOL     OW25099   0.124   4.008   6.185 -0.2753  0.1767  0.2485
 4546SOL    HW125100   0.196   3.970   6.134 -1.3775  1.6105 -2.3208
 4546SOL    HW225101   0.076   4.069   6.130 -1.2670 -1.0414 -0.2191
 4547SOL     OW25102   2.421   1.808   7.184 -0.4982 -0.4756 -0.9117
 4547SOL    HW125103   2.483   1.826   7.254 -0.6776  1.3906 -1.2312
 4547SOL    HW225104   2.467   1.791   7.102 -2.3294  0.7979 -2.1849
 4548SOL     OW25105   0.027   0.078   6.696  0.6374  0.4171  0.2351
 4548SOL    HW125106   4.690   0.137   6.652  0.8886 -0.4056 -1.2104
 4548SOL    HW225107   4.718   4.718   6.660 -0.0780  1.2668 -1.0615
 4549SOL     OW25108   0.023   1.253   8.792 -0.1048  0.3802  0.0565
 4549SOL    HW125109   0.094   1.191   8.776 -0.7248 -0.4316  0.4492
 4549SOL    HW225110   0.070   1.336   8.788  1.8409 -0.7470 -0.9056
 4550SOL     OW25111   2.099   1.169   3.851  0.2530  0.5716  0.0639
 4550SOL    HW125112   2.086   1.101   3.918 -0.6408  1.1576  0.4779
 4550SOL    HW225113   2.146   1.110   3.792  0.1535 -0.9049  1.4482
 4551SOL     OW25114   4.239   2.421   5.740 -0.4004 -0.0526  0.1053
 4551SOL    HW125115   4.256   2.500   5.790 -1.1349 -0.9634  1.7903
 4551SOL    HW225116   4.259   2.348   5.798 -2.4250 -0.3982  0.3587
 4552SOL     OW25117   2.992   0.018  10.706  0.1992 -0.2343 -0.1757
 4552SOL    HW125118   3.055   0.089  10.696  2.0871 -1.9255 -0.4129
 4552SOL    HW225119   3.041   4.682  10.648  1.0257  0.2471  0.0207
 4553SOL     OW25120   3.272   4.469  17.322  0.1928  0.9282  0.3898
 4553SOL    HW125121   3.291   4.547  17.373  0.4126  0.7104  0.6448
 4553SOL    HW225122   3.241   4.492  17.234  0.0122 -3.3171 -0.6800
 4554SOL     OW25123   2.848   0.881   3.270  0.5203  0.0867 -0.3336
 4554SOL    HW125124   2.861   0.952   3.208 -3.8360  1.0355 -0.1514
 4554SOL    HW225125   2.766   0.915   3.306 -0.8666 -0.7824 -2.6464
 4555SOL     OW25126   0.382   1.340   6.436 -0.0675 -0.3225  0.1132
 4555SOL    HW125127   0.447   1.410   6.432 -1.1095  0.6084 -0.3488
 4555SOL    HW225128   0.325   1.360   6.362 -0.1370 -2.6503 -0.4692
 4556SOL     OW25129   1.920   2.470   1.077 -0.0225 -0.4848 -0.4194
 4556SOL    HW125130   1.903   2.557   1.113  0.6605 -0.7388  0.5453
 4556SOL    HW225131   2.014   2.453   1.080  0.0930  0.2398  0.0565
 4557SOL     OW25132   3.995   3.073   4.046 -0.5131 -0.1639 -0.2785
 4557SOL    HW125133   3.989   3.137   4.116 -0.1156  1.8945 -2.1105
 4557SOL    HW225134   4.068   3.018   4.074  1.5624  2.2059 -0.9909
 4558SOL     OW25135   3.309   4.714  17.465  0.3257 -0.3821  0.2424
 4558SOL    HW125136   3.227   0.040  17.465 -0.5313 -1.8235 -0.4588
 4558SOL    HW225137   3.333   0.007  17.556  0.8187  0.4807 -0.0407
 4559SOL     OW25138   4.232   3.860   8.233 -0.2625 -0.3344 -0.5559
 4559SOL    HW125139   4.222   3.774   8.274  2.0150 -0.4026 -0.1151
 4559SOL    HW225140   4.200   3.920   8.301  0.8873  0.2638 -0.5299
 4560SOL     OW25141   3.375   0.203   5.559  0.0235 -0.1666 -0.0021
 4560SOL    HW125142   3.359   0.296   5.542 -3.7229 -0.7887  0.1350
 4560SOL    HW225143   3.281   0.186   5.561  0.0583 -0.5900 -1.6710
 4561SOL     OW25144   3.134   1.157   4.866 -0.5652 -0.0052  1.0539
 4561SOL    HW125145   3.188   1.089   4.826 -1.1446 -0.5961  1.2713
 4561SOL    HW225146   3.148   1.135   4.959  0.6578  1.8125  1.2962
 4562SOL     OW25147   2.518   3.571  14.863  0.7747 -0.5136  0.3292
 4562SOL    HW125148   2.560   3.509  14.923  2.1125 -1.3755 -1.4829
 4562SOL    HW225149   2.591   3.575  14.802  1.0739 -0.1784  0.7115
 4563SOL     OW25150   1.324   0.609  16.968  0.1422  0.8782 -0.2893
 4563SOL    HW125151   1.229   0.598  16.973  0.7033 -3.4176  1.2020
 4563SOL    HW225152   1.355   0.544  16.905 -1.2456 -0.1219  0.0542
 4564SOL     OW25153   3.562   3.582   7.994 -0.2014 -0.3284  0.2266
 4564SOL    HW125154   3.629   3.650   8.004  1.5593 -1.9382 -0.5913
 4564SOL    HW225155   3.599   3.505   8.036  1.2996 -0.2692 -0.9857
 4565SOL     OW25156   4.214   2.951   7.763 -0.4911  0.4367  0.4057
 4565SOL    HW125157   4.173   2.936   7.678 -1.1710 -1.7982  1.1133
 4565SOL    HW225158   4.213   3.045   7.776 -3.1305  0.6848 -1.6375
 4566SOL     OW25159   4.716   3.443   2.039  0.2405 -0.1965  0.5506
 4566SOL    HW125160   4.621   3.443   2.036  0.2792  2.0884 -0.6719
 4566SOL    HW225161   0.015   3.434   1.946 -0.5708 -0.9774  0.4431
 4567SOL     OW25162   2.006   1.270   2.287  0.2120  0.1166 -0.3928
 4567SOL    HW125163   1.929   1.316   2.322  0.4661  0.8550 -0.8182
 4567SOL    HW225164   1.970   1.187   2.254  2.0573 -0.7379 -0.2333
 4568SOL     OW25165   3.104   0.552   6.292  0.0169  0.1465 -0.3957
 4568SOL    HW125166   3.080   0.572   6.201 -0.3879 -0.3334 -0.3922
 4568SOL    HW225167   3.028   0.590   6.336  2.2827  2.1844  1.7318
 4569SOL     OW25168   3.837   1.585   7.581 -0.1666  0.0309  0.2595
 4569SOL    HW125169   3.849   1.680   7.584  1.1282 -0.1111 -0.4916
 4569SOL    HW225170   3.802   1.564   7.668 -1.6216 -0.5607 -0.4653
 4570SOL     OW25171   1.958   1.456   5.899 -0.4296  0.1459 -0.8274
 4570SOL    HW125172   1.988   1.508   5.973 -0.9519  2.4003 -2.2194
 4570SOL    HW225173   2.009   1.374   5.902 -2.6527 -1.2723 -1.7948
 4571SOL     OW25174   2.730   1.750   6.268  0.0217 -0.1157  0.5094
 4571SOL    HW125175   2.639   1.751   6.298 -0.0727  1.3076  0.1739
 4571SOL    HW225176   2.771   1.790   6.344 -0.9173  1.4322  0.1980
 4572SOL     OW25177   0.661   0.315  14.587  1.1942 -0.6727 -0.7691
 4572SOL    HW125178   0.675   0.386  14.524  1.9227  0.8848  1.1614
 4572SOL    HW225179   0.574   0.282  14.564  0.7112 -0.1850  0.3842
 4573SOL     OW25180   1.211   3.727   5.419 -0.1318 -0.0569  0.3264
 4573SOL    HW125181   1.295   3.690   5.448  0.8643  0.2090 -2.1535
 4573SOL    HW225182   1.231   3.807   5.467  1.4448  0.6703 -1.5151
 4574SOL     OW25183   0.193   4.191   3.725  0.8259 -0.1733  0.3559
 4574SOL    HW125184   0.231   4.205   3.812  1.4139 -1.8631  0.3823
 4574SOL    HW225185   0.176   4.097   3.724 -0.7431  0.1057  1.0369
 4575SOL     OW25186   1.889   2.020  15.990  0.3371  0.4829 -0.4923
 4575SOL    HW125187   1.819   2.066  15.945  0.2723  0.0512 -0.8346
 4575SOL    HW225188   1.842   1.943  16.023 -2.8612  1.5284 -2.6129
 4576SOL     OW25189   2.458   0.412  16.403  0.1026 -0.3512  0.0737
 4576SOL    HW125190   2.369   0.381  16.386 -0.6461  0.3220  2.8025
 4576SOL    HW225191   2.508   0.388  16.325  0.6246  1.8334 -0.2660
 4577SOL     OW25192   3.674   0.207   4.163 -0.0137 -0.3306 -0.1407
 4577SOL    HW125193   3.728   0.219   4.085 -2.6634 -0.9679 -2.0614
 4577SOL    HW225194   3.621   0.130   4.144  1.6040 -1.7461  1.1866
 4578SOL     OW25195   3.220   3.343  17.220 -0.3510  0.2212 -0.0883
 4578SOL    HW125196   3.200   3.390  17.302 -0.3261  0.1552 -0.0442
 4578SOL    HW225197   3.308   3.380  17.207  0.2390 -1.6348 -1.2631
 4579SOL     OW25198   0.772   0.102   0.517 -0.2019  0.0108  0.8179
 4579SOL    HW125199   0.826   0.170   0.557  1.2620 -1.2191  0.9439
 4579SOL    HW225200   0.827   0.023   0.511  1.5207  1.2650  0.2409
 4580SOL     OW25201   1.554   4.175   0.800  0.5883  0.4193  0.0705
 4580SOL    HW125202   1.511   4.105   0.850 -0.6163  0.6205 -0.6977
 4580SOL    HW225203   1.512   4.247   0.847 -2.0650 -0.5932 -0.7643
 4581SOL     OW25204   3.527   2.325   3.965  0.3667  0.1197 -0.8439
 4581SOL    HW125205   3.564   2.386   3.901  1.8659  3.5646  3.3312
 4581SOL    HW225206   3.517   2.379   4.043  1.7045  0.8397 -1.1808
 4582SOL     OW25207   2.897   2.130   2.990 -0.2707 -0.4572  0.0981
 4582SOL    HW125208   2.956   2.129   3.065  0.3900 -2.4127 -0.4477
 4582SOL    HW225209   2.873   2.038   3.001  0.6938 -0.6168  0.8426
 4583SOL     OW25210   3.080   3.000   7.651  1.1183  0.3143 -0.3984
 4583SOL    HW125211   3.016   2.975   7.718  1.9069 -2.1124 -0.5518
 4583SOL    HW225212   3.082   2.914   7.609  1.9687 -1.2077  2.7627
 4584SOL     OW25213   4.345   2.111  10.768  0.1165  0.5907 -0.4443
 4584SOL    HW125214   4.351   2.031  10.820  1.4503  0.3861 -0.9019
 4584SOL    HW225215   4.285   2.168  10.816 -1.3057 -1.3241  0.0288
 4585SOL     OW25216   2.153   4.410  10.967  0.2576  0.2343  0.2126
 4585SOL    HW125217   2.108   4.492  10.945  1.7074  1.3100  1.2332
 4585SOL    HW225218   2.098   4.334  10.952  0.1279  0.4913 -0.5971
 4586SOL     OW25219   0.492   0.740   4.170  0.2551  0.1135  0.0259
 4586SOL    HW125220   0.479   0.669   4.233 -1.0539  1.3380  1.1555
 4586SOL    HW225221   0.562   0.797   4.201  0.2639 -0.0822  0.3593
 4587SOL     OW25222   0.266   2.080  11.634 -0.3216  0.2058  0.4574
 4587SOL    HW125223   0.249   2.024  11.710 -0.2172  0.6624  0.8163
 4587SOL    HW225224   0.188   2.136  11.639 -1.6188 -1.5292 -0.3773
 4588SOL     OW25225   2.261   0.005   5.353 -0.7981 -0.1478  0.0395
 4588SOL    HW125226   2.222   4.654   5.402 -1.6087 -0.0408 -0.4410
 4588SOL    HW225227   2.190   0.069   5.363  1.0481  1.9420 -0.5364
 4589SOL     OW25228   3.248   1.335   6.317  0.3717 -0.0630  0.2107
 4589SOL    HW125229   3.191   1.344   6.241  1.6923  4.5560 -0.2619
 4589SOL    HW225230   3.187   1.309   6.386 -0.7712  3.0909  0.4170
 4590SOL     OW25231   3.928   4.113  10.877 -0.3629 -0.5789 -0.2635
 4590SOL    HW125232   3.858   4.178  10.878 -1.2691 -1.5807  0.2581
 4590SOL    HW225233   3.881   4.040  10.916  0.0426 -0.1931  0.9423
 4591SOL     OW25234   4.330   3.263  10.135 -0.0811 -0.5085  0.7592
 4591SOL    HW125235   4.293   3.246  10.222 -1.6345 -2.3863 -0.2474
 4591SOL    HW225236   4.262   3.320  10.100  1.2194 -0.4229 -1.6663
 4592SOL     OW25237   2.398   1.986   1.071  0.0158 -0.3493 -0.3855
 4592SOL    HW125238   2.441   2.056   1.121  1.5068 -0.8081 -1.0262
 4592SOL    HW225239   2.468   1.920   1.066 -0.5676 -0.8066 -2.1760
 4593SOL     OW25240   0.211   0.467   5.436  0.3567  0.6479  0.0264
 4593SOL    HW125241   0.140   0.488   5.376 -0.7626 -0.6704  0.8797
 4593SOL    HW225242   0.173   0.395   5.487  0.2524 -0.7620 -2.0571
 4594SOL     OW25243   2.961   3.422   3.477  0.0501  0.1275 -0.3229
 4594SOL    HW125244   3.050   3.454   3.493 -0.1746  0.1938  0.8463
 4594SOL    HW225245   2.952   3.441   3.384 -0.4865  2.6508  0.2369
 4595SOL     OW25246   2.502   3.591  17.653  0.4370  0.4476  0.0701
 4595SOL    HW125247   2.442   3.578   0.033  1.1867 -1.0825  0.4205
 4595SOL    HW225248   2.564   3.523  17.679 -0.7693 -0.6908 -0.0260
 4596SOL     OW25249   2.035   4.099   2.018 -0.4283 -0.5062 -0.9667
 4596SOL    HW125250   2.098   4.028   2.032 -0.8493 -0.7821 -0.4298
 4596SOL    HW225251   2.099   4.155   1.974 -4.0304  3.6784 -0.8447
 4597SOL     OW25252   1.919   0.249   3.433  0.1412  0.8127 -0.1110
 4597SOL    HW125253   1.962   0.328   3.402  2.1556 -0.5929 -0.8581
 4597SOL    HW225254   1.996   0.197   3.455 -1.5575 -1.9115 -0.5685
 4598SOL     OW25255   1.021   2.695  10.619 -0.3304 -0.0880 -0.0381
 4598SOL    HW125256   1.029   2.605  10.649 -1.4081  0.1097  0.8602
 4598SOL    HW225257   1.006   2.743  10.701 -0.6928  1.3692 -0.9610
 4599SOL     OW25258   1.695   4.106   4.875  0.4010 -0.7861 -0.0069
 4599SOL    HW125259   1.705   4.012   4.887 -0.0381 -0.9334 -0.7682
 4599SOL    HW225260   1.716   4.129   4.966  1.9416  1.8380 -1.0482
 4600SOL     OW25261   1.829   2.908   0.289  0.3948  0.1429 -0.0201
 4600SOL    HW125262   1.918   2.936   0.313  0.9785 -1.9756  0.2756
 4600SOL    HW225263   1.837   2.814   0.303  0.4404  0.4332  1.8085
 4601SOL     OW25264   2.337   3.979   8.225  0.1060  0.4839  0.4553
 4601SOL    HW125265   2.259   3.957   8.175  0.9041  0.5148 -0.8053
 4601SOL    HW225266   2.356   3.903   8.280  1.2592 -1.4930 -2.7171
 4602SOL     OW25267   1.102   0.692   4.216 -0.6619 -0.1561 -0.1277
 4602SOL    HW125268   1.060   0.627   4.160  0.5775  0.0698 -1.3134
 4602SOL    HW225269   1.042   0.766   4.204  1.8120  1.9389  0.4283
 4603SOL     OW25270   1.199   4.260   3.702  0.5287  0.2070 -0.9211
 4603SOL    HW125271   1.120   4.207   3.713  0.8007 -0.6713 -3.0302
 4603SOL    HW225272   1.173   4.318   3.631 -0.9546  0.7639  0.0900
 4604SOL     OW25273   3.790   2.251  13.237  0.0191 -0.3824 -0.2457
 4604SOL    HW125274   3.709   2.293  13.267  1.1064  0.2165  1.8172
 4604SOL    HW225275   3.850   2.320  13.265  1.3121 -0.7572 -2.1064
 4605SOL     OW25276   3.725   4.667  17.553  0.6588 -0.1282  0.0462
 4605SOL    HW125277   3.781   0.018  17.578 -0.0462 -0.3399  2.3254
 4605SOL    HW225278   3.683   4.663  17.639 -0.2600 -1.5066 -0.4736
 4606SOL     OW25279   2.900   3.152   1.180 -0.0959  0.0194 -0.8449
 4606SOL    HW125280   2.943   3.184   1.101  3.0360 -0.5837  0.5744
 4606SOL    HW225281   2.896   3.064   1.142  0.8729 -1.2230  1.9016
 4607SOL     OW25282   2.105   1.097   6.442  0.5693  0.3111 -0.2531
 4607SOL    HW125283   2.189   1.135   6.469  2.1170 -2.6331 -0.8744
 4607SOL    HW225284   2.100   1.019   6.497 -2.1813  0.9187  0.3316
 4608SOL     OW25285   0.713   4.190   6.893  0.0796  0.7000  0.0710
 4608SOL    HW125286   0.664   4.108   6.894 -1.4659  1.6287  0.4841
 4608SOL    HW225287   0.710   4.213   6.800  0.0565  1.0754  0.1623
 4609SOL     OW25288   2.551   2.160   2.905 -0.0311 -0.3155  0.2472
 4609SOL    HW125289   2.617   2.164   2.836 -0.4390 -1.2206 -0.1912
 4609SOL    HW225290   2.467   2.176   2.862 -0.1199 -2.9631 -0.5174
 4610SOL     OW25291   2.229   0.013  12.900 -0.5220 -0.1510 -0.0586
 4610SOL    HW125292   2.227   0.070  12.823 -0.8487  1.7026  1.3160
 4610SOL    HW225293   2.137   0.017  12.928 -1.0561 -0.0187 -1.7718
 4611SOL     OW25294   0.140   3.245   4.525  0.0076  0.5597  0.3780
 4611SOL    HW125295   0.224   3.225   4.565  1.5389  1.3597 -2.3947
 4611SOL    HW225296   0.158   3.312   4.458  1.7915 -2.5492 -2.2488
 4612SOL     OW25297   2.457   1.429   3.555  0.1642  0.2231  0.2414
 4612SOL    HW125298   2.463   1.460   3.464 -0.1293  0.8239  0.4297
 4612SOL    HW225299   2.384   1.484   3.585  0.1136 -0.0941  0.6996
 4613SOL     OW25300   0.513   3.820  15.595  0.4313 -0.1866  0.4779
 4613SOL    HW125301   0.539   3.821  15.503  0.9870 -3.2542  0.6112
 4613SOL    HW225302   0.449   3.749  15.600 -0.4975  0.6919  1.0338
 4614SOL     OW25303   3.713   1.783   7.072 -0.2107  0.5129 -0.5753
 4614SOL    HW125304   3.741   1.713   7.130 -2.0478 -0.7182 -1.1430
 4614SOL    HW225305   3.695   1.736   6.990  0.6439 -0.9496  0.0984
 4615SOL     OW25306   1.861   0.561   8.832  0.5589  0.1219 -0.8348
 4615SOL    HW125307   1.934   0.501   8.846  0.4743 -0.0429 -1.1019
 4615SOL    HW225308   1.826   0.534   8.747 -1.7814  0.8260 -0.0675
 4616SOL     OW25309   1.682   4.499   1.161  0.1160  0.3074 -0.6171
 4616SOL    HW125310   1.754   4.441   1.187  1.0983  0.3285 -3.3674
 4616SOL    HW225311   1.614   4.472   1.223  1.9647 -0.9232  0.8723
 4617SOL     OW25312   0.112   3.239   8.138  0.1779 -0.4192  0.2808
 4617SOL    HW125313   0.065   3.178   8.081  0.5663 -0.5784  0.1322
 4617SOL    HW225314   0.039   3.271   8.191  0.9199 -0.2216  1.1626
 4618SOL     OW25315   2.754   3.770  15.521 -0.0504  0.3716  0.2139
 4618SOL    HW125316   2.810   3.701  15.485 -0.2973  0.4733 -0.3639
 4618SOL    HW225317   2.779   3.846  15.468  2.8239 -1.2223 -0.7213
 4619SOL     OW25318   3.973   1.226  10.639  0.0986  0.3404  0.1769
 4619SOL    HW125319   4.042   1.220  10.574  0.3516 -1.2874  0.6059
 4619SOL    HW225320   4.031   1.199  10.710  0.8403 -0.2108 -0.6493
 4620SOL     OW25321   3.466   1.726   8.360 -0.0598  0.0994  0.3984
 4620SOL    HW125322   3.385   1.696   8.402 -1.2397 -0.3245 -2.2074
 4620SOL    HW225323   3.459   1.820   8.378  0.8972 -0.0576  1.6024
 4621SOL     OW25324   1.159   1.333   8.633 -0.5011 -0.5685  0.0531
 4621SOL    HW125325   1.189   1.387   8.559  0.6426 -3.1254 -1.3600
 4621SOL    HW225326   1.203   1.373   8.708 -1.0403 -2.9498  1.5894
 4622SOL     OW25327   0.058   3.587  15.722 -0.1039 -0.1079 -0.9825
 4622SOL    HW125328   0.106   3.645  15.781 -1.3492  0.1520 -0.2255
 4622SOL    HW225329   4.710   3.647  15.701 -1.2526 -2.0550 -2.5664
 4623SOL     OW25330   1.929   1.026   8.340 -0.1793 -0.1460  0.1915
 4623SOL    HW125331   1.927   1.007   8.433  1.4500  1.7541  0.6144
 4623SOL    HW225332   2.013   1.071   8.329 -2.1803  3.2927 -0.9750
 4624SOL     OW25333   1.291   2.795   4.604  0.0205 -0.3918  0.4040
 4624SOL    HW125334   1.285   2.848   4.683  1.4301  0.9022 -0.3379
 4624SOL    HW225335   1.279   2.702   4.622  0.4145 -0.3858  0.6908
 4625SOL     OW25336   2.054   2.930   3.309 -0.3605 -0.1480  0.2707
 4625SOL    HW125337   2.016   3.015   3.286 -3.1421 -1.5472 -0.2616
 4625SOL    HW225338   2.140   2.951   3.272 -0.0383 -2.7514 -0.4335
 4626SOL     OW25339   1.383   1.738   5.678  0.7439  0.3414 -0.0013
 4626SOL    HW125340   1.365   1.644   5.678 -0.0568  0.4996  2.5933
 4626SOL    HW225341   1.398   1.745   5.772  1.1321  1.3141 -0.1303
 4627SOL     OW25342   2.514   1.612   5.372 -0.2978  0.1289 -0.4470
 4627SOL    HW125343   2.454   1.539   5.388  0.6261 -0.2559  1.2926
 4627SOL    HW225344   2.583   1.594   5.436 -0.3418 -0.8135 -0.6735
 4628SOL     OW25345   2.018   0.509   6.838 -0.1670  0.0908 -0.1494
 4628SOL    HW125346   1.929   0.543   6.847 -0.2912 -0.8165  2.1196
 4628SOL    HW225347   2.017   0.442   6.906  0.4600 -0.4944 -0.7325
 4629SOL     OW25348   2.820   0.303   6.309  0.1943 -0.0357  0.3422
 4629SOL    HW125349   2.766   0.331   6.383  0.0465  0.8879 -0.1113
 4629SOL    HW225350   2.897   0.261   6.345  0.6270  0.7039  0.2789
 4630SOL     OW25351   1.010   4.525   3.309  0.2518 -0.1429  0.0062
 4630SOL    HW125352   1.015   4.519   3.214 -1.4365 -0.6007 -0.0509
 4630SOL    HW225353   1.097   4.561   3.326  0.3777 -0.4220 -0.0612
 4631SOL     OW25354   2.091   4.040   3.685 -0.2436  0.2704  0.4962
 4631SOL    HW125355   2.161   4.015   3.624 -0.6014 -1.2242  0.6975
 4631SOL    HW225356   2.100   4.135   3.672  0.9822  0.2013  0.8960
 4632SOL     OW25357   0.052   3.219  16.364  0.0340 -0.0962  0.6237
 4632SOL    HW125358   0.006   3.268  16.295  0.3639 -1.6580 -0.6808
 4632SOL    HW225359   4.722   3.231  16.443  0.6787 -3.0050  1.4744
 4633SOL     OW25360   3.325   3.259  13.679 -0.2958 -0.4770 -0.3322
 4633SOL    HW125361   3.254   3.246  13.742  0.5463 -0.3981  0.6317
 4633SOL    HW225362   3.375   3.329  13.722 -1.4036  0.2706 -0.2710
 4634SOL     OW25363   1.774   3.202   7.488 -0.2079  0.2622 -0.0269
 4634SOL    HW125364   1.752   3.290   7.517 -2.2241 -0.0158 -0.7111
 4634SOL    HW225365   1.700   3.157   7.529  0.6360 -0.3195  0.8588
 4635SOL     OW25366   1.723   3.209   7.823 -0.4237 -0.0923 -0.4590
 4635SOL    HW125367   1.695   3.188   7.913 -2.5941 -0.0546 -1.1203
 4635SOL    HW225368   1.795   3.271   7.829  1.0270 -2.0436  2.1679
 4636SOL     OW25369   4.184   3.020   2.722 -0.4103 -0.2582  0.1877
 4636SOL    HW125370   4.222   3.059   2.644  0.4899 -0.9066  0.3043
 4636SOL    HW225371   4.176   2.931   2.686  1.2492  0.8376 -2.8781
 4637SOL     OW25372   3.383   4.309  12.208 -0.4265 -0.1755 -0.2029
 4637SOL    HW125373   3.335   4.380  12.250  0.9364 -0.1281  1.2728
 4637SOL    HW225374   3.336   4.288  12.127 -0.4582  0.3376 -0.3168
 4638SOL     OW25375   0.749   0.227  11.356  0.5128  0.2314  0.5621
 4638SOL    HW125376   0.713   0.152  11.403  1.6465 -0.1186  0.8573
 4638SOL    HW225377   0.681   0.274  11.308  0.7288  0.2123  0.2344
 4639SOL     OW25378   1.792   2.284  10.988  0.3414 -0.4458 -0.1061
 4639SOL    HW125379   1.871   2.338  10.989  0.2315 -0.2402 -2.1826
 4639SOL    HW225380   1.728   2.346  11.024 -0.3784 -1.5133  0.4563
 4640SOL     OW25381   3.390   1.990   1.896 -0.2062  0.2940  0.1320
 4640SOL    HW125382   3.310   1.958   1.938 -0.6513  1.5833  0.2444
 4640SOL    HW225383   3.355   2.042   1.824  3.3832  0.6874 -1.3387
 4641SOL     OW25384   2.236   0.095   7.877 -0.2954  0.0288  0.6749
 4641SOL    HW125385   2.249   0.157   7.949  1.5804 -2.4964  2.5582
 4641SOL    HW225386   2.148   0.109   7.842 -0.2471 -1.3383 -0.0114
 4642SOL     OW25387   3.869   2.831   3.747 -0.0468  0.2109  0.1479
 4642SOL    HW125388   3.817   2.767   3.795 -2.5223  1.5782 -0.7351
 4642SOL    HW225389   3.833   2.824   3.659  0.0873 -1.6623  0.2435
 4643SOL     OW25390   1.588   1.927   5.589 -0.7637  0.3364  0.6255
 4643SOL    HW125391   1.542   1.843   5.590  0.4266 -0.3453 -0.9570
 4643SOL    HW225392   1.678   1.899   5.605 -0.9993 -0.8435 -0.0963
 4644SOL     OW25393   4.160   2.130   4.468  0.2421 -0.4148 -0.1287
 4644SOL    HW125394   4.137   2.039   4.487  0.2282 -0.1618  1.0718
 4644SOL    HW225395   4.241   2.123   4.417 -0.3480 -0.2206 -1.0940
 4645SOL     OW25396   2.133   1.027   2.111  0.4069 -0.4762  0.0067
 4645SOL    HW125397   2.175   0.945   2.134  1.0016 -0.1030  0.2515
 4645SOL    HW225398   2.113   1.009   2.019 -0.1192  0.1973 -0.0112
 4646SOL     OW25399   2.518   4.648  12.620  0.1928  0.0383 -0.6386
 4646SOL    HW125400   2.526   4.601  12.702 -0.5522 -0.1866 -0.6933
 4646SOL    HW225401   2.436   4.606  12.596 -0.6991  1.6377 -0.4053
 4647SOL     OW25402   1.253   4.120   7.833  0.5051 -0.1470 -0.7313
 4647SOL    HW125403   1.317   4.126   7.762  3.1394  0.9868  1.7475
 4647SOL    HW225404   1.293   4.061   7.896  1.8064 -0.3493 -1.7583
 4648SOL     OW25405   0.078   2.333  16.709 -0.1350  0.3510  0.0995
 4648SOL    HW125406   0.172   2.319  16.713 -0.0107  1.2099  0.2908
 4648SOL    HW225407   0.067   2.363  16.619  0.6232 -0.3226 -0.2122
 4649SOL     OW25408   3.936   4.266  14.951 -0.0243  0.2350  0.1843
 4649SOL    HW125409   3.993   4.256  14.875 -0.1597  0.6216  0.0313
 4649SOL    HW225410   3.924   4.361  14.959 -2.1221 -0.0055 -0.2443
 4650SOL     OW25411   3.657   2.552  13.380  0.7519 -0.0295  0.0585
 4650SOL    HW125412   3.595   2.486  13.411 -0.2008  0.4975 -0.7072
 4650SOL    HW225413   3.738   2.503  13.392 -0.2100 -1.4286  0.7789
 4651SOL     OW25414   4.435   4.241   7.673  0.4888 -0.2895 -0.0268
 4651SOL    HW125415   4.381   4.182   7.621  1.0793 -1.5732  0.8157
 4651SOL    HW225416   4.476   4.302   7.611 -0.5134  0.3552 -0.0616
 4652SOL     OW25417   0.352   3.923   2.945 -0.0437  0.3235  0.3709
 4652SOL    HW125418   0.343   3.861   2.873  2.2802 -0.6616  0.9313
 4652SOL    HW225419   0.269   3.911   2.991  0.2462  1.3759  1.1661
 4653SOL     OW25420   4.461   1.272   7.269  0.5537 -0.1654 -0.1791
 4653SOL    HW125421   4.369   1.261   7.292  0.6285 -0.4933 -0.0234
 4653SOL    HW225422   4.459   1.352   7.218  0.6402 -1.2360 -1.8743
 4654SOL     OW25423   0.063   2.875   6.218  0.6999  0.2181 -0.0443
 4654SOL    HW125424   4.709   2.876   6.275 -1.0621  1.4692 -2.4339
 4654SOL    HW225425   0.125   2.857   6.288 -1.6567  1.1813  2.2675
 4655SOL     OW25426   3.925   1.973   5.060 -0.0145 -0.1032  0.5682
 4655SOL    HW125427   3.956   2.060   5.032 -1.0467  0.8475  2.4081
 4655SOL    HW225428   3.914   1.944   4.969 -1.6762  0.5662  0.5623
 4656SOL     OW25429   3.869   4.228  17.286  0.2405  0.2717 -0.0305
 4656SOL    HW125430   3.846   4.144  17.248  0.4074 -1.2232  3.2141
 4656SOL    HW225431   3.827   4.294  17.231 -1.4424 -0.1548  0.7789
 4657SOL     OW25432   1.081   3.318   9.078  0.5113  0.2702  0.3336
 4657SOL    HW125433   1.108   3.260   9.150 -0.1888  0.8286  1.0387
 4657SOL    HW225434   1.140   3.390   9.098  0.7604  0.0319  0.4592
 4658SOL     OW25435   0.934   0.017   7.327 -0.0633  0.5339 -0.2786
 4658SOL    HW125436   0.872   0.038   7.397 -0.0404  1.0872 -0.4251
 4658SOL    HW225437   0.888   4.669   7.281  1.4178 -0.4661 -0.2409
 4659SOL     OW25438   4.436   1.185  10.135  0.0807  0.5275  0.0774
 4659SOL    HW125439   4.478   1.229  10.209 -0.7581  2.1052 -0.4039
 4659SOL    HW225440   4.372   1.126  10.175  0.2999 -0.4536 -1.0392
 4660SOL     OW25441   4.105   4.367   8.386 -0.0753 -0.0233  0.4325
 4660SOL    HW125442   4.082   4.399   8.299 -0.9500  1.0071  1.0438
 4660SOL    HW225443   4.060   4.438   8.431 -1.1695 -1.2973  1.3674
 4661SOL     OW25444   1.766   3.431   6.808 -0.1697 -0.5450 -0.3875
 4661SOL    HW125445   1.855   3.409   6.836 -0.4457 -1.9732 -0.6392
 4661SOL    HW225446   1.717   3.376   6.868  2.2085 -1.2227  0.9578
 4662SOL     OW25447   2.979   0.727   2.991 -0.8839 -0.0120 -0.2536
 4662SOL    HW125448   3.015   0.760   3.073 -0.0485  0.7679 -0.9497
 4662SOL    HW225449   3.064   0.728   2.948 -2.0843 -0.7093 -2.6567
 4663SOL     OW25450   1.615   3.281   9.784 -0.3056  0.4172 -0.0119
 4663SOL    HW125451   1.602   3.350   9.849 -2.7158  0.9220 -1.0317
 4663SOL    HW225452   1.637   3.325   9.702 -2.1919 -2.0833 -1.8460
 4664SOL     OW25453   1.375   4.002   8.043 -0.3475 -0.2239  0.0256
 4664SOL    HW125454   1.398   4.090   8.074  2.0855  0.0031 -2.4939
 4664SOL    HW225455   1.446   3.954   8.085 -1.2562 -1.3188  0.3069
 4665SOL     OW25456   1.077   2.471   6.593  0.1418 -0.3091  0.3799
 4665SOL    HW125457   1.161   2.494   6.632 -0.0875 -0.9381  1.2182
 4665SOL    HW225458   1.030   2.552   6.614  0.9083  0.7762 -1.9925
 4666SOL     OW25459   2.775   1.261   5.675 -0.1185  0.0828 -0.2968
 4666SOL    HW125460   2.774   1.183   5.619  0.0033  0.4786 -0.8446
 4666SOL    HW225461   2.697   1.246   5.728 -0.1567 -0.5648 -0.5264
 4667SOL     OW25462   0.703   1.361   4.059 -0.0583 -0.1240 -0.0837
 4667SOL    HW125463   0.670   1.432   4.114  2.1772  0.9256 -0.1036
 4667SOL    HW225464   0.752   1.405   3.990 -1.5175  1.1535 -0.3087
 4668SOL     OW25465   1.635   4.310   2.562  0.3949 -0.1083 -0.5385
 4668SOL    HW125466   1.693   4.268   2.498  2.2153 -1.3114  1.8798
 4668SOL    HW225467   1.681   4.394   2.562 -0.7091  0.4897 -0.1997
 4669SOL     OW25468   0.468   1.431   8.720  0.2335 -0.1526 -0.8249
 4669SOL    HW125469   0.483   1.453   8.628  1.0625 -0.3777 -0.7439
 4669SOL    HW225470   0.535   1.487   8.760  0.5017 -1.5731  0.7583
 4670SOL     OW25471   4.332   3.062   2.954  0.0952  0.0082  0.5616
 4670SOL    HW125472   4.283   3.113   3.018  2.0766 -0.1505  2.2119
 4670SOL    HW225473   4.273   3.049   2.880 -0.1579  0.9673  0.5967
 4671SOL     OW25474   1.084   3.546   2.379  0.1546  0.1483  0.0553
 4671SOL    HW125475   1.000   3.549   2.334 -0.5813  0.5745  1.4573
 4671SOL    HW225476   1.113   3.637   2.371 -0.5662  0.3651 -0.0541
 4672SOL     OW25477   0.392   3.122   4.774 -0.3714 -0.6090 -0.0525
 4672SOL    HW125478   0.478   3.089   4.801  0.2171  0.1325 -1.0297
 4672SOL    HW225479   0.409   3.169   4.693 -1.3430  0.0041  0.1045
 4673SOL     OW25480   3.478   1.760   6.246 -0.5764 -0.1328 -0.4932
 4673SOL    HW125481   3.387   1.788   6.244 -1.9962 -4.5324  1.0169
 4673SOL    HW225482   3.469   1.675   6.290 -0.5356  1.2132  2.0820
 4674SOL     OW25483   3.198   1.047   4.434 -0.7421  0.4956  0.1308
 4674SOL    HW125484   3.230   0.958   4.450  0.7141  1.2570  1.4316
 4674SOL    HW225485   3.153   1.031   4.351 -3.2034  2.2603  1.1592
 4675SOL     OW25486   3.147   4.510  12.206  0.3140  0.3147 -0.7857
 4675SOL    HW125487   3.084   4.499  12.135 -2.2341  0.6251  1.4201
 4675SOL    HW225488   3.086   4.515  12.280  0.0872  0.5764 -0.9937
 4676SOL     OW25489   2.792   1.062   3.604 -0.1913 -0.1049 -0.1549
 4676SOL    HW125490   2.884   1.054   3.580  0.6006  1.0237  2.4002
 4676SOL    HW225491   2.781   1.157   3.603 -0.5455 -0.1254  1.7513
 4677SOL     OW25492   0.255   3.857  16.819  0.0769 -0.2130  0.5986
 4677SOL    HW125493   0.278   3.772  16.856 -1.1255 -0.1641  1.4479
 4677SOL    HW225494   0.306   3.851  16.737 -1.6518 -1.4977 -0.3742
 4678SOL     OW25495   0.769   3.108   6.366  0.0224 -0.4384  0.4014
 4678SOL    HW125496   0.706   3.041   6.339  0.5487 -0.3858 -0.9165
 4678SOL    HW225497   0.851   3.059   6.364  0.1401 -0.3040  1.9429
 4679SOL     OW25498   1.129   1.990  16.073  0.0436 -0.3904  0.5461
 4679SOL    HW125499   1.171   1.909  16.103 -2.3339 -1.2148  1.5998
 4679SOL    HW225500   1.073   1.954  16.004  1.7953  0.4302 -1.3334
 4680SOL     OW25501   3.825   0.198   7.571  0.1506 -0.1325  0.0250
 4680SOL    HW125502   3.796   0.265   7.633  0.0832 -0.3112  0.1865
 4680SOL    HW225503   3.829   0.243   7.487  1.2562 -0.6052 -0.1851
 4681SOL     OW25504   0.657   3.922   7.470 -0.1453 -0.6758  0.3727
 4681SOL    HW125505   0.562   3.924   7.483 -0.2089 -2.8291  0.2272
 4681SOL    HW225506   0.659   3.899   7.377  0.9804  0.4212  0.1357
 4682SOL     OW25507   4.075   4.000   4.897  0.5972 -0.3237  0.0071
 4682SOL    HW125508   4.163   4.010   4.932  0.3800  1.2231  0.1169
 4682SOL    HW225509   4.067   3.905   4.891  0.6040 -0.3919  1.2390
 4683SOL     OW25510   2.598   2.781   6.637  0.4853 -0.4423 -0.4389
 4683SOL    HW125511   2.603   2.694   6.677  2.9574 -0.9033 -1.7673
 4683SOL    HW225512   2.529   2.817   6.693  0.6179 -2.5531  1.0819
 4684SOL     OW25513   3.609   4.003   0.829 -0.8045 -0.0443  0.1289
 4684SOL    HW125514   3.661   4.081   0.811 -2.0180  1.2606  2.2984
 4684SOL    HW225515   3.673   3.964   0.889 -2.5485 -1.5869  1.0085
 4685SOL     OW25516   1.179   0.140   7.328  0.1937  0.6147 -0.2454
 4685SOL    HW125517   1.085   0.125   7.335  0.3698 -0.0982  0.7139
 4685SOL    HW225518   1.195   0.134   7.234 -0.0740  1.6007 -0.3555
 4686SOL     OW25519   4.306   0.274   8.411 -0.1248 -0.6335  0.0897
 4686SOL    HW125520   4.255   0.319   8.478  2.4633 -1.2484  2.4270
 4686SOL    HW225521   4.382   0.331   8.398 -0.7584  0.1216 -0.3409
 4687SOL     OW25522   3.117   2.674   4.196  0.2549 -0.2345 -0.3557
 4687SOL    HW125523   3.082   2.599   4.148  0.1598 -0.2644 -0.2404
 4687SOL    HW225524   3.056   2.737   4.157  0.8395  0.0687 -0.7889
 4688SOL     OW25525   0.760   0.137   7.507 -0.3891  0.0269  0.2928
 4688SOL    HW125526   0.715   0.222   7.509  0.6499  0.5571  1.3615
 4688SOL    HW225527   0.681   0.084   7.514  0.4253 -1.3925 -1.3758
 4689SOL     OW25528   3.651   1.913   5.054  0.2422  0.0383  0.9729
 4689SOL    HW125529   3.743   1.932   5.070  0.1624  1.3976 -0.1196
 4689SOL    HW225530   3.631   2.004   5.029 -2.9699 -1.3639 -1.7189
 4690SOL     OW25531   1.184   3.328   9.559  0.4699 -0.0799  0.0081
 4690SOL    HW125532   1.233   3.409   9.542 -1.5562  0.6613 -2.3940
 4690SOL    HW225533   1.236   3.306   9.636  0.0065  2.2924  1.0189
 4691SOL     OW25534   4.122   1.851   8.793  0.0804  0.1319  0.4394
 4691SOL    HW125535   4.211   1.842   8.827  0.3736 -0.7969 -0.5705
 4691SOL    HW225536   4.079   1.900   8.864 -2.0725  1.8996 -2.0843
 4692SOL     OW25537   3.907   3.067   9.997 -0.3806  0.4104  0.2725
 4692SOL    HW125538   3.981   3.122   9.972  0.8202 -0.9150  0.8450
 4692SOL    HW225539   3.865   3.046   9.914  0.8125  0.0204 -0.2284
 4693SOL     OW25540   2.118   2.583   8.993 -0.2378 -0.9284 -0.5665
 4693SOL    HW125541   2.085   2.565   9.081 -1.2671  0.3777 -0.6921
 4693SOL    HW225542   2.094   2.504   8.944  0.0489 -0.6825 -1.0917
 4694SOL     OW25543   2.276   0.366   1.518 -0.0459 -0.0038 -0.1042
 4694SOL    HW125544   2.199   0.320   1.486  0.2909 -0.3752 -0.3853
 4694SOL    HW225545   2.341   0.337   1.454  1.5535  1.2559  0.9438
 4695SOL     OW25546   0.354   2.774   2.160  0.3258 -0.0846 -0.2381
 4695SOL    HW125547   0.424   2.793   2.222 -1.1333 -0.1745  1.4477
 4695SOL    HW225548   0.280   2.818   2.202  0.0166  1.2533 -2.2305
 4696SOL     OW25549   1.544   2.839   5.658 -0.0909  0.5469  0.2770
 4696SOL    HW125550   1.582   2.756   5.689  1.5085  1.2254  0.1508
 4696SOL    HW225551   1.528   2.875   5.746  0.9139 -1.3430  1.2467
 4697SOL     OW25552   0.311   4.615   7.083  0.5395 -0.0016 -0.0347
 4697SOL    HW125553   0.260   4.534   7.087  1.7291 -0.7818 -0.6212
 4697SOL    HW225554   0.282   4.646   6.997  4.0578 -1.1428 -1.6108
 4698SOL     OW25555   3.491   0.396   4.197 -0.7209 -0.0920 -0.0652
 4698SOL    HW125556   3.430   0.322   4.189 -0.3125 -0.5678  1.2992
 4698SOL    HW225557   3.575   0.356   4.174 -1.0049  0.2780 -1.7418
 4699SOL     OW25558   4.442   0.719  13.750 -0.0939 -0.0942  0.0919
 4699SOL    HW125559   4.400   0.780  13.811 -2.2599 -1.0748 -0.4142
 4699SOL    HW225560   4.368   0.659  13.755  0.2501 -0.5073  0.1377
 4700SOL     OW25561   3.756   2.040  17.191 -0.5399  0.7711 -0.4444
 4700SOL    HW125562   3.673   2.057  17.236  0.7252  4.5157  0.5008
 4700SOL    HW225563   3.778   2.131  17.172  1.3891  0.3148 -0.4532
 4701SOL     OW25564   3.302   2.428   6.085 -0.8393  0.2281 -0.4066
 4701SOL    HW125565   3.383   2.378   6.090  0.1847  1.8584 -0.6059
 4701SOL    HW225566   3.282   2.400   5.995 -0.1235 -0.9401 -0.2020
 4702SOL     OW25567   2.417   1.909  17.355  0.2088 -0.1071  0.0692
 4702SOL    HW125568   2.422   1.968  17.430 -1.4728 -0.4541  0.4554
 4702SOL    HW225569   2.362   1.960  17.297 -1.8712  0.8518  2.8711
 4703SOL     OW25570   3.606   1.686   3.765 -0.1997 -0.2416  0.0334
 4703SOL    HW125571   3.700   1.692   3.778  0.0891 -0.4347 -2.0736
 4703SOL    HW225572   3.592   1.677   3.671 -2.1738  1.8853  0.1220
 4704SOL     OW25573   4.605   4.107   5.246  0.5361 -0.6045 -0.0450
 4704SOL    HW125574   4.660   4.104   5.325 -0.1132 -0.4023  0.4144
 4704SOL    HW225575   4.585   4.013   5.244 -1.7478 -0.1185 -0.2541
 4705SOL     OW25576   2.585   1.816   1.143  1.0363 -0.5654  0.5243
 4705SOL    HW125577   2.614   1.822   1.234  0.1438  0.9093  0.7160
 4705SOL    HW225578   2.652   1.753   1.116  1.5334  1.0077 -1.8880
 4706SOL     OW25579   1.578   4.635   2.103  0.4446  0.0710 -0.4427
 4706SOL    HW125580   1.554   4.710   2.157  0.3500 -0.8990  0.8582
 4706SOL    HW225581   1.635   4.685   2.044 -0.5185 -0.3982 -1.7913
 4707SOL     OW25582   1.049   4.038   3.398  0.5608  0.0768  0.0160
 4707SOL    HW125583   0.996   4.049   3.319 -0.5535 -0.1755  0.7266
 4707SOL    HW225584   1.026   4.117   3.445 -1.7285 -1.5149  1.5752
 4708SOL     OW25585   1.675   1.512   3.585 -0.3831 -0.1457  0.2488
 4708SOL    HW125586   1.705   1.429   3.623  1.6072  0.1611 -0.6757
 4708SOL    HW225587   1.582   1.516   3.611 -0.3071  0.3652  0.4313
 4709SOL     OW25588   0.698   2.515   6.240 -0.3705  0.0991 -0.2224
 4709SOL    HW125589   0.751   2.594   6.254 -1.6056  0.9060 -0.0191
 4709SOL    HW225590   0.613   2.557   6.227  0.2545  0.7233 -2.1657
 4710SOL     OW25591   1.682   2.937   6.616  0.3744  0.0463  0.1825
 4710SOL    HW125592   1.742   2.870   6.584  0.7803  0.3933  0.2190
 4710SOL    HW225593   1.740   3.007   6.648 -1.7514  2.9623 -2.3784
 4711SOL     OW25594   1.624   4.111  13.086  0.0178 -0.0936 -0.3029
 4711SOL    HW125595   1.554   4.052  13.114  0.0612  0.3337  0.6831
 4711SOL    HW225596   1.571   4.191  13.081  0.4082  0.1093 -1.1948
 4712SOL     OW25597   3.200   4.475  13.591 -0.3362  0.1571  0.0652
 4712SOL    HW125598   3.110   4.461  13.622 -0.2113  1.5121  1.0341
 4712SOL    HW225599   3.211   4.558  13.637  0.4142 -0.7728  1.5520
 4713SOL     OW25600   4.246   2.884   9.058 -0.0395 -0.3916  0.1901
 4713SOL    HW125601   4.263   2.791   9.069  1.3074 -0.1538  0.1951
 4713SOL    HW225602   4.328   2.932   9.068  0.5537 -0.8284 -2.5334
 4714SOL     OW25603   3.560   3.122   4.237  0.3036 -0.7667 -0.5216
 4714SOL    HW125604   3.610   3.136   4.318 -0.0461  1.7696 -0.7367
 4714SOL    HW225605   3.569   3.203   4.186  3.4222 -0.7945 -0.0216
 4715SOL     OW25606   0.010   1.372   6.994  0.0751  0.6427 -0.4684
 4715SOL    HW125607   0.091   1.371   6.943 -0.1233 -1.0537 -0.7295
 4715SOL    HW225608   0.044   1.388   7.082  2.2251 -3.1926 -0.6148
 4716SOL     OW25609   2.433   0.791  17.351 -0.0736  0.3548  0.4724
 4716SOL    HW125610   2.339   0.793  17.371 -0.4051 -0.4671 -0.9956
 4716SOL    HW225611   2.439   0.765  17.259  0.3300 -0.3939  0.7083
 4717SOL     OW25612   0.691   4.141   1.055  0.0582  0.3346  0.1993
 4717SOL    HW125613   0.617   4.196   1.028 -0.4675 -0.0167  0.9273
 4717SOL    HW225614   0.758   4.209   1.048  0.3092  0.1338  0.6849
 4718SOL     OW25615   2.299   1.736   9.646 -0.3168  0.1151 -0.0356
 4718SOL    HW125616   2.360   1.666   9.622  0.2192  0.3684  0.5468
 4718SOL    HW225617   2.342   1.769   9.726 -0.6363 -1.5508  0.8178
 4719SOL     OW25618   2.483   3.642  10.279  0.5952 -0.4686 -0.2280
 4719SOL    HW125619   2.397   3.675  10.254 -0.6367 -2.2160  1.6679
 4719SOL    HW225620   2.477   3.546  10.281 -0.7075 -0.3467  1.3440
 4720SOL     OW25621   0.814   0.883   9.243 -0.3512  0.2662 -0.1905
 4720SOL    HW125622   0.836   0.798   9.203  0.1313 -0.7167  2.1812
 4720SOL    HW225623   0.788   0.935   9.167  0.7883  1.9748  0.6037
 4721SOL     OW25624   2.225   0.104   9.105  0.1173 -0.0761  0.2877
 4721SOL    HW125625   2.279   0.041   9.057  1.2858  1.1929 -0.0855
 4721SOL    HW225626   2.287   0.147   9.164 -0.3946  1.2441 -0.1150
 4722SOL     OW25627   1.692   3.704   1.833  0.0706 -0.3247  0.5047
 4722SOL    HW125628   1.679   3.789   1.874  1.1349  0.9788 -1.8807
 4722SOL    HW225629   1.772   3.722   1.783 -0.6196  2.5086  0.4366
 4723SOL     OW25630   2.121   2.774  11.401 -0.8709  0.0123  0.3000
 4723SOL    HW125631   2.070   2.741  11.327  1.2183  0.7119 -1.4522
 4723SOL    HW225632   2.206   2.786  11.359 -1.2926  1.5141 -0.1177
 4724SOL     OW25633   2.838   1.025   5.217  0.0519 -0.2863 -0.3643
 4724SOL    HW125634   2.758   1.077   5.211  0.8512  0.9128 -0.4434
 4724SOL    HW225635   2.905   1.092   5.208 -1.1870  0.9532 -0.3640
 4725SOL     OW25636   2.101   0.673   6.494 -0.4173 -0.6515  0.2376
 4725SOL    HW125637   2.123   0.741   6.559 -0.5667  0.7083 -1.1439
 4725SOL    HW225638   2.125   0.595   6.544 -0.9875 -0.3874  0.9283
 4726SOL     OW25639   0.759   3.611   7.592  0.1065  0.0031 -0.5046
 4726SOL    HW125640   0.809   3.572   7.520  0.3807 -0.9661  0.2191
 4726SOL    HW225641   0.831   3.671   7.615 -0.4939  1.8113 -3.3368
 4727SOL     OW25642   2.033   1.389   4.202  0.0018 -0.4636 -0.0168
 4727SOL    HW125643   2.065   1.304   4.234  2.0346  0.4867  0.5134
 4727SOL    HW225644   1.943   1.375   4.173  0.2914 -0.6879 -0.8026
 4728SOL     OW25645   4.253   2.302   3.413 -0.4582  0.8376 -0.4541
 4728SOL    HW125646   4.308   2.318   3.336  1.8963 -1.8004  0.6902
 4728SOL    HW225647   4.164   2.293   3.378 -1.0421 -0.0882  1.2434
 4729SOL     OW25648   2.376   0.385   6.425 -0.2468 -0.0429  0.0740
 4729SOL    HW125649   2.317   0.332   6.371 -1.3104  0.9855  0.2094
 4729SOL    HW225650   2.384   0.460   6.366 -3.5787 -0.1668 -0.5622
 4730SOL     OW25651   4.065   3.665   3.732  0.3399 -0.3088 -0.1136
 4730SOL    HW125652   4.104   3.691   3.648  0.1077  3.0292  0.8175
 4730SOL    HW225653   4.145   3.683   3.781  0.1706  0.0629  0.0256
 4731SOL     OW25654   2.547   1.054   6.181  0.2811  0.0776  0.4072
 4731SOL    HW125655   2.622   1.074   6.125  0.7475  1.9217  1.7048
 4731SOL    HW225656   2.496   1.135   6.185  0.5084  0.2613 -0.3686
 4732SOL     OW25657   2.882   3.628   4.569  0.2270  0.2642 -0.2533
 4732SOL    HW125658   2.877   3.717   4.537 -1.1620  0.5763  0.8231
 4732SOL    HW225659   2.977   3.616   4.570  0.1775 -0.0183  0.9547
 4733SOL     OW25660   4.116   2.759   7.543 -0.4808 -0.5570 -0.2780
 4733SOL    HW125661   4.051   2.691   7.526 -1.4851  0.1279  0.7882
 4733SOL    HW225662   4.109   2.819   7.468  0.3301  1.3194  1.1573
 4734SOL     OW25663   2.925   0.918   0.916  0.0227  0.2096 -0.0985
 4734SOL    HW125664   2.895   0.869   0.839 -0.3343 -1.8459  1.3531
 4734SOL    HW225665   2.887   1.002   0.890 -0.7982 -0.1363 -0.0422
 4735SOL     OW25666   3.955   0.718  13.458  0.3949 -0.0681 -0.5742
 4735SOL    HW125667   3.920   0.639  13.415 -0.0276 -1.0063  1.5064
 4735SOL    HW225668   3.917   0.778  13.394 -0.1897 -3.3142 -3.3181
 4736SOL     OW25669   0.395   4.047   4.810 -0.2346  0.0324  0.2866
 4736SOL    HW125670   0.370   4.009   4.726  0.8059 -1.2336  0.5388
 4736SOL    HW225671   0.422   4.131   4.772  2.6705 -0.7288  0.6983
 4737SOL     OW25672   2.618   0.131   4.715  0.3619  0.1615 -0.4240
 4737SOL    HW125673   2.701   0.176   4.730 -0.5279  0.7933  2.5314
 4737SOL    HW225674   2.639   0.073   4.641 -2.2449 -1.3406  0.0123
 4738SOL     OW25675   0.864   3.903  12.773  0.1815  0.2473 -0.3721
 4738SOL    HW125676   0.861   3.871  12.864  2.4073 -0.5341 -0.5745
 4738SOL    HW225677   0.773   3.935  12.768  0.5489  1.3214 -0.1875
 4739SOL     OW25678   3.704   2.722  16.242  0.1144  0.4930  0.1504
 4739SOL    HW125679   3.733   2.811  16.258  1.1427  0.2614 -0.4230
 4739SOL    HW225680   3.698   2.688  16.332 -3.1004 -1.1897 -0.6998
 4740SOL     OW25681   3.564   1.480  12.465  0.1514  0.6710  0.3960
 4740SOL    HW125682   3.578   1.435  12.548 -1.2734  1.5483  1.1089
 4740SOL    HW225683   3.559   1.571  12.494  0.3214  0.6149  0.6027
 4741SOL     OW25684   1.870   0.071   4.248  0.6087 -0.3707  0.6401
 4741SOL    HW125685   1.930   0.015   4.298  0.8780 -1.0448 -0.4068
 4741SOL    HW225686   1.874   0.041   4.157  1.7386 -0.0495  0.5833
 4742SOL     OW25687   3.929   1.463   4.787  0.0117  0.1903  0.1860
 4742SOL    HW125688   3.926   1.385   4.731 -1.5017 -0.4226  1.1292
 4742SOL    HW225689   4.023   1.476   4.799  0.5312 -0.8223 -2.6718
 4743SOL     OW25690   0.444   3.390   7.171  0.3289  0.2372  0.0608
 4743SOL    HW125691   0.391   3.424   7.099  0.1501 -0.1777 -0.0061
 4743SOL    HW225692   0.442   3.297   7.151 -1.8783  0.4176 -0.4823
 4744SOL     OW25693   1.803   3.424   5.003  0.0018  0.5803  0.1097
 4744SOL    HW125694   1.853   3.466   4.933 -0.8379  0.0498 -0.8179
 4744SOL    HW225695   1.734   3.489   5.012 -1.4320 -0.8326 -0.6816
 4745SOL     OW25696   1.486   4.558  14.258 -0.3767 -0.0664  0.6507
 4745SOL    HW125697   1.507   4.613  14.182 -0.4069 -1.5001 -0.3854
 4745SOL    HW225698   1.434   4.615  14.316  1.6823  0.8735  1.5849
 4746SOL     OW25699   0.854   2.336   3.099  0.2312  0.0007 -0.3334
 4746SOL    HW125700   0.840   2.318   3.006  0.0838  1.1713 -0.5351
 4746SOL    HW225701   0.900   2.420   3.091  0.3543 -0.0234  0.1288
 4747SOL     OW25702   1.326   1.526   0.044 -0.4596  0.1705 -0.3070
 4747SOL    HW125703   1.354   1.434   0.041 -1.4930 -0.1159 -0.9793
 4747SOL    HW225704   1.372   1.561   0.121  2.2089 -1.0326 -1.3395
 4748SOL     OW25705   4.249   3.658   4.152 -0.0892 -0.5616  0.2723
 4748SOL    HW125706   4.335   3.624   4.175 -0.4863 -1.4751  0.4331
 4748SOL    HW225707   4.204   3.573   4.155 -1.9891  0.4055 -0.7908
 4749SOL     OW25708   4.709   3.466  12.863  0.0005  0.9948  0.2950
 4749SOL    HW125709   4.677   3.397  12.922  1.3387 -0.0868 -0.2198
 4749SOL    HW225710   0.076   3.435  12.852 -0.8215 -0.0133 -3.5840
 4750SOL     OW25711   2.838   3.700   7.296 -0.1261  0.0248 -0.3041
 4750SOL    HW125712   2.894   3.648   7.353  0.8265  1.0723 -0.2883
 4750SOL    HW225713   2.837   3.644   7.218  1.2238  2.5617 -2.1458
 4751SOL     OW25714   2.469   1.024   7.055  0.1682 -0.5294 -0.2195
 4751SOL    HW125715   2.419   1.054   7.131  0.5945 -1.1477  0.3106
 4751SOL    HW225716   2.398   1.054   6.999  0.7185 -1.0693 -1.2089
 4752SOL     OW25717   1.533   4.642   6.878  0.1294 -0.5088  0.1055
 4752SOL    HW125718   1.511   4.693   6.957  0.0809 -0.0553 -0.2005
 4752SOL    HW225719   1.628   4.655   6.878 -0.1030  1.1727 -0.7631
 4753SOL     OW25720   4.602   0.116   6.307  0.1380  0.3332 -0.1672
 4753SOL    HW125721   4.603   0.205   6.341  2.1057  0.1956  0.1402
 4753SOL    HW225722   4.530   0.124   6.245 -0.1812 -1.2701 -0.0028
 4754SOL     OW25723   0.710   4.583   3.866 -0.2929  0.5497  0.0216
 4754SOL    HW125724   0.752   4.669   3.878  0.6866  0.0884 -0.1328
 4754SOL    HW225725   0.624   4.613   3.837 -0.1054  2.0996  1.0430
 4755SOL     OW25726   1.588   4.043   4.000  0.6037 -0.5415  0.2707
 4755SOL    HW125727   1.497   4.068   4.016  0.9704  0.1923  1.2455
 4755SOL    HW225728   1.614   4.106   3.934 -2.9357 -0.7590 -1.3266
 4756SOL     OW25729   0.982   1.729   0.922  0.1128 -0.2378  0.4454
 4756SOL    HW125730   0.953   1.753   1.010 -0.2409 -1.5154  0.6814
 4756SOL    HW225731   0.954   1.798   0.860  0.3414 -0.9456 -0.4504
 4757SOL     OW25732   4.102   0.767   3.531  0.5023 -0.0499  0.1477
 4757SOL    HW125733   4.084   0.838   3.593  0.0387 -0.0055 -0.0336
 4757SOL    HW225734   4.179   0.793   3.480 -1.1521 -0.2521 -2.4565
 4758SOL     OW25735   1.500   0.594  11.275  0.0022 -0.4936 -0.1199
 4758SOL    HW125736   1.517   0.500  11.278 -3.6079 -1.1616 -0.3893
 4758SOL    HW225737   1.426   0.615  11.219 -1.2701 -0.3516  1.5882
 4759SOL     OW25738   1.257   1.101   4.043  0.5396  0.2858  0.2143
 4759SOL    HW125739   1.338   1.051   4.042  0.8053  0.7000  0.6821
 4759SOL    HW225740   1.191   1.033   4.051  0.2247  0.8401  2.2769
 4760SOL     OW25741   1.795   3.522   8.636 -0.4456 -0.5700 -0.1120
 4760SOL    HW125742   1.734   3.454   8.663 -2.2247  1.3615  0.7122
 4760SOL    HW225743   1.734   3.595   8.631 -0.2772 -0.4195 -0.0053
 4761SOL     OW25744   3.210   0.487   3.315  0.4358  0.0916  0.4801
 4761SOL    HW125745   3.237   0.531   3.395 -1.5128  0.6991  0.8255
 4761SOL    HW225746   3.117   0.514   3.314  0.0661 -1.1889  1.0209
 4762SOL     OW25747   1.650   1.654   5.272 -0.2370 -0.2549 -0.5405
 4762SOL    HW125748   1.599   1.574   5.259 -1.5278  0.3214  0.8966
 4762SOL    HW225749   1.724   1.606   5.309 -1.2022  0.3584  2.2021
 4763SOL     OW25750   1.803   4.369   3.169 -0.1822 -0.0248 -0.2919
 4763SOL    HW125751   1.869   4.301   3.183 -2.2010 -1.7865  0.7337
 4763SOL    HW225752   1.742   4.320   3.113 -1.8095  1.6067  0.0366
 4764SOL     OW25753   3.531   4.363   7.439 -0.5610 -0.6460 -0.0487
 4764SOL    HW125754   3.593   4.421   7.483 -1.6188 -2.0587  3.2690
 4764SOL    HW225755   3.515   4.415   7.360 -0.1810  0.8580  0.8667
 4765SOL     OW25756   3.684   3.766   9.957  0.0086 -0.8850 -0.1044
 4765SOL    HW125757   3.600   3.798   9.925  0.2028 -1.4792 -1.2168
 4765SOL    HW225758   3.747   3.822   9.911 -0.3215  0.5377  1.1811
 4766SOL     OW25759   2.898   1.514  16.507 -0.3173 -0.0030 -0.0203
 4766SOL    HW125760   2.824   1.554  16.553 -0.5156 -0.1939 -0.1698
 4766SOL    HW225761   2.918   1.574  16.435  1.6248 -0.2769  0.3032
 4767SOL     OW25762   0.408   2.612   9.426  0.0170  0.2650 -0.3363
 4767SOL    HW125763   0.313   2.611   9.441  0.2662 -0.8768  1.0750
 4767SOL    HW225764   0.437   2.606   9.517 -0.0285  0.5293 -0.3040
 4768SOL     OW25765   1.423   3.596  17.603 -0.0915 -0.1495 -0.0289
 4768SOL    HW125766   1.402   3.591   0.003 -0.2738  0.4648 -0.0318
 4768SOL    HW225767   1.515   3.617  17.587 -0.2728  1.6093  1.1623
 4769SOL     OW25768   3.648   4.204   2.364  0.6976  0.7886 -0.8945
 4769SOL    HW125769   3.673   4.294   2.382  1.9607  0.2672 -0.0454
 4769SOL    HW225770   3.625   4.173   2.452 -2.2073 -0.4744 -2.0910
 4770SOL     OW25771   3.320   0.607   8.521 -0.7330 -0.4500 -0.1177
 4770SOL    HW125772   3.234   0.569   8.541 -1.6210  2.1379  0.9698
 4770SOL    HW225773   3.289   0.693   8.490  1.7422  0.8482  1.0582
 4771SOL     OW25774   2.601   0.941   4.422  0.0351  0.2383  0.2290
 4771SOL    HW125775   2.644   0.962   4.505 -0.5669  1.2272  0.2879
 4771SOL    HW225776   2.531   1.004   4.409  0.0952  0.5000  1.1894
 4772SOL     OW25777   3.746   0.954   5.596  0.0309  0.2256 -0.1187
 4772SOL    HW125778   3.778   1.039   5.628  2.3278 -1.4805  2.1094
 4772SOL    HW225779   3.748   0.961   5.501 -0.5143 -0.6670 -0.1911
 4773SOL     OW25780   0.638   3.925   6.841  0.3342 -0.4397  0.3629
 4773SOL    HW125781   0.652   3.856   6.905 -1.4441 -1.3968 -0.2956
 4773SOL    HW225782   0.553   3.906   6.803  0.8849  0.0084 -1.0929
 4774SOL     OW25783   3.203   3.043  16.766  0.1314  0.2680  0.2620
 4774SOL    HW125784   3.212   2.953  16.736  0.0084  0.7074 -1.0980
 4774SOL    HW225785   3.242   3.095  16.696  2.8999 -1.8971  0.2279
 4775SOL     OW25786   3.852   1.127   1.871 -0.2945  0.5713  0.6009
 4775SOL    HW125787   3.809   1.049   1.837 -0.3606  0.6221  0.5701
 4775SOL    HW225788   3.812   1.193   1.815 -0.2169  0.1212  0.0203
 4776SOL     OW25789   1.631   0.910   4.643 -0.4285  0.4638  0.5354
 4776SOL    HW125790   1.573   0.985   4.632 -0.4143  0.7376  2.2595
 4776SOL    HW225791   1.569   0.848   4.681 -1.3217  0.1707 -1.4364
 4777SOL     OW25792   4.467   3.119   5.396 -0.2849  0.0411  0.5428
 4777SOL    HW125793   4.462   3.124   5.491 -0.6227 -0.9924  0.5833
 4777SOL    HW225794   4.559   3.098   5.384  0.0715  1.4419  0.8405
 4778SOL     OW25795   4.228   4.564   0.268  0.1027  0.0023 -0.2867
 4778SOL    HW125796   4.265   4.513   0.196  2.0084  1.6384 -0.4576
 4778SOL    HW225797   4.157   4.505   0.295  0.0009  0.4675  0.4691
 4779SOL     OW25798   0.099   3.142   8.495  0.2494 -0.2312  0.6836
 4779SOL    HW125799   0.135   3.105   8.575 -1.9641 -1.0607  1.3002
 4779SOL    HW225800   0.085   3.061   8.445 -1.4119 -0.5521  1.6643
 4780SOL     OW25801   0.044   4.038   0.257  0.2507  0.3081 -0.3550
 4780SOL    HW125802   4.672   4.031   0.254  0.2237  0.6858 -0.4360
 4780SOL    HW225803   0.066   4.014   0.347 -0.3270  1.2957  0.0544
 4781SOL     OW25804   2.611   4.628   5.188  0.0639  0.4798 -0.1646
 4781SOL    HW125805   2.570   4.548   5.221 -1.7934  1.4937 -0.0136
 4781SOL    HW225806   2.593   4.614   5.095  1.6934 -1.7374 -0.1587
 4782SOL     OW25807   1.284   2.001   8.522 -0.2286  0.5655 -0.6066
 4782SOL    HW125808   1.288   2.078   8.579 -2.7837  0.6747 -0.5700
 4782SOL    HW225809   1.288   2.033   8.432 -2.2907  2.4691 -0.0231
 4783SOL     OW25810   3.775   2.028   7.632  1.5096 -0.0614 -0.5956
 4783SOL    HW125811   3.741   1.950   7.674 -0.3884  0.6308 -0.8416
 4783SOL    HW225812   3.786   2.076   7.714  1.4574  0.1841 -0.7290
 4784SOL     OW25813   4.128   1.663   4.127  0.1265  0.2462  0.0889
 4784SOL    HW125814   4.154   1.581   4.084 -0.0311  0.5308 -0.5358
 4784SOL    HW225815   4.183   1.726   4.080 -0.6014  0.2093 -0.7977
 4785SOL     OW25816   0.872   2.098   5.987  0.4334  0.4407  0.8719
 4785SOL    HW125817   0.858   2.192   6.002 -0.6920  0.3576  0.3201
 4785SOL    HW225818   0.883   2.077   6.080  0.2087  0.7128  0.9609
 4786SOL     OW25819   0.134   3.440   0.055 -0.6022  0.3119  0.3673
 4786SOL    HW125820   0.163   3.384   0.127 -1.8369 -0.8659 -0.0558
 4786SOL    HW225821   0.200   3.421  17.681 -1.1414  0.1438 -0.1118
 4787SOL     OW25822   4.266   1.546   4.464  0.3282 -0.2804  0.1319
 4787SOL    HW125823   4.172   1.564   4.452  0.1470 -0.2642  1.5737
 4787SOL    HW225824   4.264   1.517   4.556 -1.6831 -2.5517 -0.6200
 4788SOL     OW25825   3.069   4.278   5.820  0.3626  0.4720  0.1979
 4788SOL    HW125826   2.983   4.294   5.782  1.0001  3.3193 -0.0441
 4788SOL    HW225827   3.070   4.182   5.830  0.9606  0.5607  0.9550
 4789SOL     OW25828   3.936   0.846   4.646  0.8703 -0.4460 -0.1849
 4789SOL    HW125829   3.871   0.796   4.695  0.4369  0.8472  0.5482
 4789SOL    HW225830   3.998   0.776   4.623  2.2920  0.9224 -0.5608
 4790SOL     OW25831   3.168   1.896   5.829  0.5071 -0.6491  0.3894
 4790SOL    HW125832   3.171   1.816   5.881  2.7116 -1.5057 -1.0671
 4790SOL    HW225833   3.261   1.916   5.820  0.0282  1.4099 -0.0161
 4791SOL     OW25834   1.144   1.623   7.659 -0.0658 -0.0920 -0.3410
 4791SOL    HW125835   1.184   1.618   7.572  1.3032  1.9056  0.1805
 4791SOL    HW225836   1.196   1.691   7.702 -1.1356  0.9073 -0.6208
 4792SOL     OW25837   2.142   0.608   7.268 -0.3591 -0.2043  0.1761
 4792SOL    HW125838   2.167   0.586   7.179 -1.3867  0.2380 -0.2179
 4792SOL    HW225839   2.215   0.576   7.321 -1.0818 -0.5299  0.9850
 4793SOL     OW25840   0.189   0.265   8.180  0.1925  0.1924  0.2994
 4793SOL    HW125841   0.221   0.267   8.270 -1.3222  1.9301  0.8020
 4793SOL    HW225842   0.131   0.190   8.189 -1.3343  1.3228  0.0058
 4794SOL     OW25843   0.709   0.250   2.727 -0.2867  0.3199 -0.1336
 4794SOL    HW125844   0.665   0.165   2.723  1.7638 -0.6411 -2.8467
 4794SOL    HW225845   0.796   0.218   2.705 -0.0284  0.4419  0.7252
 4795SOL     OW25846   2.418   3.281   3.014 -0.0107 -0.4676 -0.6451
 4795SOL    HW125847   2.405   3.344   2.943 -0.3020  0.2635  0.0543
 4795SOL    HW225848   2.336   3.275   3.062 -0.5867 -1.4857 -1.7498
 4796SOL     OW25849   2.350   1.637  16.008 -0.4434 -0.7530  1.2206
 4796SOL    HW125850   2.386   1.591  15.932  0.4214  1.4480  0.2940
 4796SOL    HW225851   2.401   1.717  15.993 -1.3866 -0.5223 -0.6680
 4797SOL     OW25852   2.604   2.687   9.174  0.0503 -0.0802 -0.4590
 4797SOL    HW125853   2.673   2.742   9.137  2.0149 -2.8840 -1.0595
 4797SOL    HW225854   2.528   2.714   9.121 -1.2476 -0.1424  1.3877
 4798SOL     OW25855   0.512   2.891  11.320 -0.2949 -0.0145 -0.1274
 4798SOL    HW125856   0.494   2.985  11.324 -0.9240 -0.1289 -0.2188
 4798SOL    HW225857   0.446   2.860  11.382  0.4742 -2.5079 -0.5475
 4799SOL     OW25858   0.903   3.851   2.303  0.5730 -0.3846  0.0610
 4799SOL    HW125859   0.892   3.756   2.300  1.7479 -0.5664  1.3800
 4799SOL    HW225860   0.855   3.885   2.227 -0.0925  0.3406  0.8010
 4800SOL     OW25861   2.174   4.626   8.255  0.1842 -0.2194 -0.4133
 4800SOL    HW125862   2.181   4.630   8.350 -0.0974 -1.5781 -0.3459
 4800SOL    HW225863   2.251   4.675   8.224 -1.2592  0.3627 -3.0898
 4801SOL     OW25864   2.805   0.139   9.164  0.2279 -0.2325 -0.1820
 4801SOL    HW125865   2.887   0.139   9.213 -0.0528 -0.7414  0.2830
 4801SOL    HW225866   2.741   0.097   9.222  0.1255 -1.7269 -1.3841
 4802SOL     OW25867   3.660   2.157   2.827  0.1365 -0.5660  0.2000
 4802SOL    HW125868   3.753   2.166   2.806  0.1073 -1.8240 -0.4545
 4802SOL    HW225869   3.636   2.250   2.834 -0.2302 -0.5979 -0.5687
 4803SOL     OW25870   1.629   0.225   5.941  0.3267  0.3793 -0.2622
 4803SOL    HW125871   1.675   0.264   6.016  0.0479  1.3194 -0.5782
 4803SOL    HW225872   1.582   0.159   5.991  0.9193 -1.1355 -1.7058
 4804SOL     OW25873   4.366   0.575   2.614  0.2515  0.6434 -0.0322
 4804SOL    HW125874   4.322   0.551   2.533 -0.6075 -1.4627  1.0434
 4804SOL    HW225875   4.338   0.666   2.612  1.2528  0.9982  1.5347
 4805SOL     OW25876   2.769   2.070   6.386  0.1710  0.0413  0.0303
 4805SOL    HW125877   2.697   2.131   6.401 -1.5888 -1.5070 -2.0707
 4805SOL    HW225878   2.850   2.119   6.371  0.5751  0.5017  3.7060
 4806SOL     OW25879   3.935   0.188   6.337  0.7251 -0.0890 -0.5053
 4806SOL    HW125880   3.903   0.241   6.410  2.1077  0.2694 -0.1544
 4806SOL    HW225881   3.861   0.214   6.283 -1.3237  0.5613  2.5868
 4807SOL     OW25882   3.616   1.230   6.644 -0.2069  0.5437  0.0372
 4807SOL    HW125883   3.675   1.218   6.718  1.2765 -0.1549 -1.2554
 4807SOL    HW225884   3.586   1.140   6.632 -0.1765  0.3957  1.0312
 4808SOL     OW25885   0.279   0.510   9.288  0.0087  0.0069  0.0526
 4808SOL    HW125886   0.284   0.577   9.357 -1.5576 -0.1326  0.2938
 4808SOL    HW225887   0.190   0.514   9.253  0.2594  1.8339 -0.3686
 4809SOL     OW25888   3.155   0.522   7.618  0.0567 -0.0921 -0.2541
 4809SOL    HW125889   3.209   0.554   7.690  0.1759  2.0488 -1.3036
 4809SOL    HW225890   3.071   0.527   7.664  0.0843 -1.8326 -0.0239
 4810SOL     OW25891   3.355   3.745   7.841 -0.3026 -0.2273 -0.0111
 4810SOL    HW125892   3.418   3.677   7.866  0.6072  0.0997 -1.4215
 4810SOL    HW225893   3.347   3.796   7.922  1.2958 -0.5949  0.3850
 4811SOL     OW25894   0.636   4.203   7.576 -0.2992  0.2346 -0.6970
 4811SOL    HW125895   0.728   4.228   7.567  0.4976 -2.8431 -1.3868
 4811SOL    HW225896   0.625   4.125   7.521  0.3675 -1.0142  0.9351
 4812SOL     OW25897   3.637   1.355  11.924 -0.4692 -0.0612  0.3398
 4812SOL    HW125898   3.622   1.447  11.904 -0.0115  0.7209  3.5352
 4812SOL    HW225899   3.712   1.352  11.983 -0.0230 -1.3786 -0.2802
 4813SOL     OW25900   2.399   4.627   8.892  0.1455 -0.0134 -0.7067
 4813SOL    HW125901   2.445   4.597   8.970  0.1101 -1.7891 -1.3739
 4813SOL    HW225902   2.330   4.562   8.881 -0.3050  0.1673  1.1712
 4814SOL     OW25903   3.011   2.620   7.930  0.3791 -0.3692  0.1243
 4814SOL    HW125904   3.054   2.596   8.012 -1.3450  0.9439  1.4115
 4814SOL    HW225905   2.919   2.598   7.941  0.4705 -0.3648  0.9115
 4815SOL     OW25906   1.739   4.127   5.571 -0.2823 -0.2689  0.1042
 4815SOL    HW125907   1.651   4.119   5.535 -0.2260 -1.4647  0.2566
 4815SOL    HW225908   1.776   4.206   5.530 -1.2258  0.8677  1.4278
 4816SOL     OW25909   3.102   3.148   6.909  0.7700  0.0561  0.4562
 4816SOL    HW125910   3.194   3.128   6.925  0.3884 -2.2237 -0.2907
 4816SOL    HW225911   3.098   3.141   6.813  2.4939  1.7372  0.2467
 4817SOL     OW25912   3.683   2.294   3.528 -0.7066  0.0886 -0.2230
 4817SOL    HW125913   3.698   2.199   3.529 -0.7201  0.0991  3.7781
 4817SOL    HW225914   3.637   2.305   3.445  0.3969 -2.5151 -1.1957
 4818SOL     OW25915   0.288   3.867   0.247 -0.4956 -0.3966  0.3444
 4818SOL    HW125916   0.217   3.847   0.187  0.3535 -2.9059  0.1440
 4818SOL    HW225917   0.242   3.894   0.327 -3.3276 -0.0092 -1.4391
 4819SOL     OW25918   1.415   3.151   5.140 -0.0961 -0.7024  0.4125
 4819SOL    HW125919   1.365   3.217   5.188  2.4582  2.4271 -1.2212
 4819SOL    HW225920   1.398   3.182   5.051 -1.4011 -2.2263  0.1244
 4820SOL     OW25921   2.724   2.109   5.297  0.2659 -0.0992  0.6229
 4820SOL    HW125922   2.711   2.203   5.293  2.4820  0.1201 -1.1951
 4820SOL    HW225923   2.780   2.089   5.222  0.4271 -2.3308  1.3162
 4821SOL     OW25924   1.925   0.275  17.044 -0.0953  0.2612 -0.1112
 4821SOL    HW125925   1.897   0.291  17.134 -2.3540  0.1613 -0.7821
 4821SOL    HW225926   2.010   0.232  17.043  0.3165  1.1436 -2.6535
 4822SOL     OW25927   2.576   3.681   3.938 -0.2021 -0.0558  0.0851
 4822SOL    HW125928   2.507   3.619   3.961  1.3751 -1.9841 -0.4108
 4822SOL    HW225929   2.604   3.703   4.027  0.6909  1.4063 -0.5620
 4823SOL     OW25930   3.499   3.347   4.719 -0.1530 -0.1388 -0.0976
 4823SOL    HW125931   3.437   3.335   4.791  0.8827 -1.8042  0.5190
 4823SOL    HW225932   3.466   3.420   4.667 -0.4421 -0.3741 -0.2476
 4824SOL     OW25933   2.779   3.307  12.416 -0.4684  0.2815 -0.0709
 4824SOL    HW125934   2.702   3.276  12.368 -0.5384 -0.2295  0.3746
 4824SOL    HW225935   2.811   3.221  12.442 -0.4726  1.1894  2.9044
 4825SOL     OW25936   1.580   3.244   8.046 -0.7849 -0.1885 -0.1739
 4825SOL    HW125937   1.531   3.192   8.110  1.7950 -0.4339  1.6234
 4825SOL    HW225938   1.507   3.296   8.013  0.1656 -0.9642 -3.4464
 4826SOL     OW25939   4.137   1.908   9.525  0.1777  0.7279  0.3775
 4826SOL    HW125940   4.181   1.974   9.579 -2.0050  0.2156  2.7906
 4826SOL    HW225941   4.046   1.926   9.545 -0.1962 -0.4820 -0.2594
 4827SOL     OW25942   0.584   3.787   5.725  0.1436  0.4156 -0.5179
 4827SOL    HW125943   0.568   3.775   5.819  2.9566 -0.8026 -0.2014
 4827SOL    HW225944   0.501   3.820   5.690  0.0242  0.0750 -0.5573
 4828SOL     OW25945   2.686   1.502   5.551  0.6486  0.0232  0.1573
 4828SOL    HW125946   2.649   1.519   5.637 -0.1597  2.2206 -0.6047
 4828SOL    HW225947   2.735   1.421   5.563  0.2741 -0.3924 -1.0671
 4829SOL     OW25948   0.816   3.613   1.238  0.2455  0.0336 -0.3635
 4829SOL    HW125949   0.833   3.520   1.225 -1.1779 -0.0898 -1.2884
 4829SOL    HW225950   0.896   3.631   1.288 -0.3456  0.3817  0.4670
 4830SOL     OW25951   0.294   3.507   0.785  0.2578 -0.8634  0.0138
 4830SOL    HW125952   0.326   3.425   0.748  3.8360  0.0825  1.0128
 4830SOL    HW225953   0.356   3.519   0.857  2.9586  0.6737 -2.5811
 4831SOL     OW25954   0.352   1.222  14.880  0.1348 -0.1280 -0.2354
 4831SOL    HW125955   0.310   1.300  14.842 -1.9828 -0.3774  1.5588
 4831SOL    HW225956   0.434   1.236  14.833  1.8342  0.6662  2.9707
 4832SOL     OW25957   1.023   2.429   7.980 -0.4796  0.8759  0.0283
 4832SOL    HW125958   1.010   2.336   7.965  0.7673  0.9163 -1.3633
 4832SOL    HW225959   1.094   2.433   8.044 -1.8823  0.3204  1.6153
 4833SOL     OW25960   0.674   1.057   4.450  0.7447  0.1159 -0.0332
 4833SOL    HW125961   0.698   1.009   4.371 -2.2551  0.6646 -1.2628
 4833SOL    HW225962   0.704   1.147   4.434  1.7476  0.0660  1.5091
 4834SOL     OW25963   2.645   1.080   1.588 -0.5400 -0.2173  0.0431
 4834SOL    HW125964   2.617   1.001   1.634 -0.2389 -1.0160 -1.1386
 4834SOL    HW225965   2.673   1.123   1.669 -0.2462 -0.7838  0.2403
 4835SOL     OW25966   4.306   4.707   4.091  0.1202  0.1752  0.3364
 4835SOL    HW125967   4.323   0.035   4.170 -1.3694  2.1965 -0.6750
 4835SOL    HW225968   4.232   4.651   4.115 -1.6801  1.8373 -1.3483
 4836SOL     OW25969   0.528   1.266   6.901 -0.0563 -0.6578 -0.2254
 4836SOL    HW125970   0.615   1.281   6.865 -0.5044  1.0150 -0.6243
 4836SOL    HW225971   0.478   1.239   6.824  0.1836 -1.1964 -0.1941
 4837SOL     OW25972   1.853   0.895   2.826 -0.0127  0.3805  0.1801
 4837SOL    HW125973   1.766   0.881   2.788  0.3661 -3.0293  0.5643
 4837SOL    HW225974   1.903   0.836   2.770  0.1853 -1.0364  1.8345
 4838SOL     OW25975   2.819   3.977   5.091 -0.5936 -0.0234  0.4173
 4838SOL    HW125976   2.831   4.059   5.139 -1.0676 -0.0046  0.5013
 4838SOL    HW225977   2.775   3.920   5.154  0.2585  0.4291  1.4241
 4839SOL     OW25978   0.912   0.375  14.261 -0.0997  0.4825 -0.3582
 4839SOL    HW125979   0.836   0.433  14.255 -0.1424  0.2451 -2.0241
 4839SOL    HW225980   0.931   0.376  14.355  2.7382  2.3791 -0.9763
 4840SOL     OW25981   1.926   4.687   8.156  0.3131 -0.0389  0.0338
 4840SOL    HW125982   1.927   0.058   8.137 -2.0930  0.3489  1.8342
 4840SOL    HW225983   2.018   4.686   8.183  0.3655 -1.4540 -0.1920
 4841SOL     OW25984   3.393   4.684   8.779  0.2912  0.0194  0.0489
 4841SOL    HW125985   3.431   0.014   8.849 -1.2064 -0.3636  1.1414
 4841SOL    HW225986   3.363   0.025   8.715 -0.8223 -0.3956  0.1494
 4842SOL     OW25987   1.218   3.663   0.208  0.0572 -0.9548 -0.4153
 4842SOL    HW125988   1.302   3.708   0.217 -0.0378 -1.1684  1.5011
 4842SOL    HW225989   1.160   3.739   0.196  0.4043 -0.7912 -1.0578
 4843SOL     OW25990   1.250   0.394   0.888  0.8527 -0.6034 -0.3377
 4843SOL    HW125991   1.198   0.439   0.822 -0.8868 -3.9503 -1.2505
 4843SOL    HW225992   1.275   0.317   0.837 -1.9777 -0.7468 -1.5203
 4844SOL     OW25993   2.010   1.330   7.974  0.0200 -0.1072  0.1304
 4844SOL    HW125994   2.094   1.372   7.958 -1.4460  2.3437 -1.1614
 4844SOL    HW225995   1.994   1.293   7.887  1.5268  0.2735 -0.3000
 4845SOL     OW25996   2.327   2.723  16.175  0.0530  0.7067 -0.2735
 4845SOL    HW125997   2.272   2.739  16.251 -1.7315  0.1404 -1.4490
 4845SOL    HW225998   2.301   2.631  16.163 -0.6761  0.5035  3.1113
 4846SOL     OW25999   1.466   4.054   8.690 -0.1786 -0.3169 -0.1104
 4846SOL    HW126000   1.535   4.118   8.673 -0.1146 -0.3112  0.1790
 4846SOL    HW226001   1.495   4.013   8.772 -0.6701 -0.8623 -0.2083
 4847SOL     OW26002   0.573   0.330  13.000  0.6420  0.3277  0.0571
 4847SOL    HW126003   0.580   0.242  13.038 -1.0845 -1.3327 -3.3832
 4847SOL    HW226004   0.665   0.352  12.982  0.9207 -1.2520 -0.4395
 4848SOL     OW26005   1.204   3.101  14.128  0.3281 -0.1738  0.2409
 4848SOL    HW126006   1.147   3.157  14.182 -0.2835 -0.3990 -0.1631
 4848SOL    HW226007   1.197   3.155  14.049  0.2308 -2.7587 -1.5126
 4849SOL     OW26008   3.029   3.883   5.613  0.2058 -0.3456  0.1707
 4849SOL    HW126009   2.993   3.840   5.690  1.1250 -0.5731  0.4777
 4849SOL    HW226010   3.076   3.805   5.585 -2.2314 -1.0107 -2.1319
 4850SOL     OW26011   2.188   0.917   9.128  0.2230 -0.2833 -0.1643
 4850SOL    HW126012   2.196   0.907   9.223 -0.3858  0.0304 -0.0786
 4850SOL    HW226013   2.232   0.837   9.100  2.1309  0.2438  1.3192
 4851SOL     OW26014   2.010   3.871   0.770  0.3183  0.2870 -0.1111
 4851SOL    HW126015   2.098   3.835   0.769  0.6681  1.1092  0.4740
 4851SOL    HW226016   1.970   3.843   0.687  0.4923 -2.1560  0.6547
 4852SOL     OW26017   3.380   1.441   8.111 -0.2349  0.1797 -0.3924
 4852SOL    HW126018   3.386   1.355   8.069 -1.4749 -1.0596  1.9805
 4852SOL    HW226019   3.438   1.423   8.184 -0.2565 -0.2020 -0.4691
 4853SOL     OW26020   2.365   2.270   7.413 -0.7161 -0.1745  0.3222
 4853SOL    HW126021   2.283   2.222   7.403 -2.0512  2.0344  0.5883
 4853SOL    HW226022   2.346   2.347   7.359 -0.6959 -0.5553 -0.2295
 4854SOL     OW26023   1.136   0.949   8.092  0.0789  0.0315  0.1641
 4854SOL    HW126024   1.086   0.878   8.134  0.5259  1.0487  2.4393
 4854SOL    HW226025   1.084   1.023   8.124 -0.5507  0.3698 -1.6757
 4855SOL     OW26026   2.226   4.058   5.954  0.1589  0.1306  0.4205
 4855SOL    HW126027   2.272   4.020   6.029  0.1384 -0.8168 -0.0488
 4855SOL    HW226028   2.170   4.129   5.984 -0.2088  0.5568 -1.2630
 4856SOL     OW26029   4.720   2.189  11.137  0.2602  0.0236 -0.4886
 4856SOL    HW126030   4.676   2.183  11.052 -0.8871  0.4012  0.0886
 4856SOL    HW226031   4.676   2.259  11.185 -0.5323  0.9664 -2.5750
 4857SOL     OW26032   0.653   3.190   5.267  0.5491 -0.4134 -0.4111
 4857SOL    HW126033   0.558   3.189   5.265  0.4643  2.6618  2.2023
 4857SOL    HW226034   0.665   3.285   5.266 -1.0878 -0.2004  1.6967
 4858SOL     OW26035   0.479   3.507   0.975  0.0629 -0.0300  0.8189
 4858SOL    HW126036   0.535   3.430   0.967  2.2836  1.5052  1.4246
 4858SOL    HW226037   0.506   3.540   1.062 -0.5749  0.5139  0.8098
 4859SOL     OW26038   2.115   1.892  14.028 -0.5573  0.0924 -0.3503
 4859SOL    HW126039   2.021   1.878  14.022 -0.5473 -1.0810  2.3574
 4859SOL    HW226040   2.119   1.942  14.109  0.3091 -1.1293  0.3706
 4860SOL     OW26041   3.565   0.971   3.516 -0.1179  0.2535  0.4756
 4860SOL    HW126042   3.546   1.003   3.604 -1.7058  1.1114 -0.1652
 4860SOL    HW226043   3.658   0.952   3.523 -0.3351 -1.3822 -1.2821
 4861SOL     OW26044   4.201   3.638   2.584 -0.1510  0.1358 -0.0697
 4861SOL    HW126045   4.246   3.723   2.575  1.6017 -0.6845  0.8454
 4861SOL    HW226046   4.263   3.611   2.652  0.5967 -1.2017 -1.2865
 4862SOL     OW26047   1.394   2.432  14.653 -0.1507  0.6942  0.1788
 4862SOL    HW126048   1.468   2.373  14.644  0.0382  0.7815  1.1823
 4862SOL    HW226049   1.396   2.486  14.573  2.6059 -0.8763 -0.7769
 4863SOL     OW26050   1.409   2.587  14.429  0.1242 -0.1001  0.2877
 4863SOL    HW126051   1.503   2.572  14.417 -0.1367 -2.9170  1.6054
 4863SOL    HW226052   1.377   2.587  14.339 -0.5156 -2.8885  0.5113
 4864SOL     OW26053   0.847   3.890  14.714 -0.0654 -0.3900 -0.2519
 4864SOL    HW126054   0.768   3.944  14.710  1.0915  1.2324 -1.2398
 4864SOL    HW226055   0.835   3.829  14.642 -1.5870  0.0569 -0.3786
 4865SOL     OW26056   0.166   0.142  16.105  0.3860 -0.4123 -0.2939
 4865SOL    HW126057   0.087   0.196  16.103  0.6117 -0.0401  0.7919
 4865SOL    HW226058   0.210   0.174  16.027  1.8295 -1.4943  0.0709
 4866SOL     OW26059   0.743   1.131   5.631  0.0110 -0.6655 -0.0150
 4866SOL    HW126060   0.756   1.038   5.651 -0.0976 -0.7999 -0.5837
 4866SOL    HW226061   0.719   1.123   5.539  0.9291  0.1749 -0.3240
 4867SOL     OW26062   3.613   4.518  15.138  0.7379  0.3600  0.1676
 4867SOL    HW126063   3.539   4.537  15.080 -0.8471 -1.5549  1.5503
 4867SOL    HW226064   3.593   4.426  15.154  0.8890  0.2427 -0.3089
 4868SOL     OW26065   2.259   1.605   6.441 -0.3600  0.7960 -0.2439
 4868SOL    HW126066   2.183   1.558   6.408  0.3587 -0.5636 -0.0054
 4868SOL    HW226067   2.250   1.595   6.535 -3.8020  0.2118 -0.6675
 4869SOL     OW26068   1.667   1.428  15.659 -0.1371 -0.5669 -0.1572
 4869SOL    HW126069   1.683   1.334  15.668 -2.2043 -0.9671 -0.7142
 4869SOL    HW226070   1.692   1.451  15.570  1.3690  2.4413  1.0692
 4870SOL     OW26071   1.755   4.423   3.648  0.2576 -0.0235 -0.0320
 4870SOL    HW126072   1.693   4.489   3.678 -0.4726 -0.2362 -1.0520
 4870SOL    HW226073   1.722   4.403   3.560 -1.6934 -1.1686  0.9563
 4871SOL     OW26074   0.212   3.868   7.109  0.4078  0.0611 -0.0629
 4871SOL    HW126075   0.248   3.807   7.044 -0.5001  0.5497 -1.0234
 4871SOL    HW226076   0.163   3.809   7.167  0.2350 -2.3875 -2.6981
 4872SOL     OW26077   2.888   2.500  15.504  0.6825  0.6382 -0.2842
 4872SOL    HW126078   2.934   2.511  15.420  1.2938  2.2426  0.2591
 4872SOL    HW226079   2.833   2.425  15.481  1.1233  0.1951  0.1064
 4873SOL     OW26080   4.539   0.075   3.635 -0.2205 -0.3763 -0.8465
 4873SOL    HW126081   4.598   0.147   3.656 -0.7010  0.1496 -1.3119
 4873SOL    HW226082   4.475   0.130   3.591 -1.3069 -1.2250 -0.3264
 4874SOL     OW26083   2.376   0.249   0.229  0.3674 -0.0776 -0.2894
 4874SOL    HW126084   2.471   0.263   0.224  0.4418 -0.0590  1.1016
 4874SOL    HW226085   2.350   0.318   0.290  0.0585 -0.0383 -0.4695
 4875SOL     OW26086   0.813   2.189   2.179  0.2147  0.1530  0.1940
 4875SOL    HW126087   0.753   2.251   2.137  0.5514 -0.4640 -1.1891
 4875SOL    HW226088   0.815   2.114   2.119  0.1674 -0.6982  1.2467
 4876SOL     OW26089   4.514   3.232  12.910  0.1782 -0.0166 -0.1369
 4876SOL    HW126090   4.453   3.303  12.889 -1.5229 -1.9992 -1.9144
 4876SOL    HW226091   4.459   3.157  12.887 -1.2863  0.9261  0.3416
 4877SOL     OW26092   4.720   1.411   6.364  0.1055  0.3097 -0.4086
 4877SOL    HW126093   0.054   1.487   6.351  2.3554 -1.0042  1.7520
 4877SOL    HW226094   0.026   1.355   6.292  1.0126  3.2629 -2.3396
 4878SOL     OW26095   2.118   2.482  13.609 -0.3484 -0.0189 -0.1007
 4878SOL    HW126096   2.131   2.576  13.603  0.1550 -0.0218  0.9647
 4878SOL    HW226097   2.194   2.447  13.562  0.3640 -0.1472  1.1403
 4879SOL     OW26098   0.987   2.579   7.573  0.3369  0.3917  0.0929
 4879SOL    HW126099   1.024   2.503   7.528 -1.8405 -1.6546  1.7662
 4879SOL    HW226100   0.963   2.635   7.499 -0.3596 -0.1346 -0.0792
 4880SOL     OW26101   1.020   2.131   0.692  0.4172 -0.3065 -0.3042
 4880SOL    HW126102   1.083   2.066   0.661 -0.2529 -0.3011 -1.6853
 4880SOL    HW226103   1.031   2.208   0.635  3.1031 -1.6244 -1.5460
 4881SOL     OW26104   0.981   3.665   3.959 -0.0917 -0.2199  0.2421
 4881SOL    HW126105   0.979   3.637   4.051  3.6307 -0.1534  0.3150
 4881SOL    HW226106   0.913   3.733   3.961  0.0165 -0.0349 -2.8095
 4882SOL     OW26107   2.537   4.274   1.390  0.3958  0.1390 -0.4557
 4882SOL    HW126108   2.512   4.309   1.475  1.1641 -0.9236  0.2062
 4882SOL    HW226109   2.536   4.358   1.344 -0.3509 -0.6892 -1.9393
 4883SOL     OW26110   3.208   2.509   4.534  0.5016  0.6844  0.4183
 4883SOL    HW126111   3.230   2.597   4.564 -0.8185  0.7127  1.3416
 4883SOL    HW226112   3.285   2.479   4.486  1.0827  2.1023  0.4696
 4884SOL     OW26113   2.299   1.211  13.728 -0.0364 -0.1981 -0.0428
 4884SOL    HW126114   2.242   1.258  13.667  0.6708  1.4050  0.5216
 4884SOL    HW226115   2.327   1.150  13.660 -0.0996  0.5917 -0.7772
 4885SOL     OW26116   4.560   0.594   8.600  0.0323 -0.5576  0.0588
 4885SOL    HW126117   4.489   0.638   8.554  1.2809  1.4684  0.0552
 4885SOL    HW226118   4.521   0.510   8.625 -1.7530 -0.3738 -2.1270
 4886SOL     OW26119   1.082   2.880   9.976 -0.3437 -0.4867 -0.0533
 4886SOL    HW126120   1.107   2.851  10.064 -2.7587 -0.5070  0.6474
 4886SOL    HW226121   1.155   2.845   9.926  0.0124  0.6579 -0.3377
 4887SOL     OW26122   2.049   0.433   5.509  0.1326 -0.6355  0.3707
 4887SOL    HW126123   2.139   0.462   5.497 -0.8628  1.6131 -1.5983
 4887SOL    HW226124   2.068   0.388   5.592  1.8006  1.3198  1.0486
 4888SOL     OW26125   1.611   2.949   0.120  0.4238  0.0371 -0.4915
 4888SOL    HW126126   1.644   2.869   0.079 -0.3333 -0.4268 -0.1955
 4888SOL    HW226127   1.684   2.953   0.182  0.3944 -3.4162 -0.2401
 4889SOL     OW26128   3.487   4.415   5.660  0.2118 -0.5009 -0.4341
 4889SOL    HW126129   3.561   4.451   5.709  0.4308  0.0703 -1.1781
 4889SOL    HW226130   3.420   4.396   5.725  0.1361 -0.2345 -0.4327
 4890SOL     OW26131   3.251   3.438   2.081  0.2737 -0.6885 -0.4172
 4890SOL    HW126132   3.165   3.446   2.040  0.5168 -0.7473 -0.9492
 4890SOL    HW226133   3.248   3.349   2.115 -0.7071 -1.6524 -3.0219
 4891SOL     OW26134   0.051   2.600   5.552 -0.4861 -0.0988  0.1048
 4891SOL    HW126135   0.071   2.539   5.622 -1.2231  0.3031  0.6597
 4891SOL    HW226136   4.696   2.555   5.519 -0.7765  0.0696  0.5672
 4892SOL     OW26137   3.658   2.320   8.154 -0.2527 -0.4736 -0.2894
 4892SOL    HW126138   3.612   2.240   8.181 -0.8134 -0.5390 -1.4333
 4892SOL    HW226139   3.626   2.328   8.064 -1.1674  2.4209  0.2967
 4893SOL     OW26140   0.486   1.741   1.767  0.8091 -0.7678 -0.1866
 4893SOL    HW126141   0.580   1.729   1.783  0.7313  1.0884  1.8019
 4893SOL    HW226142   0.479   1.688   1.688  1.8948 -2.4977  0.8752
 4894SOL     OW26143   0.184   2.589   4.163  0.6245  0.2531  0.3502
 4894SOL    HW126144   0.240   2.537   4.105  0.2495  1.1583 -0.8168
 4894SOL    HW226145   0.107   2.532   4.163  0.9978 -0.2551 -0.0049
 4895SOL     OW26146   3.902   3.488   5.952 -0.4279 -0.2565 -0.2350
 4895SOL    HW126147   3.891   3.583   5.949  0.7928 -0.1295 -0.6555
 4895SOL    HW226148   3.814   3.459   5.927 -0.8067  1.3160 -0.7219
 4896SOL     OW26149   2.854   0.379   8.386  0.1669 -0.1794  0.5322
 4896SOL    HW126150   2.817   0.299   8.422  1.9169 -1.6377 -0.8811
 4896SOL    HW226151   2.936   0.387   8.436  0.0726 -1.4750  0.8759
 4897SOL     OW26152   2.167   1.065   7.396 -0.0482  0.5409 -0.2346
 4897SOL    HW126153   2.159   0.993   7.459  1.0963 -0.0217 -0.7231
 4897SOL    HW226154   2.090   1.115   7.423 -0.5280  0.4442 -1.4351
 4898SOL     OW26155   1.248   1.575   8.872  0.1563  0.0834 -0.1353
 4898SOL    HW126156   1.334   1.534   8.862 -0.4503 -0.8206 -1.6486
 4898SOL    HW226157   1.252   1.576   8.967  2.3363 -0.1073 -0.2213
 4899SOL     OW26158   2.541   4.018   2.260 -0.7264  0.3252 -0.1974
 4899SOL    HW126159   2.625   4.042   2.222 -1.1073  2.9409  0.6277
 4899SOL    HW226160   2.519   3.947   2.200 -0.8983  0.2157 -0.0089
 4900SOL     OW26161   3.003   4.500   2.872  0.0424 -0.2044 -0.2080
 4900SOL    HW126162   3.028   4.438   2.803  2.3948  0.8764 -0.3543
 4900SOL    HW226163   2.995   4.581   2.821 -0.6596  0.5516  1.0993
 4901SOL     OW26164   3.626   0.476   7.375  0.2178  0.4203  0.3981
 4901SOL    HW126165   3.565   0.510   7.441  1.0327 -1.8623  2.3564
 4901SOL    HW226166   3.569   0.431   7.312  0.5760  0.7111 -0.1293
 4902SOL     OW26167   3.224   1.805   5.154  0.4853  0.5542 -0.4153
 4902SOL    HW126168   3.308   1.772   5.120  0.1572  1.9256 -2.5918
 4902SOL    HW226169   3.208   1.738   5.220  1.9867 -0.5627 -1.1930
 4903SOL     OW26170   4.336   2.469   8.900 -0.7470  0.3818  0.1104
 4903SOL    HW126171   4.415   2.426   8.867 -0.8793 -0.4888  0.9274
 4903SOL    HW226172   4.268   2.403   8.885 -1.9599  1.2690  1.7000
 4904SOL     OW26173   3.476   0.362   7.192 -0.2337 -0.1466 -0.2392
 4904SOL    HW126174   3.404   0.397   7.243 -1.3207  1.6709 -3.0179
 4904SOL    HW226175   3.427   0.323   7.119  1.5670 -2.8245 -0.0407
 4905SOL     OW26176   0.522   0.931   5.438 -0.2709 -0.4081 -0.1745
 4905SOL    HW126177   0.613   0.943   5.413  0.2061 -1.1502  1.2092
 4905SOL    HW226178   0.519   0.838   5.460 -0.2848 -0.0378  1.3853
 4906SOL     OW26179   2.381   2.174  13.657 -0.9771 -0.3826  0.3665
 4906SOL    HW126180   2.413   2.178  13.747  1.5160  0.2897 -0.5565
 4906SOL    HW226181   2.290   2.145  13.662 -0.7675 -0.6766  2.2798
 4907SOL     OW26182   1.817   3.413   8.072 -0.1804  0.1224 -0.1011
 4907SOL    HW126183   1.736   3.363   8.063  0.7943 -1.1367 -1.9095
 4907SOL    HW226184   1.799   3.478   8.140  0.4063 -0.7966  0.9211
 4908SOL     OW26185   0.156   1.816   2.995 -0.1239 -0.1066 -0.1865
 4908SOL    HW126186   0.061   1.824   2.997  0.1208  2.7725  0.2176
 4908SOL    HW226187   0.186   1.851   2.911  2.1961  0.0974  0.7219
 4909SOL     OW26188   2.351   4.516   2.635 -0.0764 -1.1383 -0.2274
 4909SOL    HW126189   2.440   4.493   2.660 -0.1018 -0.8827  0.1044
 4909SOL    HW226190   2.313   4.428   2.629 -0.7111 -1.0052  1.6893
 4910SOL     OW26191   1.665   1.308   2.916 -0.1073 -0.3419 -0.2389
 4910SOL    HW126192   1.654   1.368   2.990  4.2260 -0.6492  0.6245
 4910SOL    HW226193   1.744   1.261   2.943  1.3523  0.4163 -3.3071
 4911SOL     OW26194   1.139   2.662  14.471 -0.5817  0.3160  0.0918
 4911SOL    HW126195   1.232   2.652  14.450  0.1198  0.8448  3.0053
 4911SOL    HW226196   1.097   2.596  14.416 -2.1497  0.2861  1.3382
 4912SOL     OW26197   4.458   0.218   6.572  0.3350  0.3466  0.3330
 4912SOL    HW126198   4.540   0.257   6.542  0.4494  0.0566  0.2713
 4912SOL    HW226199   4.395   0.281   6.536  2.1828  2.2569  0.4950
 4913SOL     OW26200   3.540   3.533  12.031  0.2196  0.4885  0.4215
 4913SOL    HW126201   3.608   3.467  12.022 -0.9855 -0.2849 -3.0697
 4913SOL    HW226202   3.597   3.607  12.051  1.3551  0.7452 -3.6342
 4914SOL     OW26203   1.316   0.521  15.204  0.5654  0.0278  0.2428
 4914SOL    HW126204   1.356   0.608  15.204  0.0509  0.2725 -3.6312
 4914SOL    HW226205   1.243   0.553  15.257  1.5409  1.6033  0.6223
 4915SOL     OW26206   0.325   0.702  11.496 -0.1439  0.1827 -0.3494
 4915SOL    HW126207   0.343   0.795  11.480  0.7742  0.2605  1.2105
 4915SOL    HW226208   0.306   0.665  11.410  2.5114 -2.7841  0.3352
 4916SOL     OW26209   4.432   4.214   0.131  0.3265  0.3903  0.5136
 4916SOL    HW126210   4.386   4.298   0.119 -1.1676 -0.7600 -1.8928
 4916SOL    HW226211   4.518   4.249   0.151  0.9576 -1.8668  1.7321
 4917SOL     OW26212   0.966   4.421   6.678 -0.7383 -0.3352 -0.1093
 4917SOL    HW126213   1.054   4.455   6.693 -1.4728  0.6623  2.0118
 4917SOL    HW226214   0.986   4.337   6.636  1.0363  0.9520 -1.7965
 4918SOL     OW26215   1.931   4.693   7.311 -0.5490 -0.3624  0.7868
 4918SOL    HW126216   1.984   4.621   7.278  0.9303  1.4756 -0.8522
 4918SOL    HW226217   1.846   4.660   7.281  0.9157 -1.6152 -2.0043
 4919SOL     OW26218   3.228   0.718   0.913  0.4724 -0.4089  0.0449
 4919SOL    HW126219   3.154   0.699   0.971  0.6978 -0.0458  0.4480
 4919SOL    HW226220   3.187   0.714   0.826 -1.7533 -2.9407  1.2130
 4920SOL     OW26221   4.689   2.404   4.148 -0.3825  0.2411  0.4233
 4920SOL    HW126222   4.639   2.406   4.067  3.2885  1.6059 -1.8035
 4920SOL    HW226223   4.719   2.313   4.144 -1.8912 -0.2045 -0.5480
 4921SOL     OW26224   0.360   1.135  13.218  0.2709  0.3679  0.3978
 4921SOL    HW126225   0.426   1.110  13.283  0.5356  1.1152  0.4263
 4921SOL    HW226226   0.365   1.230  13.204 -1.2665  0.5594  1.1633
 4922SOL     OW26227   3.737   4.515   5.311 -0.3812  0.0832  0.5398
 4922SOL    HW126228   3.684   4.539   5.235  0.2477 -1.2962 -0.3242
 4922SOL    HW226229   3.665   4.474   5.360 -0.6524  1.8316  1.6103
 4923SOL     OW26230   3.380   2.749   8.261 -0.3576 -0.0754  0.4442
 4923SOL    HW126231   3.471   2.771   8.241 -0.2356 -0.4354  0.6194
 4923SOL    HW226232   3.340   2.836   8.268 -0.6763 -0.1864 -0.0321
 4924SOL     OW26233   3.771   4.332   9.023 -0.0194 -0.2689 -0.2212
 4924SOL    HW126234   3.745   4.241   9.011 -0.1933 -0.5498  2.3400
 4924SOL    HW226235   3.725   4.383   8.956  4.1660  2.7311 -0.8124
 4925SOL     OW26236   2.225   4.384  11.224  0.3633 -0.4894  0.0864
 4925SOL    HW126237   2.181   4.465  11.250 -0.4226 -0.1570 -2.2706
 4925SOL    HW226238   2.212   4.380  11.129  1.0324 -2.4138  0.0746
 4926SOL     OW26239   4.266   2.516   1.843 -0.0519  0.0988 -0.5891
 4926SOL    HW126240   4.281   2.443   1.782 -1.9149  1.1043 -2.2458
 4926SOL    HW226241   4.353   2.555   1.833 -0.2976  0.1288 -2.6076
 4927SOL     OW26242   3.535   0.121  13.805  0.3906  0.2706  0.3397
 4927SOL    HW126243   3.613   0.082  13.767 -0.8560  0.0623 -1.9547
 4927SOL    HW226244   3.516   0.196  13.749  0.8002 -0.2141 -0.4489
 4928SOL     OW26245   0.941   2.169   1.734  0.0390 -0.0672  0.3796
 4928SOL    HW126246   0.880   2.095   1.742 -0.1394 -0.2877 -3.1154
 4928SOL    HW226247   0.886   2.232   1.688  2.4220  1.9094  0.2292
 4929SOL     OW26248   2.147   1.616   4.145  0.2542 -0.4994  0.2041
 4929SOL    HW126249   2.063   1.661   4.160 -0.6723 -2.2354  0.2066
 4929SOL    HW226250   2.120   1.525   4.156 -1.2617 -0.2126 -1.1407
 4930SOL     OW26251   2.464   0.604   6.290  0.1140 -0.2754 -0.8983
 4930SOL    HW126252   2.554   0.625   6.267  0.4757 -0.5040  0.3081
 4930SOL    HW226253   2.425   0.689   6.309 -0.3190 -0.7047  0.1165
 4931SOL     OW26254   0.296   2.022   3.711 -0.0992  0.8854  0.2057
 4931SOL    HW126255   0.372   1.966   3.695 -1.3418 -1.1818  1.6595
 4931SOL    HW226256   0.249   2.014   3.628 -1.4185  5.0582  0.5157
 4932SOL     OW26257   3.998   3.604   9.083  0.3038 -0.0868  0.1360
 4932SOL    HW126258   4.062   3.534   9.095 -1.0269 -1.2295  0.4744
 4932SOL    HW226259   3.953   3.620   9.166 -0.7303  0.0106 -0.4394
 4933SOL     OW26260   0.355   2.348   8.645 -0.6654  0.1225  0.8675
 4933SOL    HW126261   0.437   2.397   8.637 -0.3822 -0.5309 -0.2740
 4933SOL    HW226262   0.382   2.259   8.667 -0.7364 -0.6890 -2.4126
 4934SOL     OW26263   1.739   4.650  12.187 -0.3580  0.2509 -0.2448
 4934SOL    HW126264   1.712   4.710  12.117  1.2165 -0.8073 -1.7403
 4934SOL    HW226265   1.821   4.690  12.215 -0.0253  0.3902 -1.4260
 4935SOL     OW26266   0.406   3.719  17.414  0.6770 -0.5206 -0.4824
 4935SOL    HW126267   0.363   3.753  17.493  1.7200 -0.3135  0.0092
 4935SOL    HW226268   0.494   3.709  17.451  0.9965 -0.9736 -1.3723
 4936SOL     OW26269   4.109   0.844   9.108  0.0635 -0.3470  0.6737
 4936SOL    HW126270   4.158   0.808   9.181 -1.0536 -1.6315  0.7795
 4936SOL    HW226271   4.178   0.902   9.075 -0.6360  0.8522  1.3257
 4937SOL     OW26272   4.038   2.966   7.334 -0.4671  0.1388 -0.3301
 4937SOL    HW126273   4.121   2.961   7.286 -0.4607 -0.6442 -0.2478
 4937SOL    HW226274   4.036   3.059   7.355  2.0126  0.1999 -0.3305
 4938SOL     OW26275   4.659   3.360   5.567  0.6380 -0.0845  0.5109
 4938SOL    HW126276   0.020   3.341   5.526  1.7502  1.4874  2.0782
 4938SOL    HW226277   4.679   3.425   5.634 -0.6687 -0.5951  1.4078
 4939SOL     OW26278   1.666   0.765   9.190  0.1693 -0.0327 -0.0187
 4939SOL    HW126279   1.572   0.770   9.207 -0.1223 -0.0766 -1.5730
 4939SOL    HW226280   1.694   0.814   9.267 -3.9322  2.1692  0.0696
 4940SOL     OW26281   2.114   0.240   6.417  0.5136  0.1104  0.3088
 4940SOL    HW126282   2.073   0.302   6.478 -0.4513 -1.5860  1.3835
 4940SOL    HW226283   2.177   0.209   6.482 -3.4069 -3.5089  2.3540
 4941SOL     OW26284   0.426   0.662  15.924  0.3199  0.1758  0.0265
 4941SOL    HW126285   0.476   0.678  15.844  0.9268 -1.7192  0.0229
 4941SOL    HW226286   0.422   0.754  15.952  2.7765  0.1556  0.4378
 4942SOL     OW26287   2.915   0.479   7.746 -0.4142  0.1657  0.2455
 4942SOL    HW126288   2.823   0.454   7.759  0.1209 -1.3393  1.1415
 4942SOL    HW226289   2.957   0.423   7.811  0.5429 -1.1093 -1.4969
 4943SOL     OW26290   1.540   1.793   2.464  0.0673 -0.4712  0.3414
 4943SOL    HW126291   1.466   1.764   2.518  1.6893 -1.8727  1.7834
 4943SOL    HW226292   1.491   1.781   2.382  0.5396 -2.7272  0.3932
 4944SOL     OW26293   4.505   3.967   8.420 -0.0116  0.0462  0.1689
 4944SOL    HW126294   4.562   4.021   8.475  0.1035 -0.9657  1.0522
 4944SOL    HW226295   4.519   3.882   8.462 -0.3647 -0.7109 -1.2576
 4945SOL     OW26296   0.998   0.976   1.407  0.5539 -0.1049 -0.1682
 4945SOL    HW126297   1.012   1.018   1.492  0.6080  0.6729 -0.5590
 4945SOL    HW226298   0.917   0.932   1.432  2.4438 -3.5417 -0.1322
 4946SOL     OW26299   2.266   0.309   8.119  0.4813  0.5813  0.6911
 4946SOL    HW126300   2.308   0.242   8.174  1.3438  1.6989  1.4149
 4946SOL    HW226301   2.248   0.380   8.181  1.9721 -0.1471  1.9919
 4947SOL     OW26302   3.775   2.143   8.478  0.0235  0.0985  0.2638
 4947SOL    HW126303   3.751   2.116   8.389 -0.3987  1.4389 -0.0303
 4947SOL    HW226304   3.833   2.074   8.509 -2.7149 -2.0683  0.5504
 4948SOL     OW26305   2.626   4.042   2.704  0.4741 -0.0707 -0.1689
 4948SOL    HW126306   2.688   3.972   2.685  0.7217  0.7055 -2.2912
 4948SOL    HW226307   2.637   4.099   2.627 -1.3459  0.2237 -0.2003
 4949SOL     OW26308   2.367   1.034   4.333 -0.3088 -0.0510 -0.5774
 4949SOL    HW126309   2.364   1.007   4.241  1.6776  1.5688 -1.1309
 4949SOL    HW226310   2.359   0.949   4.376 -2.3032  0.0998 -0.6409
 4950SOL     OW26311   2.127   3.449  13.828 -0.1903 -0.3097 -0.0681
 4950SOL    HW126312   2.162   3.504  13.898 -0.2476 -2.1478  1.4068
 4950SOL    HW226313   2.034   3.467  13.833 -0.3390 -1.0338 -0.1358
 4951SOL     OW26314   0.394   1.680   2.686  0.0785 -0.5184  0.8239
 4951SOL    HW126315   0.467   1.644   2.735  1.0539 -1.3568 -1.2645
 4951SOL    HW226316   0.417   1.644   2.601 -0.9722 -0.2582  0.4343
 4952SOL     OW26317   2.027   1.620   7.969  0.8113  0.1583  0.5017
 4952SOL    HW126318   2.108   1.583   7.933 -0.2607 -0.5850 -1.1990
 4952SOL    HW226319   2.030   1.580   8.056 -1.5122  0.4443  0.7194
 4953SOL     OW26320   2.579   2.506  14.821  0.6446 -0.0731 -0.2420
 4953SOL    HW126321   2.665   2.536  14.792  0.4189  0.1691 -0.6569
 4953SOL    HW226322   2.611   2.419  14.844 -2.7934 -0.8167  1.7026
 4954SOL     OW26323   4.563   2.945   6.367  0.5134 -0.0062  0.6571
 4954SOL    HW126324   4.534   2.904   6.449  0.6274 -0.5706  0.4166
 4954SOL    HW226325   4.483   2.987   6.336  0.0998  1.0220  3.1050
 4955SOL     OW26326   0.106   0.822   2.478  0.9875 -0.4151  0.7871
 4955SOL    HW126327   0.078   0.819   2.569  2.2034  2.6665  1.2699
 4955SOL    HW226328   0.192   0.861   2.492  1.3981 -1.2115  0.4633
 4956SOL     OW26329   0.292   2.009  12.195 -0.2083 -0.0129 -0.2662
 4956SOL    HW126330   0.316   1.917  12.204 -0.3454  0.0115  0.3076
 4956SOL    HW226331   0.196   2.008  12.195 -0.2000  0.6733  2.7578
 4957SOL     OW26332   2.476   3.097   8.379  0.2803  0.2977 -0.6028
 4957SOL    HW126333   2.441   3.052   8.302 -1.5805  2.9110 -1.2915
 4957SOL    HW226334   2.439   3.184   8.364  2.3407  1.4559  1.0949
 4958SOL     OW26335   0.864   4.014   4.480  0.7468  0.7372 -0.1503
 4958SOL    HW126336   0.894   4.036   4.568  3.1001  1.0135 -1.0185
 4958SOL    HW226337   0.770   3.997   4.488  0.8851 -1.0955 -2.2141
 4959SOL     OW26338   0.102   1.455   4.373 -0.1381  0.3524 -0.3741
 4959SOL    HW126339   0.036   1.387   4.386 -1.2893  1.5889  0.1443
 4959SOL    HW226340   0.041   1.525   4.396 -1.3264 -0.1182 -2.0735
 4960SOL     OW26341   2.926   0.321   3.417 -0.2041 -0.3566 -0.0633
 4960SOL    HW126342   2.886   0.396   3.461  1.1461 -0.7428  1.7975
 4960SOL    HW226343   3.014   0.314   3.452 -0.2695 -0.7462  0.0215
 4961SOL     OW26344   1.596   4.287   8.597  0.3886 -0.3774 -0.2389
 4961SOL    HW126345   1.573   4.356   8.660  0.2165  0.1182 -0.8450
 4961SOL    HW226346   1.524   4.307   8.537  1.3522 -2.5164 -2.0846
 4962SOL     OW26347   4.514   4.056   9.925 -0.0912  0.3336  0.3166
 4962SOL    HW126348   4.602   4.091   9.936  0.5321 -1.6669  1.7611
 4962SOL    HW226349   4.512   4.057   9.830 -3.3624 -0.0852  0.3888
 4963SOL     OW26350   2.019   4.197   7.406 -0.2929 -0.4907  0.3436
 4963SOL    HW126351   1.954   4.224   7.341  0.2757 -1.4526 -0.6312
 4963SOL    HW226352   2.006   4.102   7.404 -0.1211 -0.5369  1.7742
 4964SOL     OW26353   1.259   1.907   5.078 -0.7238  0.3567  0.6864
 4964SOL    HW126354   1.304   1.970   5.135  0.1382 -2.2605  2.8995
 4964SOL    HW226355   1.266   1.829   5.134  1.8306  0.2879  0.2955
 4965SOL     OW26356   2.722   3.287  11.693 -0.3845  0.0841  1.0356
 4965SOL    HW126357   2.784   3.360  11.696  0.0936 -0.2370 -1.0300
 4965SOL    HW226358   2.723   3.271  11.787  0.1286 -0.7246  0.8985
 4966SOL     OW26359   2.308   1.101   8.525 -0.2028 -0.2447  0.2089
 4966SOL    HW126360   2.266   1.160   8.587  0.4382  0.4267  0.0115
 4966SOL    HW226361   2.351   1.157   8.461  0.3115 -0.2165  0.5718
 4967SOL     OW26362   0.403   0.187   4.894  0.2426  0.2007 -0.0268
 4967SOL    HW126363   0.429   0.135   4.817 -1.7873 -0.7117 -0.1025
 4967SOL    HW226364   0.447   0.265   4.862 -1.4252  0.0229 -2.7363
 4968SOL     OW26365   1.344   0.446   9.175 -0.1966 -0.0350  0.3871
 4968SOL    HW126366   1.344   0.451   9.271  3.2270 -0.2454  0.3698
 4968SOL    HW226367   1.287   0.521   9.155 -1.4096 -0.8567  0.7466
 4969SOL     OW26368   0.228   1.735   1.983 -0.6943  0.3886  0.1992
 4969SOL    HW126369   0.274   1.655   1.956 -0.7628  0.3688  0.1405
 4969SOL    HW226370   0.156   1.691   2.027 -0.7019  1.1881  0.9875
 4970SOL     OW26371   4.633   2.735   1.556 -0.1936 -0.1149 -0.1256
 4970SOL    HW126372   4.682   2.654   1.539 -0.3873 -0.1312 -0.6010
 4970SOL    HW226373   4.629   2.773   1.469  0.2424  0.7739  0.2383
 4971SOL     OW26374   3.196   3.234   8.359  0.2621  0.1900 -0.5391
 4971SOL    HW126375   3.258   3.278   8.301  0.0879  0.9327 -0.1624
 4971SOL    HW226376   3.112   3.254   8.318 -1.1379 -2.6395  0.9457
 4972SOL     OW26377   4.148   3.783   8.565 -0.0624  0.3663  0.4742
 4972SOL    HW126378   4.202   3.751   8.638  1.1642 -0.4665 -0.8091
 4972SOL    HW226379   4.061   3.796   8.605 -0.9381 -2.4409 -0.4801
 4973SOL     OW26380   2.806   0.093  13.785  0.2878 -0.7131  0.2223
 4973SOL    HW126381   2.729   0.145  13.761  1.7350 -0.2211 -3.4260
 4973SOL    HW226382   2.874   0.122  13.724  1.2844  1.3624  2.3550
 4974SOL     OW26383   3.713   0.280   3.203 -0.5598  0.7758  0.0947
 4974SOL    HW126384   3.755   0.205   3.243 -1.2594 -0.4706 -1.5097
 4974SOL    HW226385   3.644   0.289   3.269 -0.4304  1.1492  0.1834
 4975SOL     OW26386   2.137   1.128   9.349  0.5171 -0.2328  0.2333
 4975SOL    HW126387   2.170   1.176   9.273  0.7615  0.6802  0.9085
 4975SOL    HW226388   2.052   1.165   9.371  0.4094 -0.9671  1.0615
 4976SOL     OW26389   4.097   3.499   4.976 -0.2939 -0.1026 -0.4938
 4976SOL    HW126390   4.058   3.465   5.056  0.5462 -1.2670 -0.5804
 4976SOL    HW226391   4.127   3.417   4.938 -0.7053  0.1647 -1.3891
 4977SOL     OW26392   2.848   2.942   8.505 -0.3179  0.3759 -0.2065
 4977SOL    HW126393   2.799   2.999   8.563 -0.7555  1.5665 -1.7467
 4977SOL    HW226394   2.936   2.968   8.532 -0.0918 -2.1044  1.4313
 4978SOL     OW26395   1.033   3.133   4.564 -0.5502 -0.2030  0.3497
 4978SOL    HW126396   0.993   3.206   4.611 -0.9347  0.0062 -0.2961
 4978SOL    HW226397   1.085   3.085   4.627 -0.1464 -0.0412  0.1393
 4979SOL     OW26398   4.687   3.258   3.690 -0.0284 -0.0501 -0.2249
 4979SOL    HW126399   0.037   3.199   3.671  0.6545 -0.2216  2.8905
 4979SOL    HW226400   4.620   3.217   3.636  3.4492 -2.5306 -2.6625
 4980SOL     OW26401   4.215   1.093   3.399  0.1252 -0.1942 -0.8041
 4980SOL    HW126402   4.226   1.188   3.392  1.0302 -0.1574  1.2285
 4980SOL    HW226403   4.308   1.071   3.410  0.7059  1.4392 -2.3171
 4981SOL     OW26404   0.926   3.998   2.854  0.7461  0.1951 -0.1124
 4981SOL    HW126405   0.838   4.025   2.880  0.8476  0.4605 -0.0378
 4981SOL    HW226406   0.904   3.931   2.789  1.4677 -0.8119  0.6914
 4982SOL     OW26407   2.542   2.338   7.946  0.7944 -0.5681 -0.3985
 4982SOL    HW126408   2.512   2.270   8.007  2.0660 -0.5095  0.2892
 4982SOL    HW226409   2.479   2.323   7.875  0.1844  1.0062 -0.1878
 4983SOL     OW26410   1.176   2.127   2.720 -0.2401  0.3513 -0.1302
 4983SOL    HW126411   1.108   2.158   2.780 -0.1905 -0.0886  0.1620
 4983SOL    HW226412   1.131   2.057   2.672  0.1701 -0.1884  0.2678
 4984SOL     OW26413   0.622   0.573  16.194  0.1898 -0.1653 -0.4460
 4984SOL    HW126414   0.585   0.547  16.109  1.7230  2.0116 -1.7895
 4984SOL    HW226415   0.584   0.660  16.199  3.4953  1.2631 -0.3805
 4985SOL     OW26416   4.621   4.718   9.903  0.8387 -0.0262  0.1634
 4985SOL    HW126417   4.701   4.667   9.892  1.9559  1.6787  0.2517
 4985SOL    HW226418   4.573   4.666   9.967 -0.8577 -0.4884 -1.4995
 4986SOL     OW26419   0.055   3.571   8.691  0.1528 -0.2966  0.2762
 4986SOL    HW126420   0.054   3.489   8.642 -0.2911 -0.2863  0.2679
 4986SOL    HW226421   0.149   3.588   8.696 -0.2222  2.4890 -2.0761
 4987SOL     OW26422   2.346   2.192   3.132 -0.0950  0.5264  0.6345
 4987SOL    HW126423   2.387   2.206   3.217  1.0890  1.4115 -0.0667
 4987SOL    HW226424   2.357   2.271   3.078 -2.9224  0.2943 -0.2877
 4988SOL     OW26425   3.069   3.856   1.879 -0.4761 -0.7768 -0.1288
 4988SOL    HW126426   2.988   3.873   1.832 -1.3058 -1.2014  1.1279
 4988SOL    HW226427   3.095   3.768   1.853 -1.0224 -0.4674 -1.7336
 4989SOL     OW26428   1.818   0.650   0.105  0.0287  0.3425  0.6776
 4989SOL    HW126429   1.723   0.639   0.102  0.5649 -3.7851 -1.2647
 4989SOL    HW226430   1.831   0.619   0.195  0.1704 -2.6699 -0.4051
 4990SOL     OW26431   1.896   2.857   9.726  0.4520 -0.2322  0.5007
 4990SOL    HW126432   1.893   2.876   9.820 -1.8546  0.2857  0.3345
 4990SOL    HW226433   1.941   2.773   9.725  0.6977 -0.1149  1.4273
 4991SOL     OW26434   1.219   1.728   6.512 -0.4356 -0.2601  0.0289
 4991SOL    HW126435   1.281   1.654   6.518  1.0324  1.0330  0.9165
 4991SOL    HW226436   1.213   1.748   6.419 -2.0780 -0.1686  0.1639
 4992SOL     OW26437   2.641   2.213   8.687  0.1535  0.3909 -0.2327
 4992SOL    HW126438   2.656   2.296   8.732  1.1533 -0.3693  0.8250
 4992SOL    HW226439   2.557   2.234   8.647  0.4339 -1.4817 -1.8275
 4993SOL     OW26440   1.246   3.383   5.869  0.0003 -0.5217  0.2509
 4993SOL    HW126441   1.177   3.405   5.806  0.2153 -0.9201 -0.1222
 4993SOL    HW226442   1.314   3.451   5.865  0.2629 -0.7498  0.8198
 4994SOL     OW26443   2.022   0.165  12.476 -0.1472  0.4225  0.7012
 4994SOL    HW126444   1.974   0.248  12.469  0.9148  1.0204  0.6559
 4994SOL    HW226445   1.981   0.123  12.400  0.3986 -0.6445  1.0081
 4995SOL     OW26446   3.136   0.204  10.341 -0.2805  0.1844  0.1189
 4995SOL    HW126447   3.135   0.111  10.321  2.7620  0.3071 -0.5726
 4995SOL    HW226448   3.051   0.231  10.306  0.4068  1.0253 -0.9098
 4996SOL     OW26449   0.752   0.968   8.984 -0.3820  0.1081 -0.4414
 4996SOL    HW126450   0.662   0.954   8.955 -1.5186 -2.0174  4.1295
 4996SOL    HW226451   0.808   0.957   8.907  2.2762 -0.2354  1.5367
 4997SOL     OW26452   3.024   4.097   8.275 -0.0311 -0.3414  0.2677
 4997SOL    HW126453   3.104   4.149   8.266  0.1355 -0.7066 -0.3267
 4997SOL    HW226454   3.046   4.046   8.354 -0.3539 -0.1156  0.5028
 4998SOL     OW26455   1.231   1.740  16.146  0.2270  0.1201  0.4048
 4998SOL    HW126456   1.315   1.709  16.179  0.0418  0.4602  1.1966
 4998SOL    HW226457   1.171   1.677  16.185 -0.7388 -0.0795 -1.3830
 4999SOL     OW26458   2.920   1.175   6.358  0.3361 -0.3961  0.1926
 4999SOL    HW126459   2.996   1.180   6.415 -1.6029  1.0241  2.6828
 4999SOL    HW226460   2.949   1.212   6.275 -0.9528  0.2589  0.0338
 5000SOL     OW26461   4.562   4.242   1.885  0.5333  0.0564 -0.2937
 5000SOL    HW126462   4.597   4.236   1.796  0.0478 -0.1081 -0.4721
 5000SOL    HW226463   4.598   4.163   1.926 -0.2047 -0.0472  0.1434
 5001SOL     OW26464   1.574   0.543   9.560 -0.9379  0.3004 -0.4654
 5001SOL    HW126465   1.633   0.485   9.512  0.3946  0.6479  0.7478
 5001SOL    HW226466   1.553   0.491   9.638 -2.7901  0.7019 -0.6832
 5002SOL     OW26467   0.072   3.756  11.158  0.1089  0.6864 -0.5754
 5002SOL    HW126468   0.105   3.717  11.077 -2.7394 -1.1147 -0.8560
 5002SOL    HW226469   4.703   3.770  11.138 -0.7417 -0.9406  2.2160
 5003SOL     OW26470   4.588   0.759   2.327 -0.1495  0.1452 -0.3011
 5003SOL    HW126471   4.670   0.738   2.372  0.4617  1.5223 -0.7785
 5003SOL    HW226472   4.631   0.774   2.243 -0.3671 -0.7309 -0.5746
 5004SOL     OW26473   0.638   2.066   9.173  0.0275  0.4813  0.3060
 5004SOL    HW126474   0.566   2.032   9.120 -0.0259  1.3971 -0.1992
 5004SOL    HW226475   0.645   1.994   9.236  1.4639 -0.3125 -0.7707
 5005SOL     OW26476   4.271   4.506   1.590 -0.0074  0.0322 -0.2143
 5005SOL    HW126477   4.294   4.472   1.676  0.0623  3.5872  1.1610
 5005SOL    HW226478   4.212   4.573   1.624 -0.5090  0.1259 -1.2766
 5006SOL     OW26479   1.582   1.380   4.704 -0.4673  0.7444 -0.8965
 5006SOL    HW126480   1.674   1.398   4.727 -0.3065 -1.2986 -0.0276
 5006SOL    HW226481   1.541   1.466   4.710 -2.0324  0.0396 -1.6415
 5007SOL     OW26482   3.128   3.258   7.354  0.3158  0.1508 -0.1751
 5007SOL    HW126483   3.143   3.257   7.448  0.4951  1.8608 -0.1881
 5007SOL    HW226484   3.213   3.226   7.326 -0.7863 -2.5814 -0.4011
 5008SOL     OW26485   2.300   3.777   9.001 -0.9207  0.2354 -0.7337
 5008SOL    HW126486   2.291   3.755   8.909  0.0816  0.0809 -0.7960
 5008SOL    HW226487   2.369   3.843   8.990 -0.7575  0.1096 -0.4663
 5009SOL     OW26488   1.612   0.174   9.730  0.1066  0.1637  0.1737
 5009SOL    HW126489   1.702   0.180   9.699 -0.4376  0.1061 -1.4303
 5009SOL    HW226490   1.600   0.251   9.785  1.8051 -0.5661  1.5403
 5010SOL     OW26491   1.976   0.938   6.726  0.3195  0.0258 -0.1461
 5010SOL    HW126492   1.978   0.959   6.820 -1.5181 -1.1804  0.1638
 5010SOL    HW226493   2.062   0.897   6.719  0.5228  0.8495 -2.3153
 5011SOL     OW26494   2.748   2.793   5.427  0.7675 -0.1171  0.4158
 5011SOL    HW126495   2.683   2.730   5.455  0.4483  0.3157  0.6497
 5011SOL    HW226496   2.692   2.870   5.420 -0.0566 -0.6831  0.8923
 5012SOL     OW26497   0.175   1.370   2.244  0.9439 -0.3994  0.5287
 5012SOL    HW126498   0.219   1.302   2.295  0.3206  0.4811  2.2435
 5012SOL    HW226499   0.217   1.352   2.160  1.0788  1.3426  0.2190
 5013SOL     OW26500   0.096   1.244   6.177 -0.1193  0.4749 -0.5288
 5013SOL    HW126501   0.072   1.247   6.084 -3.4391 -1.4197  0.2561
 5013SOL    HW226502   0.171   1.303   6.178 -1.7482  2.5295  0.9835
 5014SOL     OW26503   0.541   3.429   4.361 -0.5781 -0.2984  0.2166
 5014SOL    HW126504   0.525   3.421   4.267 -0.4039  1.7543  0.0260
 5014SOL    HW226505   0.531   3.523   4.374  4.2445  0.3252 -0.5385
 5015SOL     OW26506   1.511   2.897   9.517 -0.2735 -0.0951 -0.2216
 5015SOL    HW126507   1.511   2.988   9.485 -3.2578  0.1181  0.4026
 5015SOL    HW226508   1.532   2.866   9.429  3.0897 -0.8052  0.8462
 5016SOL     OW26509   4.607   0.681  16.111  0.0441 -0.5082  0.4938
 5016SOL    HW126510   4.522   0.639  16.129 -1.1018  1.7003  0.3001
 5016SOL    HW226511   4.611   0.748  16.178  1.4862  0.7125 -0.8108
 5017SOL     OW26512   0.480   2.079   4.717 -0.1689 -0.4440  0.1349
 5017SOL    HW126513   0.548   2.099   4.652  2.1638  1.5108  3.1970
 5017SOL    HW226514   0.407   2.128   4.680  0.3483  0.4661  0.3069
 5018SOL     OW26515   4.202   3.550   4.522  0.3284  0.3975 -0.7545
 5018SOL    HW126516   4.268   3.603   4.568 -0.2731  0.5035 -0.0118
 5018SOL    HW226517   4.196   3.478   4.585 -2.4699  2.1369  0.9619
 5019SOL     OW26518   1.552   3.162  16.962 -0.1100 -0.0359  0.3171
 5019SOL    HW126519   1.478   3.155  16.903  0.3710 -2.8205  0.0372
 5019SOL    HW226520   1.523   3.189  17.049  1.2835  2.3568  0.0201
 5020SOL     OW26521   0.892   1.388   5.610 -0.2544  0.1074 -0.1985
 5020SOL    HW126522   0.871   1.296   5.623  0.7583 -0.3466 -1.8081
 5020SOL    HW226523   0.963   1.376   5.548 -0.8517 -2.5092 -0.3755
 5021SOL     OW26524   0.801   1.918   0.738  0.5256  0.5245  0.0653
 5021SOL    HW126525   0.879   1.957   0.697 -0.1119  1.1218 -0.5852
 5021SOL    HW226526   0.734   1.911   0.670 -2.0983  1.0894  2.6015
 5022SOL     OW26527   3.189   3.845   5.234  0.1237 -0.2055 -0.1378
 5022SOL    HW126528   3.148   3.761   5.252  0.2656 -0.3802 -0.6119
 5022SOL    HW226529   3.163   3.849   5.142 -1.6032  1.0451  0.3938
 5023SOL     OW26530   2.259   3.595   4.753  0.1992  0.6750 -0.3822
 5023SOL    HW126531   2.239   3.645   4.674  0.3644  2.3571  0.6368
 5023SOL    HW226532   2.334   3.547   4.717  0.5271  1.2562 -0.4705
 5024SOL     OW26533   1.976   0.808   9.552  0.3093  0.7036  0.0064
 5024SOL    HW126534   1.888   0.815   9.590 -0.9436  0.2151 -2.8168
 5024SOL    HW226535   2.037   0.785   9.622 -0.2510 -0.1836  0.2018
 5025SOL     OW26536   0.675   4.161   9.042 -0.2852 -0.0862 -0.4237
 5025SOL    HW126537   0.596   4.132   9.087  0.6458  1.1920  2.0221
 5025SOL    HW226538   0.744   4.114   9.091  0.9117  1.8672 -0.2391
 5026SOL     OW26539   0.669   3.714   4.271  0.1765  0.3416 -0.3253
 5026SOL    HW126540   0.680   3.795   4.220 -0.3421  1.2736  1.0251
 5026SOL    HW226541   0.758   3.683   4.290  0.2971  1.6584  1.3080
 5027SOL     OW26542   2.856   0.720   5.876 -0.4111  0.4784 -0.2071
 5027SOL    HW126543   2.856   0.764   5.961 -0.1414  0.8189 -0.3854
 5027SOL    HW226544   2.771   0.731   5.834 -0.4773 -0.7524 -0.3933
 5028SOL     OW26545   4.081   0.010   7.346 -0.1559 -0.4523 -0.1150
 5028SOL    HW126546   4.093   4.639   7.360  3.4848 -0.0164 -0.4712
 5028SOL    HW226547   4.018   0.015   7.273 -1.3723  0.6993  1.0065
 5029SOL     OW26548   0.062   0.364  12.302 -0.5019 -0.0797 -0.3887
 5029SOL    HW126549   0.090   0.319  12.381 -2.2630 -2.8766 -1.3506
 5029SOL    HW226550   0.007   0.298  12.260 -0.7039  0.2611 -0.6573
 5030SOL     OW26551   4.499   3.114   4.618 -1.0489  0.4733  0.1035
 5030SOL    HW126552   4.514   3.026   4.584 -1.8386  0.5176 -0.3505
 5030SOL    HW226553   4.453   3.078   4.694  2.8344 -2.3749  1.0954
 5031SOL     OW26554   3.620   3.355   8.137 -0.2489 -0.3530 -0.0835
 5031SOL    HW126555   3.711   3.383   8.151 -0.3209 -1.2008  1.9155
 5031SOL    HW226556   3.585   3.356   8.226  1.2033 -1.6247  0.4929
 5032SOL     OW26557   2.764   2.023   5.723 -0.2864  0.7549 -0.5224
 5032SOL    HW126558   2.689   2.077   5.700 -1.6152 -0.1333  1.7544
 5032SOL    HW226559   2.738   1.931   5.711 -0.5265  0.6908  0.5511
 5033SOL     OW26560   4.088   1.301   1.840 -0.4379  0.0274 -0.0375
 5033SOL    HW126561   4.011   1.250   1.863  0.4707 -0.9328  0.8983
 5033SOL    HW226562   4.112   1.262   1.755 -0.7852  0.5830 -0.3850
 5034SOL     OW26563   1.806   0.718  17.470 -0.6278  0.1102  0.5006
 5034SOL    HW126564   1.854   0.794  17.437 -0.8507 -0.0985 -0.3067
 5034SOL    HW226565   1.822   0.719  17.564 -2.3841 -2.0262  0.8081
 5035SOL     OW26566   4.026   1.546   3.162 -0.2317  0.3051  0.3506
 5035SOL    HW126567   4.094   1.587   3.109 -0.0358 -0.7788 -0.2331
 5035SOL    HW226568   4.004   1.471   3.108 -0.6504  0.4780  0.2806
 5036SOL     OW26569   3.562   3.096   8.066  0.3088  0.9354 -0.0474
 5036SOL    HW126570   3.632   3.105   8.131 -1.8181  0.0986  2.3413
 5036SOL    HW226571   3.547   3.189   8.051 -0.4058  1.0750  1.6331
 5037SOL     OW26572   0.119   1.662  10.282  0.4144  0.1945  0.2711
 5037SOL    HW126573   0.121   1.574  10.319  0.0549  0.0744  0.0086
 5037SOL    HW226574   0.114   1.712  10.363 -1.0846 -1.0092  0.9241
 5038SOL     OW26575   4.369   3.939   4.089  0.1739  0.4414 -0.0573
 5038SOL    HW126576   4.454   3.899   4.070  0.5552  0.6185  1.2831
 5038SOL    HW226577   4.378   3.958   4.183 -1.0290 -0.2448  0.1915
 5039SOL     OW26578   0.954   0.324  14.528 -0.4535 -0.4991  0.2766
 5039SOL    HW126579   0.983   0.303  14.616 -4.2757 -1.0557  1.4203
 5039SOL    HW226580   0.860   0.303  14.532 -0.6625  0.5467  0.8771
 5040SOL     OW26581   4.681   4.068   7.566 -0.0163  0.1689 -0.1695
 5040SOL    HW126582   4.616   3.999   7.563  1.2527 -1.0460  0.2798
 5040SOL    HW226583   4.671   4.095   7.657  0.8161 -1.9811  0.5557
 5041SOL     OW26584   1.285   0.326   8.892  0.0589  0.3583  0.1459
 5041SOL    HW126585   1.356   0.267   8.916 -0.7533 -0.1717  1.2890
 5041SOL    HW226586   1.243   0.344   8.976 -2.6532 -0.0383 -1.0980
 5042SOL     OW26587   3.352   3.040   9.275  0.5369  0.0274 -0.0597
 5042SOL    HW126588   3.417   3.063   9.341  1.1831 -2.7708  0.2662
 5042SOL    HW226589   3.270   3.078   9.307 -0.4833 -2.2453 -0.0103
 5043SOL     OW26590   4.570   0.986   2.524  0.2272  0.2601 -0.7068
 5043SOL    HW126591   4.613   0.932   2.458  1.2685  0.5319 -0.2405
 5043SOL    HW226592   4.597   1.073   2.496  0.0755  0.4897 -0.1409
 5044SOL     OW26593   4.587   2.137   1.534 -0.1459  0.5467 -0.6041
 5044SOL    HW126594   4.580   2.052   1.491  1.5391  0.4783 -0.7474
 5044SOL    HW226595   4.644   2.181   1.470 -1.6562 -0.8163 -2.8915
 5045SOL     OW26596   2.149   3.930   7.792  0.2267 -0.1524  0.2354
 5045SOL    HW126597   2.152   3.858   7.729 -0.7353  0.6227 -0.6859
 5045SOL    HW226598   2.158   4.005   7.734  0.2705  0.2896  0.8166
 5046SOL     OW26599   1.218   1.219   4.793  0.0149  0.7053  0.3656
 5046SOL    HW126600   1.239   1.298   4.743 -0.4085  0.9938  0.6470
 5046SOL    HW226601   1.289   1.162   4.762 -0.3916 -0.1571  1.0264
 5047SOL     OW26602   2.410   4.143  15.835  0.3430 -0.8544 -0.8381
 5047SOL    HW126603   2.396   4.156  15.741 -0.9539 -2.7059 -0.8987
 5047SOL    HW226604   2.423   4.233  15.866  0.2350 -0.9582 -0.4929
 5048SOL     OW26605   4.469   2.326   1.282 -0.1736  0.0552 -0.3274
 5048SOL    HW126606   4.469   2.364   1.195 -0.4901 -2.0816 -1.2625
 5048SOL    HW226607   4.442   2.399   1.338 -1.3504  1.0128 -2.1385
 5049SOL     OW26608   0.080   1.257   8.208  0.2295 -0.1247 -0.3883
 5049SOL    HW126609   0.053   1.348   8.216  0.3117 -0.2528  1.4369
 5049SOL    HW226610   0.055   1.245   8.116  3.2222 -0.4286 -1.1580
 5050SOL     OW26611   2.721   3.910   8.574 -0.0337  0.1104 -0.2122
 5050SOL    HW126612   2.706   3.945   8.661 -0.5193 -1.1746  0.2213
 5050SOL    HW226613   2.666   3.832   8.571  1.6048 -1.1142  1.5775
 5051SOL     OW26614   2.066   2.300   5.118 -0.1244  0.4264 -0.2046
 5051SOL    HW126615   2.031   2.337   5.036  0.8534  0.0351 -0.8030
 5051SOL    HW226616   2.105   2.217   5.092 -1.4873  0.3491 -2.0491
 5052SOL     OW26617   2.232   4.684   2.461 -0.0037 -0.0101 -0.1107
 5052SOL    HW126618   2.280   4.638   2.530 -0.6126 -0.9900 -0.3334
 5052SOL    HW226619   2.222   0.045   2.506  0.1435 -0.6839  1.1867
 5053SOL     OW26620   4.081   3.713  10.115 -0.2016 -0.2444 -0.3377
 5053SOL    HW126621   4.002   3.692  10.165  1.4954 -0.9328  2.0831
 5053SOL    HW226622   4.126   3.771  10.177 -1.1117  0.7994 -0.6469
 5054SOL     OW26623   1.092   2.030   2.101 -0.5072 -0.1208 -0.3774
 5054SOL    HW126624   1.007   1.987   2.106 -0.6057  0.2026  0.7694
 5054SOL    HW226625   1.064   2.109   2.056 -2.4246  0.1708  1.3391
 5055SOL     OW26626   0.614   2.693   8.136 -0.3809 -0.2314 -0.0071
 5055SOL    HW126627   0.552   2.620   8.144 -0.8902  0.2333  0.2956
 5055SOL    HW226628   0.555   2.762   8.107 -2.5490 -2.9297 -2.0672
 5056SOL     OW26629   2.112   0.865   1.868  0.0250  0.6663 -0.2604
 5056SOL    HW126630   2.092   0.857   1.775  0.6628 -0.2373 -0.3118
 5056SOL    HW226631   2.103   0.773   1.892  1.0220  0.6328 -0.0408
 5057SOL     OW26632   2.737   2.432   6.222 -0.2876  0.3041 -0.2090
 5057SOL    HW126633   2.742   2.382   6.304  0.0493  1.0980  0.2511
 5057SOL    HW226634   2.813   2.489   6.223 -1.2270  1.5383  1.2271
 5058SOL     OW26635   1.372   2.898   2.723 -0.0992  0.3586 -0.1673
 5058SOL    HW126636   1.463   2.911   2.752  0.0934  1.0496 -1.1028
 5058SOL    HW226637   1.323   2.931   2.799  0.0014  1.3268 -0.5275
 5059SOL     OW26638   0.356   0.790  15.263  0.0909 -0.7781 -0.0192
 5059SOL    HW126639   0.449   0.774  15.274 -0.0146 -0.3805  1.4369
 5059SOL    HW226640   0.364   0.878  15.227 -2.6539  0.3637  2.1848
 5060SOL     OW26641   0.138   2.872   2.294 -0.3116 -0.2022 -0.0667
 5060SOL    HW126642   0.122   2.785   2.331 -1.1074  0.1086  0.3260
 5060SOL    HW226643   0.102   2.935   2.357 -1.0503 -0.8808  0.2037
 5061SOL     OW26644   1.020   4.157   5.163  0.2391 -0.6940 -0.1721
 5061SOL    HW126645   0.997   4.120   5.249  0.3968  0.4838  0.3714
 5061SOL    HW226646   0.937   4.135   5.120 -0.4875 -0.1444  0.9268
 5062SOL     OW26647   3.823   1.062   8.528  0.1535  0.4863  0.3635
 5062SOL    HW126648   3.781   0.988   8.571  0.8995 -0.0407  0.1946
 5062SOL    HW226649   3.913   1.047   8.559 -0.5080 -0.5749  1.8176
 5063SOL     OW26650   1.049   2.681   9.588  0.2986 -0.0147 -0.0799
 5063SOL    HW126651   1.013   2.605   9.543  1.4886 -0.7678  0.2576
 5063SOL    HW226652   1.127   2.642   9.627  0.8751  0.5766 -0.6357
 5064SOL     OW26653   3.026   1.252   2.387  0.2685 -0.4144 -0.1628
 5064SOL    HW126654   3.023   1.256   2.292 -0.2672 -0.7311 -0.1614
 5064SOL    HW226655   2.978   1.328   2.421  0.7870 -0.2041  0.0949
 5065SOL     OW26656   2.763   3.752   3.083 -0.2430 -0.2560  0.5946
 5065SOL    HW126657   2.804   3.773   3.167  1.7484  0.1715 -0.4697
 5065SOL    HW226658   2.760   3.656   3.085 -0.0898 -0.2536  1.1223
 5066SOL     OW26659   1.035   2.336  10.043 -0.4240  0.2016 -0.6858
 5066SOL    HW126660   1.048   2.347   9.949  0.9473  1.3700 -0.3466
 5066SOL    HW226661   1.031   2.240  10.041  2.3660  0.0089  1.9916
 5067SOL     OW26662   1.804   1.797   4.727 -0.0468  0.0240  0.3085
 5067SOL    HW126663   1.780   1.849   4.650 -1.4252 -0.9392  0.0758
 5067SOL    HW226664   1.886   1.840   4.750 -1.2338  0.2285  4.1456
 5068SOL     OW26665   0.495   0.495   3.139 -0.3645  0.4280 -0.1371
 5068SOL    HW126666   0.565   0.474   3.077  1.0727  0.1540  1.5710
 5068SOL    HW226667   0.430   0.518   3.073 -1.7672 -0.1002  1.0711
 5069SOL     OW26668   3.855   1.066   0.976  0.6387 -0.1243 -0.4886
 5069SOL    HW126669   3.874   0.976   1.003 -1.4963 -0.5760 -0.5186
 5069SOL    HW226670   3.874   1.121   1.052  1.8359 -2.1389  0.6602
 5070SOL     OW26671   2.180   0.498   5.101 -0.2293 -0.6471 -0.2800
 5070SOL    HW126672   2.254   0.459   5.148 -0.7376 -2.4798 -1.0080
 5070SOL    HW226673   2.208   0.487   5.010  0.4814  3.8463 -0.6310
 5071SOL     OW26674   0.306   3.731   2.142  0.2901  0.8055 -0.3537
 5071SOL    HW126675   0.330   3.693   2.058 -0.5333  1.4815 -0.8964
 5071SOL    HW226676   0.239   3.794   2.115 -0.8903  0.4407  1.7353
 5072SOL     OW26677   0.019   0.786   8.623 -0.3751 -0.1588 -0.0904
 5072SOL    HW126678   4.691   0.705   8.630 -0.1730 -0.5055 -2.3121
 5072SOL    HW226679   4.669   0.845   8.644  0.3364  0.3691  0.8535
 5073SOL     OW26680   1.671   1.921   3.581  0.1133 -0.2012 -0.2706
 5073SOL    HW126681   1.759   1.903   3.615 -0.8562 -2.5906  1.0267
 5073SOL    HW226682   1.660   1.859   3.509  0.4264 -1.0118  0.3739
 5074SOL     OW26683   4.389   0.242   5.459 -0.4761  0.4701 -0.2656
 5074SOL    HW126684   4.438   0.308   5.509 -0.8995  0.6955 -0.1478
 5074SOL    HW226685   4.403   0.164   5.512  1.3374 -0.2462 -1.8269
 5075SOL     OW26686   0.221   0.329   6.256 -0.1933 -0.2238  0.0703
 5075SOL    HW126687   0.176   0.348   6.339 -0.5114  3.6492 -0.9912
 5075SOL    HW226688   0.249   0.241   6.282  1.5487  1.0116  2.4064
 5076SOL     OW26689   4.632   0.065  12.659  0.3808 -0.2349  0.2513
 5076SOL    HW126690   4.551   0.116  12.653 -0.1864 -0.9134  2.0084
 5076SOL    HW226691   4.624   0.008  12.583  1.5159  2.1903 -1.6948
 5077SOL     OW26692   3.882   1.801   3.522 -0.0929  0.1723 -0.1729
 5077SOL    HW126693   3.854   1.711   3.503  0.6428  0.0107 -0.4912
 5077SOL    HW226694   3.975   1.790   3.543 -0.6136 -1.1980  1.4705
 5078SOL     OW26695   1.830   2.928  11.487  0.6894 -0.8242 -0.0055
 5078SOL    HW126696   1.735   2.939  11.483  0.6396 -1.1340  0.3487
 5078SOL    HW226697   1.835   2.881  11.569 -1.4316 -3.8691 -1.6241
 5079SOL     OW26698   0.581   3.162  13.254 -0.8193 -0.4729  0.1358
 5079SOL    HW126699   0.606   3.242  13.208  0.5305 -0.9190  0.0781
 5079SOL    HW226700   0.526   3.207  13.317  0.7416  1.6764 -0.0388
 5080SOL     OW26701   3.531   0.517   6.710  0.3877  0.1095  0.4453
 5080SOL    HW126702   3.607   0.573   6.692  0.4065 -0.4691 -1.2809
 5080SOL    HW226703   3.480   0.595   6.731  1.0628  0.5075  0.6222
 5081SOL     OW26704   2.496   0.115   8.508  0.0254 -0.9178 -0.7015
 5081SOL    HW126705   2.518   0.099   8.600  1.6298 -1.1947 -1.1267
 5081SOL    HW226706   2.414   0.157   8.532  0.4548 -1.0754  1.0319
 5082SOL     OW26707   0.867   2.760   8.267  0.4044  0.2466  0.3589
 5082SOL    HW126708   0.787   2.734   8.221  0.2268  3.9792 -1.4293
 5082SOL    HW226709   0.838   2.754   8.358 -5.1006 -1.2648 -1.5188
 5083SOL     OW26710   0.460   2.519  15.467 -0.7265 -0.4425 -0.1688
 5083SOL    HW126711   0.418   2.505  15.552  0.0891 -1.7160  0.0192
 5083SOL    HW226712   0.405   2.477  15.402  0.9049 -0.8258 -1.3190
 5084SOL     OW26713   1.051   3.583   0.500  0.6978 -0.8262 -0.2560
 5084SOL    HW126714   0.957   3.581   0.520  0.8429 -1.5412  0.3485
 5084SOL    HW226715   1.064   3.499   0.457 -0.3483 -0.8084 -0.6140
 5085SOL     OW26716   4.571   2.508   5.396  0.1923  0.1411 -0.2841
 5085SOL    HW126717   4.600   2.474   5.311  0.2626  0.9379 -0.5726
 5085SOL    HW226718   4.499   2.565   5.371  0.5462  0.7047 -0.0159
 5086SOL     OW26719   0.601   2.948   8.365 -0.4197  0.4566 -0.1398
 5086SOL    HW126720   0.622   3.007   8.437  1.3593 -0.0424 -0.2279
 5086SOL    HW226721   0.594   2.866   8.414 -0.8347  0.5799  0.0003
 5087SOL     OW26722   2.478   2.347  13.302 -0.6149  0.1280  0.1234
 5087SOL    HW126723   2.571   2.348  13.324 -0.9861  0.5602  1.7015
 5087SOL    HW226724   2.472   2.253  13.282 -3.1952  0.0399  1.2518
 5088SOL     OW26725   0.541   4.279  14.912  0.1480  0.3658  0.2328
 5088SOL    HW126726   0.470   4.326  14.956  0.4042  0.0278  1.0101
 5088SOL    HW226727   0.598   4.350  14.884  0.3885  0.4326  0.8985
 5089SOL     OW26728   1.621   0.457   2.144 -0.7622  0.1343  0.3466
 5089SOL    HW126729   1.550   0.519   2.164 -1.4454 -1.1450  1.8776
 5089SOL    HW226730   1.597   0.414   2.062  1.8085  2.4288 -1.6285
 5090SOL     OW26731   0.860   3.288   1.661 -0.2719  0.0974  0.2158
 5090SOL    HW126732   0.777   3.335   1.661  0.4245  1.3307  1.7849
 5090SOL    HW226733   0.906   3.336   1.591 -2.4553  2.4073  0.3459
 5091SOL     OW26734   4.034   1.834   7.616  0.4996  0.1917 -0.0125
 5091SOL    HW126735   4.017   1.910   7.559  0.9198  1.4215  1.5135
 5091SOL    HW226736   4.016   1.871   7.702 -0.0623 -0.4384  0.1477
 5092SOL     OW26737   0.168   1.697  13.119  0.4915  0.3333  0.4988
 5092SOL    HW126738   0.100   1.671  13.057 -0.2262  0.2392  1.3169
 5092SOL    HW226739   0.216   1.614  13.117  2.9677  1.8141 -0.8295
 5093SOL     OW26740   0.249   0.229  11.672 -0.2286 -0.3998  0.1699
 5093SOL    HW126741   0.323   0.221  11.612 -1.3725 -0.7360 -1.1958
 5093SOL    HW226742   0.226   0.318  11.645 -2.5306 -1.2974 -0.7964
 5094SOL     OW26743   4.117   4.016   5.933 -0.2330  0.6432 -0.0302
 5094SOL    HW126744   4.157   4.083   5.877  0.2587  0.7735  0.4765
 5094SOL    HW226745   4.055   3.983   5.868 -1.0929  0.4767  0.8972
 5095SOL     OW26746   3.849   3.342   6.762 -0.3186  0.1707  0.8483
 5095SOL    HW126747   3.799   3.261   6.748  0.3141  0.4182 -2.7402
 5095SOL    HW226748   3.849   3.332   6.857 -0.7233 -0.8090  0.7521
 5096SOL     OW26749   1.303   2.937   0.762  0.1062  0.2249  0.2768
 5096SOL    HW126750   1.249   2.938   0.683  0.0721 -1.3451  0.2903
 5096SOL    HW226751   1.323   3.030   0.773  2.1310 -0.4333  2.1871
 5097SOL     OW26752   2.951   4.058  14.812  0.7281  0.4832  0.0166
 5097SOL    HW126753   2.960   4.136  14.757 -1.3037  1.2089  0.7296
 5097SOL    HW226754   2.983   3.990  14.752 -0.6398 -2.2041  2.2950
 5098SOL     OW26755   2.685   3.294   4.709  0.0600 -0.7392  0.2758
 5098SOL    HW126756   2.703   3.219   4.765  2.0174  0.1573  0.8455
 5098SOL    HW226757   2.699   3.254   4.623 -2.3373 -1.2836  0.1440
 5099SOL     OW26758   3.976   1.769   5.909 -0.1730  0.1882 -0.1458
 5099SOL    HW126759   3.999   1.690   5.958  2.3811  1.8946  1.4165
 5099SOL    HW226760   4.044   1.769   5.841  0.1135 -1.3260  0.1472
 5100SOL     OW26761   3.422   0.746   7.235 -0.3763 -0.3369 -0.0460
 5100SOL    HW126762   3.488   0.790   7.181 -1.9285  0.0428 -1.6495
 5100SOL    HW226763   3.371   0.689   7.178 -1.2074  0.5977 -0.2360
 5101SOL     OW26764   4.343   4.333   4.883  0.3795 -0.0951 -0.2404
 5101SOL    HW126765   4.370   4.333   4.975 -1.5839  1.9000  0.3274
 5101SOL    HW226766   4.382   4.251   4.853  0.3147 -0.1452 -0.1893
 5102SOL     OW26767   2.686   0.273  17.552  0.2243 -0.5715  0.2502
 5102SOL    HW126768   2.701   0.351  17.604  0.7854  0.4894 -1.4919
 5102SOL    HW226769   2.667   0.305  17.463  0.0216  0.3508  0.6260
 5103SOL     OW26770   0.482   2.469  16.426 -0.1483 -0.6770  0.0414
 5103SOL    HW126771   0.459   2.435  16.513  0.4105  0.6365  0.6961
 5103SOL    HW226772   0.420   2.426  16.368  0.9206  1.4344 -2.6472
 5104SOL     OW26773   2.844   2.632   2.140  0.5599 -0.0968 -0.3372
 5104SOL    HW126774   2.862   2.691   2.067 -0.0624 -1.7156 -1.8304
 5104SOL    HW226775   2.847   2.549   2.091  0.0041 -0.8147  0.8363
 5105SOL     OW26776   4.442   2.685   7.157  0.1610 -0.4584  0.3528
 5105SOL    HW126777   4.387   2.760   7.178  0.9122 -0.0185  0.7475
 5105SOL    HW226778   4.428   2.647   7.244 -1.2644  0.1042  0.3671
 5106SOL     OW26779   0.689   4.133   3.138 -0.0873 -0.0383 -0.4244
 5106SOL    HW126780   0.638   4.121   3.219  0.9039  0.8056  0.3367
 5106SOL    HW226781   0.659   4.052   3.097 -1.0738  0.2627 -0.3000
 5107SOL     OW26782   2.616   1.546   3.328  0.4328  0.5820  0.1424
 5107SOL    HW126783   2.658   1.591   3.254  1.2133 -0.0455  0.1957
 5107SOL    HW226784   2.653   1.460   3.306 -0.6015  0.3519 -0.7122
 5108SOL     OW26785   1.459   2.871   5.380  0.0398  0.4936 -0.0029
 5108SOL    HW126786   1.478   2.777   5.378  0.8208  0.6775 -1.1668
 5108SOL    HW226787   1.460   2.882   5.475 -1.4811 -2.3996  0.3530
 5109SOL     OW26788   4.144   0.571   7.238 -0.0211  0.1654  0.0981
 5109SOL    HW126789   4.210   0.548   7.303  0.4982  1.0536 -0.1108
 5109SOL    HW226790   4.059   0.542   7.272  0.6560  0.2160  1.8287
 5110SOL     OW26791   0.860   3.401   4.945 -0.4386  0.1505 -0.2556
 5110SOL    HW126792   0.880   3.485   4.902  1.5321  0.4714  1.2995
 5110SOL    HW226793   0.778   3.422   4.989 -0.5142  0.6987 -0.6554
 5111SOL     OW26794   3.882   2.453   3.022 -0.1011  0.1509  0.3918
 5111SOL    HW126795   3.817   2.444   2.953 -0.1531  2.2498  0.1722
 5111SOL    HW226796   3.931   2.532   2.996 -0.5019  0.4400  0.5150
 5112SOL     OW26797   2.367   1.806   5.811 -0.7143 -0.1374 -0.8456
 5112SOL    HW126798   2.440   1.772   5.863 -0.5339 -1.8027 -2.1807
 5112SOL    HW226799   2.361   1.756   5.730  0.8128 -3.3863  1.0179
 5113SOL     OW26800   2.336   3.737  12.677  0.0410  0.2459  0.1960
 5113SOL    HW126801   2.415   3.788  12.659 -0.3633  0.4299 -1.0311
 5113SOL    HW226802   2.339   3.670  12.610  0.0659 -0.6160  1.0548
 5114SOL     OW26803   1.751   1.613   4.241  0.1216 -0.1396 -0.5310
 5114SOL    HW126804   1.775   1.625   4.333  2.5551 -0.8209 -1.0856
 5114SOL    HW226805   1.770   1.519   4.231 -0.1526 -0.2274 -0.2326
 5115SOL     OW26806   3.393   2.059  11.044 -0.2252 -0.6246 -0.8522
 5115SOL    HW126807   3.380   2.146  11.007 -0.8234 -0.0759  0.6271
 5115SOL    HW226808   3.488   2.059  11.051 -0.3198  0.3231  0.5104
 5116SOL     OW26809   0.595   0.940   6.739 -0.0312 -0.1204  0.1314
 5116SOL    HW126810   0.661   0.934   6.808  0.1867 -3.5274 -0.4172
 5116SOL    HW226811   0.549   1.019   6.769 -1.6055 -1.1230  0.3182
 5117SOL     OW26812   1.095   3.219   7.790  0.1935 -0.1573 -0.0053
 5117SOL    HW126813   1.091   3.306   7.830  0.3241 -1.0142  1.8808
 5117SOL    HW226814   1.016   3.180   7.828 -0.5044  1.5594  0.3153
 5118SOL     OW26815   1.569   2.088   5.394 -0.1856  0.6937  0.0792
 5118SOL    HW126816   1.625   2.033   5.339  1.0117  2.8229 -0.8330
 5118SOL    HW226817   1.573   2.042   5.478  2.3688  0.0220 -0.4246
 5119SOL     OW26818   3.179   2.784  16.686 -0.4339 -0.1060  0.3019
 5119SOL    HW126819   3.232   2.745  16.756 -1.4685  1.6378  2.0601
 5119SOL    HW226820   3.094   2.751  16.715 -0.2488 -0.0141  0.9506
 5120SOL     OW26821   2.307   0.917   5.542  0.1826  0.2989 -0.0595
 5120SOL    HW126822   2.392   0.955   5.519  0.0789 -0.0192 -1.0104
 5120SOL    HW226823   2.293   0.846   5.478 -1.0551  0.9527 -0.5104
 5121SOL     OW26824   3.077   2.978   5.721  0.5643  0.0195 -0.2175
 5121SOL    HW126825   3.152   2.984   5.780 -1.2772  0.3454  2.1235
 5121SOL    HW226826   3.019   2.908   5.753  2.0035 -1.4932 -0.9408
 5122SOL     OW26827   3.366   4.012  10.141  0.3387  0.1129 -0.0653
 5122SOL    HW126828   3.279   3.984  10.114  0.2060 -2.2687  2.8624
 5122SOL    HW226829   3.358   3.994  10.234 -1.6385  3.8381  0.4744
 5123SOL     OW26830   0.162   2.390  11.441  0.4447  0.1128 -0.9848
 5123SOL    HW126831   0.087   2.404  11.383 -0.2219  1.4958  0.2131
 5123SOL    HW226832   0.130   2.325  11.503  0.6117 -0.8445 -1.9043
 5124SOL     OW26833   3.245   4.372   9.469 -0.0321  0.0761  0.1558
 5124SOL    HW126834   3.180   4.390   9.402 -0.3491 -1.3136  0.0989
 5124SOL    HW226835   3.320   4.363   9.410  0.0806 -1.0722  0.4648
 5125SOL     OW26836   0.750   3.324   4.524  0.2414 -0.1143 -0.2136
 5125SOL    HW126837   0.737   3.234   4.494 -0.1369  0.3036 -1.2867
 5125SOL    HW226838   0.682   3.368   4.473 -0.4268  0.5501  1.2694
 5126SOL     OW26839   3.506   0.428   2.171  0.6885  0.1272  0.3919
 5126SOL    HW126840   3.455   0.469   2.241  2.2563  1.1399  0.9266
 5126SOL    HW226841   3.596   0.450   2.195  1.3258  0.5478 -2.4101
 5127SOL     OW26842   1.816   3.912  10.353  0.3423  0.2585  0.0899
 5127SOL    HW126843   1.843   4.003  10.367 -3.2709  0.8814  3.0206
 5127SOL    HW226844   1.823   3.891  10.446 -3.1864  1.1694  0.5868
 5128SOL     OW26845   1.962   1.276  13.685  0.1522  1.1851  0.3435
 5128SOL    HW126846   1.883   1.252  13.636  1.0059 -0.0772 -0.4199
 5128SOL    HW226847   1.965   1.198  13.739  2.0136  0.5853 -0.6240
 5129SOL     OW26848   3.399   1.490   5.129  0.4750  0.0961 -0.5449
 5129SOL    HW126849   3.334   1.548   5.168  0.4458  1.8431 -3.1872
 5129SOL    HW226850   3.434   1.556   5.069  0.0661  0.4032 -0.4474
 5130SOL     OW26851   3.987   0.596   6.711 -0.8239  0.4548  0.4938
 5130SOL    HW126852   4.004   0.613   6.804  1.9833 -0.5795  0.1774
 5130SOL    HW226853   4.020   0.506   6.701  1.4062  1.4824 -1.3442
 5131SOL     OW26854   2.846   4.081  12.839 -0.3968 -0.5470 -0.0824
 5131SOL    HW126855   2.798   4.103  12.759  0.8923 -2.2325 -1.3274
 5131SOL    HW226856   2.878   4.169  12.859 -3.8615  0.6145  0.2757
 5132SOL     OW26857   1.622   3.231   2.140  0.3712  0.0903  0.2554
 5132SOL    HW126858   1.563   3.210   2.067 -0.2271 -1.4580  1.2004
 5132SOL    HW226859   1.703   3.184   2.125 -0.8591 -2.0791  0.4791
 5133SOL     OW26860   1.930   4.240  12.054  0.3663  0.7676  0.0330
 5133SOL    HW126861   1.955   4.281  12.136 -0.6264  1.4930 -0.0151
 5133SOL    HW226862   1.837   4.221  12.068 -0.1013  1.4343 -2.1655
 5134SOL     OW26863   2.020   0.880   1.614  0.1625  0.2892 -0.7493
 5134SOL    HW126864   2.009   0.975   1.617  1.5637  0.3989  0.6767
 5134SOL    HW226865   2.014   0.853   1.522  2.1024  1.8804 -1.3463
 5135SOL     OW26866   2.224   4.453  17.627 -0.5774  0.2671 -0.0535
 5135SOL    HW126867   2.233   4.481  17.535 -0.1984  2.1036  0.5339
 5135SOL    HW226868   2.166   4.378  17.615  0.2122 -0.0160 -2.1891
 5136SOL     OW26869   1.937   2.002   2.251  0.5375 -0.3087  0.1215
 5136SOL    HW126870   1.956   1.923   2.201  0.7448 -0.2868  0.1673
 5136SOL    HW226871   1.841   1.995   2.258  0.3353  1.6624 -0.5758
 5137SOL     OW26872   0.899   1.533   8.732  0.4298 -0.1544  0.2139
 5137SOL    HW126873   0.947   1.615   8.740 -1.4697  0.7098  2.6317
 5137SOL    HW226874   0.921   1.501   8.819  2.1818  2.0054  0.5527
 5138SOL     OW26875   3.665   3.927   7.827  0.1964  0.2286  0.2075
 5138SOL    HW126876   3.643   3.845   7.782  1.8375 -0.7221  1.1395
 5138SOL    HW226877   3.646   3.898   7.916  1.6317  0.8250  0.6949
 5139SOL     OW26878   3.001   0.916  14.961  0.4378  0.1368  0.7910
 5139SOL    HW126879   2.939   0.979  14.997  1.1918  1.1637  0.2694
 5139SOL    HW226880   3.080   0.957  14.994  0.3240  1.9323 -1.1735
 5140SOL     OW26881   1.381   0.898   8.539  0.0841  0.0982  0.0074
 5140SOL    HW126882   1.458   0.857   8.500 -0.8445 -0.4409 -1.2733
 5140SOL    HW226883   1.366   0.954   8.463 -0.8858  1.0303  0.8831
 5141SOL     OW26884   2.136   2.431   5.507  0.5469  0.8699 -0.0132
 5141SOL    HW126885   2.155   2.445   5.600  0.6896 -0.7075  0.1928
 5141SOL    HW226886   2.175   2.345   5.491  0.2282  0.5532  0.9006
 5142SOL     OW26887   1.839   2.501  13.580 -0.7160 -0.1000  0.4589
 5142SOL    HW126888   1.934   2.499  13.568 -0.7960  1.0546 -0.4464
 5142SOL    HW226889   1.804   2.427  13.530  1.1401 -1.2702  0.8931
 5143SOL     OW26890   2.368   2.733   3.226  0.1657 -0.7228 -0.2504
 5143SOL    HW126891   2.426   2.765   3.157 -1.8438  2.2710 -0.5212
 5143SOL    HW226892   2.410   2.771   3.304  1.8031 -1.3354 -0.8213
 5144SOL     OW26893   0.766   3.389   9.817 -0.2898  0.2973 -0.5070
 5144SOL    HW126894   0.700   3.331   9.779 -0.0631 -0.9601  1.0202
 5144SOL    HW226895   0.739   3.376   9.908 -3.4751 -0.5045 -1.5605
 5145SOL     OW26896   0.971   2.096  17.347  0.2988  0.2059  0.0370
 5145SOL    HW126897   0.985   2.042  17.270 -0.5766 -0.7163  0.5340
 5145SOL    HW226898   0.944   2.029  17.410  0.2064  1.7439  1.6303
 5146SOL     OW26899   4.045   1.403   7.665  0.1269  0.2063  0.3579
 5146SOL    HW126900   4.006   1.446   7.589  0.5798 -1.3945 -0.7703
 5146SOL    HW226901   4.118   1.345   7.642  0.2222  0.4685  0.0124
 5147SOL     OW26902   4.686   2.179   4.621 -0.5764  0.0102  0.1014
 5147SOL    HW126903   4.628   2.117   4.665  2.2854 -2.8187 -0.1094
 5147SOL    HW226904   4.625   2.223   4.562 -2.8128 -1.8572  1.0229
 5148SOL     OW26905   1.851   0.104   1.246  0.1187  0.1987  0.8763
 5148SOL    HW126906   1.800   0.078   1.170  1.1801 -1.2736  0.6564
 5148SOL    HW226907   1.801   0.179   1.277 -1.2667 -0.9414  1.4201
 5149SOL     OW26908   1.891   3.429   6.512 -0.5862  0.2911  0.3924
 5149SOL    HW126909   1.960   3.496   6.516 -0.5094  0.3570 -2.5809
 5149SOL    HW226910   1.949   3.357   6.488 -0.4342  0.6415 -0.2905
 5150SOL     OW26911   3.800   3.632   7.736  0.1269  0.0330  0.0046
 5150SOL    HW126912   3.744   3.673   7.670  0.2169 -0.2869 -0.2646
 5150SOL    HW226913   3.873   3.694   7.740 -0.6336  0.8481  1.3105
 5151SOL     OW26914   4.452   4.600  15.328 -0.0956  0.1531  0.1176
 5151SOL    HW126915   4.387   4.572  15.263  0.6735  0.3492 -0.7405
 5151SOL    HW226916   4.484   4.676  15.279 -1.8623 -1.8338 -4.1896
 5152SOL     OW26917   2.410   1.318   4.685 -0.0782  0.4470 -0.0556
 5152SOL    HW126918   2.479   1.364   4.733 -0.1572  0.4618  0.0446
 5152SOL    HW226919   2.402   1.382   4.614  0.4073 -1.1348 -1.5210
 5153SOL     OW26920   4.353   4.685  14.904 -0.0160  0.3113  0.2358
 5153SOL    HW126921   4.351   0.053  14.877  2.2420 -0.0805 -1.2828
 5153SOL    HW226922   4.293   4.693  14.978 -2.6367 -2.2364 -1.6291
 5154SOL     OW26923   1.816   3.703   6.817 -0.4235  0.1424  0.5037
 5154SOL    HW126924   1.740   3.753   6.787  0.5865  1.2255 -0.2494
 5154SOL    HW226925   1.782   3.614   6.803  1.1265 -0.2941 -0.5096
 5155SOL     OW26926   2.362   2.623  14.966 -0.0815 -0.2192 -0.1898
 5155SOL    HW126927   2.314   2.542  14.979  2.9653 -1.9398  0.2208
 5155SOL    HW226928   2.426   2.583  14.907  0.0426  2.3714 -1.8250
 5156SOL     OW26929   2.053   4.290   4.744  0.2071  0.1133  0.1540
 5156SOL    HW126930   2.055   4.362   4.681  0.6667 -0.7405 -0.8026
 5156SOL    HW226931   2.037   4.342   4.823 -0.2591  0.2371 -0.0234
 5157SOL     OW26932   3.036   3.640  15.717 -0.4075  0.3214 -0.4722
 5157SOL    HW126933   3.099   3.594  15.772  0.6018  2.2881  0.0004
 5157SOL    HW226934   3.067   3.729  15.733  0.2499  0.0348 -0.1397
 5158SOL     OW26935   0.631   2.137   4.938  0.3405  0.4240 -0.3329
 5158SOL    HW126936   0.587   2.114   4.856 -1.9093 -0.2501  1.0652
 5158SOL    HW226937   0.700   2.071   4.938 -0.1903 -0.1133 -2.3220
 5159SOL     OW26938   2.464   2.303   7.057 -0.9650  0.5051 -0.3180
 5159SOL    HW126939   2.395   2.244   7.028 -1.4766  1.0711 -0.2633
 5159SOL    HW226940   2.425   2.343   7.136 -2.7354 -0.4422 -0.7226
 5160SOL     OW26941   3.613   0.529   5.369 -0.6586  0.1702 -0.3189
 5160SOL    HW126942   3.558   0.585   5.314 -1.9571 -1.3030 -0.5204
 5160SOL    HW226943   3.557   0.451   5.370  1.8383 -1.6134 -1.8775
 5161SOL     OW26944   1.621   0.871  13.083  0.4709 -0.3749 -0.3700
 5161SOL    HW126945   1.675   0.925  13.025 -1.5772  0.1915 -1.7355
 5161SOL    HW226946   1.685   0.801  13.090  1.1441  0.4292  1.7435
 5162SOL     OW26947   3.556   2.396   6.293  0.1778 -0.1434  0.1576
 5162SOL    HW126948   3.521   2.323   6.343  0.7179 -0.3854  0.1835
 5162SOL    HW226949   3.650   2.397   6.313  0.2497  2.2569 -0.2740
 5163SOL     OW26950   4.331   0.910   2.408 -0.1563 -0.1850 -0.1105
 5163SOL    HW126951   4.370   0.955   2.483  0.3255  0.7654 -0.9350
 5163SOL    HW226952   4.405   0.883   2.354  0.8096  0.8258  0.7078
 5164SOL     OW26953   0.546   3.726  12.057  0.8317 -0.8504 -0.0231
 5164SOL    HW126954   0.612   3.666  12.092  2.0528  0.5159 -0.0122
 5164SOL    HW226955   0.556   3.802  12.114 -1.6014  0.3368 -1.1955
 5165SOL     OW26956   1.719   0.426  16.977 -0.5938 -0.0002  0.0848
 5165SOL    HW126957   1.807   0.392  16.992 -0.8239 -1.7216 -2.4088
 5165SOL    HW226958   1.690   0.353  16.922 -1.6681  0.8537 -0.4835
 5166SOL     OW26959   1.006   0.144  15.445 -0.1629 -0.2877 -0.2457
 5166SOL    HW126960   0.955   0.225  15.434  1.3317  0.5676 -0.8449
 5166SOL    HW226961   0.951   0.091  15.503 -0.8253  1.0030  0.3002
 5167SOL     OW26962   4.152   2.534   4.592  0.2855  0.2998  0.5385
 5167SOL    HW126963   4.090   2.599   4.626 -0.2343  0.6565 -1.1119
 5167SOL    HW226964   4.223   2.552   4.654  0.9285  0.1160 -0.1467
 5168SOL     OW26965   2.365   2.826  12.143 -0.2388 -0.3996 -0.1359
 5168SOL    HW126966   2.405   2.910  12.164 -1.7123  0.4951 -0.9334
 5168SOL    HW226967   2.288   2.861  12.098 -0.9453 -0.1525  1.2673
 5169SOL     OW26968   3.529   1.886   6.686 -0.0255  0.3716  0.2224
 5169SOL    HW126969   3.528   1.798   6.650 -0.7428  1.2310 -1.8301
 5169SOL    HW226970   3.619   1.912   6.667  0.5882 -0.6134  1.7143
 5170SOL     OW26971   2.063   0.588  14.436 -0.6361  0.0576 -0.1486
 5170SOL    HW126972   2.026   0.587  14.348  0.9666 -1.3581 -0.7999
 5170SOL    HW226973   2.015   0.662  14.472  0.2012 -0.6247  2.3647
 5171SOL     OW26974   4.605   2.259   8.922  0.3387 -0.0924  0.1196
 5171SOL    HW126975   4.624   2.252   9.016 -0.0417  1.5729  0.3278
 5171SOL    HW226976   4.658   2.188   8.886  3.0343  2.1187 -0.2832
 5172SOL     OW26977   3.534   1.373  13.824  0.0273  0.5738  0.8396
 5172SOL    HW126978   3.574   1.381  13.738  0.8227 -2.1819  0.9632
 5172SOL    HW226979   3.594   1.318  13.873 -1.5305 -1.8344  0.0410
 5173SOL     OW26980   4.375   3.218   4.035  0.4802 -0.2561 -0.1896
 5173SOL    HW126981   4.420   3.294   3.998  0.0402  1.6185  3.0800
 5173SOL    HW226982   4.455   3.192   4.080 -0.2265 -1.0178  0.6295
 5174SOL     OW26983   3.154   3.676  14.723  0.8153  0.5445 -0.1715
 5174SOL    HW126984   3.101   3.754  14.705 -2.2957 -1.4947  0.2574
 5174SOL    HW226985   3.240   3.718  14.719  1.8745 -1.4545  2.7865
 5175SOL     OW26986   3.974   2.602   6.139 -0.2050  0.0732  0.6576
 5175SOL    HW126987   4.002   2.576   6.051  0.2226 -1.5507  1.2690
 5175SOL    HW226988   3.971   2.514   6.177  1.4140 -0.2833 -0.0413
 5176SOL     OW26989   1.036   4.229  13.780 -0.0370 -0.4930  0.4892
 5176SOL    HW126990   0.962   4.267  13.826  0.5315  1.0475  0.1398
 5176SOL    HW226991   1.101   4.297  13.800  1.5670 -1.5340 -1.2420
 5177SOL     OW26992   2.527   1.047   5.490 -0.0784  0.1148  0.3622
 5177SOL    HW126993   2.622   1.033   5.499 -0.1851 -0.6094  0.3757
 5177SOL    HW226994   2.534   1.138   5.462  4.0928  0.4134  2.3377
 5178SOL     OW26995   4.418   2.268  10.400  0.0115  0.4824  0.3444
 5178SOL    HW126996   4.422   2.334  10.468 -1.2752 -0.2560  1.1404
 5178SOL    HW226997   4.477   2.203  10.439 -0.5726 -0.7152 -0.7802
 5179SOL     OW26998   2.517   3.804   2.110  0.0255  0.3640 -0.4819
 5179SOL    HW126999   2.494   3.750   2.186 -0.5774  0.2222 -0.7661
 5179SOL    HW227000   2.569   3.744   2.056 -0.4337 -0.3647 -0.1155
 5180SOL     OW27001   2.536   4.145   2.939  0.4999  0.3191  0.8649
 5180SOL    HW127002   2.575   4.116   2.857 -0.3257  1.1228  0.1897
 5180SOL    HW227003   2.451   4.106   2.919  0.4164 -0.0838  2.0040
 5181SOL     OW27004   2.726   0.512   5.582  0.1494 -0.3205 -0.2934
 5181SOL    HW127005   2.724   0.470   5.496  1.6191  1.5650 -1.2619
 5181SOL    HW227006   2.659   0.577   5.558 -1.0763 -1.0362  1.2235
 5182SOL     OW27007   0.690   3.202  15.172 -0.3036 -0.4099  0.6633
 5182SOL    HW127008   0.642   3.170  15.248  0.0011  0.7342  1.3476
 5182SOL    HW227009   0.681   3.297  15.186  1.6216 -0.1506  0.1380
 5183SOL     OW27010   3.356   2.228  12.555  0.0517 -0.2442  0.0048
 5183SOL    HW127011   3.365   2.322  12.573 -4.4955 -0.0681  1.2459
 5183SOL    HW227012   3.276   2.226  12.502  0.9704  1.9460 -1.4613
 5184SOL     OW27013   4.554   3.132   1.067 -0.8946  0.0426 -0.8180
 5184SOL    HW127014   4.547   3.227   1.067 -2.3368 -0.0678  1.4085
 5184SOL    HW227015   4.628   3.114   1.124 -2.2248 -1.7047  0.3824
 5185SOL     OW27016   0.043   4.615   6.302 -0.0856 -0.0999  0.2190
 5185SOL    HW127017   0.007   4.702   6.320  0.7664 -0.1848  2.2853
 5185SOL    HW227018   4.716   4.586   6.225  2.2393  0.6291 -1.5815
 5186SOL     OW27019   3.677   0.267   5.875  0.1181  0.2034  0.4410
 5186SOL    HW127020   3.751   0.325   5.854  0.8250 -0.5262  0.9116
 5186SOL    HW227021   3.644   0.298   5.960 -0.4315 -1.5569  0.8567
 5187SOL     OW27022   1.668   1.315   1.411  0.1576  0.5000 -0.5837
 5187SOL    HW127023   1.730   1.358   1.470 -0.3174 -0.0367  0.2970
 5187SOL    HW227024   1.687   1.225   1.436  0.2892  0.3000 -1.4021
 5188SOL     OW27025   2.343   2.634   7.998  0.3749  0.1977  0.9392
 5188SOL    HW127026   2.283   2.707   8.009 -1.9654 -1.4227 -0.7710
 5188SOL    HW227027   2.286   2.573   7.950  1.8024 -0.9664  0.7159
 5189SOL     OW27028   1.636   3.070   4.505 -0.0635  0.4050  0.3367
 5189SOL    HW127029   1.547   3.042   4.523  0.6144 -1.5278  0.6296
 5189SOL    HW227030   1.629   3.166   4.504 -3.1772  0.1393 -1.8444
 5190SOL     OW27031   3.577   3.141  16.750  0.2368  0.2477  0.3781
 5190SOL    HW127032   3.626   3.068  16.714  0.0351 -0.8941  2.3976
 5190SOL    HW227033   3.550   3.179  16.667  0.4950 -0.6107 -0.0993
 5191SOL     OW27034   2.953   0.605   5.382 -0.1448  0.3919  0.4799
 5191SOL    HW127035   2.917   0.520   5.358 -1.0952  0.5744  1.2509
 5191SOL    HW227036   2.880   0.666   5.368  0.8647  1.3665 -0.5837
 5192SOL     OW27037   0.864   1.679   6.223  0.3368  0.0929  0.3841
 5192SOL    HW127038   0.847   1.589   6.248 -1.9168 -0.4636 -3.2162
 5192SOL    HW227039   0.855   1.724   6.307 -0.2613  0.1380  0.2928
 5193SOL     OW27040   3.436   3.608   4.639  0.2714 -0.0239  0.1258
 5193SOL    HW127041   3.477   3.645   4.716  2.0919  1.2820 -1.4846
 5193SOL    HW227042   3.478   3.668   4.577 -0.3631  1.7726  1.4367
 5194SOL     OW27043   0.940   1.862   7.902 -0.7326  0.3495  0.3147
 5194SOL    HW127044   0.950   1.921   7.828  1.4741  1.0068  1.1405
 5194SOL    HW227045   0.884   1.805   7.849  1.2915 -1.0056 -0.3391
 5195SOL     OW27046   0.742   3.102   0.716 -0.2178 -0.1267 -0.6688
 5195SOL    HW127047   0.797   3.095   0.794 -1.9312 -1.3122  0.4507
 5195SOL    HW227048   0.780   3.033   0.661  1.0493 -0.4572  0.6289
 5196SOL     OW27049   1.313   3.483  12.586 -0.1724  0.8128 -0.0151
 5196SOL    HW127050   1.274   3.558  12.542 -1.2157 -0.5557 -1.4295
 5196SOL    HW227051   1.248   3.454  12.651  1.4186  0.5886  1.4575
 5197SOL     OW27052   3.334   2.537  13.660  0.1261 -0.1140  0.1385
 5197SOL    HW127053   3.249   2.559  13.697 -0.3850  0.1807 -1.2120
 5197SOL    HW227054   3.373   2.622  13.680  1.0797 -0.3365 -0.7811
 5198SOL     OW27055   3.252   0.472   7.347 -0.3608  0.1513 -0.1716
 5198SOL    HW127056   3.164   0.461   7.312  0.0231  2.9358 -2.0056
 5198SOL    HW227057   3.232   0.520   7.427  0.8344  0.4813 -0.0719
 5199SOL     OW27058   0.136   0.905   4.787  0.7780  0.5119 -0.4291
 5199SOL    HW127059   0.098   0.847   4.854  1.9457  0.7652  0.4593
 5199SOL    HW227060   0.127   0.989   4.833 -1.2606 -0.6779  1.3812
 5200SOL     OW27061   3.523   4.542  14.710  0.0051  0.1340 -0.2201
 5200SOL    HW127062   3.535   4.447  14.711  2.5410  0.4760  0.8527
 5200SOL    HW227063   3.605   4.570  14.752  0.1934 -1.1436  0.2567
 5201SOL     OW27064   1.382   1.736  14.336 -0.0894  0.6775  0.0145
 5201SOL    HW127065   1.310   1.673  14.344  0.9212 -0.5776 -0.8077
 5201SOL    HW227066   1.360   1.762  14.247 -0.4220 -1.4711 -0.5417
 5202SOL     OW27067   2.156   2.891   8.070  0.2871  0.1577  0.2426
 5202SOL    HW127068   2.096   2.952   8.113  2.0753  3.4490 -1.9282
 5202SOL    HW227069   2.098   2.820   8.042  1.0841 -0.3679 -0.0561
 5203SOL     OW27070   1.531   1.049   4.960  0.1670 -0.2043  0.0640
 5203SOL    HW127071   1.543   1.111   5.032  0.1293 -0.0445 -0.0667
 5203SOL    HW227072   1.438   1.031   4.978 -0.4769  1.1725 -1.8141
 5204SOL     OW27073   0.385   1.183   6.659 -0.1248 -0.1550  0.2209
 5204SOL    HW127074   0.328   1.115   6.621 -0.2600 -0.5316  1.0895
 5204SOL    HW227075   0.414   1.232   6.582  0.0999 -0.6906 -0.0316
 5205SOL     OW27076   4.287   2.083   9.698  0.5054 -0.1674  0.2874
 5205SOL    HW127077   4.360   2.026   9.724  0.5444  0.9717  2.6473
 5205SOL    HW227078   4.249   2.101   9.784  0.4443 -0.4938  0.3287
 5206SOL     OW27079   3.403   1.813   1.041 -0.4487 -0.3596  0.2027
 5206SOL    HW127080   3.364   1.786   0.957  2.0690 -5.2479  0.6183
 5206SOL    HW227081   3.326   1.850   1.085 -1.7848 -1.2751 -1.3630
 5207SOL     OW27082   2.951   1.279   3.450 -0.0178  0.6792 -0.1891
 5207SOL    HW127083   2.893   1.289   3.375  1.9721 -1.3373 -1.9575
 5207SOL    HW227084   2.899   1.326   3.516 -1.8904 -2.2032  0.3994
 5208SOL     OW27085   0.393   3.267  12.662 -0.0413  0.2328 -0.3796
 5208SOL    HW127086   0.389   3.190  12.605  2.8891 -0.5167  0.4026
 5208SOL    HW227087   0.411   3.337  12.600  1.2714 -0.6575 -1.0074
 5209SOL     OW27088   0.663   0.006   1.114  0.0127 -0.2975 -0.2160
 5209SOL    HW127089   0.608   0.025   1.038 -0.4599  0.7149  0.3803
 5209SOL    HW227090   0.677   0.092   1.153  0.2520 -0.0988 -0.7322
 5210SOL     OW27091   1.820   3.077   0.618  0.4919  0.1853  0.3564
 5210SOL    HW127092   1.734   3.058   0.579  0.0834 -0.9559  1.8187
 5210SOL    HW227093   1.854   3.130   0.546 -0.7395  1.9771  1.0940
 5211SOL     OW27094   4.183   1.368   3.366  0.2836  0.3694  0.4474
 5211SOL    HW127095   4.138   1.440   3.410 -0.3966  0.7205 -0.8292
 5211SOL    HW227096   4.179   1.393   3.274  0.0185  1.3139  0.7120
 5212SOL     OW27097   2.419   4.064  16.429  0.0619  0.2878  0.5159
 5212SOL    HW127098   2.432   4.157  16.450 -1.5876  0.4903  0.6803
 5212SOL    HW227099   2.389   4.028  16.513  1.3990  0.0530  0.8853
 5213SOL     OW27100   3.752   1.413   1.889  0.0253 -0.8159 -0.3766
 5213SOL    HW127101   3.757   1.433   1.795  2.5642 -1.7716 -0.4552
 5213SOL    HW227102   3.657   1.408   1.898 -0.0980  1.0689 -0.7040
 5214SOL     OW27103   4.545   0.487  10.049  0.0062  0.2630  0.4870
 5214SOL    HW127104   4.550   0.491   9.954  1.0449  0.3714  0.5385
 5214SOL    HW227105   4.635   0.519  10.060  0.1102 -0.0978  0.6667
 5215SOL     OW27106   1.178   1.292  13.844 -0.6782 -0.0045 -0.0537
 5215SOL    HW127107   1.211   1.321  13.928  2.0164  1.6738 -1.7060
 5215SOL    HW227108   1.244   1.329  13.785  0.5521 -1.7853  0.2177
 5216SOL     OW27109   3.567   4.623   3.345 -0.3698  0.4349 -0.0334
 5216SOL    HW127110   3.565   4.555   3.278 -1.1950  0.6532 -0.2254
 5216SOL    HW227111   3.518   4.581   3.417  0.5389  0.2304  0.4665
 5217SOL     OW27112   1.588   2.811  11.147  0.3631  0.4169 -0.3549
 5217SOL    HW127113   1.627   2.888  11.189 -1.3982  0.8277  0.5176
 5217SOL    HW227114   1.658   2.793  11.084  0.7055 -0.2622  0.2211
 5218SOL     OW27115   0.086   1.472   7.230 -0.3081 -0.2733 -0.0358
 5218SOL    HW127116   0.177   1.470   7.257 -0.6217 -1.6169  0.9253
 5218SOL    HW227117   0.048   1.484   7.317 -1.0898 -3.1391  0.0046
 5219SOL     OW27118   0.938   2.697   9.279 -0.1200  0.3340  0.5353
 5219SOL    HW127119   0.855   2.658   9.250  1.6579 -1.9359 -1.4709
 5219SOL    HW227120   0.980   2.614   9.304 -0.5044  0.4448  1.5672
 5220SOL     OW27121   1.751   2.860   5.385 -0.0635  0.4252 -0.3300
 5220SOL    HW127122   1.683   2.927   5.386  0.8742  1.3977 -0.9120
 5220SOL    HW227123   1.730   2.811   5.306  0.4309  0.6661 -0.6143
 5221SOL     OW27124   1.993   0.088   9.318  0.2361  0.0548 -0.1593
 5221SOL    HW127125   2.005   4.717   9.331 -0.6240  0.2299  1.8676
 5221SOL    HW227126   1.932   0.087   9.244  0.4844 -0.5184 -0.3549
 5222SOL     OW27127   0.619   1.993   6.189 -0.5754  0.0876 -0.3003
 5222SOL    HW127128   0.614   1.988   6.094  1.4232  2.5985 -0.5391
 5222SOL    HW227129   0.695   2.047   6.209  0.4550  0.0929 -4.2451
 5223SOL     OW27130   1.314   2.942   6.812  0.0397  0.5158 -0.0780
 5223SOL    HW127131   1.384   3.007   6.820  0.9761 -0.5268  0.1983
 5223SOL    HW227132   1.347   2.874   6.871 -0.3734  1.7129  1.5477
 5224SOL     OW27133   2.649   2.424   6.697 -0.3116 -0.5842  0.0728
 5224SOL    HW127134   2.728   2.375   6.718 -0.7240 -0.3031  2.2149
 5224SOL    HW227135   2.621   2.455   6.783 -0.6966  0.9500 -0.5905
 5225SOL     OW27136   1.904   1.625   3.520  0.0265  0.1944  0.7786
 5225SOL    HW127137   1.917   1.645   3.427  1.4756  0.1920  0.9725
 5225SOL    HW227138   1.833   1.562   3.527  0.5960 -0.3810  1.3343
 5226SOL     OW27139   0.208   4.527   6.647 -0.2522 -0.3543 -0.5626
 5226SOL    HW127140   0.219   4.578   6.727 -1.5869 -0.2926 -0.4237
 5226SOL    HW227141   0.270   4.457   6.668  0.2279 -0.3378 -1.9202
 5227SOL     OW27142   4.341   4.718   8.275 -0.3915 -0.7321  0.1096
 5227SOL    HW127143   4.272   0.027   8.215  0.3116 -3.8266 -2.3481
 5227SOL    HW227144   4.326   0.050   8.351  0.0607 -1.0107  0.3993
 5228SOL     OW27145   1.962   4.507   2.844  0.4565  0.2120  0.4503
 5228SOL    HW127146   1.961   4.417   2.811 -1.8171 -0.4965  2.4667
 5228SOL    HW227147   2.056   4.519   2.856  0.4573  1.3281 -0.8181
 5229SOL     OW27148   3.673   2.076  11.117 -0.2018 -0.5712  0.4328
 5229SOL    HW127149   3.662   2.162  11.158 -1.4919 -0.4126 -0.2461
 5229SOL    HW227150   3.722   2.040  11.191 -2.6429 -1.8538  1.4571
 5230SOL     OW27151   4.617   3.066  10.020 -0.5364 -0.3977  0.0317
 5230SOL    HW127152   4.590   3.158  10.026  0.5145 -0.0923  0.0479
 5230SOL    HW227153   4.555   3.025   9.959 -2.2678  1.5908  0.4324
 5231SOL     OW27154   3.235   0.860  15.136  0.3271 -0.3593  0.2692
 5231SOL    HW127155   3.298   0.927  15.109  0.8360 -0.9598 -0.0030
 5231SOL    HW227156   3.282   0.800  15.192 -1.0172 -1.0519  0.6553
 5232SOL     OW27157   1.119   0.324   1.126 -0.2870 -0.2496 -0.2327
 5232SOL    HW127158   1.067   0.404   1.129 -0.4418 -0.3549 -0.1664
 5232SOL    HW227159   1.171   0.348   1.049 -2.8959 -0.2541 -1.9877
 5233SOL     OW27160   3.188   0.102   3.024  0.1958  0.3804 -0.3447
 5233SOL    HW127161   3.109   0.088   3.076  1.5891 -0.0709  1.6828
 5233SOL    HW227162   3.188   0.012   2.990  1.4443 -0.6940  2.4776
 5234SOL     OW27163   1.778   2.013  16.695 -0.6949 -0.2996  0.0600
 5234SOL    HW127164   1.831   1.996  16.617  0.0685 -1.0374  0.7532
 5234SOL    HW227165   1.832   1.976  16.765  0.6874  0.0784 -0.8180
 5235SOL     OW27166   4.059   2.634   3.990 -0.2462 -0.2532 -0.1512
 5235SOL    HW127167   4.037   2.696   4.060 -1.5636 -0.9922  0.0815
 5235SOL    HW227168   3.987   2.572   3.986 -2.3444  1.9898  2.4337
 5236SOL     OW27169   1.363   1.710  14.601 -0.1725  0.1191  0.5349
 5236SOL    HW127170   1.417   1.632  14.591  0.4351  0.7495 -1.2294
 5236SOL    HW227171   1.368   1.755  14.516 -1.8551  0.0820  0.4152
 5237SOL     OW27172   3.811   2.069   7.904  0.5653 -0.1905  0.3203
 5237SOL    HW127173   3.754   2.068   7.981 -0.5243 -1.0716 -0.5080
 5237SOL    HW227174   3.856   1.985   7.913 -1.3026 -0.9910  2.2411
 5238SOL     OW27175   2.847   2.825  14.973  0.3685 -0.3944  0.2366
 5238SOL    HW127176   2.900   2.866  15.042 -0.6160  1.1703  0.0797
 5238SOL    HW227177   2.768   2.876  14.991  0.1745  0.1947 -2.2806
 5239SOL     OW27178   3.485   3.866   5.051  0.5946 -0.0011 -0.2980
 5239SOL    HW127179   3.523   3.954   5.060  2.2702 -0.5989 -1.6401
 5239SOL    HW227180   3.395   3.884   5.076  0.5206  0.9962 -1.2637
 5240SOL     OW27181   0.199   1.904   2.473  0.1003 -0.6661  0.3898
 5240SOL    HW127182   0.248   1.897   2.391  0.1859 -0.0417  0.3858
 5240SOL    HW227183   0.149   1.985   2.462 -1.3669 -1.3328  2.2397
 5241SOL     OW27184   3.880   0.828   7.653  0.0764  0.2750  0.0159
 5241SOL    HW127185   3.880   0.844   7.747  0.1653 -0.3187  0.1184
 5241SOL    HW227186   3.950   0.763   7.644 -1.0094 -1.0898  1.4861
 5242SOL     OW27187   4.260   3.406   0.553 -0.2330 -0.1508 -0.2942
 5242SOL    HW127188   4.330   3.463   0.584  0.4886 -0.4382 -1.3894
 5242SOL    HW227189   4.200   3.419   0.626 -1.1618 -2.2044 -0.7061
 5243SOL     OW27190   2.789   0.609  13.568  0.6535  0.0470 -0.2243
 5243SOL    HW127191   2.747   0.694  13.550 -0.8796 -0.3852  1.3982
 5243SOL    HW227192   2.789   0.616  13.663  0.5465  0.1437 -0.2311
 5244SOL     OW27193   0.080   1.161   4.875  0.5688  0.2617 -0.4339
 5244SOL    HW127194   0.137   1.134   4.947 -0.3269  1.1576  0.6152
 5244SOL    HW227195   4.719   1.189   4.913 -0.2452  0.6198 -2.5231
 5245SOL     OW27196   1.410   0.738   9.532  0.3839  0.5511 -0.0067
 5245SOL    HW127197   1.474   0.667   9.541 -0.3220 -0.0557  0.2290
 5245SOL    HW227198   1.431   0.777   9.447 -0.9346 -1.3608 -1.2204
 5246SOL     OW27199   0.204   3.452   8.979 -0.6543 -0.2578  0.6830
 5246SOL    HW127200   0.234   3.501   8.902 -2.0849 -1.2579 -0.5073
 5246SOL    HW227201   0.168   3.517   9.039  0.7203  1.2516 -0.1253
 5247SOL     OW27202   4.685   0.927   3.219  0.0345  0.3582 -0.1785
 5247SOL    HW127203   4.702   1.013   3.180 -0.9500  0.7934  0.3598
 5247SOL    HW227204   0.040   0.912   3.272 -1.3347  0.1785  1.7661
 5248SOL     OW27205   0.192   4.565   5.235  0.5037 -0.9938 -0.5448
 5248SOL    HW127206   0.116   4.623   5.227 -0.1899 -1.7661  0.5153
 5248SOL    HW227207   0.262   4.631   5.242  1.3924 -1.9936 -0.0660
 5249SOL     OW27208   0.888   1.282   8.625 -0.0414 -0.4881  0.3287
 5249SOL    HW127209   0.983   1.287   8.617  0.1127 -0.7584  1.8478
 5249SOL    HW227210   0.874   1.375   8.641  2.3306  0.1838 -1.4631
 5250SOL     OW27211   2.769   2.264   9.575  0.0120 -0.4859  0.5894
 5250SOL    HW127212   2.730   2.187   9.617 -2.3699  0.3174 -0.1346
 5250SOL    HW227213   2.795   2.237   9.487  2.0075  0.6022  0.8410
 5251SOL     OW27214   3.444   1.502   6.333 -0.1364  0.1271  0.3524
 5251SOL    HW127215   3.381   1.430   6.328 -0.7610  0.7243 -0.2327
 5251SOL    HW227216   3.531   1.462   6.325 -0.9067 -1.3582 -0.5417
 5252SOL     OW27217   4.527   1.774   1.703  0.1075 -0.0555 -0.5279
 5252SOL    HW127218   4.528   1.753   1.610  3.0730 -2.4894  0.0463
 5252SOL    HW227219   4.594   1.714   1.736 -0.1648  0.9558  1.9137
 5253SOL     OW27220   1.678   1.975   2.676  0.2698 -0.0748 -0.2289
 5253SOL    HW127221   1.634   1.934   2.750 -1.0527 -1.3737 -1.7511
 5253SOL    HW227222   1.621   1.958   2.601 -0.4424  1.4466 -0.0384
 5254SOL     OW27223   3.732   2.053  11.713  0.5228 -0.1340  0.2571
 5254SOL    HW127224   3.656   2.111  11.714 -0.9104 -1.9808 -2.4702
 5254SOL    HW227225   3.804   2.116  11.721  0.3091  0.4310 -2.5509
 5255SOL     OW27226   2.003   2.869  17.580  0.2870  0.1963  0.0851
 5255SOL    HW127227   1.999   2.964  17.592  1.0557  0.0464  1.5620
 5255SOL    HW227228   2.066   2.866  17.508 -0.8976  1.8030 -1.0008
 5256SOL     OW27229   4.252   1.635   2.054 -0.2597  0.9604 -0.1575
 5256SOL    HW127230   4.306   1.713   2.036  0.3556  0.3029 -1.1979
 5256SOL    HW227231   4.272   1.579   1.979  0.8442 -0.2006  1.0078
 5257SOL     OW27232   3.861   2.584   9.235 -0.1491  0.2605  0.5166
 5257SOL    HW127233   3.901   2.498   9.249  0.1441  0.2308 -0.4423
 5257SOL    HW227234   3.838   2.588   9.142 -1.6083 -0.1083  0.8649
 5258SOL     OW27235   1.080   4.069   1.215  0.5633  0.2285 -0.0070
 5258SOL    HW127236   1.004   4.032   1.171 -0.7359  3.3668 -0.4275
 5258SOL    HW227237   1.136   4.070   1.137  0.8020 -1.8765  0.1413
 5259SOL     OW27238   2.581   0.416   1.607 -0.2122  0.3415  0.3843
 5259SOL    HW127239   2.670   0.382   1.616 -0.6277 -1.4592 -2.3275
 5259SOL    HW227240   2.550   0.369   1.530 -0.7468  1.4515 -0.0911
 5260SOL     OW27241   4.427   2.475   9.625 -0.3598  0.9507 -0.1946
 5260SOL    HW127242   4.501   2.506   9.573  0.5915  0.9518  1.1813
 5260SOL    HW227243   4.366   2.447   9.557  0.5493 -0.4420 -0.4331
 5261SOL     OW27244   0.472   4.198  13.375 -0.5656  0.1612 -0.0890
 5261SOL    HW127245   0.536   4.146  13.326 -2.6437  0.1009 -2.7590
 5261SOL    HW227246   0.386   4.164  13.350 -0.5925  0.3766 -0.2812
 5262SOL     OW27247   4.326   3.336   6.783 -0.0415 -0.4653 -0.3545
 5262SOL    HW127248   4.375   3.284   6.846 -2.5839 -0.5706  1.5206
 5262SOL    HW227249   4.328   3.426   6.814  2.7445 -1.4891  2.3923
 5263SOL     OW27250   4.570   0.644  17.402  0.0751  0.2570  0.1423
 5263SOL    HW127251   4.491   0.696  17.415 -0.0149  0.1317  0.1038
 5263SOL    HW227252   4.534   0.557  17.383  0.2605  0.5680 -1.6750
 5264SOL     OW27253   4.611   2.863   3.853  0.0710  0.0684  0.4200
 5264SOL    HW127254   4.557   2.787   3.877 -0.7762  0.4232 -0.3735
 5264SOL    HW227255   4.663   2.875   3.932 -1.5269  0.3585  1.4245
 5265SOL     OW27256   1.297   2.056   7.226  0.0926  0.0197  0.4526
 5265SOL    HW127257   1.280   1.987   7.290 -1.7815 -0.1816 -0.2575
 5265SOL    HW227258   1.233   2.028   7.160  0.6939 -0.8738  0.2493
 5266SOL     OW27259   3.219   0.556   3.626  0.1970 -0.0205 -0.1746
 5266SOL    HW127260   3.162   0.480   3.615  0.0315 -0.0195  0.7327
 5266SOL    HW227261   3.311   0.530   3.631 -0.3005 -1.2930  1.9880
 5267SOL     OW27262   1.190   4.056   6.163  0.0747  0.3202 -0.0057
 5267SOL    HW127263   1.236   4.053   6.247  1.1314 -0.3120 -0.6096
 5267SOL    HW227264   1.160   4.146   6.157  0.2905  0.5089  1.7780
 5268SOL     OW27265   2.194   4.547   1.871  0.0560 -0.3929 -0.1321
 5268SOL    HW127266   2.234   4.612   1.929 -0.3465  0.5710 -0.9458
 5268SOL    HW227267   2.169   4.601   1.796  0.8336  0.0839 -0.0482
 5269SOL     OW27268   4.428   1.662  12.105 -0.1885  0.1769 -0.0102
 5269SOL    HW127269   4.407   1.569  12.097  0.6342  0.1125 -1.3755
 5269SOL    HW227270   4.512   1.658  12.150 -0.4886 -0.7209  0.4776
 5270SOL     OW27271   4.397   3.907   7.901  0.6390 -0.2237 -0.3848
 5270SOL    HW127272   4.480   3.859   7.896  0.0553 -1.2405 -0.2916
 5270SOL    HW227273   4.420   3.955   7.980 -0.7890 -1.8657  1.0284
 5271SOL     OW27274   3.431   1.014   8.395 -0.0066 -0.2189 -0.1207
 5271SOL    HW127275   3.345   0.991   8.431 -0.3525 -0.1512 -0.9027
 5271SOL    HW227276   3.451   1.096   8.439  0.4652 -1.8475  2.6827
 5272SOL     OW27277   4.042   1.495   5.755 -0.5869  0.0327  0.4366
 5272SOL    HW127278   4.036   1.505   5.660 -1.9963  3.9896  0.9319
 5272SOL    HW227279   3.977   1.559   5.782 -0.2764  0.1904  0.8170
 5273SOL     OW27280   3.815   1.410   5.457 -0.1776  0.1374 -0.6450
 5273SOL    HW127281   3.855   1.324   5.469  1.9206  1.2129  0.1603
 5273SOL    HW227282   3.875   1.448   5.394  2.0225  0.5842  1.7008
 5274SOL     OW27283   3.571   3.614   3.477 -0.0687 -0.1515  0.1548
 5274SOL    HW127284   3.629   3.591   3.550 -0.6783 -1.6242  0.1587
 5274SOL    HW227285   3.585   3.709   3.486 -1.6654  0.0888 -0.0488
 5275SOL     OW27286   0.658   2.515   7.386  0.3544 -0.7643  0.3611
 5275SOL    HW127287   0.592   2.581   7.408  0.5147 -0.0230 -1.3504
 5275SOL    HW227288   0.741   2.560   7.369 -0.4228  0.0931 -1.0972
 5276SOL     OW27289   3.860   4.141   4.913 -0.2950 -0.3940  0.1292
 5276SOL    HW127290   3.939   4.089   4.928 -1.1269 -0.3350  4.5600
 5276SOL    HW227291   3.900   4.223   4.882 -2.1818  0.7342  0.6971
 5277SOL     OW27292   1.858   3.452   2.730 -0.2905  0.1963 -0.4472
 5277SOL    HW127293   1.813   3.534   2.749 -0.0776  0.3838 -0.7476
 5277SOL    HW227294   1.790   3.402   2.776  1.0469 -1.0961  0.1239
 5278SOL     OW27295   2.531   2.449  12.575 -0.3640  0.0045  0.3163
 5278SOL    HW127296   2.588   2.372  12.587  2.0879  1.3000 -3.0906
 5278SOL    HW227297   2.518   2.485  12.663  2.4120  1.8156 -0.0220
 5279SOL     OW27298   0.241   4.660  13.125 -0.4854 -0.0777  0.0319
 5279SOL    HW127299   0.210   4.657  13.034 -1.1950  0.9396  0.2412
 5279SOL    HW227300   0.255   4.566  13.137  1.3442 -0.1982 -2.9691
 5280SOL     OW27301   4.479   0.997   3.386  0.2611  0.1844  0.5889
 5280SOL    HW127302   4.559   1.015   3.337 -0.4784  0.3282 -0.5773
 5280SOL    HW227303   4.443   0.923   3.336  0.7654 -0.0957  0.6382
 5281SOL     OW27304   3.715   1.110   2.418 -0.0942  0.2841 -0.0197
 5281SOL    HW127305   3.754   1.135   2.334  0.4049  2.7191  0.9172
 5281SOL    HW227306   3.663   1.032   2.403  1.8002 -1.1070  0.6805
 5282SOL     OW27307   0.651   3.665  11.808  0.4112  0.3078 -0.3625
 5282SOL    HW127308   0.697   3.748  11.792 -1.1059  1.3431  0.6085
 5282SOL    HW227309   0.616   3.688  11.894 -2.1569  1.1630 -1.6195
 5283SOL     OW27310   3.183   0.904   9.134 -0.2574  0.6090  0.2572
 5283SOL    HW127311   3.226   0.978   9.176  1.6557 -0.4486  0.1532
 5283SOL    HW227312   3.105   0.891   9.188 -0.4325  0.7186  0.0323
 5284SOL     OW27313   1.249   4.108   4.388 -0.0752  0.3257 -0.3272
 5284SOL    HW127314   1.228   4.194   4.353  0.5288  1.3526  1.8356
 5284SOL    HW227315   1.199   4.047   4.334 -1.5300  0.3737  0.9317
 5285SOL     OW27316   4.194   0.168   8.880 -0.1061  0.1866 -0.8148
 5285SOL    HW127317   4.258   0.165   8.951 -1.8230  1.2668  0.7587
 5285SOL    HW227318   4.131   0.104   8.912  1.0842 -1.9412 -2.6974
 5286SOL     OW27319   0.029   4.269  13.031  0.8489  0.2149  0.4399
 5286SOL    HW127320   4.665   4.268  13.071  0.4898  0.8811 -0.3389
 5286SOL    HW227321   0.005   4.263  12.939 -0.5651 -0.4615  0.8485
 5287SOL     OW27322   2.401   3.028   8.121  0.1380 -0.3112  0.0046
 5287SOL    HW127323   2.453   3.010   8.042  0.2517  0.9302 -0.2054
 5287SOL    HW227324   2.344   2.952   8.120 -0.4177  0.0768  2.0600
 5288SOL     OW27325   0.507   3.855   0.826  0.1939 -0.8977 -0.8252
 5288SOL    HW127326   0.523   3.841   0.919 -0.5590  0.0914 -0.5503
 5288SOL    HW227327   0.423   3.814   0.808  1.1225 -2.1040 -2.4143
 5289SOL     OW27328   2.505   3.721   8.675  0.2050  0.0037 -0.2378
 5289SOL    HW127329   2.412   3.700   8.665  0.1417 -0.4188  1.1822
 5289SOL    HW227330   2.513   3.680   8.761 -1.1639  0.6000  0.1770
 5290SOL     OW27331   1.943   1.467   6.937 -0.0524  0.3045 -0.5453
 5290SOL    HW127332   1.865   1.414   6.956 -0.1339  1.2659  1.7787
 5290SOL    HW227333   2.003   1.460   7.011  1.2560 -1.6994 -1.7998
 5291SOL     OW27334   2.603   0.965  15.307  0.0419  0.0484 -0.3881
 5291SOL    HW127335   2.689   0.941  15.273 -0.6343 -2.2383 -0.5247
 5291SOL    HW227336   2.553   0.919  15.239 -0.4203  0.0070 -0.0207
 5292SOL     OW27337   2.251   3.785   8.466  0.0180 -0.2361  0.3229
 5292SOL    HW127338   2.209   3.751   8.386 -0.5138 -0.7316  0.8115
 5292SOL    HW227339   2.337   3.748   8.451 -0.4377 -1.3230  0.3988
 5293SOL     OW27340   1.463   1.789   7.673  0.1648  0.7526 -0.4381
 5293SOL    HW127341   1.473   1.833   7.757  0.3444 -0.4199  0.1471
 5293SOL    HW227342   1.403   1.845   7.624 -3.1602 -3.0820 -0.7046
 5294SOL     OW27343   1.941   2.797  11.696  0.2797  0.1747 -0.2070
 5294SOL    HW127344   1.899   2.731  11.751 -3.6024  0.8318 -2.3759
 5294SOL    HW227345   1.996   2.739  11.644  1.0774 -0.5961  1.4867
 5295SOL     OW27346   2.759   1.122   6.025  0.0324  0.1345  0.1601
 5295SOL    HW127347   2.854   1.120   6.015 -0.5181 -0.4692 -4.5383
 5295SOL    HW227348   2.741   1.216   6.016  1.5111  0.4024 -0.0343
 5296SOL     OW27349   1.122   1.083  10.114  0.0553  0.1416  0.4163
 5296SOL    HW127350   1.091   1.061  10.201 -0.4867  0.0496  0.2008
 5296SOL    HW227351   1.041   1.097  10.065  1.1655  1.3938 -1.1091
 5297SOL     OW27352   3.290   4.068   2.109 -0.2155  0.2674 -0.3200
 5297SOL    HW127353   3.329   4.153   2.089 -0.9510  0.8481  0.6726
 5297SOL    HW227354   3.347   4.042   2.182  0.9949  0.7525 -1.0946
 5298SOL     OW27355   0.073   3.155   5.089  0.1080 -0.0531  0.0064
 5298SOL    HW127356   0.083   3.229   5.029 -2.0590 -0.4416 -0.8308
 5298SOL    HW227357   0.089   3.083   5.028 -2.6148 -0.9217  0.2985
 5299SOL     OW27358   3.828   1.625   6.524  0.3082  0.0343  0.7174
 5299SOL    HW127359   3.736   1.636   6.545 -0.3189 -1.6118 -1.2432
 5299SOL    HW227360   3.824   1.602   6.432  0.2148  3.1691 -0.0500
 5300SOL     OW27361   3.029   2.153   3.224  0.0375 -0.5167  0.1850
 5300SOL    HW127362   3.023   2.087   3.292  2.3957 -0.5830  0.3242
 5300SOL    HW227363   3.109   2.195   3.256 -0.3696  0.6506 -0.3016
 5301SOL     OW27364   2.443   2.935  10.658  0.1193 -0.1666 -0.1914
 5301SOL    HW127365   2.431   3.011  10.715  0.1569 -0.3665  0.0807
 5301SOL    HW227366   2.497   2.976  10.590 -0.2280  0.9176  0.1937
 5302SOL     OW27367   2.795   3.135   6.707 -0.3972  0.3794 -0.1315
 5302SOL    HW127368   2.814   3.087   6.627 -2.9661  0.9431 -1.0825
 5302SOL    HW227369   2.815   3.074   6.778  0.6876 -0.9766 -1.6261
 5303SOL     OW27370   4.507   2.029  16.648  0.3070  0.0620  0.0980
 5303SOL    HW127371   4.543   2.077  16.573  0.1302  2.3460  1.4563
 5303SOL    HW227372   4.575   2.049  16.712 -1.4087 -0.2093  2.0310
 5304SOL     OW27373   4.334   3.733  11.458 -0.4887 -0.0912 -0.5256
 5304SOL    HW127374   4.265   3.669  11.441 -0.1196 -0.7185  0.3383
 5304SOL    HW227375   4.385   3.683  11.522 -1.6714 -2.7619 -1.6946
 5305SOL     OW27376   3.275   3.018  10.569 -0.1964  0.2182 -0.7140
 5305SOL    HW127377   3.263   2.939  10.622  1.2075 -0.1394 -0.9146
 5305SOL    HW227378   3.214   3.071  10.620 -1.0197 -1.5421  0.1633
 5306SOL     OW27379   1.537   0.123   8.005 -0.7579 -0.8298 -0.4345
 5306SOL    HW127380   1.512   0.211   7.977  3.3951  0.4502 -0.1742
 5306SOL    HW227381   1.609   0.144   8.065 -1.4769  0.3876  0.0063
 5307SOL     OW27382   2.835   0.336   1.643  0.1787 -0.5077  0.0134
 5307SOL    HW127383   2.888   0.350   1.722  0.9027 -0.6037 -0.4523
 5307SOL    HW227384   2.898   0.329   1.571 -0.7193 -0.0535 -0.8194
 5308SOL     OW27385   1.081   1.895   4.266 -0.0496 -0.1827 -0.7041
 5308SOL    HW127386   1.143   1.949   4.314 -1.9241  0.3504  1.1217
 5308SOL    HW227387   1.109   1.808   4.294 -2.0621 -0.7269 -0.3712
 5309SOL     OW27388   0.433   2.127   2.087 -0.0725 -0.2961  0.4311
 5309SOL    HW127389   0.420   2.032   2.096  1.1496 -0.6438 -1.4869
 5309SOL    HW227390   0.385   2.161   2.162 -2.5027 -1.8344 -0.4473
 5310SOL     OW27391   1.360   3.964   4.575 -0.4479 -0.5848 -0.1207
 5310SOL    HW127392   1.453   3.986   4.573  0.3468 -3.8174  0.9703
 5310SOL    HW227393   1.324   4.021   4.507 -0.3729 -1.2205 -0.6908
 5311SOL     OW27394   4.665   1.626   4.723  0.4649  0.6314  0.8512
 5311SOL    HW127395   4.616   1.564   4.777 -0.7999 -0.4376 -1.5240
 5311SOL    HW227396   4.653   1.701   4.780  1.0608 -0.6932  2.7279
 5312SOL     OW27397   3.123   1.383   8.491  0.0784  0.3896  0.1919
 5312SOL    HW127398   3.060   1.413   8.557  0.9986  0.4671  1.0345
 5312SOL    HW227399   3.083   1.306   8.452  1.3974 -0.2125  0.0406
 5313SOL     OW27400   4.002   4.387   3.934  0.3711 -0.2101  0.5961
 5313SOL    HW127401   4.029   4.439   4.010 -1.6300 -0.5922  1.5709
 5313SOL    HW227402   4.091   4.356   3.917 -0.6112 -3.5358  1.5785
 5314SOL     OW27403   3.692   2.616   2.139 -0.6913  0.0654 -0.0079
 5314SOL    HW127404   3.781   2.607   2.103 -0.6716  1.8889 -0.3934
 5314SOL    HW227405   3.637   2.587   2.066 -0.3913 -3.3637  1.1024
 5315SOL     OW27406   2.163   1.076   3.446 -0.8972  0.1689 -0.1367
 5315SOL    HW127407   2.144   1.041   3.359  0.0918 -2.1630  0.5990
 5315SOL    HW227408   2.118   1.161   3.444 -0.1918  0.4794 -2.7238
 5316SOL     OW27409   1.349   2.214   6.016  0.6390  0.5863 -0.3045
 5316SOL    HW127410   1.432   2.211   6.063 -0.3585 -3.6089  1.1577
 5316SOL    HW227411   1.295   2.156   6.069  2.0470 -1.9005 -1.6070
 5317SOL     OW27412   0.232   2.508   3.888  0.0576  0.2388 -0.3679
 5317SOL    HW127413   0.164   2.465   3.836  2.5353 -2.3782 -1.4731
 5317SOL    HW227414   0.223   2.603   3.881 -0.9737  0.0185 -1.9447
 5318SOL     OW27415   4.063   1.270   2.503  0.1907 -0.1019 -0.4054
 5318SOL    HW127416   4.005   1.336   2.465 -2.7149 -1.4900  1.5540
 5318SOL    HW227417   4.136   1.318   2.541 -0.5893  0.6208  0.1906
 5319SOL     OW27418   4.294   1.991   3.731 -0.5324  0.4396  0.4974
 5319SOL    HW127419   4.374   1.953   3.694 -0.1340  0.3647  1.4418
 5319SOL    HW227420   4.300   2.085   3.716 -1.2578  0.5340  0.7966
 5320SOL     OW27421   4.335   2.203   5.880 -0.0467  0.3576  0.2473
 5320SOL    HW127422   4.321   2.225   5.973 -2.8361  1.6419 -0.4809
 5320SOL    HW227423   4.285   2.122   5.885 -2.8462  2.1337  1.1496
 5321SOL     OW27424   0.500   4.576  14.525 -0.2248  0.6084  0.4005
 5321SOL    HW127425   0.469   4.606  14.610  0.5689 -0.1037  0.9406
 5321SOL    HW227426   0.592   4.600  14.519 -0.2581  0.5385 -0.4836
 5322SOL     OW27427   4.229   4.076   7.016 -0.0391  0.0256 -0.3547
 5322SOL    HW127428   4.175   4.056   6.940 -0.8466 -1.0182  0.4830
 5322SOL    HW227429   4.302   4.116   6.970 -1.1731  0.6793 -1.5898
 5323SOL     OW27430   4.282   1.421   2.607  0.8347 -0.4796 -0.5421
 5323SOL    HW127431   4.373   1.398   2.586  0.1303 -1.8029 -2.2043
 5323SOL    HW227432   4.292   1.516   2.604  0.0537 -0.3645  0.8169
 5324SOL     OW27433   3.531   1.050   4.632  0.7151 -0.1834 -0.2532
 5324SOL    HW127434   3.529   1.105   4.553  1.4868  0.0312 -0.1304
 5324SOL    HW227435   3.527   0.958   4.609  0.3453 -0.7928  2.2823
 5325SOL     OW27436   1.508   0.658   6.110 -0.2706 -0.1287  0.1603
 5325SOL    HW127437   1.487   0.585   6.168 -0.8994  1.0761  1.4462
 5325SOL    HW227438   1.536   0.723   6.174  2.0079 -0.5236 -0.4365
 5326SOL     OW27439   0.504   3.129   3.350 -0.2450 -0.0513  0.0532
 5326SOL    HW127440   0.572   3.174   3.299  2.0877  0.1340  3.2951
 5326SOL    HW227441   0.427   3.182   3.332 -0.4392  0.0639  1.2298
 5327SOL     OW27442   2.338   1.224   6.506  0.2341 -0.1677  0.6634
 5327SOL    HW127443   2.299   1.288   6.565  0.3170  0.6592 -0.1689
 5327SOL    HW227444   2.424   1.209   6.547  1.7035 -0.9131 -2.6345
 5328SOL     OW27445   0.935   3.982  12.251 -0.0493  0.3159 -0.2415
 5328SOL    HW127446   0.880   3.904  12.239  1.5142 -1.1185  2.0127
 5328SOL    HW227447   0.885   4.041  12.307 -0.8389  0.9563 -1.6266
 5329SOL     OW27448   4.079   4.251  12.964 -0.0177 -0.1547 -0.2005
 5329SOL    HW127449   4.138   4.293  12.902 -0.3881  1.3959  0.4980
 5329SOL    HW227450   4.042   4.328  13.007  1.5411  0.9226 -0.8044
 5330SOL     OW27451   2.356   1.311   9.180  0.0720  0.1044 -0.0584
 5330SOL    HW127452   2.442   1.289   9.213 -0.3349 -0.5516  0.5494
 5330SOL    HW227453   2.320   1.371   9.245 -0.4129 -1.4822  1.1285
 5331SOL     OW27454   1.765   2.615   2.642  0.0483  0.3569  0.2967
 5331SOL    HW127455   1.858   2.602   2.662  0.3449  2.9344  0.6013
 5331SOL    HW227456   1.777   2.580   2.554  1.0917  1.4902 -0.0197
 5332SOL     OW27457   2.172   2.925   4.606 -0.1348 -0.1469  0.3821
 5332SOL    HW127458   2.180   2.830   4.619  1.1631 -0.2380 -0.9705
 5332SOL    HW227459   2.145   2.932   4.514 -0.9095  0.0838  0.6324
 5333SOL     OW27460   4.408   3.574  10.143  0.0920 -0.4607 -0.8506
 5333SOL    HW127461   4.405   3.658  10.097  0.4805 -1.9480 -3.6412
 5333SOL    HW227462   4.329   3.535  10.104  0.2458 -0.4470 -1.1757
 5334SOL     OW27463   2.947   3.070  17.259 -0.4566 -0.4054  0.3751
 5334SOL    HW127464   2.989   3.102  17.339 -0.9139  1.6566 -0.2178
 5334SOL    HW227465   2.901   2.998  17.303 -2.8230 -0.3185 -1.9876
 5335SOL     OW27466   0.273   4.616  12.414  0.0464 -0.1390 -0.5056
 5335SOL    HW127467   0.348   4.556  12.409 -1.2107 -1.9953  3.1618
 5335SOL    HW227468   0.294   4.671  12.338 -1.8645 -0.0637 -0.9687
 5336SOL     OW27469   2.149   2.036  13.762  0.0121  1.0063  0.0121
 5336SOL    HW127470   2.153   1.987  13.843 -1.2533  2.7693  1.1513
 5336SOL    HW227471   2.062   2.076  13.766 -0.3063  0.3299 -0.2665
 5337SOL     OW27472   0.912   3.615   6.955 -0.2601 -0.0111 -0.0787
 5337SOL    HW127473   0.905   3.614   6.860  1.8344 -1.5006 -0.2067
 5337SOL    HW227474   0.967   3.693   6.956  0.0449 -0.2153 -0.7970
 5338SOL     OW27475   0.805   3.376   9.156 -0.0647 -0.3794  0.0173
 5338SOL    HW127476   0.789   3.334   9.240 -0.4047  0.2336  0.2533
 5338SOL    HW227477   0.897   3.351   9.144  0.3649 -0.0913  2.7524
 5339SOL     OW27478   0.506   3.458   6.235  0.0081 -0.3929  0.0054
 5339SOL    HW127479   0.601   3.448   6.238 -0.0298 -0.2573  1.7964
 5339SOL    HW227480   0.468   3.400   6.170 -0.0682 -0.5827  0.2188
 5340SOL     OW27481   0.465   3.888  11.058  0.7962  0.5935  0.8799
 5340SOL    HW127482   0.414   3.881  11.138  0.0898  0.2273  0.3949
 5340SOL    HW227483   0.542   3.838  11.087  0.4420 -1.4418 -1.6360
 5341SOL     OW27484   3.112   1.001   5.948  0.2783  0.0969 -0.4086
 5341SOL    HW127485   3.176   0.931   5.934 -2.0201 -1.8737 -1.1434
 5341SOL    HW227486   3.116   1.036   5.859  2.0794  1.3902  0.1951
 5342SOL     OW27487   3.222   4.529   0.988  1.1468 -0.2893 -0.2821
 5342SOL    HW127488   3.242   4.569   1.073 -2.2727  0.4048  0.1957
 5342SOL    HW227489   3.148   4.470   1.003  2.4448 -1.4598  1.5960
 5343SOL     OW27490   1.352   4.447   6.400 -0.3305 -0.0758  0.0754
 5343SOL    HW127491   1.431   4.415   6.356  0.0881  0.4049  0.4763
 5343SOL    HW227492   1.385   4.481   6.483 -0.5746 -0.0242  0.1526
 5344SOL     OW27493   3.002   3.478   1.984  0.2573 -0.0643  0.2024
 5344SOL    HW127494   2.981   3.428   1.905  0.1364  0.3062  0.0018
 5344SOL    HW227495   2.965   3.566   1.983  1.1257  0.3052  0.0606
 5345SOL     OW27496   4.290   2.275   8.106  0.6096  0.5495 -0.2104
 5345SOL    HW127497   4.247   2.360   8.090 -0.7142 -0.9152 -4.4320
 5345SOL    HW227498   4.370   2.287   8.056  1.7200 -0.8821  1.2295
 5346SOL     OW27499   2.692   4.180   4.320  0.0042 -0.0374  0.3437
 5346SOL    HW127500   2.736   4.115   4.265  1.9137 -0.6803  2.6049
 5346SOL    HW227501   2.736   4.171   4.405  1.5788  1.0760 -0.3709
 5347SOL     OW27502   0.295   1.080  13.518  0.1581 -0.1481 -0.3469
 5347SOL    HW127503   0.286   1.165  13.561 -1.0879  0.2478 -1.3730
 5347SOL    HW227504   0.390   1.080  13.502  0.1536  1.8787 -0.4186
 5348SOL     OW27505   0.819   2.419  12.115  0.2530 -0.3809  0.2631
 5348SOL    HW127506   0.802   2.403  12.023 -0.4465 -2.6645  0.7797
 5348SOL    HW227507   0.729   2.445  12.134  1.9071  3.4114  3.0660
 5349SOL     OW27508   1.032   3.149   1.241 -0.1107 -0.4739 -0.3451
 5349SOL    HW127509   1.098   3.101   1.189 -1.3418 -1.5352 -0.9194
 5349SOL    HW227510   0.995   3.079   1.294  0.0346 -0.1750  0.1485
 5350SOL     OW27511   1.331   3.359  10.926 -0.1309  0.0702 -0.1815
 5350SOL    HW127512   1.396   3.372  10.857 -0.5649 -1.1242 -0.8223
 5350SOL    HW227513   1.319   3.452  10.945 -0.8436 -0.3830  1.6056
 5351SOL     OW27514   1.586   0.740   5.398 -0.5639  0.0956  0.2066
 5351SOL    HW127515   1.663   0.687   5.373 -1.2183 -0.8007  0.0742
 5351SOL    HW227516   1.554   0.687   5.471 -2.3855  3.4811  1.8620
 5352SOL     OW27517   3.955   0.129  14.882  0.5369  0.8423 -0.1888
 5352SOL    HW127518   4.011   0.067  14.835  1.8245  1.6954  0.2156
 5352SOL    HW227519   4.027   0.169  14.931  1.0758  0.7175 -0.8740
 5353SOL     OW27520   0.157   0.423  11.450  0.1164  0.2686 -0.5334
 5353SOL    HW127521   0.188   0.428  11.360 -0.1698  2.7201 -0.4789
 5353SOL    HW227522   0.134   0.512  11.476  0.7117 -0.3168  2.0077
 5354SOL     OW27523   1.125   0.999   7.048 -0.2952 -0.4920  0.3411
 5354SOL    HW127524   1.067   0.924   7.061 -0.3843 -0.5109 -0.1495
 5354SOL    HW227525   1.144   1.027   7.137 -0.2076  0.6044 -0.0290
 5355SOL     OW27526   0.555   1.612   2.486  0.1960  0.2075  0.1776
 5355SOL    HW127527   0.645   1.623   2.517  0.0568 -0.0180  0.6658
 5355SOL    HW227528   0.542   1.694   2.437  1.1997 -0.6286 -1.4927
 5356SOL     OW27529   4.076   3.245   7.363 -0.4106 -0.3618  0.1695
 5356SOL    HW127530   4.148   3.203   7.316 -0.2506 -0.1733  0.2457
 5356SOL    HW227531   4.130   3.295   7.424 -0.6666  0.3410 -0.1803
 5357SOL     OW27532   0.756   2.848   4.686  1.0626 -0.6413  0.2089
 5357SOL    HW127533   0.701   2.892   4.750  1.7617  3.1976 -1.8244
 5357SOL    HW227534   0.813   2.809   4.752  0.5265 -1.1154  0.3913
 5358SOL     OW27535   2.855   0.288   7.007 -0.2109  0.1355  0.0487
 5358SOL    HW127536   2.833   0.198   6.982 -0.9721  0.8104 -1.7016
 5358SOL    HW227537   2.897   0.268   7.091 -1.7426  0.5974  0.9130
 5359SOL     OW27538   4.395   1.876  13.016 -0.5349 -0.7035  0.2378
 5359SOL    HW127539   4.450   1.811  13.059  0.3300  1.9197  3.0758
 5359SOL    HW227540   4.338   1.897  13.090  1.8767 -0.5436  2.0363
 5360SOL     OW27541   2.281   3.690  11.407  0.0830 -0.3041  0.0899
 5360SOL    HW127542   2.277   3.769  11.461 -2.5807  0.8207 -1.7038
 5360SOL    HW227543   2.317   3.724  11.325 -0.6157 -1.1812 -0.5885
 5361SOL     OW27544   1.101   1.439   6.954 -0.6249 -0.4239  1.0934
 5361SOL    HW127545   1.040   1.398   7.015 -1.4296 -0.2238  0.4282
 5361SOL    HW227546   1.046   1.510   6.921 -0.2521  0.1083  1.6087
 5362SOL     OW27547   1.158   3.218   0.640  0.7773  0.0752  0.1019
 5362SOL    HW127548   1.219   3.205   0.712  0.2563  0.7250  0.6644
 5362SOL    HW227549   1.090   3.270   0.682  1.5414  0.5291  0.7636
 5363SOL     OW27550   1.215   3.438   1.731  0.0063  0.1795  0.1788
 5363SOL    HW127551   1.197   3.421   1.824  1.0300  0.9375  0.5187
 5363SOL    HW227552   1.194   3.351   1.698  1.7873 -0.1496 -0.1022
 5364SOL     OW27553   4.362   1.488   2.870  0.1088 -0.2998  0.2433
 5364SOL    HW127554   4.275   1.522   2.889 -0.0004 -0.6711  0.4060
 5364SOL    HW227555   4.343   1.443   2.788 -1.0162  2.1952 -0.8612
 5365SOL     OW27556   4.104   4.686   9.330  0.4748 -0.4082  0.2104
 5365SOL    HW127557   4.106   4.637   9.248  0.8688  0.2327 -0.1678
 5365SOL    HW227558   4.161   0.038   9.312  0.0136 -0.2805 -0.7266
 5366SOL     OW27559   1.525   0.509   5.054  0.0872 -0.2015  0.4085
 5366SOL    HW127560   1.444   0.461   5.039  0.5995 -1.2690  1.0773
 5366SOL    HW227561   1.494   0.548   5.136 -1.2343 -1.1381  0.3357
 5367SOL     OW27562   4.155   3.257   8.379 -0.7252  0.1608 -1.1395
 5367SOL    HW127563   4.086   3.323   8.374 -1.4209 -0.4026  1.1342
 5367SOL    HW227564   4.108   3.179   8.407 -1.4492  0.0473 -2.6455
 5368SOL     OW27565   2.137   1.384   7.108  0.7239  0.3189 -0.5717
 5368SOL    HW127566   2.216   1.426   7.073 -0.4961  2.5024 -0.7318
 5368SOL    HW227567   2.168   1.309   7.158 -1.4493  1.0110  1.7818
 5369SOL     OW27568   0.057   4.367  16.776  0.3350  0.1200  0.6170
 5369SOL    HW127569   4.699   4.359  16.726  0.1639 -0.0533  0.9225
 5369SOL    HW227570   0.096   4.279  16.779  1.5655  0.5971 -1.8490
 5370SOL     OW27571   0.659   0.542   8.744 -0.3657 -0.2405 -0.0997
 5370SOL    HW127572   0.740   0.492   8.745 -1.0249 -1.2963  1.9728
 5370SOL    HW227573   0.644   0.546   8.650 -0.0656 -1.5631 -0.2034
 5371SOL     OW27574   2.692   2.181   7.126 -0.9378 -0.2069  0.1505
 5371SOL    HW127575   2.608   2.211   7.091 -0.9157 -1.9059 -1.3817
 5371SOL    HW227576   2.687   2.221   7.213  1.8980 -0.3525  0.3791
 5372SOL     OW27577   0.994   2.661   2.994 -0.5436  0.3968  0.3950
 5372SOL    HW127578   0.957   2.680   2.908 -0.1111 -0.7269 -0.0311
 5372SOL    HW227579   1.084   2.637   2.974  0.5178  5.4332 -0.7608
 5373SOL     OW27580   1.412   2.494  17.150  0.0331 -0.8148 -0.0215
 5373SOL    HW127581   1.323   2.462  17.135  0.2657 -1.8351  0.7802
 5373SOL    HW227582   1.470   2.424  17.120 -0.0001 -1.0328  0.4164
 5374SOL     OW27583   2.136   3.124   6.145 -0.0250  0.0673  0.4630
 5374SOL    HW127584   2.125   3.196   6.207  1.9794  0.6112  0.1823
 5374SOL    HW227585   2.046   3.091   6.148  0.3349 -0.8285  1.9233
 5375SOL     OW27586   3.525   4.123  12.298 -0.1263 -0.4879  0.9018
 5375SOL    HW127587   3.594   4.114  12.232 -1.9813  1.3089 -1.3287
 5375SOL    HW227588   3.467   4.194  12.269  1.0403  0.8900  1.9576
 5376SOL     OW27589   0.940   0.409  13.907 -0.2009 -0.9884 -0.1009
 5376SOL    HW127590   0.854   0.428  13.869 -0.8397 -0.3222  1.6683
 5376SOL    HW227591   0.979   0.488  13.869 -0.5399 -1.4984 -1.5141
 5377SOL     OW27592   1.879   2.142   5.612  0.5344 -0.5033  0.2580
 5377SOL    HW127593   1.959   2.190   5.634 -0.3313  0.6490  0.9433
 5377SOL    HW227594   1.884   2.145   5.517  0.5452 -1.0978  0.2410
 5378SOL     OW27595   1.224   1.244   2.767 -0.4603  0.3380 -0.0806
 5378SOL    HW127596   1.167   1.263   2.693 -1.9350 -0.2204  0.9110
 5378SOL    HW227597   1.263   1.330   2.783  2.0663 -0.5025 -1.7290
 5379SOL     OW27598   2.310   2.672   7.049  0.3974  0.4658 -0.2755
 5379SOL    HW127599   2.299   2.738   7.117 -2.3233 -2.2110  1.8796
 5379SOL    HW227600   2.222   2.681   7.012  0.3070 -1.0964 -0.4357
 5380SOL     OW27601   3.919   3.290   7.036 -0.4253 -0.3341 -0.0353
 5380SOL    HW127602   3.990   3.350   7.061 -1.7184  0.6224  1.4011
 5380SOL    HW227603   3.873   3.277   7.119 -0.2474 -2.0406 -0.2024
 5381SOL     OW27604   4.175   0.462  15.003 -0.3638  0.6218 -0.1615
 5381SOL    HW127605   4.170   0.368  15.017 -2.6531  0.6576 -0.6700
 5381SOL    HW227606   4.117   0.492  15.073 -1.4522 -0.4813 -0.5875
 5382SOL     OW27607   2.068   4.488   0.999 -0.4165  0.3682 -0.0644
 5382SOL    HW127608   2.072   4.574   1.042 -0.0381  0.4151 -0.1932
 5382SOL    HW227609   1.979   4.460   1.022 -0.5936  1.1333  0.1995
 5383SOL     OW27610   0.755   2.962   3.176 -0.7074 -0.7430 -0.4103
 5383SOL    HW127611   0.817   2.893   3.200  1.0138  0.9098 -0.0933
 5383SOL    HW227612   0.776   3.036   3.233 -0.1461 -0.0879 -1.4759
 5384SOL     OW27613   3.469   0.406   9.958  0.6150  0.3059 -0.5020
 5384SOL    HW127614   3.429   0.428   9.874  0.8725  0.2291 -0.6463
 5384SOL    HW227615   3.437   0.476  10.013 -0.6395 -0.4420 -0.2786
 5385SOL     OW27616   4.374   3.409   3.663 -0.3214  0.4460 -0.8730
 5385SOL    HW127617   4.390   3.388   3.571  0.2715 -0.0292 -0.6615
 5385SOL    HW227618   4.307   3.344   3.685  2.9829 -1.4458  3.7442
 5386SOL     OW27619   1.752   0.385   7.755  0.3794 -0.3015  0.6082
 5386SOL    HW127620   1.687   0.405   7.823 -1.2024 -0.0269 -0.9753
 5386SOL    HW227621   1.724   0.298   7.729 -1.3661  0.3494  0.2787
 5387SOL     OW27622   1.662   2.545  14.330  0.0650 -0.3976 -0.1127
 5387SOL    HW127623   1.710   2.609  14.277  0.0156 -2.7124 -2.9757
 5387SOL    HW227624   1.691   2.569  14.417  2.0353  0.7396 -1.0831
 5388SOL     OW27625   3.310   4.675   3.815  0.3222  0.2613 -0.2752
 5388SOL    HW127626   3.317   4.651   3.908 -0.8359 -2.2891 -0.8313
 5388SOL    HW227627   3.362   0.031   3.805  0.2499  0.1961 -1.1153
 5389SOL     OW27628   0.216   1.287   3.811  0.2436  0.5548  0.2758
 5389SOL    HW127629   0.124   1.260   3.815  0.1064  1.0496  0.4896
 5389SOL    HW227630   0.222   1.315   3.903 -1.0129  1.4968  0.0712
 5390SOL     OW27631   0.338   0.330   1.670  0.6970  0.2662  0.1035
 5390SOL    HW127632   0.407   0.384   1.633  1.2405  0.0705  0.8311
 5390SOL    HW227633   0.279   0.310   1.597  0.8538 -1.2999  0.3996
 5391SOL     OW27634   0.847   1.865  17.508  0.5855 -0.3432 -0.7371
 5391SOL    HW127635   0.848   1.770  17.494  0.0178 -0.4985  0.2517
 5391SOL    HW227636   0.892   1.879  17.591 -1.7339  0.5302  0.3628
 5392SOL     OW27637   1.855   2.800   0.804 -0.0806 -0.1823  0.3067
 5392SOL    HW127638   1.840   2.713   0.767 -0.6337  0.2350 -0.4286
 5392SOL    HW227639   1.804   2.794   0.886  3.7051  1.5671  2.7667
 5393SOL     OW27640   1.858   0.634   2.217 -0.2497  0.7164 -0.0405
 5393SOL    HW127641   1.798   0.578   2.168  1.6983 -1.9516  0.6612
 5393SOL    HW227642   1.795   0.684   2.269 -2.8231  0.5054 -2.9538
 5394SOL     OW27643   1.958   1.718   6.588 -0.3464  0.2111  0.4826
 5394SOL    HW127644   1.923   1.651   6.646 -2.4179  1.3830  0.5567
 5394SOL    HW227645   1.916   1.691   6.506  0.7918  0.5359 -0.2172
 5395SOL     OW27646   4.473   1.668   7.718 -0.7381 -0.1155  0.3861
 5395SOL    HW127647   4.427   1.715   7.649 -0.4340 -0.3430  0.0287
 5395SOL    HW227648   4.461   1.583   7.676 -0.5181 -0.4960  1.0835
 5396SOL     OW27649   0.796   3.361   6.276 -0.5553  0.4952 -0.3427
 5396SOL    HW127650   0.765   3.289   6.331  0.7208  0.1321 -0.1010
 5396SOL    HW227651   0.867   3.402   6.325  0.1959 -1.1762 -0.0662
 5397SOL     OW27652   0.492   4.125   3.338 -0.4629 -0.0670  0.4691
 5397SOL    HW127653   0.492   4.145   3.432 -1.9194  1.7761  0.0909
 5397SOL    HW227654   0.399   4.120   3.319 -0.9138  0.4021  2.5118
 5398SOL     OW27655   1.129   1.144   8.389  0.0879 -0.7175 -0.0236
 5398SOL    HW127656   1.140   1.227   8.436 -0.8236  0.4121 -1.8142
 5398SOL    HW227657   1.223   1.127   8.376 -0.1811 -1.3842 -1.1028
 5399SOL     OW27658   4.241   1.432   3.965 -0.1364  0.6283 -0.2731
 5399SOL    HW127659   4.312   1.385   3.923 -0.4382  0.8815 -1.0568
 5399SOL    HW227660   4.228   1.381   4.045  2.9189  0.9676  0.4316
 5400SOL     OW27661   3.132   0.114  11.071 -0.1540  0.6196  0.3106
 5400SOL    HW127662   3.119   0.189  11.128 -0.6351 -0.4583  1.6240
 5400SOL    HW227663   3.144   0.157  10.987  0.9522 -2.7280 -1.2493
 5401SOL     OW27664   0.935   1.695  17.306  0.0935 -0.3427 -0.0214
 5401SOL    HW127665   0.905   1.675  17.217  0.4907 -1.1864  0.0345
 5401SOL    HW227666   0.914   1.789  17.309 -1.0564 -0.5715 -0.7571
 5402SOL     OW27667   4.435   1.684   6.904  0.0444  0.2956 -1.0393
 5402SOL    HW127668   4.470   1.677   6.815  1.0207 -3.3735 -0.3654
 5402SOL    HW227669   4.369   1.752   6.894  1.3778  2.2727  3.6307
 5403SOL     OW27670   3.858   4.195  16.054  0.1228  0.0350  0.0684
 5403SOL    HW127671   3.900   4.273  16.093 -1.6061  0.8171  0.3846
 5403SOL    HW227672   3.911   4.124  16.090  0.2862 -0.1192 -0.4874
 5404SOL     OW27673   1.212   0.373   7.455 -0.2379 -0.1123  0.2995
 5404SOL    HW127674   1.215   0.292   7.405 -0.0178  1.0860 -1.6302
 5404SOL    HW227675   1.120   0.376   7.481 -1.2559 -0.6128 -3.2239
 5405SOL     OW27676   1.787   3.429   0.729 -0.6115 -0.1280 -0.0471
 5405SOL    HW127677   1.741   3.512   0.741 -1.2975 -0.6115  0.6287
 5405SOL    HW227678   1.822   3.442   0.640 -1.3468  0.2525 -0.2825
 5406SOL     OW27679   0.842   3.585  12.135 -0.2562 -0.0394 -0.6117
 5406SOL    HW127680   0.826   3.639  12.213  1.3487  0.3523 -0.5446
 5406SOL    HW227681   0.913   3.529  12.167  0.1506  0.9862  0.2893
 5407SOL     OW27682   2.679   1.106  16.525 -0.0006  0.7451 -0.0724
 5407SOL    HW127683   2.589   1.096  16.556 -0.2003  3.9550  0.3337
 5407SOL    HW227684   2.733   1.153  16.588 -0.2864  1.3634 -0.2931
 5408SOL     OW27685   2.894   0.920   4.481  0.4350  0.5105 -0.1296
 5408SOL    HW127686   2.868   0.911   4.573 -0.0017 -0.4984 -0.3536
 5408SOL    HW227687   2.877   1.012   4.461  2.8728  0.9516 -0.1818
 5409SOL     OW27688   0.879   1.857  13.945 -0.5468 -0.1940 -0.2332
 5409SOL    HW127689   0.798   1.834  13.990 -0.3614  0.0553  0.2253
 5409SOL    HW227690   0.858   1.938  13.900 -0.5192 -0.0413  0.0305
 5410SOL     OW27691   3.000   4.234  16.985  0.4492 -0.2320  0.1816
 5410SOL    HW127692   3.078   4.285  17.006 -1.0807  1.0807  2.6603
 5410SOL    HW227693   2.929   4.280  17.030  0.0548  0.8760 -1.5309
 5411SOL     OW27694   1.623   1.221   8.266  0.5639 -0.2144  0.0012
 5411SOL    HW127695   1.609   1.200   8.173 -0.2120 -1.0509  0.3023
 5411SOL    HW227696   1.684   1.295   8.263  1.8467 -1.2208  1.3635
 5412SOL     OW27697   1.813   3.152   6.683 -0.1221 -0.0604 -0.3041
 5412SOL    HW127698   1.884   3.139   6.620 -0.7752  2.3475 -1.5291
 5412SOL    HW227699   1.830   3.244   6.704 -0.7620 -0.6423  2.8611
 5413SOL     OW27700   2.016   3.155   7.912 -0.2250 -0.2069  0.4858
 5413SOL    HW127701   1.961   3.077   7.906  1.4094 -1.3717  0.4501
 5413SOL    HW227702   2.024   3.150   8.008 -1.3295 -0.0741  0.5796
 5414SOL     OW27703   3.351   3.373  10.825  0.0061 -0.5649 -0.0472
 5414SOL    HW127704   3.349   3.458  10.780  2.4000 -0.2001  0.5640
 5414SOL    HW227705   3.433   3.335  10.794 -0.3624 -0.3003 -1.3452
 5415SOL     OW27706   4.720   2.692   3.174  0.4563 -0.1774 -0.0514
 5415SOL    HW127707   4.683   2.704   3.087 -1.6714 -1.3682  0.6782
 5415SOL    HW227708   0.088   2.674   3.147 -0.2264 -2.5227 -0.8083
 5416SOL     OW27709   1.196   1.550   5.517  0.6505  0.0050 -0.1131
 5416SOL    HW127710   1.224   1.631   5.475 -0.5838  0.9538  0.8817
 5416SOL    HW227711   1.130   1.523   5.453 -1.0964  3.0812  0.4116
 5417SOL     OW27712   3.352   1.899   7.228 -0.1746  0.0865 -0.1635
 5417SOL    HW127713   3.347   1.942   7.142 -0.1784 -2.2045 -1.3201
 5417SOL    HW227714   3.390   1.970   7.279  0.3541 -0.9800  0.9248
 5418SOL     OW27715   0.228   1.865   3.300  0.1048 -0.4203 -0.3002
 5418SOL    HW127716   0.141   1.869   3.261 -0.8201  1.1897  1.9287
 5418SOL    HW227717   0.210   1.926   3.372  0.2310 -0.6122 -0.1028
 5419SOL     OW27718   2.549   4.632   0.216  0.4536  0.1063 -0.4534
 5419SOL    HW127719   2.462   4.599   0.193  0.7196 -0.9281  0.0216
 5419SOL    HW227720   2.577   4.687   0.143  0.4663 -0.5483 -0.9434
 5420SOL     OW27721   2.181   1.660   5.278  0.2551  0.1337 -0.3233
 5420SOL    HW127722   2.235   1.583   5.297  2.7510  2.2764  1.2185
 5420SOL    HW227723   2.155   1.682   5.367  0.3440  1.9784 -0.7658
 5421SOL     OW27724   0.327   3.274   8.566 -0.1952 -0.6280  0.5035
 5421SOL    HW127725   0.325   3.190   8.612 -1.4998 -0.3688  0.9371
 5421SOL    HW227726   0.351   3.241   8.480 -0.2358 -1.6205  0.8741
 5422SOL     OW27727   1.919   0.996   4.740  0.4613 -0.5083 -0.2965
 5422SOL    HW127728   1.949   0.939   4.669 -0.1365 -2.6586  1.1928
 5422SOL    HW227729   1.826   0.977   4.736  0.1396  0.7633  1.5265
 5423SOL     OW27730   2.693   2.981   6.465 -0.2388 -0.1863 -0.3561
 5423SOL    HW127731   2.749   2.936   6.403 -0.5268 -1.1181  0.0543
 5423SOL    HW227732   2.666   2.908   6.522  0.4771 -0.9488 -1.0015
 5424SOL     OW27733   0.560   1.307   0.833  0.1030  0.6653 -0.0294
 5424SOL    HW127734   0.476   1.322   0.875 -0.0615  1.0485 -0.4975
 5424SOL    HW227735   0.624   1.349   0.890  0.7632 -0.2232 -0.1007
 5425SOL     OW27736   1.208   0.312   4.281  0.0168  0.7366 -0.6047
 5425SOL    HW127737   1.142   0.346   4.220  0.8752  1.3483 -1.1857
 5425SOL    HW227738   1.286   0.351   4.243 -0.3540  1.0257 -1.0795
 5426SOL     OW27739   2.262   2.505   2.414  0.5252 -0.0677  0.4773
 5426SOL    HW127740   2.319   2.566   2.367 -1.9748  1.1544 -0.9908
 5426SOL    HW227741   2.272   2.525   2.507  1.7094 -2.2826  0.8306
 5427SOL     OW27742   4.722   1.112   3.018 -0.4130 -0.1428 -0.3311
 5427SOL    HW127743   4.661   1.088   2.948 -1.4519  0.2827  0.4172
 5427SOL    HW227744   0.019   1.203   2.996 -1.4445 -0.2296 -1.6405
 5428SOL     OW27745   3.686   4.057  15.880 -0.0879  0.0713  0.0512
 5428SOL    HW127746   3.767   4.096  15.912 -1.5928  2.3052  1.1501
 5428SOL    HW227747   3.637   4.137  15.861  0.7007  0.4633 -0.2967
 5429SOL     OW27748   3.148   3.617   4.571 -0.0260 -0.1334 -0.0280
 5429SOL    HW127749   3.241   3.633   4.586 -0.0942  0.4086 -0.1775
 5429SOL    HW227750   3.153   3.532   4.527 -3.9535 -0.6359  0.4768
 5430SOL     OW27751   1.717   1.592  11.313  0.3019 -0.7621  0.0960
 5430SOL    HW127752   1.740   1.684  11.313 -0.9344 -0.4543  0.2676
 5430SOL    HW227753   1.758   1.559  11.233  2.3020  2.7891 -0.2955
 5431SOL     OW27754   2.610   2.574  12.352 -0.3031 -0.0532  0.0920
 5431SOL    HW127755   2.697   2.569  12.393 -0.4274  1.2163  0.5110
 5431SOL    HW227756   2.558   2.528  12.418 -2.1361  1.1527 -0.5384
 5432SOL     OW27757   2.322   4.144  17.449 -0.0937  0.4139 -0.5609
 5432SOL    HW127758   2.387   4.147  17.519  0.2712 -0.2977 -0.8754
 5432SOL    HW227759   2.246   4.176  17.498  2.1911 -0.3598  3.5102
 5433SOL     OW27760   3.313   4.667   7.891 -0.2599  0.2901 -0.2681
 5433SOL    HW127761   3.221   4.649   7.871 -0.4077  2.2660 -1.3538
 5433SOL    HW227762   3.307   4.672   7.987 -0.8611  0.3316 -0.3115
 5434SOL     OW27763   0.911   2.396   8.360 -0.2685  0.2158  0.3733
 5434SOL    HW127764   0.834   2.343   8.379 -1.2992  1.0293 -1.4865
 5434SOL    HW227765   0.910   2.396   8.264  0.2200 -0.9838  0.3714
 5435SOL     OW27766   3.044   1.302  16.294  0.4827  0.0965 -0.1468
 5435SOL    HW127767   3.018   1.322  16.205 -2.0619 -3.8346 -0.2864
 5435SOL    HW227768   3.059   1.207  16.288  0.6116  0.1691 -0.8909
 5436SOL     OW27769   2.670   4.065   8.811 -0.0152 -0.1057 -0.0572
 5436SOL    HW127770   2.670   4.134   8.877  2.4649  0.5362 -0.7466
 5436SOL    HW227771   2.592   4.092   8.762 -0.6082  0.4477  1.1756
 5437SOL     OW27772   1.925   3.516   3.572  0.7706  0.1594 -0.3939
 5437SOL    HW127773   1.897   3.589   3.517  0.5850  0.4313  0.0659
 5437SOL    HW227774   1.915   3.550   3.661  0.4718 -1.2074  0.1017
 5438SOL     OW27775   1.734   3.029   1.847  0.5152 -0.1290  0.0807
 5438SOL    HW127776   1.807   3.083   1.816  1.5607 -0.5745  1.7742
 5438SOL    HW227777   1.747   3.029   1.942 -0.3448  1.3296  0.1906
 5439SOL     OW27778   0.930   0.524   5.540  0.6106 -0.0392 -0.8362
 5439SOL    HW127779   0.892   0.499   5.624  1.2898  1.5395 -0.0586
 5439SOL    HW227780   0.864   0.504   5.475 -0.4000 -1.6906  0.6997
 5440SOL     OW27781   1.127   0.632   7.686 -0.0355  0.0744  0.7112
 5440SOL    HW127782   1.102   0.689   7.758  2.8608 -0.6530  2.2689
 5440SOL    HW227783   1.141   0.701   7.621 -0.6458  0.4699  0.9977
 5441SOL     OW27784   0.400   1.228   8.891  0.3712  0.4925  0.5650
 5441SOL    HW127785   0.432   1.306   8.846 -1.3169 -0.2349 -1.8673
 5441SOL    HW227786   0.343   1.189   8.825  1.4610 -1.3441  0.7407
 5442SOL     OW27787   1.088   1.716   2.937  0.0896 -0.1104  0.1178
 5442SOL    HW127788   1.059   1.670   2.858  1.0879 -0.8240  0.1648
 5442SOL    HW227789   1.183   1.708   2.937  0.2503  1.8940  0.7858
 5443SOL     OW27790   3.217   2.823   4.674  0.3761 -0.1794  0.6290
 5443SOL    HW127791   3.260   2.909   4.673 -1.2741  0.6585  1.9159
 5443SOL    HW227792   3.207   2.801   4.582  0.3897 -0.8264  0.7856
 5444SOL     OW27793   1.384   1.830   5.946 -0.4970  0.1241 -0.3267
 5444SOL    HW127794   1.374   1.758   6.008  0.3113 -1.9971 -2.6548
 5444SOL    HW227795   1.297   1.870   5.957 -0.3613  0.4355 -0.3735
 5445SOL     OW27796   1.811   2.401   9.700 -0.1742 -0.2068 -0.3524
 5445SOL    HW127797   1.763   2.338   9.753 -1.1942  0.3810 -0.5873
 5445SOL    HW227798   1.887   2.359   9.658  0.8785 -0.2276  1.5878
 5446SOL     OW27799   4.359   1.712   2.632  0.1677 -0.1713  0.3903
 5446SOL    HW127800   4.445   1.701   2.674 -1.0597 -1.5989  2.4936
 5446SOL    HW227801   4.317   1.760   2.704 -2.7048 -0.0978 -1.3638
 5447SOL     OW27802   2.907   4.135   6.353  0.6587  0.2413  0.0065
 5447SOL    HW127803   2.900   4.140   6.448  1.0921  2.8845 -0.1162
 5447SOL    HW227804   2.982   4.076   6.349  0.7084  0.2674  0.5496
 5448SOL     OW27805   1.078   1.461  11.674  0.2344 -0.5365 -0.1547
 5448SOL    HW127806   1.045   1.549  11.660  2.3170  0.0109 -1.6726
 5448SOL    HW227807   1.125   1.436  11.594  0.0745 -0.0818 -0.3898
 5449SOL     OW27808   0.805   0.923  13.437 -0.4114  0.8437 -0.1614
 5449SOL    HW127809   0.846   0.852  13.487 -1.5650 -0.9859 -1.8051
 5449SOL    HW227810   0.870   0.923  13.367 -0.2287 -1.4353 -0.0058
 5450SOL     OW27811   2.941   2.423   4.398 -0.4021 -0.0448  0.4730
 5450SOL    HW127812   2.920   2.337   4.361  3.5669 -0.6061 -0.3885
 5450SOL    HW227813   3.007   2.460   4.340 -0.5163  1.6549  1.3935
 5451SOL     OW27814   3.341   0.168   8.594 -0.2120  0.0185  0.4652
 5451SOL    HW127815   3.319   0.242   8.651 -0.5605  2.5137 -2.9016
 5451SOL    HW227816   3.288   0.186   8.517 -1.0190  0.3511  1.0879
 5452SOL     OW27817   3.777   1.305   5.793 -0.7999 -0.1193 -0.1490
 5452SOL    HW127818   3.754   1.397   5.795 -1.2571 -0.2775  2.8220
 5452SOL    HW227819   3.841   1.300   5.722 -0.6035  2.0359 -0.0983
 5453SOL     OW27820   3.593   0.686   2.570 -0.4647 -0.5510  0.2301
 5453SOL    HW127821   3.606   0.591   2.578 -0.8099 -0.4718  1.7298
 5453SOL    HW227822   3.597   0.715   2.661 -0.9174 -0.3213  0.1765
 5454SOL     OW27823   0.693   2.879   1.443 -0.6524 -0.4020  0.1772
 5454SOL    HW127824   0.707   2.785   1.448 -0.6273 -0.4497 -0.8770
 5454SOL    HW227825   0.615   2.869   1.390  0.0022 -1.3231 -0.5978
 5455SOL     OW27826   1.178   4.717   5.583  0.5521  0.4512  0.0685
 5455SOL    HW127827   1.190   0.012   5.489 -0.3120  2.4587  0.3553
 5455SOL    HW227828   1.176   0.083   5.616 -3.7028  0.3006  0.2356
 5456SOL     OW27829   3.657   1.974   9.627 -0.4360  0.2512 -0.1093
 5456SOL    HW127830   3.609   2.016   9.555  1.8807  1.0865 -1.1776
 5456SOL    HW227831   3.612   1.890   9.623  1.4567 -0.7501 -0.5040
 5457SOL     OW27832   4.516   0.736  14.686  0.2126 -0.0821 -0.3556
 5457SOL    HW127833   4.605   0.749  14.717 -0.2552  2.2009  0.0629
 5457SOL    HW227834   4.481   0.685  14.758  2.0876 -1.1902 -0.2386
 5458SOL     OW27835   4.246   2.936   4.012  0.0125 -0.7032 -0.8648
 5458SOL    HW127836   4.292   2.886   4.079  0.0354 -1.7891 -1.6911
 5458SOL    HW227837   4.292   3.019   4.025 -0.9947  0.0784 -2.3093
 5459SOL     OW27838   3.068   0.447   8.568  0.0905  0.1217  0.0954
 5459SOL    HW127839   3.127   0.408   8.632  0.9343  0.0535 -0.7263
 5459SOL    HW227840   3.056   0.535   8.601 -0.4140  0.4906 -1.0703
 5460SOL     OW27841   3.357   4.330   2.071  0.5134  1.1021 -0.4147
 5460SOL    HW127842   3.398   4.397   2.016  0.3402  0.7489 -0.9747
 5460SOL    HW227843   3.279   4.378   2.099 -0.7889 -0.6913 -0.9194
 5461SOL     OW27844   1.132   4.265  13.223  0.5532  0.3861 -0.1706
 5461SOL    HW127845   1.199   4.327  13.195 -0.6150  2.0609  0.7888
 5461SOL    HW227846   1.071   4.324  13.266  0.5975 -0.3307  0.8801
 5462SOL     OW27847   3.424   4.669   2.294  0.1996  0.3872  0.7752
 5462SOL    HW127848   3.482   4.636   2.225 -0.0209  2.9497 -0.6465
 5462SOL    HW227849   3.367   0.005   2.243  0.5222  0.0636  0.0365
 5463SOL     OW27850   2.564   2.803   2.729 -0.2901 -0.0723  0.3011
 5463SOL    HW127851   2.534   2.759   2.808 -1.4060 -3.4781 -1.9894
 5463SOL    HW227852   2.658   2.813   2.747 -0.5486  0.3927  1.4066
 5464SOL     OW27853   2.532   0.454  13.904 -0.3201  0.1274 -0.0235
 5464SOL    HW127854   2.526   0.399  13.983 -1.9464  0.9414  0.4083
 5464SOL    HW227855   2.445   0.494  13.902 -0.2648  0.1277 -2.1817
 5465SOL     OW27856   4.011   0.367   9.387 -0.2218 -0.0422  0.0383
 5465SOL    HW127857   3.988   0.446   9.435  0.0707  1.8891 -3.0223
 5465SOL    HW227858   3.968   0.299   9.439 -2.6551  0.8151 -0.8493
 5466SOL     OW27859   2.588   0.179   3.070 -0.1603  0.1761  0.0952
 5466SOL    HW127860   2.666   0.165   3.124 -0.2372  0.2403  0.2233
 5466SOL    HW227861   2.525   0.216   3.132  0.5612 -0.3857  1.1670
 5467SOL     OW27862   3.569   0.432   1.394  0.6559 -0.6197  0.1855
 5467SOL    HW127863   3.492   0.404   1.343  0.5158  2.1536 -1.1095
 5467SOL    HW227864   3.634   0.388   1.340  0.3268  0.5584 -1.1686
 5468SOL     OW27865   3.840   2.347   1.936 -0.4809 -0.2102 -0.4311
 5468SOL    HW127866   3.864   2.422   1.991  0.8113 -0.9878  0.0705
 5468SOL    HW227867   3.763   2.370   1.884  0.0840  0.8571 -0.8039
 5469SOL     OW27868   4.488   1.349   3.172 -0.2705 -0.4552  0.4349
 5469SOL    HW127869   4.426   1.303   3.115 -0.7893  1.5058 -0.6074
 5469SOL    HW227870   4.533   1.392   3.099 -2.7308 -0.3697 -1.0178
 5470SOL     OW27871   3.016   4.190   1.660  0.0460 -0.3992  0.1429
 5470SOL    HW127872   2.954   4.124   1.691  0.4342 -0.8731 -0.0970
 5470SOL    HW227873   2.952   4.262   1.655 -0.3129 -0.6122  1.6304
 5471SOL     OW27874   1.236   4.485   0.923  0.0509  0.8546 -0.0944
 5471SOL    HW127875   1.220   4.407   0.976  3.5781  1.4948  1.8917
 5471SOL    HW227876   1.320   4.460   0.885 -0.0475  0.4213 -0.0247
 5472SOL     OW27877   1.080   4.395   3.043  0.4316  0.7330  0.2756
 5472SOL    HW127878   1.059   4.303   3.028 -1.1112  1.1863 -0.3944
 5472SOL    HW227879   1.156   4.393   3.101 -0.8581 -0.7483  1.9162
 5473SOL     OW27880   1.818   0.526   0.336  0.2836  0.9082 -0.4951
 5473SOL    HW127881   1.838   0.547   0.428  1.7372 -2.0224 -0.1521
 5473SOL    HW227882   1.729   0.493   0.339  0.5098  0.1361 -2.0754
 5474SOL     OW27883   1.659   0.748  14.031  0.2203  0.6126  0.6260
 5474SOL    HW127884   1.669   0.663  13.988 -1.0918  0.9086 -0.2641
 5474SOL    HW227885   1.656   0.804  13.954 -2.5464  1.2435  1.1924
 5475SOL     OW27886   0.249   2.122  16.267  0.5866  0.0111 -0.5864
 5475SOL    HW127887   0.306   2.178  16.214  0.8255  0.3497  0.0363
 5475SOL    HW227888   0.191   2.087  16.198  0.2051  1.3889 -0.9581
 5476SOL     OW27889   2.364   4.155   1.718  0.0020  0.4056  0.3950
 5476SOL    HW127890   2.428   4.224   1.702 -0.8251  0.9290 -0.6563
 5476SOL    HW227891   2.312   4.192   1.790  0.2322  0.4340  0.5462
 5477SOL     OW27892   2.938   0.499   1.870 -0.0739 -0.0986  0.0295
 5477SOL    HW127893   2.879   0.561   1.825 -1.3988 -1.1691  0.2979
 5477SOL    HW227894   2.985   0.563   1.923  1.5580 -2.0587  0.8984
 5478SOL     OW27895   3.791   4.057   8.575 -0.5596 -0.2039 -0.0141
 5478SOL    HW127896   3.825   4.101   8.652 -0.9649 -0.0871  0.0976
 5478SOL    HW227897   3.859   4.093   8.518 -0.2599  1.8640  1.7055
 5479SOL     OW27898   2.472   3.997  16.055 -0.2585 -0.0952 -0.0839
 5479SOL    HW127899   2.486   4.045  15.973  0.4360  0.6081  0.4387
 5479SOL    HW227900   2.378   4.014  16.048 -0.4431 -1.4539 -0.8175
 5480SOL     OW27901   2.560   3.088  15.985 -0.7605  0.2225 -0.1160
 5480SOL    HW127902   2.514   3.069  16.066 -0.4231 -1.3246 -0.2844
 5480SOL    HW227903   2.637   3.030  15.991  0.5416  2.0469  0.8005
 5481SOL     OW27904   4.302   3.571   6.152  0.4015  0.2491  0.4916
 5481SOL    HW127905   4.262   3.617   6.079  1.1997 -0.9486 -0.7034
 5481SOL    HW227906   4.387   3.606   6.125  0.7642 -0.5177  0.6066
 5482SOL     OW27907   4.530   0.274   0.355 -0.0081 -0.7178 -0.1511
 5482SOL    HW127908   4.555   0.345   0.295 -0.4625 -1.1770 -0.8826
 5482SOL    HW227909   4.619   0.246   0.374  1.1681  4.2199  1.6163
 5483SOL     OW27910   0.838   0.309  12.053 -0.3045 -0.4765  0.0008
 5483SOL    HW127911   0.762   0.304  11.994  0.3824 -1.1594 -0.8335
 5483SOL    HW227912   0.869   0.398  12.039 -1.6372  0.0376  0.3337
 5484SOL     OW27913   2.613   2.447   8.848  0.2577  0.0750  0.1708
 5484SOL    HW127914   2.523   2.480   8.846  0.2448  0.1466  2.4752
 5484SOL    HW227915   2.658   2.513   8.795 -2.5716 -0.4295 -2.8324
 5485SOL     OW27916   3.100   0.248  12.205 -0.2494 -0.1003 -0.1521
 5485SOL    HW127917   3.154   0.220  12.279  0.6435 -0.2831 -0.8755
 5485SOL    HW227918   3.151   0.324  12.177 -1.1482  0.1056 -1.2162
 5486SOL     OW27919   0.981   2.510   3.542 -0.1960  0.6046  0.1916
 5486SOL    HW127920   0.912   2.448   3.517  1.0927 -1.1306  0.9447
 5486SOL    HW227921   0.939   2.594   3.523 -0.9003  0.1183 -0.4058
 5487SOL     OW27922   2.519   2.678   5.496 -1.1392 -0.1628  0.1834
 5487SOL    HW127923   2.459   2.717   5.559 -1.6029 -0.6323  0.0273
 5487SOL    HW227924   2.467   2.601   5.477 -3.0245  0.7307  1.6919
 5488SOL     OW27925   4.007   2.764  15.185  0.0670  0.0458  0.1555
 5488SOL    HW127926   4.101   2.761  15.202 -0.0091 -1.3248  0.2889
 5488SOL    HW227927   3.994   2.673  15.159 -0.1523 -0.2483  1.3327
 5489SOL     OW27928   4.671   2.466   4.830  0.1215 -0.4712  0.2534
 5489SOL    HW127929   0.042   2.454   4.815 -0.4074 -3.3083 -0.8896
 5489SOL    HW227930   4.626   2.465   4.746  0.1099  2.2527  0.2299
 5490SOL     OW27931   3.302   0.968   7.964 -0.4895  0.3883 -0.2963
 5490SOL    HW127932   3.338   1.055   7.949  3.0923 -1.2235 -0.8465
 5490SOL    HW227933   3.375   0.931   8.013 -0.4599 -0.4943 -1.0008
 5491SOL     OW27934   3.438   0.676   4.938  0.0470 -0.4833 -0.1872
 5491SOL    HW127935   3.461   0.686   5.031 -1.7180 -1.3376  0.3575
 5491SOL    HW227936   3.372   0.607   4.940 -0.6587  0.1323 -2.3957
 5492SOL     OW27937   3.231   2.075   2.415 -0.3498  0.4207 -0.0795
 5492SOL    HW127938   3.284   2.006   2.376 -0.1080  0.5295  0.0569
 5492SOL    HW227939   3.295   2.110   2.477 -0.4449  0.2178  0.1301
 5493SOL     OW27940   1.331   4.668   7.483  0.2387  0.2228  0.0913
 5493SOL    HW127941   1.278   4.589   7.481 -1.6720  1.5609 -2.2572
 5493SOL    HW227942   1.272   4.722   7.431  2.2880  0.2555 -2.2187
 5494SOL     OW27943   3.287   1.210   8.835  0.3492 -0.0643 -0.1339
 5494SOL    HW127944   3.216   1.147   8.822  0.4423  0.1085 -1.4623
 5494SOL    HW227945   3.312   1.193   8.926  2.5197  0.2666 -0.6604
 5495SOL     OW27946   2.217   1.190  12.466 -0.4854 -0.3319  0.0826
 5495SOL    HW127947   2.153   1.231  12.524 -2.7835  0.4389 -2.9685
 5495SOL    HW227948   2.247   1.115  12.516  0.8177  0.6144  0.7115
 5496SOL     OW27949   4.122   4.482   2.028  0.0240 -0.1491 -0.0274
 5496SOL    HW127950   4.110   4.572   1.997 -1.0161 -0.5182 -0.7005
 5496SOL    HW227951   4.151   4.440   1.947  1.5043 -2.3941  1.6677
 5497SOL     OW27952   3.965   4.490  13.086  0.3335 -0.3352 -0.1052
 5497SOL    HW127953   3.992   4.554  13.020  2.7682 -1.3077 -0.0470
 5497SOL    HW227954   3.876   4.518  13.107  1.3851  3.7691 -1.1964
 5498SOL     OW27955   0.609   2.819  12.450  0.2850  0.1118  0.0013
 5498SOL    HW127956   0.583   2.876  12.378 -1.5222  1.1642  1.4729
 5498SOL    HW227957   0.672   2.871  12.501 -0.1896  1.6953 -1.0535
 5499SOL     OW27958   2.170   3.652   8.269 -0.4825  0.6240 -0.4731
 5499SOL    HW127959   2.175   3.562   8.300  2.6895  1.9064  2.7798
 5499SOL    HW227960   2.215   3.634   8.186  0.7132 -1.2702  0.5813
 5500SOL     OW27961   1.151   3.871   2.639  0.3492 -0.1172 -0.0756
 5500SOL    HW127962   1.090   3.936   2.674  0.0000 -2.1440  3.0033
 5500SOL    HW227963   1.200   3.842   2.716 -1.8469 -0.7500  1.0862
 5501SOL     OW27964   1.770   2.202   7.233  0.3321 -0.5337 -0.1436
 5501SOL    HW127965   1.821   2.152   7.169  0.5512 -1.1264  0.4891
 5501SOL    HW227966   1.825   2.227   7.308 -1.3122  0.7802  0.6279
 5502SOL     OW27967   0.974   2.317  13.168 -0.7983 -0.0875  0.5346
 5502SOL    HW127968   0.968   2.412  13.179  0.4933  0.0366  0.1969
 5502SOL    HW227969   0.909   2.279  13.227 -0.0149 -0.4515  1.1729
 5503SOL     OW27970   4.145   2.180   5.522 -0.6054 -0.2428 -0.6092
 5503SOL    HW127971   4.066   2.185   5.469 -1.3357 -2.5006  0.2999
 5503SOL    HW227972   4.164   2.273   5.537 -1.0608 -0.2207 -0.1782
 5504SOL     OW27973   3.099   3.323   2.643 -0.3043  0.2230  0.1047
 5504SOL    HW127974   3.095   3.268   2.566 -1.3027 -1.6191  1.4835
 5504SOL    HW227975   3.004   3.334   2.650 -0.5399 -1.1325 -1.0484
 5505SOL     OW27976   4.295   2.636   5.887 -0.4697 -0.8168  0.3334
 5505SOL    HW127977   4.363   2.637   5.955  0.3587  2.0134 -0.5447
 5505SOL    HW227978   4.269   2.728   5.882  1.7716 -0.2123 -0.3298
 5506SOL     OW27979   0.727   3.383   3.219 -0.4491 -0.1538 -0.0757
 5506SOL    HW127980   0.780   3.313   3.258 -1.3883 -2.5895 -3.1251
 5506SOL    HW227981   0.796   3.443   3.191  2.6081 -3.7052 -0.1560
 5507SOL     OW27982   3.326   2.198  11.924  0.1659 -0.1703  0.3262
 5507SOL    HW127983   3.385   2.123  11.928  0.6913  0.2856  1.0978
 5507SOL    HW227984   3.359   2.258  11.992 -0.2787  2.8363 -2.1145
 5508SOL     OW27985   3.173   0.739   2.234 -0.4585  0.0085 -0.0198
 5508SOL    HW127986   3.079   0.747   2.218 -0.4293  1.7786  0.6428
 5508SOL    HW227987   3.200   0.831   2.241  0.3548 -0.0993 -1.7938
 5509SOL     OW27988   4.019   1.408   6.504 -0.3988 -0.0176  0.2165
 5509SOL    HW127989   3.955   1.470   6.539  0.3167  1.4656 -1.1187
 5509SOL    HW227990   3.968   1.327   6.501  1.6669 -1.2932  0.0945
 5510SOL     OW27991   2.282   1.010   8.865  0.1933 -0.2668  0.2161
 5510SOL    HW127992   2.250   1.017   8.955 -1.1260 -2.7835 -0.0579
 5510SOL    HW227993   2.239   0.932   8.832  0.4267  0.6877 -2.2946
 5511SOL     OW27994   3.175   0.205  10.609 -0.1316  0.3253  0.4958
 5511SOL    HW127995   3.143   0.267  10.543 -2.3241  0.1047  1.3726
 5511SOL    HW227996   3.232   0.148  10.557 -0.9679 -0.6131  0.6168
 5512SOL     OW27997   3.738   0.679   1.960 -0.3522 -0.5204 -0.0366
 5512SOL    HW127998   3.761   0.709   2.048  1.8574 -1.8811 -0.1407
 5512SOL    HW227999   3.796   0.603   1.956  0.6772  0.3676 -1.6426
 5513SOL     OW28000   4.510   3.268   7.672  0.1221  0.4044  0.7833
 5513SOL    HW128001   4.566   3.290   7.746  1.4442  0.4372 -0.2316
 5513SOL    HW228002   4.516   3.172   7.674 -1.1830  0.3596  2.3159
 5514SOL     OW28003   1.886   3.577   5.922 -1.2521 -0.6186  0.1728
 5514SOL    HW128004   1.960   3.546   5.869 -0.9772  0.1608  0.1077
 5514SOL    HW228005   1.917   3.667   5.932 -0.1143 -0.8715 -1.1252
 5515SOL     OW28006   0.237   1.940  13.049 -0.4661 -0.2218  0.4116
 5515SOL    HW128007   0.330   1.925  13.069 -0.7597  0.3079  2.1410
 5515SOL    HW228008   0.199   1.855  13.073  0.4741 -0.2520  1.7622
 5516SOL     OW28009   0.908   1.675   9.123 -0.6465 -0.5351 -0.2182
 5516SOL    HW128010   0.936   1.750   9.176 -2.1819  0.7356 -1.2059
 5516SOL    HW228011   0.871   1.730   9.054  0.8429 -0.0848 -0.6670
 5517SOL     OW28012   0.280   2.313   2.695  0.2336 -0.2635  0.0724
 5517SOL    HW128013   0.185   2.308   2.691  0.1661  2.0352 -0.9008
 5517SOL    HW228014   0.300   2.220   2.708 -1.2776 -0.4208  1.2113
 5518SOL     OW28015   3.282   2.449   1.848  0.1582 -0.0735 -0.3587
 5518SOL    HW128016   3.245   2.532   1.878  0.2893 -0.8252  1.8680
 5518SOL    HW228017   3.230   2.393   1.905 -1.0224 -0.0892 -1.4627
 5519SOL     OW28018   2.730   3.516  11.274  0.7913  0.4414 -0.2414
 5519SOL    HW128019   2.776   3.457  11.334  0.6690  0.6037  0.0124
 5519SOL    HW228020   2.781   3.503  11.194 -0.8245  2.2199 -1.5440
 5520SOL     OW28021   1.118   3.964   4.163  0.0102  0.6274 -0.0035
 5520SOL    HW128022   1.180   3.895   4.187 -0.7332 -0.5715 -1.5077
 5520SOL    HW228023   1.155   3.995   4.080  0.9497 -0.6065 -0.0570
 5521SOL     OW28024   3.580   0.397  12.395 -0.1417  0.2818 -0.3266
 5521SOL    HW128025   3.643   0.466  12.414 -2.2423  2.2271 -0.5626
 5521SOL    HW228026   3.563   0.405  12.302  0.0976 -1.1705 -0.5058
 5522SOL     OW28027   0.299   0.638  16.762 -0.3288 -0.5131  0.0506
 5522SOL    HW128028   0.262   0.550  16.754 -0.0733 -0.7311  1.2767
 5522SOL    HW228029   0.377   0.622  16.816  1.2683  2.7279 -1.2693
 5523SOL     OW28030   0.168   4.147  16.540  0.1591  0.5506  0.0542
 5523SOL    HW128031   0.207   4.235  16.537 -0.2020  0.7456  0.9507
 5523SOL    HW228032   0.149   4.135  16.634  0.9311  2.3462  0.4459
 5524SOL     OW28033   0.904   4.323   7.048 -0.2412  0.3904  0.0332
 5524SOL    HW128034   0.928   4.382   6.977  0.5982 -0.7419 -0.6269
 5524SOL    HW228035   0.837   4.265   7.011 -1.2401  0.1436  2.1974
 5525SOL     OW28036   2.390   0.928   3.203  0.0300 -0.1339  0.0843
 5525SOL    HW128037   2.385   0.839   3.236  1.2614  0.1422  1.0395
 5525SOL    HW228038   2.297   0.950   3.198  0.5071  2.0353  0.5592
 5526SOL     OW28039   2.775   1.296   3.251 -0.0908 -0.2349 -0.0989
 5526SOL    HW128040   2.754   1.206   3.275  2.1289 -1.0848 -1.3028
 5526SOL    HW228041   2.755   1.301   3.157  0.9347 -1.1159 -0.3672
 5527SOL     OW28042   4.101   2.849  17.525  0.3715 -0.0454  0.1895
 5527SOL    HW128043   4.131   2.893  17.445  1.2298  0.9293  1.0609
 5527SOL    HW228044   4.096   2.925  17.582 -1.5185  0.0561 -0.0968
 5528SOL     OW28045   2.125   3.357   4.883  0.4160 -0.1754  0.0535
 5528SOL    HW128046   2.122   3.389   4.793 -1.4956 -1.5122 -0.3724
 5528SOL    HW228047   2.094   3.266   4.881  4.7605 -1.5811 -2.0903
 5529SOL     OW28048   1.647   1.132   8.005 -0.1177  0.0185  0.2711
 5529SOL    HW128049   1.730   1.130   8.052 -0.1174  0.4826  0.2847
 5529SOL    HW228050   1.640   1.061   7.941  1.4912  0.6870 -0.6162
 5530SOL     OW28051   2.656   1.858   4.831  0.5296 -0.1781 -0.8029
 5530SOL    HW128052   2.586   1.799   4.804  0.1440  0.0796 -0.3704
 5530SOL    HW228053   2.717   1.848   4.758  0.1805 -2.0904 -0.8248
 5531SOL     OW28054   0.137   1.271   5.628  0.2650 -0.8338 -0.0504
 5531SOL    HW128055   0.203   1.336   5.654  0.5564 -1.6184  1.1583
 5531SOL    HW228056   0.193   1.199   5.656  0.8620 -0.5191 -0.4503
 5532SOL     OW28057   2.990   3.292   5.814  0.2064  0.1458 -0.3064
 5532SOL    HW128058   3.050   3.218   5.801 -0.0454  0.2640 -2.0912
 5532SOL    HW228059   2.918   3.277   5.752  0.0859 -1.6617  0.2595
 5533SOL     OW28060   2.554   4.680   0.912  0.0798 -0.5242 -1.3133
 5533SOL    HW128061   2.566   4.588   0.886 -1.8075 -0.9005 -0.8310
 5533SOL    HW228062   2.462   4.697   0.892 -0.8124 -1.2674  2.1128
 5534SOL     OW28063   1.566   3.572   5.058  0.1681 -0.4828  0.2836
 5534SOL    HW128064   1.480   3.582   5.101  0.7485  0.0183  1.3498
 5534SOL    HW228065   1.545   3.604   4.971 -0.4199 -1.5048  0.0541
 5535SOL     OW28066   3.769   3.358   9.251 -0.2425  0.3171  0.0524
 5535SOL    HW128067   3.694   3.323   9.203  0.4822  0.4058 -1.1353
 5535SOL    HW228068   3.818   3.395   9.178  3.4872 -0.4653  2.1478
 5536SOL     OW28069   1.089   0.469   6.010  0.1396 -0.2794  0.1713
 5536SOL    HW128070   1.115   0.456   5.919 -0.3911 -0.5886  0.0637
 5536SOL    HW228071   1.143   0.418   6.070  1.0938 -0.0774 -0.5266
 5537SOL     OW28072   0.222   0.328   5.894  0.4078 -0.4664 -0.1263
 5537SOL    HW128073   0.178   0.388   5.955  0.2838 -1.2433  0.5389
 5537SOL    HW228074   0.255   0.260   5.952 -1.0124  1.0366  2.4362
 5538SOL     OW28075   0.314   1.941   0.810 -0.0003 -0.0401 -0.3867
 5538SOL    HW128076   0.388   1.961   0.753  0.0192  1.0747  0.0396
 5538SOL    HW228077   0.282   1.870   0.754 -0.7133 -1.0122  1.2393
 5539SOL     OW28078   1.541   3.123   6.326 -0.2121 -0.5063 -0.2235
 5539SOL    HW128079   1.571   3.034   6.308  1.2195  0.1056 -0.8326
 5539SOL    HW228080   1.490   3.096   6.403 -1.9777 -2.4177 -2.0912
 5540SOL     OW28081   2.892   2.122  14.696 -0.0261  0.5245  0.6797
 5540SOL    HW128082   2.928   2.037  14.721 -0.8261  0.3003  1.0543
 5540SOL    HW228083   2.922   2.169  14.774  3.3982 -0.4739 -0.0128
 5541SOL     OW28084   4.288   3.012  10.013  0.4694  0.4816  0.1986
 5541SOL    HW128085   4.226   3.066   9.965 -0.6443 -1.4310 -0.4991
 5541SOL    HW228086   4.327   3.078  10.070  0.6974  0.1811  0.3897
 5542SOL     OW28087   2.224   3.833   6.999 -0.0189  0.2495 -0.2414
 5542SOL    HW128088   2.191   3.804   7.084  0.3397  0.8749  0.1106
 5542SOL    HW228089   2.251   3.749   6.962 -3.2071 -1.3108  0.9915
 5543SOL     OW28090   3.419   3.917   7.425  0.0703 -0.0574  0.1155
 5543SOL    HW128091   3.326   3.910   7.443  0.0104 -0.0948 -0.1954
 5543SOL    HW228092   3.436   3.888   7.335 -1.6217  0.8529 -0.4918
 5544SOL     OW28093   0.553   4.161   7.154  0.2953  0.0329 -0.2201
 5544SOL    HW128094   0.563   4.066   7.164 -1.0960 -0.0204  0.7049
 5544SOL    HW228095   0.458   4.167   7.171  0.3392 -0.7929  0.3173
 5545SOL     OW28096   3.778   3.821   1.701  0.6816 -0.8646 -0.1676
 5545SOL    HW128097   3.770   3.916   1.691  1.6159 -0.7707 -0.0584
 5545SOL    HW228098   3.760   3.803   1.793 -1.7013 -1.6089 -0.7971
 5546SOL     OW28099   2.244   3.311  11.733  0.1195 -0.4371 -0.0589
 5546SOL    HW128100   2.164   3.322  11.784 -1.2962  1.5153 -2.7302
 5546SOL    HW228101   2.306   3.283  11.801  1.1507  1.0793 -0.3928
 5547SOL     OW28102   2.860   4.705  15.130 -0.3399  0.8448  0.1348
 5547SOL    HW128103   2.880   0.049  15.064  0.1274 -0.1459 -0.7471
 5547SOL    HW228104   2.911   4.632  15.094  2.4213  2.0794  1.5434
 5548SOL     OW28105   1.784   3.000   8.531 -0.3041 -0.1029 -0.3939
 5548SOL    HW128106   1.782   3.096   8.535  2.2648 -0.1722  2.7124
 5548SOL    HW228107   1.870   2.975   8.563 -1.5055 -2.0547  1.3107
 5549SOL     OW28108   4.340   2.270   3.679 -0.0574 -0.1663 -0.2981
 5549SOL    HW128109   4.307   2.269   3.589 -2.0505 -1.6905  0.4455
 5549SOL    HW228110   4.269   2.325   3.712 -0.1433  0.5007 -1.5907
 5550SOL     OW28111   3.372   4.145   9.144  0.3085  0.4487 -0.1147
 5550SOL    HW128112   3.279   4.140   9.168  0.7950  0.1820  1.7713
 5550SOL    HW228113   3.406   4.076   9.200 -0.6611  0.4342  0.4590
 5551SOL     OW28114   1.465   4.596   8.024 -0.2413  0.5435 -0.0355
 5551SOL    HW128115   1.377   4.600   8.060  0.6421  2.7638  1.8610
 5551SOL    HW228116   1.485   4.689   8.007  0.7430  0.7530  2.2469
 5552SOL     OW28117   3.567   2.310   6.653 -0.5571  0.0107 -0.2291
 5552SOL    HW128118   3.535   2.276   6.569  0.6783  1.0288 -1.1100
 5552SOL    HW228119   3.620   2.234   6.677 -1.7678 -0.6189  0.4584
 5553SOL     OW28120   3.013   4.268   4.179  0.4981  0.6644  0.0169
 5553SOL    HW128121   3.006   4.173   4.188  3.1766  0.3589 -1.2449
 5553SOL    HW228122   2.932   4.287   4.132  0.9425  0.4097 -0.8533
 5554SOL     OW28123   0.860   3.590  11.479  0.5507  0.1980  0.3639
 5554SOL    HW128124   0.803   3.660  11.446  2.3000  1.2411 -0.4129
 5554SOL    HW228125   0.812   3.510  11.458  2.3872 -0.7129 -0.3542
 5555SOL     OW28126   0.417   0.931  17.456  0.4067  0.1411  0.1034
 5555SOL    HW128127   0.365   0.991  17.402  1.0055  2.0529  1.6314
 5555SOL    HW228128   0.500   0.947  17.411  0.1254  1.7921  0.1734
 5556SOL     OW28129   2.580   0.419   4.448 -0.2860 -0.0985  0.2127
 5556SOL    HW128130   2.614   0.483   4.385  0.5772 -0.7715 -0.0016
 5556SOL    HW228131   2.583   0.341   4.393  1.7478 -0.0783  0.3108
 5557SOL     OW28132   2.553   0.098   8.766  0.3251  0.2367  0.3976
 5557SOL    HW128133   2.505   0.033   8.818  0.4028  0.2665  0.5082
 5557SOL    HW228134   2.618   0.129   8.830 -0.0113 -0.9154  1.3050
 5558SOL     OW28135   3.084   4.380  11.365 -0.0866  0.0588 -0.0469
 5558SOL    HW128136   3.023   4.414  11.430 -0.6527 -0.3977 -0.3426
 5558SOL    HW228137   3.119   4.306  11.414  0.9475  0.0635 -0.7675
 5559SOL     OW28138   3.967   2.556   7.335  0.4276 -0.1318  0.3981
 5559SOL    HW128139   3.990   2.587   7.247  0.0649  0.1960  0.4200
 5559SOL    HW228140   4.033   2.487   7.338  0.3809 -0.2735 -1.6869
 5560SOL     OW28141   1.936   1.814   4.148  1.0601 -0.9271 -0.5508
 5560SOL    HW128142   1.869   1.767   4.197  1.7832 -1.3180  0.0679
 5560SOL    HW228143   1.879   1.878   4.106 -0.1487 -2.3930 -1.1375
 5561SOL     OW28144   1.364   0.095   0.158  0.5024  0.3676  0.1456
 5561SOL    HW128145   1.364   0.099   0.254 -1.0827 -0.0146  0.1484
 5561SOL    HW228146   1.414   0.014   0.145 -1.1916 -0.1885 -2.7469
 5562SOL     OW28147   4.440   1.673   6.643 -0.0199 -0.0531  0.3482
 5562SOL    HW128148   4.352   1.705   6.622  0.0919  0.0620  0.0479
 5562SOL    HW228149   4.490   1.696   6.565 -1.0349  0.8675 -0.0377
 5563SOL     OW28150   2.839   0.109   4.430 -0.4407  0.2775 -0.1265
 5563SOL    HW128151   2.925   0.150   4.425 -0.6924  0.7990 -0.1326
 5563SOL    HW228152   2.863   0.022   4.463 -1.3175  0.4871  1.0892
 5564SOL     OW28153   2.376   3.109   5.053 -0.1382 -0.4074 -0.2337
 5564SOL    HW128154   2.314   3.039   5.034 -0.2977 -0.0185 -1.1438
 5564SOL    HW228155   2.455   3.072   5.092  0.4681  0.6679 -0.4442
 5565SOL     OW28156   1.395   2.093   4.612  0.3183  0.3028 -0.0360
 5565SOL    HW128157   1.326   2.157   4.631 -1.5875 -2.2416  1.6412
 5565SOL    HW228158   1.387   2.091   4.517 -1.4157  1.7138  0.0765
 5566SOL     OW28159   2.036   0.218   7.264  0.6945  0.1944  0.0580
 5566SOL    HW128160   1.982   0.140   7.277  0.0821  0.8318  1.3512
 5566SOL    HW228161   2.017   0.277   7.337  1.1984  1.2407 -0.6500
 5567SOL     OW28162   4.434   1.823   5.163 -0.7805  0.0584 -0.0857
 5567SOL    HW128163   4.443   1.860   5.251  0.6632 -1.1626  0.2596
 5567SOL    HW228164   4.339   1.810   5.161 -0.8208  0.6513 -1.9683
 5568SOL     OW28165   2.247   0.013   5.080  0.0524 -0.1878 -0.1310
 5568SOL    HW128166   2.293   0.093   5.053  0.1209 -0.5985 -1.2259
 5568SOL    HW228167   2.263   0.013   5.175 -0.3696 -2.3030 -0.0697
 5569SOL     OW28168   4.439   0.273  12.390  0.6821  0.4462 -0.0265
 5569SOL    HW128169   4.533   0.292  12.389  0.7584  0.0921  0.8995
 5569SOL    HW228170   4.421   0.229  12.472  0.9482  0.1871 -0.1044
 5570SOL     OW28171   1.767   3.816   9.960  0.0014 -0.2278  0.2515
 5570SOL    HW128172   1.824   3.873   9.909 -2.3005  0.4638 -1.5227
 5570SOL    HW228173   1.722   3.757   9.899 -0.4701  0.9604 -0.5376
 5571SOL     OW28174   1.474   3.001   4.179  0.4537 -0.2771 -0.0870
 5571SOL    HW128175   1.563   3.024   4.206  0.4625  2.0446 -2.1453
 5571SOL    HW228176   1.424   3.055   4.240  1.8942  0.7091  0.2344
 5572SOL     OW28177   4.077   2.751   5.685 -0.5277  0.1922  0.1000
 5572SOL    HW128178   4.013   2.793   5.627 -0.6616  0.5920  0.5486
 5572SOL    HW228179   4.154   2.739   5.628 -0.0891  0.2980  0.6713
 5573SOL     OW28180   1.826   4.641   3.192  0.2433  0.0246  0.0999
 5573SOL    HW128181   1.838   4.551   3.222 -1.4351 -1.0391 -2.3902
 5573SOL    HW228182   1.810   4.631   3.098  1.6335  2.2564 -0.3508
 5574SOL     OW28183   2.518   1.241  17.130  0.2789 -0.0618 -0.1139
 5574SOL    HW128184   2.569   1.167  17.164  0.8714 -0.4728 -1.9145
 5574SOL    HW228185   2.564   1.260  17.048 -0.8994  1.0552 -0.5058
 5575SOL     OW28186   0.887   3.266   3.554  0.0791 -0.6394 -0.0456
 5575SOL    HW128187   0.900   3.357   3.526  0.9114 -0.5166  0.7594
 5575SOL    HW228188   0.977   3.241   3.575  0.3701  0.1348 -0.3568
 5576SOL     OW28189   0.726   1.881   4.018  0.0303 -0.1313 -0.3894
 5576SOL    HW128190   0.645   1.929   4.002 -0.3124 -1.2219 -1.9794
 5576SOL    HW228191   0.704   1.837   4.101 -2.5034  0.7411 -0.5929
 5577SOL     OW28192   0.166   2.983  16.292 -0.3073 -0.2816 -0.6968
 5577SOL    HW128193   0.142   3.069  16.327  1.9421  1.6165 -3.8145
 5577SOL    HW228194   0.247   3.004  16.246 -0.6905  2.7648  0.0031
 5578SOL     OW28195   1.191   1.525  11.908  0.0478 -0.3295 -0.3279
 5578SOL    HW128196   1.276   1.550  11.871  0.3258  0.3123  0.7487
 5578SOL    HW228197   1.139   1.505  11.830 -2.5141  0.1685  1.2717
 5579SOL     OW28198   0.687   4.216   2.879 -0.2547  0.4370 -0.1211
 5579SOL    HW128199   0.689   4.202   2.974 -2.3828 -1.1531 -0.3283
 5579SOL    HW228200   0.596   4.200   2.854  0.6848 -1.4662 -2.2609
 5580SOL     OW28201   2.212   1.916   3.583 -0.6725 -0.8189  0.2788
 5580SOL    HW128202   2.237   1.829   3.551  1.0176 -1.0437  2.1908
 5580SOL    HW228203   2.198   1.946   3.493 -0.7129 -1.9185 -0.0786
 5581SOL     OW28204   4.411   3.172   6.571 -0.7053  0.1541  0.2987
 5581SOL    HW128205   4.375   3.097   6.619 -0.8533 -1.0769 -1.7714
 5581SOL    HW228206   4.438   3.234   6.640  0.0547  0.7186 -0.5063
 5582SOL     OW28207   4.505   4.009   5.663  0.0310 -0.4750 -0.0750
 5582SOL    HW128208   4.445   3.979   5.595 -0.8847  1.3621 -0.0815
 5582SOL    HW228209   4.462   3.973   5.741 -0.2319  2.4958  1.1482
 5583SOL     OW28210   3.689   1.415   2.881  0.3707  0.1331  0.7199
 5583SOL    HW128211   3.598   1.391   2.898 -0.1228  1.6605  0.1897
 5583SOL    HW228212   3.712   1.355   2.810 -0.8319  1.2994 -0.6692
 5584SOL     OW28213   1.414   1.612  12.756 -0.1409  0.2467  0.0603
 5584SOL    HW128214   1.489   1.618  12.816  0.3334 -1.1042 -0.3945
 5584SOL    HW228215   1.339   1.628  12.813  1.0760 -0.9621  2.0023
 5585SOL     OW28216   2.823   3.656   5.049 -0.1285 -0.1093 -0.2197
 5585SOL    HW128217   2.767   3.584   5.075  0.9498 -0.5258  0.9395
 5585SOL    HW228218   2.841   3.638   4.957  0.4625 -1.2021  0.1074
 5586SOL     OW28219   1.202   2.715   9.124  0.2312 -0.3052 -0.2480
 5586SOL    HW128220   1.119   2.761   9.108  0.6710  0.6028  0.0901
 5586SOL    HW228221   1.247   2.767   9.191 -2.9619  0.9989  0.9080
 5587SOL     OW28222   4.396   1.647   8.831 -0.3446  0.3079 -0.2934
 5587SOL    HW128223   4.421   1.692   8.911 -0.6802  1.5667 -0.8955
 5587SOL    HW228224   4.400   1.719   8.768  3.0797  0.0112 -0.4177
 5588SOL     OW28225   0.755   1.723   1.465 -0.1349  0.2583 -0.0884
 5588SOL    HW128226   0.680   1.668   1.485 -2.0192  2.3963 -1.3319
 5588SOL    HW228227   0.734   1.801   1.516 -0.6993  0.4696 -0.6529
 5589SOL     OW28228   2.495   1.317   8.667 -0.6335  0.0311  0.2542
 5589SOL    HW128229   2.415   1.307   8.720 -0.4128 -0.1470  0.5568
 5589SOL    HW228230   2.461   1.317   8.578  0.2299  0.6740 -0.0758
 5590SOL     OW28231   0.180   4.344  16.215  0.3167 -0.2049 -0.7338
 5590SOL    HW128232   0.178   4.277  16.283  1.1716  0.1031 -0.4154
 5590SOL    HW228233   0.152   4.429  16.250 -2.5752 -1.8032  0.8860
 5591SOL     OW28234   1.235   3.512  10.603  0.0769  0.6440 -0.0281
 5591SOL    HW128235   1.312   3.471  10.564 -0.0002  0.0991  0.3912
 5591SOL    HW228236   1.251   3.516  10.697 -0.4017  2.5965 -0.0166
 5592SOL     OW28237   3.144   0.961   6.240  0.2679  0.0030 -0.4053
 5592SOL    HW128238   3.065   0.935   6.194 -1.1237  0.3307  1.8075
 5592SOL    HW228239   3.206   0.921   6.179  0.1500  2.8656 -2.4427
 5593SOL     OW28240   2.187   1.802   2.859  0.2234 -0.2454 -0.0219
 5593SOL    HW128241   2.199   1.840   2.771 -2.3189 -2.5090 -1.3428
 5593SOL    HW228242   2.278   1.774   2.869  0.2509 -0.4640 -0.8687
 5594SOL     OW28243   0.132   1.621   2.515 -0.4447 -0.2877 -0.5819
 5594SOL    HW128244   0.161   1.712   2.522 -0.2603 -0.4590  0.8935
 5594SOL    HW228245   0.070   1.627   2.443 -1.5449 -1.2398  0.2911
 5595SOL     OW28246   2.080   0.664   3.539  0.1685  0.3622  0.6647
 5595SOL    HW128247   2.094   0.738   3.598 -0.5473 -1.0889  2.6765
 5595SOL    HW228248   2.012   0.689   3.477  0.3514  1.4331  0.8970
 5596SOL     OW28249   4.119   2.967   4.390 -0.0931  0.8722  0.0864
 5596SOL    HW128250   4.122   2.928   4.477 -3.4200  1.3104  0.3821
 5596SOL    HW228251   4.144   2.890   4.338 -1.3537  1.0215 -0.7295
 5597SOL     OW28252   1.246   3.245   4.101  0.3678  0.9119 -0.0161
 5597SOL    HW128253   1.173   3.306   4.095 -1.5374 -1.0249  3.6499
 5597SOL    HW228254   1.211   3.186   4.168 -0.8817  0.3905 -1.1167
 5598SOL     OW28255   1.367   3.876   4.836 -0.3366 -0.0944  0.5804
 5598SOL    HW128256   1.368   3.935   4.761 -0.1986 -0.5930  0.1945
 5598SOL    HW228257   1.280   3.897   4.870 -0.3256 -0.9280  1.1356
 5599SOL     OW28258   1.929   4.524  15.454 -0.4495  0.8507  0.1017
 5599SOL    HW128259   1.890   4.611  15.461 -0.1548  0.9768  0.1430
 5599SOL    HW228260   2.012   4.540  15.498 -1.1743  1.2365  1.3206
 5600SOL     OW28261   0.536   0.333  11.907 -0.5237  0.1413  0.7012
 5600SOL    HW128262   0.587   0.313  11.829  1.5717 -0.6284  2.2797
 5600SOL    HW228263   0.521   0.426  11.889  0.0642  0.3516  1.3035
 5601SOL     OW28264   2.579   0.354   5.744  0.4009 -0.2915 -0.3005
 5601SOL    HW128265   2.502   0.324   5.695 -0.9399  1.3343  0.8220
 5601SOL    HW228266   2.634   0.400   5.680 -0.4933 -1.7517 -2.1048
 5602SOL     OW28267   1.898   1.997  14.948  0.1061  0.3556 -0.4820
 5602SOL    HW128268   1.930   1.970  14.862  0.4239  2.3816 -1.0083
 5602SOL    HW228269   1.870   1.913  14.984  2.2653 -1.1427 -2.2696
 5603SOL     OW28270   0.549   3.597   1.217 -0.2849 -0.4353  0.3499
 5603SOL    HW128271   0.526   3.685   1.247 -0.4826 -0.9914  1.8243
 5603SOL    HW228272   0.642   3.585   1.238 -0.4238 -3.1122 -0.6014
 5604SOL     OW28273   2.239   2.706  16.482 -0.2936  0.1840 -0.0446
 5604SOL    HW128274   2.249   2.741  16.571 -2.3056  1.9312 -0.5177
 5604SOL    HW228275   2.145   2.688  16.487 -0.7483  2.0906 -2.2675
 5605SOL     OW28276   3.246   1.341   9.473 -0.0309 -0.0876 -0.0873
 5605SOL    HW128277   3.246   1.263   9.418 -3.2211 -0.8513  0.9941
 5605SOL    HW228278   3.162   1.325   9.517  0.9303 -0.5627  1.5783
 5606SOL     OW28279   2.073   4.163   3.340 -0.2826 -0.0398 -0.0543
 5606SOL    HW128280   2.136   4.109   3.387 -1.2375  0.9059  2.3437
 5606SOL    HW228281   2.105   4.147   3.252 -0.8947  0.3221 -0.3454
 5607SOL     OW28282   0.291   0.804  10.409 -0.0461 -0.2156 -0.3004
 5607SOL    HW128283   0.274   0.803  10.315 -3.0954 -3.1962  0.2620
 5607SOL    HW228284   0.292   0.709  10.425 -0.2275 -0.2619 -0.5628
 5608SOL     OW28285   2.826   0.426   8.120 -0.3327 -0.2456 -0.4149
 5608SOL    HW128286   2.733   0.427   8.096  0.1018  1.5956 -2.0815
 5608SOL    HW228287   2.822   0.407   8.214 -0.4053  1.0027 -0.1538
 5609SOL     OW28288   1.486   4.170   3.099 -0.0436  0.0952  0.2552
 5609SOL    HW128289   1.436   4.104   3.051  1.4086 -0.3926 -0.5790
 5609SOL    HW228290   1.550   4.183   3.029 -0.4415  1.2658  0.1077
 5610SOL     OW28291   0.691   2.903   0.349 -0.2744 -0.9573  0.9324
 5610SOL    HW128292   0.731   2.816   0.354 -2.0659 -1.8704 -0.7534
 5610SOL    HW228293   0.698   2.930   0.440  1.4379  0.2431  0.4556
 5611SOL     OW28294   3.951   1.692   8.417 -0.0490 -0.8192  0.1983
 5611SOL    HW128295   3.979   1.642   8.493 -2.7666 -0.7921  1.2041
 5611SOL    HW228296   3.995   1.773   8.445  0.5844 -1.0660 -0.0901
 5612SOL     OW28297   2.239   0.735   5.340  0.0835  0.5450  0.2926
 5612SOL    HW128298   2.146   0.710   5.346  0.1090  0.3889  0.0459
 5612SOL    HW228299   2.254   0.714   5.248  2.0041 -0.6487  0.8828
 5613SOL     OW28300   1.087   4.546   7.430 -0.0267  0.5811 -0.3425
 5613SOL    HW128301   1.075   4.473   7.370  0.7249  0.9741 -0.9624
 5613SOL    HW228302   1.026   4.610   7.395 -1.8888  0.4221  2.5744
 5614SOL     OW28303   4.713   4.246   5.023 -0.8875 -0.2018 -0.1590
 5614SOL    HW128304   4.666   4.208   5.098 -1.0867 -2.1959 -1.2815
 5614SOL    HW228305   0.047   4.172   5.002  1.1421  0.4527  3.0720
 5615SOL     OW28306   0.161   3.916   0.474  0.1495  0.4924 -0.3489
 5615SOL    HW128307   0.179   3.946   0.563  1.2694  1.3095 -0.8647
 5615SOL    HW228308   0.122   3.829   0.484 -1.1366  0.6754 -4.0164
 5616SOL     OW28309   1.766   1.083  17.303 -0.0516  0.5039 -0.4655
 5616SOL    HW128310   1.721   1.017  17.250 -0.6722  0.0649  0.6037
 5616SOL    HW228311   1.826   1.029  17.355  0.4268  1.0137 -0.4852
 5617SOL     OW28312   0.401   3.729   4.329 -0.5031 -0.1999  0.7964
 5617SOL    HW128313   0.492   3.738   4.301 -1.5698 -0.3822 -2.8180
 5617SOL    HW228314   0.355   3.766   4.254 -0.7054  0.2175  1.1311
 5618SOL     OW28315   3.633   3.227   2.372 -0.3288  0.1541  0.5869
 5618SOL    HW128316   3.558   3.184   2.415  0.6975 -0.0760  2.1642
 5618SOL    HW228317   3.712   3.206   2.422  0.6459  0.4376 -0.8484
 5619SOL     OW28318   3.747   4.086   1.973 -0.3639 -0.4831  0.1514
 5619SOL    HW128319   3.768   4.106   1.882  2.3320 -0.9261  0.6687
 5619SOL    HW228320   3.805   4.148   2.016 -0.1854 -0.6366  0.1303
 5620SOL     OW28321   2.495   3.907   5.225 -0.2347  0.4852  0.4776
 5620SOL    HW128322   2.488   3.862   5.141  0.4795  0.5674  0.3832
 5620SOL    HW228323   2.574   3.865   5.258 -0.3347 -2.2397 -2.7254
 5621SOL     OW28324   1.081   1.132  15.786 -0.1135 -0.0465  0.7398
 5621SOL    HW128325   1.081   1.041  15.759 -0.3856  0.5364 -1.2558
 5621SOL    HW228326   1.175   1.150  15.795 -0.1644  1.9905 -2.4996
 5622SOL     OW28327   1.020   4.521   0.757 -0.6599  0.1841 -0.0561
 5622SOL    HW128328   0.950   4.561   0.809 -1.2934 -0.3079 -0.5315
 5622SOL    HW228329   1.078   4.501   0.830 -1.1154 -0.1063  0.2234
 5623SOL     OW28330   3.684   3.500   2.281  0.2773  0.2176  0.2783
 5623SOL    HW128331   3.622   3.433   2.309  2.5449 -2.0232 -0.0157
 5623SOL    HW228332   3.638   3.583   2.280 -0.4300 -0.1865 -1.7121
 5624SOL     OW28333   4.414   4.544   9.260  0.5317  0.0276 -0.2881
 5624SOL    HW128334   4.353   4.484   9.302  1.8576 -1.1938 -0.1123
 5624SOL    HW228335   4.470   4.570   9.333 -1.6371 -0.5371  1.5610
 5625SOL     OW28336   2.918   4.294   2.140  0.1639 -0.0425  0.7701
 5625SOL    HW128337   2.964   4.317   2.059 -1.1933 -0.2268 -0.0459
 5625SOL    HW228338   2.838   4.346   2.127  1.2649  1.6398  0.7076
 5626SOL     OW28339   0.208   2.186   4.311  0.6172  0.1839  0.1039
 5626SOL    HW128340   0.213   2.093   4.333 -1.1734  0.1949  0.5574
 5626SOL    HW228341   0.133   2.187   4.251  1.4071  0.7444 -0.8753
 5627SOL     OW28342   3.052   4.215  11.611  0.0678 -0.2035  0.1677
 5627SOL    HW128343   3.105   4.145  11.573  0.7879  0.3530  0.1540
 5627SOL    HW228344   3.066   4.203  11.705  4.0231 -1.0845 -0.5186
 5628SOL     OW28345   0.576   4.500   1.272 -0.3013 -0.0861  0.4095
 5628SOL    HW128346   0.581   4.548   1.355  0.5721  2.5466 -1.1639
 5628SOL    HW228347   0.610   4.570   1.216  0.1528 -1.2320 -0.7527
 5629SOL     OW28348   3.656   2.643   8.523  0.1598 -0.1144 -0.0853
 5629SOL    HW128349   3.630   2.595   8.444 -1.3087  1.0162 -0.2823
 5629SOL    HW228350   3.581   2.633   8.581 -0.1002 -1.9906 -0.7548
 5630SOL     OW28351   0.453   3.788  16.601 -0.3423 -0.1635 -0.0966
 5630SOL    HW128352   0.541   3.826  16.600 -0.5710  0.3910  1.3458
 5630SOL    HW228353   0.401   3.834  16.536  1.4204 -0.8582 -1.9900
 5631SOL     OW28354   0.235   1.611   6.621  0.6007 -0.5493 -0.3514
 5631SOL    HW128355   0.280   1.543   6.671 -0.6029  0.3973  2.0154
 5631SOL    HW228356   0.159   1.636   6.674 -0.4146 -1.1699 -1.5193
 5632SOL     OW28357   3.242   0.975  17.169 -0.3276 -0.0998  0.3895
 5632SOL    HW128358   3.244   1.017  17.083 -1.5868  0.1335  0.4732
 5632SOL    HW228359   3.320   1.005  17.215 -1.2549  1.3190  1.0464
 5633SOL     OW28360   3.471   4.328   9.361  0.3855 -0.2704 -0.3473
 5633SOL    HW128361   3.521   4.380   9.298  0.2503 -0.6735 -0.7911
 5633SOL    HW228362   3.447   4.253   9.306  1.6923 -0.5065 -0.5832
 5634SOL     OW28363   2.447   2.192   5.178 -0.1083  0.0469  0.3389
 5634SOL    HW128364   2.462   2.102   5.206  0.0101 -0.6816 -2.0105
 5634SOL    HW228365   2.354   2.184   5.156  0.2677  0.7435 -1.5797
 5635SOL     OW28366   1.944   2.277   2.576 -0.3101 -0.1662 -0.1828
 5635SOL    HW128367   1.961   2.345   2.641 -0.4337 -0.6116  0.3149
 5635SOL    HW228368   1.956   2.202   2.634 -2.1657 -0.9514 -0.8016
 5636SOL     OW28369   2.947   4.710   1.959 -0.1913 -0.1069  0.2436
 5636SOL    HW128370   2.973   0.029   1.877 -0.2683  1.2860  0.9245
 5636SOL    HW228371   2.902   0.056   2.007  1.9583  0.8342  0.9254
 5637SOL     OW28372   0.561   0.815   0.644  0.4472  0.3321 -0.0675
 5637SOL    HW128373   0.586   0.902   0.676  0.7748  0.8954 -1.8424
 5637SOL    HW228374   0.505   0.842   0.572  1.9304  1.4064 -0.8203
 5638SOL     OW28375   2.754   4.110  16.393 -0.2957 -0.3002  0.0758
 5638SOL    HW128376   2.791   4.023  16.378 -2.5728 -1.8053  3.1080
 5638SOL    HW228377   2.835   4.157  16.411  0.6468 -2.4246  1.3956
 5639SOL     OW28378   1.710   2.582  11.594  0.2064 -0.3947 -0.1221
 5639SOL    HW128379   1.738   2.585  11.686 -0.4545  0.4578  0.0469
 5639SOL    HW228380   1.646   2.653  11.598 -0.6463 -1.0654 -1.8364
 5640SOL     OW28381   2.416   1.784   4.037 -0.5296 -0.1380 -0.4682
 5640SOL    HW128382   2.325   1.776   4.008 -1.2253  0.3333  1.5751
 5640SOL    HW228383   2.405   1.850   4.105  2.8386  2.3993 -2.3996
 5641SOL     OW28384   0.386   2.418   3.105 -0.3540 -0.4337 -0.0432
 5641SOL    HW128385   0.412   2.423   3.197  2.1592 -0.9407 -0.7412
 5641SOL    HW228386   0.461   2.455   3.059 -0.1149  0.8834  1.3921
 5642SOL     OW28387   4.105   0.309   4.456  0.4817 -0.6277  0.5576
 5642SOL    HW128388   4.147   0.256   4.388  1.7066  0.2741  0.6092
 5642SOL    HW228389   4.062   0.251   4.519  0.5370 -2.1524 -0.7864
 5643SOL     OW28390   0.913   4.091   3.690 -0.5328  0.2023  0.5516
 5643SOL    HW128391   0.857   4.169   3.694  0.7151  1.0799  0.9392
 5643SOL    HW228392   0.879   4.043   3.614  0.2874 -0.5228  0.6470
 5644SOL     OW28393   3.785   1.452   4.303  0.2174 -0.1285 -0.5827
 5644SOL    HW128394   3.746   1.430   4.218 -1.3827 -0.1596  0.1468
 5644SOL    HW228395   3.756   1.542   4.292 -2.6803 -1.1342 -1.3529
 5645SOL     OW28396   1.770   1.688   7.180 -0.4509 -0.4387  0.1310
 5645SOL    HW128397   1.840   1.658   7.238  0.2528  0.7156 -0.1078
 5645SOL    HW228398   1.701   1.704   7.244  1.0945  1.0159  1.4337
 5646SOL     OW28399   0.312   4.314   5.342 -0.2601  0.1707  0.0332
 5646SOL    HW128400   0.278   4.245   5.285 -0.3293 -0.2555  0.6008
 5646SOL    HW228401   0.262   4.393   5.319  0.5120  0.3537 -1.0127
 5647SOL     OW28402   2.857   4.555   6.595  0.1465 -0.0751  0.0261
 5647SOL    HW128403   2.877   4.577   6.504  2.7370 -0.6378  0.4498
 5647SOL    HW228404   2.902   4.471   6.603  1.2938  0.2870 -2.4764
 5648SOL     OW28405   3.195   2.547  12.647  1.0078  0.1718  0.0659
 5648SOL    HW128406   3.196   2.598  12.567  0.5436  0.0426 -0.0254
 5648SOL    HW228407   3.103   2.528  12.666  0.6663  0.5880 -1.1644
 5649SOL     OW28408   3.442   0.685   5.219  0.0568 -1.3228  0.3533
 5649SOL    HW128409   3.465   0.764   5.268 -1.3416  0.6313 -2.1466
 5649SOL    HW228410   3.348   0.677   5.240 -0.6739  0.5733 -2.2402
 5650SOL     OW28411   1.779   1.108   3.286  0.0122  0.8927  0.0146
 5650SOL    HW128412   1.721   1.042   3.249 -2.9180  1.3209  3.8557
 5650SOL    HW228413   1.775   1.177   3.220  0.1403  1.1272  0.2518
 5651SOL     OW28414   2.109   1.066   2.625 -0.0584  0.5169  0.2345
 5651SOL    HW128415   2.184   1.116   2.592  1.3353 -1.6930  0.1123
 5651SOL    HW228416   2.033   1.122   2.606 -0.6858 -0.0415  1.0883
 5652SOL     OW28417   4.513   0.567   0.004 -0.2839 -0.3831  0.0444
 5652SOL    HW128418   4.494   0.626  17.625  1.3452  2.0805  1.6160
 5652SOL    HW228419   4.431   0.563   0.052 -0.2415  1.5293  0.2585
 5653SOL     OW28420   2.788   2.846   9.024 -0.3226 -0.2137  0.1521
 5653SOL    HW128421   2.757   2.936   9.017 -1.0921 -0.4788  0.0665
 5653SOL    HW228422   2.859   2.859   9.086 -0.5184  0.2780  0.2716
 5654SOL     OW28423   3.183   1.789   6.194  0.5683  0.0745  0.4924
 5654SOL    HW128424   3.099   1.826   6.169  0.7026 -0.6536 -1.0192
 5654SOL    HW228425   3.195   1.745   6.110 -0.1265  2.1577 -0.6974
 5655SOL     OW28426   1.359   2.829   9.895 -0.3729  0.0599  0.0792
 5655SOL    HW128427   1.405   2.779   9.828 -0.1350 -0.8424  0.9158
 5655SOL    HW228428   1.417   2.798   9.965 -1.1553  1.1495  1.2145
 5656SOL     OW28429   0.898   4.448   1.854  0.3240 -0.3235  0.7099
 5656SOL    HW128430   0.826   4.473   1.796 -0.1609  2.6464  2.5729
 5656SOL    HW228431   0.875   4.357   1.870  1.4744 -0.8194 -0.5350
 5657SOL     OW28432   4.638   2.190   6.146 -0.2637 -0.4037  0.1278
 5657SOL    HW128433   4.659   2.197   6.053  2.4107 -0.2576  0.7267
 5657SOL    HW228434   4.606   2.278   6.166 -0.7730 -1.2304  2.9073
 5658SOL     OW28435   2.936   4.200   2.641  0.0695 -0.0096 -0.0661
 5658SOL    HW128436   2.907   4.192   2.550  0.6300 -2.0425 -0.0865
 5658SOL    HW228437   3.025   4.166   2.638  1.1722  2.7726  1.4855
 5659SOL     OW28438   0.497   2.518   4.613 -0.1589  0.4812 -0.7102
 5659SOL    HW128439   0.564   2.451   4.602 -1.4727 -1.0935  0.9112
 5659SOL    HW228440   0.484   2.541   4.521 -1.9549  0.0463 -0.5662
 5660SOL     OW28441   3.501   4.262  15.095 -0.4521 -0.1012  0.2644
 5660SOL    HW128442   3.565   4.230  15.031 -0.3580  1.3274 -0.3480
 5660SOL    HW228443   3.513   4.188  15.154 -0.0861  2.2500  3.0985
 5661SOL     OW28444   0.829   1.359   2.004 -0.1255  0.9616 -0.4650
 5661SOL    HW128445   0.912   1.369   1.957  0.1976  0.0494 -0.0993
 5661SOL    HW228446   0.850   1.382   2.095  0.5000  0.1341 -0.3935
 5662SOL     OW28447   3.274   4.433   1.519  0.4785  0.2654  0.7784
 5662SOL    HW128448   3.234   4.394   1.596 -0.0369 -0.4063  0.1706
 5662SOL    HW228449   3.363   4.400   1.534 -0.1810 -3.4709 -3.6605
 5663SOL     OW28450   2.116   0.397   2.123 -0.4594 -0.3127 -0.5368
 5663SOL    HW128451   2.165   0.401   2.205 -1.6009  1.5266  0.0502
 5663SOL    HW228452   2.036   0.358   2.158 -0.6268  1.5364  1.1710
 5664SOL     OW28453   3.178   2.365   8.151 -0.0784  0.0158 -0.1109
 5664SOL    HW128454   3.199   2.335   8.240  1.8229 -0.1623 -0.6213
 5664SOL    HW228455   3.188   2.459   8.165 -1.8639 -0.0398  1.5464
 5665SOL     OW28456   2.837   0.398   3.807  0.3897 -0.1231  0.1751
 5665SOL    HW128457   2.874   0.418   3.721  0.8669  0.7817  0.5919
 5665SOL    HW228458   2.792   0.476   3.840  1.5293  0.1140  1.1934
 5666SOL     OW28459   3.102   0.365   2.833  0.2365 -1.0449 -0.0677
 5666SOL    HW128460   3.189   0.395   2.861 -1.0444  1.1402  1.5071
 5666SOL    HW228461   3.059   0.365   2.918 -2.2690 -0.0749 -1.3492
 5667SOL     OW28462   2.854   0.194   3.190  0.0788 -0.4318 -0.6601
 5667SOL    HW128463   2.868   0.239   3.273  1.0230 -1.4287 -0.2752
 5667SOL    HW228464   2.903   0.258   3.138  1.9006  0.0823  1.6879
 5668SOL     OW28465   3.714   4.501   4.076 -0.3951  0.1061  0.2459
 5668SOL    HW128466   3.712   4.445   4.153 -1.4480 -0.9254 -0.5239
 5668SOL    HW228467   3.676   4.447   4.006  1.0944 -1.8737  0.9821
 5669SOL     OW28468   4.616   1.262  15.150  0.2172 -0.0522 -0.0730
 5669SOL    HW128469   4.701   1.251  15.107  1.9057  0.5212  3.1517
 5669SOL    HW228470   4.620   1.351  15.183 -0.9534 -0.6709  1.7340
 5670SOL     OW28471   1.833   3.340   7.267  0.2406 -0.8670  0.1014
 5670SOL    HW128472   1.796   3.413   7.317 -2.3861 -1.2906 -1.2398
 5670SOL    HW228473   1.827   3.271   7.333  1.0136  0.0275  1.1074
 5671SOL     OW28474   2.677   4.155  11.039 -0.0563 -0.1771  0.1436
 5671SOL    HW128475   2.714   4.094  10.976  1.7431 -0.7836  1.7554
 5671SOL    HW228476   2.662   4.100  11.116 -1.1010  1.1566  0.9072
 5672SOL     OW28477   2.921   3.147  11.193  0.1523  0.3946 -0.4212
 5672SOL    HW128478   2.925   3.211  11.263  0.8761 -1.5384  1.2901
 5672SOL    HW228479   2.858   3.089  11.235  1.9442 -2.3180 -1.5131
 5673SOL     OW28480   2.281   0.385  11.324  0.5100 -0.2199 -0.4131
 5673SOL    HW128481   2.289   0.301  11.278  1.2723  0.9837 -2.4584
 5673SOL    HW228482   2.192   0.411  11.301  0.0690 -0.6672  0.7913
 5674SOL     OW28483   1.294   0.507  11.499 -0.3331 -0.2297  0.0499
 5674SOL    HW128484   1.278   0.445  11.429 -0.0546 -0.1179 -0.1139
 5674SOL    HW228485   1.356   0.454  11.549  0.6466 -0.0972 -1.0175
 5675SOL     OW28486   4.016   1.299   7.192  0.1797 -0.0086 -0.2427
 5675SOL    HW128487   4.012   1.252   7.109 -0.4359  0.8356 -0.6943
 5675SOL    HW228488   4.050   1.385   7.165  3.0702 -0.5849  1.5893
 5676SOL     OW28489   3.701   3.136  15.010  0.5486  0.2186  0.0482
 5676SOL    HW128490   3.742   3.053  15.035  1.8099  1.4104  1.8972
 5676SOL    HW228491   3.751   3.203  15.055 -0.3711  1.0524 -0.1712
 5677SOL     OW28492   2.788   0.638  14.685  0.4120 -0.0837  0.0440
 5677SOL    HW128493   2.846   0.585  14.631 -0.1180  0.3158 -0.9281
 5677SOL    HW228494   2.776   0.593  14.769 -0.4135  0.2059  0.0849
 5678SOL     OW28495   0.651   2.375   2.064 -0.0386  0.5024  0.1204
 5678SOL    HW128496   0.592   2.367   1.989  1.8509  1.5083 -1.4519
 5678SOL    HW228497   0.680   2.465   2.050  1.0306  0.2378  0.6497
 5679SOL     OW28498   1.727   2.566   0.656  0.0512 -0.0424 -0.1057
 5679SOL    HW128499   1.667   2.547   0.728 -0.5360 -0.3586 -0.6759
 5679SOL    HW228500   1.775   2.484   0.651 -1.8482 -1.0908 -1.3614
 5680SOL     OW28501   2.469   3.802  15.629 -0.4833  0.1364 -0.2770
 5680SOL    HW128502   2.556   3.802  15.589  0.0857 -1.5148  0.9961
 5680SOL    HW228503   2.424   3.847  15.558  3.0781  1.2828 -1.7753
 5681SOL     OW28504   2.344   0.228   4.929  0.1374 -0.2793  0.6938
 5681SOL    HW128505   2.361   0.249   4.837  1.2086 -2.2175  0.4450
 5681SOL    HW228506   2.436   0.236   4.956 -0.4737 -0.4798  2.8317
 5682SOL     OW28507   0.683   1.668   4.915  0.2072  0.1373 -0.4332
 5682SOL    HW128508   0.668   1.644   4.823 -0.9322  0.2367 -0.2660
 5682SOL    HW228509   0.665   1.597   4.977  1.5402  1.4193  1.4206
 5683SOL     OW28510   2.139   0.910   7.177 -0.5311 -0.0205  0.0613
 5683SOL    HW128511   2.104   0.835   7.224 -0.1983 -0.2405 -0.0371
 5683SOL    HW228512   2.148   0.972   7.249 -2.2548  0.3791 -0.0628
 5684SOL     OW28513   2.421   3.066   6.436  0.3646  0.1844  0.2006
 5684SOL    HW128514   2.428   3.046   6.343  0.6724  2.0547 -0.1704
 5684SOL    HW228515   2.516   3.070   6.444  0.2428  1.2336  1.1118
 5685SOL     OW28516   3.772   1.993   4.239 -0.7001  0.2593 -0.8234
 5685SOL    HW128517   3.866   2.004   4.222 -0.5433  1.4021  0.8129
 5685SOL    HW228518   3.743   2.022   4.152  0.0289  4.3740  0.2840
 5686SOL     OW28519   3.623   3.076   9.729  0.1627  0.7195 -0.4025
 5686SOL    HW128520   3.639   3.170   9.729 -0.1700  0.7761  0.1434
 5686SOL    HW228521   3.546   3.071   9.787 -0.6154 -1.2132 -1.6058
 5687SOL     OW28522   3.944   4.334   4.623  0.1935 -0.0973  0.6462
 5687SOL    HW128523   3.887   4.402   4.658  1.8381  0.3085  2.4938
 5687SOL    HW228524   4.018   4.338   4.683 -0.4219 -2.4871  1.5474
 5688SOL     OW28525   2.823   1.520  12.402  0.7301 -0.1672 -0.0352
 5688SOL    HW128526   2.751   1.535  12.464  0.1267  0.4331 -0.8915
 5688SOL    HW228527   2.890   1.485  12.461  0.4754 -0.1329  0.2782
 5689SOL     OW28528   3.949   0.228  15.759 -0.5073 -0.7418  0.3331
 5689SOL    HW128529   3.873   0.227  15.700 -0.4182  1.6238  0.1756
 5689SOL    HW228530   3.972   0.135  15.751  0.0512 -0.5778  0.0518
 5690SOL     OW28531   2.188   2.189  16.668 -0.0497 -0.2290 -0.1445
 5690SOL    HW128532   2.209   2.282  16.684 -0.5883  0.2367 -2.2227
 5690SOL    HW228533   2.186   2.184  16.573 -0.3857 -2.2806 -0.0070
 5691SOL     OW28534   0.715   3.271   8.228 -0.0340 -0.6050  0.0371
 5691SOL    HW128535   0.754   3.187   8.205  0.1906 -0.6569  0.6079
 5691SOL    HW228536   0.774   3.327   8.178 -1.0774  1.7087  1.4154
 5692SOL     OW28537   1.247   1.449   8.404 -0.3147  0.4903 -0.1704
 5692SOL    HW128538   1.328   1.484   8.441 -1.0077  1.3845  0.5206
 5692SOL    HW228539   1.202   1.529   8.377  1.4692  0.7887 -2.2025
 5693SOL     OW28540   0.073   3.040   1.706 -0.3754 -0.6647 -0.2901
 5693SOL    HW128541   0.014   3.053   1.631 -0.2145  1.4211 -0.0631
 5693SOL    HW228542   0.085   2.946   1.718  1.2989 -0.4130  0.0265
 5694SOL     OW28543   0.774   3.219   6.042 -0.3849  0.4826 -0.0070
 5694SOL    HW128544   0.765   3.258   6.129 -1.0750 -1.9738  1.0164
 5694SOL    HW228545   0.870   3.228   6.037 -0.2717 -0.3576  0.7353
 5695SOL     OW28546   0.388   4.703   5.862 -0.7073 -0.1173  0.4134
 5695SOL    HW128547   0.419   0.061   5.823 -0.3589 -0.0763  0.7734
 5695SOL    HW228548   0.344   0.012   5.941  0.3572  1.5239  0.3324
 5696SOL     OW28549   1.915   3.272   0.436 -0.7945  0.7351 -0.1617
 5696SOL    HW128550   1.854   3.339   0.467  0.6763  1.0787  1.9401
 5696SOL    HW228551   1.951   3.309   0.356  0.0380  0.7295  0.2107
 5697SOL     OW28552   4.461   0.487   6.743 -0.6554 -0.2614 -0.3756
 5697SOL    HW128553   4.436   0.462   6.832 -3.3644  0.9817 -0.8051
 5697SOL    HW228554   4.406   0.564   6.728  1.1847  1.6647  2.5408
 5698SOL     OW28555   1.094   3.471  13.181  0.0267  0.6467  0.2568
 5698SOL    HW128556   1.133   3.454  13.095 -1.0765 -1.6117  0.2094
 5698SOL    HW228557   1.110   3.390  13.228  3.4666  0.3898 -1.3589
 5699SOL     OW28558   1.045   2.998   9.072  0.8185 -0.2125 -0.5091
 5699SOL    HW128559   1.019   3.006   9.163 -0.5891  2.6368 -1.1641
 5699SOL    HW228560   0.960   3.027   9.038  1.3510 -1.1009 -2.6424
 5700SOL     OW28561   0.276   1.823   0.306 -0.2715 -0.0296  0.0362
 5700SOL    HW128562   0.195   1.821   0.255 -0.0208  1.4879 -0.4285
 5700SOL    HW228563   0.344   1.842   0.241 -0.7075 -3.8555 -1.5366
 5701SOL     OW28564   4.620   2.462   7.638 -0.1527 -0.2048  0.1910
 5701SOL    HW128565   4.593   2.472   7.729 -0.7780 -2.4498  0.2560
 5701SOL    HW228566   4.696   2.404   7.644  0.3674  0.3948 -0.5117
 5702SOL     OW28567   3.340   2.330   9.233 -0.0247 -0.2231 -0.3829
 5702SOL    HW128568   3.407   2.392   9.261  0.2349 -0.4025 -0.6066
 5702SOL    HW228569   3.291   2.396   9.183 -0.7339 -0.4104  0.0615
 5703SOL     OW28570   1.508   4.581  15.428  0.0105  0.0181 -0.0974
 5703SOL    HW128571   1.433   4.620  15.382 -0.5518  1.2558  1.8399
 5703SOL    HW228572   1.536   4.647  15.491  2.6566 -0.8174 -0.4016
 5704SOL     OW28573   4.265   3.322  11.587 -0.5059  0.7581 -0.0055
 5704SOL    HW128574   4.327   3.277  11.530 -1.6802 -0.1637 -0.5409
 5704SOL    HW228575   4.273   3.412  11.555 -2.8882  0.5200 -1.2626
 5705SOL     OW28576   1.074   3.507   0.039 -0.0158 -0.2169 -0.3329
 5705SOL    HW128577   1.123   3.428   0.063  1.3113  0.0253 -2.2417
 5705SOL    HW228578   1.117   3.571   0.096 -0.3366  0.5251 -0.9286
 5706SOL     OW28579   1.241   1.539  15.592  0.3394 -0.2020  0.0326
 5706SOL    HW128580   1.269   1.502  15.676  1.0513 -0.5968 -0.3819
 5706SOL    HW228581   1.311   1.500  15.539 -0.6428 -0.9965 -0.6559
 5707SOL     OW28582   1.344   4.382  11.955 -0.3062  0.0213 -0.0551
 5707SOL    HW128583   1.351   4.357  12.047 -0.9444  0.6403  0.1591
 5707SOL    HW228584   1.297   4.306  11.919  1.3696 -1.1942  0.3483
 5708SOL     OW28585   3.555   0.820   7.581  0.3168 -0.4466  0.3581
 5708SOL    HW128586   3.614   0.814   7.507  1.6961  0.0080  1.4253
 5708SOL    HW228587   3.517   0.906   7.564  1.0886 -0.2107 -0.1411
 5709SOL     OW28588   3.875   3.398  10.866 -0.5883  0.0853 -0.1102
 5709SOL    HW128589   3.966   3.400  10.835 -0.9455 -1.6354 -1.2837
 5709SOL    HW228590   3.817   3.392  10.790 -2.3928 -0.0745  1.2861
 5710SOL     OW28591   1.839   1.603  10.291  0.2758 -0.5235  0.1564
 5710SOL    HW128592   1.894   1.670  10.332 -2.7347  1.0469  1.7357
 5710SOL    HW228593   1.842   1.546  10.368 -2.2605 -1.1587 -0.1970
 5711SOL     OW28594   3.762   0.616  12.430  0.2805 -0.7031  0.1313
 5711SOL    HW128595   3.818   0.675  12.380  0.7380  0.4634  1.9943
 5711SOL    HW228596   3.749   0.664  12.512  1.8060 -0.2773  0.1146
 5712SOL     OW28597   4.583   2.716   3.405  0.9725 -0.3246  0.1500
 5712SOL    HW128598   4.505   2.747   3.358  1.3301  1.1663  0.5471
 5712SOL    HW228599   4.644   2.742   3.336  0.6315  1.8888  0.6563
 5713SOL     OW28600   4.664   3.095   1.475  0.6724  0.8836 -0.3451
 5713SOL    HW128601   4.576   3.089   1.439  0.2496 -1.1451  1.0225
 5713SOL    HW228602   4.649   3.181   1.514  0.7112  1.2743 -1.2075
 5714SOL     OW28603   1.512   4.022   2.740  0.1502 -0.1610 -0.2621
 5714SOL    HW128604   1.467   4.057   2.663  1.6178 -0.2075 -1.1490
 5714SOL    HW228605   1.533   3.938   2.699  1.3144  0.3598 -0.7468
 5715SOL     OW28606   1.488   0.181   9.199 -0.3538 -0.2405 -0.4566
 5715SOL    HW128607   1.436   0.256   9.170 -0.4043  0.3751  1.2324
 5715SOL    HW228608   1.441   0.111   9.154 -1.8126 -0.1059  0.8790
 5716SOL     OW28609   4.382   4.436   8.415 -0.3029  0.1244 -0.1411
 5716SOL    HW128610   4.390   4.520   8.369  2.5135 -0.6041 -0.9620
 5716SOL    HW228611   4.292   4.412   8.392 -1.0039  3.7613 -1.2156
 5717SOL     OW28612   0.238   1.524   3.035 -0.5269 -0.2265 -0.5975
 5717SOL    HW128613   0.212   1.547   2.946 -0.2138  0.8021 -0.4316
 5717SOL    HW228614   0.320   1.476   3.021  1.0090  1.9076  1.0438
 5718SOL     OW28615   1.202   4.193   0.959 -0.6526 -0.4548  0.0933
 5718SOL    HW128616   1.136   4.180   0.891  0.5343  2.8687 -1.7109
 5718SOL    HW228617   1.276   4.145   0.921 -0.6162 -0.2757 -0.0648
 5719SOL     OW28618   2.749   4.193   6.108  0.0907  0.1890 -0.1903
 5719SOL    HW128619   2.691   4.268   6.093  1.4214  1.4399  0.8995
 5719SOL    HW228620   2.770   4.205   6.200 -0.8505  0.5750 -0.0219
 5720SOL     OW28621   0.585   3.645   0.657 -0.3645  0.4656 -0.0284
 5720SOL    HW128622   0.575   3.734   0.689  0.5857  0.5016  0.1773
 5720SOL    HW228623   0.570   3.599   0.739 -0.8601 -0.8482 -0.8552
 5721SOL     OW28624   1.756   2.122   8.841  0.0049 -0.1795  0.2046
 5721SOL    HW128625   1.836   2.152   8.882  0.3463  2.6218 -2.5288
 5721SOL    HW228626   1.686   2.143   8.903 -1.2247 -0.6945 -0.9793
 5722SOL     OW28627   0.382   2.205   5.231  0.4134 -0.2261  0.1648
 5722SOL    HW128628   0.463   2.246   5.260 -0.2714  0.4159  1.1868
 5722SOL    HW228629   0.376   2.242   5.143  0.0106  3.4073  1.7028
 5723SOL     OW28630   0.682   1.438  13.183 -0.3256  0.3901  0.1534
 5723SOL    HW128631   0.688   1.527  13.149  1.1794  0.3599  0.3178
 5723SOL    HW228632   0.659   1.443  13.276 -0.5509 -0.7536  0.1638
 5724SOL     OW28633   2.806   1.068   3.951 -0.0382  0.2247 -0.3064
 5724SOL    HW128634   2.788   1.009   4.025  2.6136  0.0581  0.1977
 5724SOL    HW228635   2.783   1.155   3.984 -2.3162 -0.6647  0.4798
 5725SOL     OW28636   1.609   2.162   6.442  0.6953  0.6285 -0.8061
 5725SOL    HW128637   1.534   2.193   6.491 -0.7653 -0.4928 -2.3313
 5725SOL    HW228638   1.665   2.240   6.443 -0.1172  1.1482  3.2304
 5726SOL     OW28639   2.404   1.288   1.545  0.5746  0.0184  0.3271
 5726SOL    HW128640   2.483   1.235   1.538  1.2419  1.2160 -1.0587
 5726SOL    HW228641   2.345   1.220   1.579 -0.5610  0.2022 -1.2569
 5727SOL     OW28642   3.677   3.262   3.797  0.4250  0.0396 -0.2331
 5727SOL    HW128643   3.672   3.320   3.873  1.9176 -1.8160  1.2477
 5727SOL    HW228644   3.765   3.228   3.811  0.8119  0.5091 -1.5122
 5728SOL     OW28645   3.343   2.108   4.354  0.0101 -0.6495 -0.3835
 5728SOL    HW128646   3.428   2.153   4.348  0.1652 -0.6600  1.7731
 5728SOL    HW228647   3.365   2.017   4.331  2.1932 -0.5104  1.1423
 5729SOL     OW28648   2.593   0.095   1.495 -0.3451  0.3181 -0.3198
 5729SOL    HW128649   2.656   0.094   1.423  0.4204  2.3720  0.3430
 5729SOL    HW228650   2.641   0.066   1.572 -1.8815 -0.9816  0.1480
 5730SOL     OW28651   4.289   3.981   3.395  0.2561  0.2237  0.3335
 5730SOL    HW128652   4.371   4.029   3.400  1.2362 -1.4026 -0.1419
 5730SOL    HW228653   4.234   4.025   3.330 -1.4350  0.8431  2.1824
 5731SOL     OW28654   3.167   1.107  10.075  0.1177  0.3730  0.5408
 5731SOL    HW128655   3.214   1.084  10.155 -1.9097  0.7467  1.8244
 5731SOL    HW228656   3.118   1.026  10.060  1.8224 -0.7862  1.1730
 5732SOL     OW28657   0.657   4.281   6.644 -0.5039  0.8701 -0.0151
 5732SOL    HW128658   0.613   4.296   6.561  1.1783 -0.9421 -1.2258
 5732SOL    HW228659   0.689   4.369   6.662 -0.3273  0.8493 -0.2355
 5733SOL     OW28660   3.364   0.447  15.268  0.0594  0.8450 -0.3473
 5733SOL    HW128661   3.381   0.354  15.253  1.7895  1.0884  0.0993
 5733SOL    HW228662   3.270   0.441  15.284  0.3922  0.4631  1.4227
 5734SOL     OW28663   4.230   4.478  15.209 -0.2797 -0.3037  0.1320
 5734SOL    HW128664   4.191   4.546  15.155 -0.3499 -0.6501 -0.2513
 5734SOL    HW228665   4.168   4.406  15.196 -0.7519  0.3695 -1.3462
 5735SOL     OW28666   3.405   4.723   8.141  0.4679  0.2472 -0.4332
 5735SOL    HW128667   3.417   0.059   8.215 -1.9234  0.2359 -0.0422
 5735SOL    HW228668   3.481   4.664   8.152  0.7530  0.7162  0.0984
 5736SOL     OW28669   0.158   3.561   6.524  0.1704  1.3372 -0.2467
 5736SOL    HW128670   0.198   3.602   6.447  0.1337 -0.6836 -1.3473
 5736SOL    HW228671   0.209   3.480   6.517 -0.0309  1.2253 -0.4402
 5737SOL     OW28672   0.502   4.479   9.306  0.1338  0.2501  0.1552
 5737SOL    HW128673   0.549   4.561   9.295 -1.8205  1.2053 -1.1769
 5737SOL    HW228674   0.423   4.501   9.356 -0.3764  1.7575 -1.3316
 5738SOL     OW28675   4.665   1.776   4.498  0.3660  0.0058  0.2131
 5738SOL    HW128676   4.650   1.747   4.588 -0.4552 -1.0766 -0.2734
 5738SOL    HW228677   4.588   1.744   4.451  1.3379 -1.5673 -0.3007
 5739SOL     OW28678   3.327   2.610   8.525 -0.0714  0.3964  0.2781
 5739SOL    HW128679   3.344   2.665   8.449  0.0116 -3.2085 -2.3200
 5739SOL    HW228680   3.325   2.526   8.480  1.3890  0.1583  0.6514
 5740SOL     OW28681   2.955   2.122  11.389  0.3300  0.0412  0.2303
 5740SOL    HW128682   2.982   2.053  11.329 -0.2368  0.1627 -0.1674
 5740SOL    HW228683   2.936   2.190  11.323 -3.5756  0.8054  2.1657
 5741SOL     OW28684   2.289   3.767   0.768 -0.0952 -0.1691  0.1086
 5741SOL    HW128685   2.335   3.692   0.805  2.8694  1.8731  0.5098
 5741SOL    HW228686   2.309   3.838   0.829 -0.5757  1.8673 -2.1113
 5742SOL     OW28687   3.804   2.364   4.091 -0.1128  0.5373  0.5393
 5742SOL    HW128688   3.746   2.439   4.104  0.1748  0.4551  2.3103
 5742SOL    HW228689   3.811   2.342   4.184  0.3949 -2.0631 -0.1218
 5743SOL     OW28690   1.675   0.777  12.477 -0.0765  0.2213  0.6537
 5743SOL    HW128691   1.649   0.846  12.416 -0.3788  1.6349  2.3726
 5743SOL    HW228692   1.605   0.713  12.467  0.1116 -0.0386  1.0025
 5744SOL     OW28693   1.671   2.922  17.031  0.6128  0.1875  0.3448
 5744SOL    HW128694   1.628   3.007  17.018 -1.7090 -0.7287  2.0119
 5744SOL    HW228695   1.596   2.862  17.034  0.1973  0.7216  0.6726
 5745SOL     OW28696   4.268   0.565   8.932  0.6965  0.0840 -0.2283
 5745SOL    HW128697   4.187   0.567   8.983  0.7872 -1.4810 -0.0372
 5745SOL    HW228698   4.265   0.655   8.899 -0.1031  0.1952  0.1377
 5746SOL     OW28699   1.357   4.526   9.577 -0.3279  0.0745  0.1425
 5746SOL    HW128700   1.400   4.443   9.552 -1.2796 -0.8432  1.5508
 5746SOL    HW228701   1.395   4.580   9.507  1.0747  0.4592  1.1963
 5747SOL     OW28702   0.919   2.078   8.775  0.0331 -0.2849  0.0390
 5747SOL    HW128703   0.963   2.110   8.854 -0.0053 -0.3440  0.0840
 5747SOL    HW228704   0.976   2.116   8.708  1.3562  0.5982  1.6653
 5748SOL     OW28705   0.253   3.704   1.146 -0.7254 -0.2624 -0.1351
 5748SOL    HW128706   0.278   3.613   1.163 -1.3168 -0.9003 -2.6993
 5748SOL    HW228707   0.321   3.762   1.179 -1.3807  0.9958 -1.0205
 5749SOL     OW28708   2.098   3.755   9.954  0.4388 -0.4234  0.0443
 5749SOL    HW128709   2.052   3.835   9.929  1.6371 -0.4081 -2.1430
 5749SOL    HW228710   2.179   3.771   9.905  0.3129 -2.1600 -0.7377
 5750SOL     OW28711   3.165   4.003  11.495  0.6262  0.0715  0.2821
 5750SOL    HW128712   3.160   3.911  11.519  1.1719  0.1102  0.5282
 5750SOL    HW228713   3.246   4.005  11.445  0.6847 -0.2936  0.3608
 5751SOL     OW28714   2.544   3.759   8.038  0.5810 -0.1320  0.2430
 5751SOL    HW128715   2.517   3.795   7.954 -1.4751  0.9192  1.3619
 5751SOL    HW228716   2.638   3.750   8.023  0.1738 -2.0076 -1.0695
 5752SOL     OW28717   2.199   3.041   7.306 -0.2877 -0.0076  0.0561
 5752SOL    HW128718   2.127   2.979   7.317  0.7650 -1.1237  0.6047
 5752SOL    HW228719   2.143   3.118   7.291 -1.6149 -0.8305  0.7358
 5753SOL     OW28720   4.679   2.250   5.610 -0.1316 -0.1662  0.1401
 5753SOL    HW128721   4.596   2.228   5.568  1.4899 -3.0010 -1.6059
 5753SOL    HW228722   0.005   2.264   5.529  2.9484 -0.0062  2.0332
 5754SOL     OW28723   2.434   1.136   0.660  0.5872 -0.3546  0.1271
 5754SOL    HW128724   2.508   1.075   0.656 -0.0188 -1.1023  0.3913
 5754SOL    HW228725   2.487   1.216   0.655 -2.5921  1.9257  2.8708
 5755SOL     OW28726   1.545   2.067   6.777  0.0276 -0.1100 -0.0818
 5755SOL    HW128727   1.611   2.020   6.726 -0.2813 -0.4582 -0.1567
 5755SOL    HW228728   1.474   2.003   6.785  3.0323 -3.1110  2.5691
 5756SOL     OW28729   4.005   3.957   0.402 -0.4992 -0.2913  0.3039
 5756SOL    HW128730   4.009   3.967   0.497 -3.0027  1.0223  0.2781
 5756SOL    HW228731   4.036   4.044   0.378 -0.1822  0.1193  2.2046
 5757SOL     OW28732   3.025   3.720   2.363 -0.5049 -0.3574  0.7206
 5757SOL    HW128733   3.057   3.789   2.421 -0.7452  0.1407  0.2561
 5757SOL    HW228734   3.030   3.760   2.276  0.7467  1.4915  1.6285
 5758SOL     OW28735   1.567   4.298   2.165  0.1610  0.1035  0.4714
 5758SOL    HW128736   1.507   4.324   2.095 -1.1338  0.3659  1.6813
 5758SOL    HW228737   1.638   4.279   2.104 -0.7234 -0.2386 -0.4589
 5759SOL     OW28738   0.351   4.280   4.401  0.2525 -0.3414  1.0694
 5759SOL    HW128739   0.412   4.215   4.438 -3.6194 -2.2312  4.1883
 5759SOL    HW228740   0.300   4.226   4.341 -0.0127 -0.2583  1.2248
 5760SOL     OW28741   2.642   1.333   7.068  0.2279  0.0407 -0.4923
 5760SOL    HW128742   2.674   1.306   6.982 -0.8238  0.4539 -1.0077
 5760SOL    HW228743   2.610   1.248   7.099  0.7598  0.1644  0.3970
 5761SOL     OW28744   4.162   1.214  10.837 -0.2764  0.1719 -0.1462
 5761SOL    HW128745   4.252   1.221  10.870  0.1364 -1.1973 -1.0281
 5761SOL    HW228746   4.126   1.266  10.909 -0.1836  1.5370 -1.0709
 5762SOL     OW28747   0.299   0.639   5.625 -0.4884 -0.0123 -0.1146
 5762SOL    HW128748   0.220   0.647   5.679 -0.1263  1.7732  0.1607
 5762SOL    HW228749   0.263   0.574   5.566 -1.3304  1.5394 -1.3177
 5763SOL     OW28750   1.273   4.660   6.156  0.1717  0.9539 -0.0736
 5763SOL    HW128751   1.213   4.610   6.100 -0.4918  0.4202  1.1048
 5763SOL    HW228752   1.218   4.652   6.234  1.3329 -0.4965  0.5917
 5764SOL     OW28753   1.825   2.859  16.042  0.5713 -0.5059  0.7668
 5764SOL    HW128754   1.916   2.888  16.036 -0.0558  1.5123  1.2820
 5764SOL    HW228755   1.836   2.787  16.104 -2.3786  1.0647  3.0975
 5765SOL     OW28756   2.180   4.440  14.689 -0.5263 -0.3693 -0.4146
 5765SOL    HW128757   2.177   4.345  14.681  1.7037 -0.2680 -2.6152
 5765SOL    HW228758   2.181   4.456  14.594  0.2022 -0.9349 -0.5040
 5766SOL     OW28759   3.139   1.965   1.999 -0.0139  0.1449 -0.1012
 5766SOL    HW128760   3.085   1.997   2.072  1.5770 -0.0881  1.2007
 5766SOL    HW228761   3.118   1.872   2.003 -2.0167  0.6660  1.5572
 5767SOL     OW28762   1.468   2.859   5.020  0.2840  0.1406  0.1000
 5767SOL    HW128763   1.552   2.827   5.054  0.7980  0.3268 -0.9897
 5767SOL    HW228764   1.494   2.896   4.935  2.8454  0.9884  1.2588
 5768SOL     OW28765   1.439   1.813   8.691  0.2096  0.3693  0.3924
 5768SOL    HW128766   1.383   1.860   8.629  0.7943 -0.6299 -0.8803
 5768SOL    HW228767   1.419   1.857   8.774 -0.5611  3.0158 -1.1734
 5769SOL     OW28768   1.128   2.087   9.575  0.0571 -0.3250  1.0229
 5769SOL    HW128769   1.054   2.097   9.515  0.2866  2.0481  1.1678
 5769SOL    HW228770   1.193   2.042   9.521  0.8200  0.2004  1.5166
 5770SOL     OW28771   2.838   2.494  14.684 -0.1110 -0.5901  0.5124
 5770SOL    HW128772   2.779   2.485  14.609 -0.5749  0.7934  0.7180
 5770SOL    HW228773   2.910   2.444  14.646  0.2716  1.7574 -1.8608
 5771SOL     OW28774   2.202   4.231   6.586  0.3756 -0.1125  0.1173
 5771SOL    HW128775   2.250   4.306   6.552  0.0693  1.3077  2.8373
 5771SOL    HW228776   2.204   4.254   6.678  0.6107 -0.0942  0.1056
 5772SOL     OW28777   4.665   2.660  16.099  0.1719  0.5337  1.0394
 5772SOL    HW128778   0.029   2.626  16.080 -0.0083  0.6106  0.0936
 5772SOL    HW228779   4.672   2.672  16.194  2.6566  2.4737  0.5832
 5773SOL     OW28780   2.269   4.461  13.896 -0.2344 -0.6676 -0.0936
 5773SOL    HW128781   2.360   4.491  13.894 -0.7629  0.8043 -1.8867
 5773SOL    HW228782   2.271   4.401  13.971  0.7905  0.4578  0.7679
 5774SOL     OW28783   4.176   0.715  14.107  0.3931  0.2374 -0.4039
 5774SOL    HW128784   4.239   0.788  14.108 -0.9067  1.3690 -1.1614
 5774SOL    HW228785   4.225   0.652  14.160 -0.9274  0.2992  0.8855
 5775SOL     OW28786   2.403   2.617   8.418  0.2624 -0.0543  0.1260
 5775SOL    HW128787   2.476   2.637   8.477 -1.5850  2.6826  1.4399
 5775SOL    HW228788   2.335   2.622   8.484 -1.3901 -0.0308 -1.5938
 5776SOL     OW28789   0.389   4.341   2.412  0.4304 -0.3198 -0.6673
 5776SOL    HW128790   0.386   4.246   2.423 -0.5075 -0.4705 -2.2580
 5776SOL    HW228791   0.454   4.374   2.474  0.5165 -1.1369 -0.3263
 5777SOL     OW28792   1.584   1.101   6.871 -0.1852 -0.1824 -0.2598
 5777SOL    HW128793   1.507   1.118   6.925 -0.7431 -1.3404 -0.6978
 5777SOL    HW228794   1.569   1.028   6.811  1.6820  0.2446 -1.2655
 5778SOL     OW28795   3.197   1.422  17.523 -0.6177  0.4819  0.2951
 5778SOL    HW128796   3.201   1.371  17.442 -0.9554 -0.7094  1.0382
 5778SOL    HW228797   3.118   1.475  17.513 -1.3336 -0.7268 -0.3814
 5779SOL     OW28798   0.153   0.243   4.180  0.4272 -0.0819 -0.0188
 5779SOL    HW128799   0.206   0.322   4.191  0.8173 -0.7328  2.7488
 5779SOL    HW228800   0.072   0.284   4.209 -0.3784 -1.0059 -0.9801
 5780SOL     OW28801   0.096   0.413   3.437  0.1361 -0.2801 -0.2920
 5780SOL    HW128802   0.162   0.466   3.391  1.8280 -0.7854  1.5519
 5780SOL    HW228803   0.053   0.483   3.486  0.8586 -0.2246  0.2667
 5781SOL     OW28804   0.660   4.381   2.154  0.3072  0.2324  0.3725
 5781SOL    HW128805   0.681   4.304   2.101 -0.8488 -1.4582  2.3450
 5781SOL    HW228806   0.581   4.410   2.108 -0.4206  0.0813  1.5208
 5782SOL     OW28807   1.313   0.399   5.371  0.0752  0.3392 -0.1575
 5782SOL    HW128808   1.338   0.491   5.374  0.1543  0.2912  0.7043
 5782SOL    HW228809   1.389   0.366   5.322  0.1772  0.7859 -0.2959
 5783SOL     OW28810   2.750   2.621   8.669 -0.1572  0.4216 -0.0386
 5783SOL    HW128811   2.731   2.633   8.576 -1.9245  2.7445  0.6331
 5783SOL    HW228812   2.845   2.607   8.661 -0.5317 -2.1174 -0.1338
 5784SOL     OW28813   1.118   1.623   2.284  0.0923  0.5466 -0.3991
 5784SOL    HW128814   1.155   1.593   2.366  0.3133 -0.5258 -0.8944
 5784SOL    HW228815   1.173   1.701   2.271 -1.3609  1.2567 -2.4055
 5785SOL     OW28816   0.063   0.113   7.868  0.2042 -0.1201 -0.2429
 5785SOL    HW128817   4.706   0.121   7.920 -1.1902  1.6064 -2.7151
 5785SOL    HW228818   0.103   0.051   7.930  1.5693  1.6548  0.6378
 5786SOL     OW28819   4.116   3.481   1.994  0.3471 -0.1005  0.2578
 5786SOL    HW128820   4.049   3.457   1.930 -0.0622 -2.4782  1.5812
 5786SOL    HW228821   4.120   3.576   1.982 -1.6280 -0.1268 -0.5795
 5787SOL     OW28822   0.355   0.745   4.732 -0.6439  0.2473 -0.4273
 5787SOL    HW128823   0.303   0.813   4.775 -1.6971 -1.7114  1.3444
 5787SOL    HW228824   0.421   0.799   4.688 -1.8701  0.7910 -1.5768
 5788SOL     OW28825   3.493   4.193   3.425 -0.0237 -0.0631 -0.4511
 5788SOL    HW128826   3.494   4.122   3.360 -0.9890 -2.9347  2.6628
 5788SOL    HW228827   3.548   4.252   3.373 -0.7910  2.1602  1.2807
 5789SOL     OW28828   0.802   4.178   7.266 -0.2758  0.2378  0.1841
 5789SOL    HW128829   0.717   4.163   7.224 -0.1447  0.2397 -0.0820
 5789SOL    HW228830   0.841   4.241   7.204  2.4779 -1.8458 -0.2010
 5790SOL     OW28831   2.873   4.555   6.979  0.0241  0.2369  0.0108
 5790SOL    HW128832   2.804   4.589   7.036 -0.6273 -0.9263 -0.0998
 5790SOL    HW228833   2.886   4.473   7.028  0.3345 -0.0063 -0.4794
 5791SOL     OW28834   4.564   2.318   9.829 -0.7416 -0.2467 -0.3906
 5791SOL    HW128835   4.511   2.377   9.775  3.0539  2.7385 -0.8412
 5791SOL    HW228836   4.500   2.263   9.875 -0.2414 -0.0025  0.5891
 5792SOL     OW28837   0.290   2.730   5.445 -0.5323 -0.3386  0.4543
 5792SOL    HW128838   0.218   2.684   5.488 -0.9077  0.2010  0.4012
 5792SOL    HW228839   0.268   2.818   5.476  0.0224  0.0297 -0.2031
 5793SOL     OW28840   1.755   1.776   8.418 -0.1901 -0.3737 -0.1681
 5793SOL    HW128841   1.838   1.756   8.374 -0.5970  1.7658 -1.9142
 5793SOL    HW228842   1.779   1.789   8.510 -0.9771  0.8172 -0.1263
 5794SOL     OW28843   0.626   2.229   4.257  0.0050 -0.2575  0.3775
 5794SOL    HW128844   0.565   2.175   4.307 -0.7850 -0.0449 -0.3627
 5794SOL    HW228845   0.686   2.262   4.324 -0.8248  1.0547  0.4689
 5795SOL     OW28846   3.490   3.267  12.774 -0.3108  0.6137  0.2093
 5795SOL    HW128847   3.563   3.209  12.753 -0.1335  1.3051 -1.1069
 5795SOL    HW228848   3.498   3.289  12.867 -0.0465 -0.2941  0.4032
 5796SOL     OW28849   3.358   0.750   3.418  0.2481 -0.0713  0.2890
 5796SOL    HW128850   3.393   0.670   3.457 -1.1786 -1.0871 -0.5325
 5796SOL    HW228851   3.341   0.793   3.501 -2.2737 -2.0662  0.7863
 5797SOL     OW28852   0.780   4.040  13.447 -0.2593 -0.3309 -0.3078
 5797SOL    HW128853   0.767   4.120  13.498  2.3760  0.9701 -1.6616
 5797SOL    HW228854   0.870   4.020  13.473 -0.1872 -0.0825 -0.3679
 5798SOL     OW28855   3.015   0.120   6.494  0.3425  0.7878 -0.2190
 5798SOL    HW128856   2.954   0.048   6.512 -1.5130  2.5383  0.5720
 5798SOL    HW228857   3.097   0.089   6.532 -0.1155 -1.2826 -0.9172
 5799SOL     OW28858   4.176   3.814  13.160 -0.1592  0.2345 -0.0701
 5799SOL    HW128859   4.230   3.738  13.182 -0.4808 -0.7474 -2.6499
 5799SOL    HW228860   4.088   3.776  13.166 -0.0767  0.3968  1.9296
 5800SOL     OW28861   2.340   1.970   5.454  0.7457  0.0410 -0.2418
 5800SOL    HW128862   2.403   1.947   5.385  1.3124  0.7447  0.0469
 5800SOL    HW228863   2.324   1.884   5.492 -1.3194 -0.0472 -1.2746
 5801SOL     OW28864   0.948   2.343  13.593 -0.1430 -0.1168  0.5177
 5801SOL    HW128865   1.013   2.318  13.528 -0.2042 -1.2281  0.8745
 5801SOL    HW228866   0.872   2.360  13.537  0.8966 -4.2537 -2.1789
 5802SOL     OW28867   1.283   2.537   4.683  0.1894  0.0330  0.3445
 5802SOL    HW128868   1.266   2.447   4.655  2.5478 -0.5704  0.8567
 5802SOL    HW228869   1.326   2.526   4.768 -0.3264 -0.5233  0.5349
 5803SOL     OW28870   2.125   2.594  11.595 -0.4760 -0.1753  0.5176
 5803SOL    HW128871   2.132   2.652  11.520  0.6330 -2.2304 -0.9758
 5803SOL    HW228872   2.142   2.514  11.544 -0.9051  2.0779 -3.1272
 5804SOL     OW28873   4.185   1.996  15.568 -0.3161 -0.8424  0.0372
 5804SOL    HW128874   4.180   2.074  15.513 -2.4999  0.7962  2.6041
 5804SOL    HW228875   4.266   1.954  15.539 -0.1731  0.6769 -1.7287
 5805SOL     OW28876   4.022   3.499   8.792 -0.4934 -0.3939  0.1877
 5805SOL    HW128877   4.030   3.480   8.885  2.6029 -1.1055 -0.2184
 5805SOL    HW228878   4.081   3.436   8.751  0.2188  0.9690 -0.8912
 5806SOL     OW28879   4.221   2.319   9.266  0.2128  0.0043 -0.0976
 5806SOL    HW128880   4.277   2.277   9.332 -0.3682  0.3417  0.6116
 5806SOL    HW228881   4.234   2.409   9.295 -3.0549 -0.4464  2.8357
 5807SOL     OW28882   1.295   0.356  13.062  0.3295 -0.5776  0.0325
 5807SOL    HW128883   1.340   0.275  13.036  1.0534 -0.8508  2.1586
 5807SOL    HW228884   1.353   0.390  13.130  0.6726  1.0518 -1.0950
 5808SOL     OW28885   4.666   2.581   5.897 -0.1413  0.2970  0.0355
 5808SOL    HW128886   4.627   2.527   5.965  3.3825 -0.6307  1.3453
 5808SOL    HW228887   0.022   2.534   5.870 -1.5403 -1.2132 -1.3152
 5809SOL     OW28888   1.946   0.637   4.224  0.6987  0.1202  0.3196
 5809SOL    HW128889   1.875   0.626   4.287  1.5908  1.1309  1.4975
 5809SOL    HW228890   1.969   0.544   4.217 -2.0733 -0.4057 -2.1701
 5810SOL     OW28891   2.196   3.914  16.091 -0.0869  0.0150  0.3793
 5810SOL    HW128892   2.119   3.889  16.040  0.6002 -0.7738 -0.2695
 5810SOL    HW228893   2.263   3.846  16.087 -1.0996 -0.8407 -2.0119
 5811SOL     OW28894   4.694   2.157   6.406 -0.0297  0.1119 -0.2044
 5811SOL    HW128895   4.721   2.249   6.405  0.9236 -0.1593 -0.2319
 5811SOL    HW228896   4.690   2.140   6.312 -2.9087 -0.0826 -0.0268
 5812SOL     OW28897   3.167   2.157   3.781 -0.3382  0.0455 -0.3419
 5812SOL    HW128898   3.108   2.150   3.856  0.5494  0.1206  0.3504
 5812SOL    HW228899   3.221   2.078   3.787 -1.2510 -0.4784  0.8620
 5813SOL     OW28900   1.783   2.780   4.039 -0.0028  0.8337 -0.1627
 5813SOL    HW128901   1.757   2.816   3.955 -0.9879 -2.0158 -1.0585
 5813SOL    HW228902   1.755   2.846   4.103  2.9011  0.3547  1.5947
 5814SOL     OW28903   2.902   1.388  14.597 -0.5762 -0.6207  0.5628
 5814SOL    HW128904   2.986   1.424  14.624  0.5053 -0.6048 -2.8830
 5814SOL    HW228905   2.930   1.297  14.586 -0.3098 -0.6794  1.7352
 5815SOL     OW28906   2.269   0.385   9.063  0.0285 -0.2281 -0.2437
 5815SOL    HW128907   2.356   0.355   9.089 -1.1423 -0.8114  3.0566
 5815SOL    HW228908   2.207   0.321   9.100  0.9605 -0.8682  0.2190
 5816SOL     OW28909   0.653   0.555   8.485 -0.4617 -1.0595  0.3447
 5816SOL    HW128910   0.677   0.598   8.403  1.6481 -1.0114  0.9874
 5816SOL    HW228911   0.611   0.473   8.457  0.5639 -1.7615  0.8549
 5817SOL     OW28912   4.485   0.737   5.062  0.3006 -0.2570 -0.2455
 5817SOL    HW128913   4.451   0.648   5.072 -3.5412  1.1198 -0.7237
 5817SOL    HW228914   4.408   0.771   5.016 -0.6524 -0.6609  1.0564
 5818SOL     OW28915   3.043   0.095   8.640  0.2545  0.3612 -0.6365
 5818SOL    HW128916   3.075   0.127   8.556 -1.6684 -1.3516 -2.0449
 5818SOL    HW228917   2.990   0.018   8.617 -0.2255  1.1020 -1.9931
 5819SOL     OW28918   4.137   3.818   0.228 -0.0079 -0.3369 -0.0001
 5819SOL    HW128919   4.083   3.851   0.300 -0.9083 -0.1971 -0.7391
 5819SOL    HW228920   4.137   3.890   0.164  0.0128 -1.6886 -1.5046
 5820SOL     OW28921   0.756   0.400   4.048  0.4345 -0.0112 -0.1373
 5820SOL    HW128922   0.756   0.341   4.123  1.3751  0.9420  0.5979
 5820SOL    HW228923   0.663   0.403   4.025  0.7661  1.1053 -1.3695
 5821SOL     OW28924   4.465   0.899   8.160  0.1944  0.2215  0.4686
 5821SOL    HW128925   4.423   0.822   8.199  1.0595 -0.1015  0.7914
 5821SOL    HW228926   4.451   0.971   8.220 -3.1615  0.6700 -0.8892
 5822SOL     OW28927   4.287   3.991   2.218  0.3334 -0.1222 -0.5502
 5822SOL    HW128928   4.382   3.976   2.217  0.8644  3.3750 -1.1517
 5822SOL    HW228929   4.285   4.046   2.296 -2.4171  0.1481 -0.8125
 5823SOL     OW28930   2.477   1.594   1.535  0.0192 -0.5510  0.0911
 5823SOL    HW128931   2.570   1.574   1.525  0.0782 -0.8991  1.3501
 5823SOL    HW228932   2.477   1.690   1.526 -2.5741 -0.7845 -2.6900
 5824SOL     OW28933   3.208   3.186   9.716  0.2225  0.0695  0.5917
 5824SOL    HW128934   3.267   3.138   9.774 -0.1255 -2.7273 -1.3259
 5824SOL    HW228935   3.258   3.256   9.674  0.8101 -0.5689  0.2271
 5825SOL     OW28936   2.726   1.865   7.853 -0.2583 -0.4976 -0.2084
 5825SOL    HW128937   2.647   1.828   7.814 -0.1562  2.0916 -2.8936
 5825SOL    HW228938   2.728   1.939   7.793 -1.5433 -1.1382 -1.0366
 5826SOL     OW28939   1.979   4.328   9.578  0.0015 -0.0027  0.2384
 5826SOL    HW128940   1.906   4.347   9.637  1.4278  0.2730  1.9399
 5826SOL    HW228941   2.055   4.360   9.629 -0.0964 -1.8921  1.5587
 5827SOL     OW28942   1.609   2.967   4.803  0.0493  0.2161  0.0383
 5827SOL    HW128943   1.637   3.046   4.850  2.2321  0.4278 -1.5881
 5827SOL    HW228944   1.689   2.914   4.800 -0.3871 -0.5338  1.8090
 5828SOL     OW28945   1.643   2.783   8.664 -0.1126 -0.1822 -0.0075
 5828SOL    HW128946   1.591   2.754   8.589 -0.2504 -1.3965  0.5506
 5828SOL    HW228947   1.696   2.848   8.619 -0.4289 -1.0815 -1.7087
 5829SOL     OW28948   3.879   4.032  11.576  0.4110  0.6472 -0.1818
 5829SOL    HW128949   3.929   4.030  11.495 -0.1590 -1.1986 -0.4930
 5829SOL    HW228950   3.933   4.088  11.632  1.1791  2.5227 -2.8360
 5830SOL     OW28951   2.617   2.868   1.013 -0.2736 -0.7150 -0.4499
 5830SOL    HW128952   2.623   2.774   0.995  1.2673 -0.4258 -1.4232
 5830SOL    HW228953   2.710   2.892   1.010 -0.6754  0.4849 -2.7360
 5831SOL     OW28954   2.469   1.921   9.135  0.9236  0.8783 -0.5053
 5831SOL    HW128955   2.439   1.989   9.074 -1.3928 -1.2077 -1.6925
 5831SOL    HW228956   2.496   1.980   9.205  0.5189  2.7341 -1.9215
 5832SOL     OW28957   3.642   1.307  17.236 -0.0229  0.6935  0.2796
 5832SOL    HW128958   3.616   1.356  17.158 -1.8591 -1.3187 -0.3726
 5832SOL    HW228959   3.726   1.346  17.261 -0.5171  0.6698  1.9405
 5833SOL     OW28960   3.885   2.871   8.567  0.2477 -0.4908 -0.2874
 5833SOL    HW128961   3.849   2.856   8.655  0.1920 -0.4322 -0.3005
 5833SOL    HW228962   3.866   2.782   8.538 -0.9741  0.3993 -2.1893
 5834SOL     OW28963   2.009   2.526   3.834 -0.0981 -0.5752  0.3014
 5834SOL    HW128964   2.101   2.534   3.811 -0.1526 -0.1534  0.2463
 5834SOL    HW228965   2.022   2.541   3.927 -3.3434  0.3106  0.6089
 5835SOL     OW28966   3.906   2.818   4.139 -0.4571  0.4024  0.5854
 5835SOL    HW128967   3.818   2.828   4.175 -0.1277  2.6077  0.7739
 5835SOL    HW228968   3.931   2.905   4.107 -3.0223  0.8944 -0.0251
 5836SOL     OW28969   1.243   2.994   8.409  0.1783 -0.2825 -0.1179
 5836SOL    HW128970   1.216   3.060   8.473 -0.2753 -1.6017  1.0369
 5836SOL    HW228971   1.337   3.003   8.426 -0.0914  1.2841  0.5570
 5837SOL     OW28972   0.737   4.259   2.447 -0.7356  0.0682  0.4789
 5837SOL    HW128973   0.776   4.342   2.417  1.2910 -0.7835  0.7718
 5837SOL    HW228974   0.700   4.226   2.365  2.4115 -0.5446 -0.6967
 5838SOL     OW28975   2.099   0.180  14.279 -0.2291  0.4854  0.4467
 5838SOL    HW128976   2.157   0.254  14.257  1.5835 -0.1093  3.2860
 5838SOL    HW228977   2.034   0.234  14.324 -1.0714 -0.3206  0.1974
 5839SOL     OW28978   2.541   2.321   2.380 -0.3489 -0.1345  0.0780
 5839SOL    HW128979   2.518   2.387   2.314  1.5564 -0.1128 -0.5457
 5839SOL    HW228980   2.512   2.240   2.337 -0.1363  0.5364 -1.3548
 5840SOL     OW28981   1.094   3.642   6.138  0.1366  0.0923  0.6408
 5840SOL    HW128982   1.036   3.604   6.072  0.6807  0.9521 -0.3205
 5840SOL    HW228983   1.083   3.578   6.209 -0.0180  1.6294  2.0221
 5841SOL     OW28984   0.336   3.110   7.920 -0.2230  0.0916  0.3326
 5841SOL    HW128985   0.404   3.052   7.954 -0.7132 -0.5996  0.1272
 5841SOL    HW228986   0.270   3.131   7.986 -1.3466 -0.6567 -0.5602
 5842SOL     OW28987   2.198   4.341   5.244  0.0396  0.3268  0.2497
 5842SOL    HW128988   2.146   4.324   5.166  1.2225 -0.5121 -0.3551
 5842SOL    HW228989   2.150   4.281   5.301  1.3743 -1.8811 -0.9291
 5843SOL     OW28990   1.674   0.769   6.321  1.1220 -0.1580  0.3166
 5843SOL    HW128991   1.757   0.723   6.311  1.2040 -0.7028  3.3152
 5843SOL    HW228992   1.667   0.778   6.416  1.2531 -0.6592  0.3739
 5844SOL     OW28993   1.485   3.351   4.195  0.3817  0.0068 -0.4310
 5844SOL    HW128994   1.442   3.390   4.271  0.4687 -0.5601 -0.0944
 5844SOL    HW228995   1.410   3.303   4.158  0.5194 -1.7080  1.5311
 5845SOL     OW28996   1.048   0.080   5.901  0.0804 -0.3608 -0.3913
 5845SOL    HW128997   1.020   4.718   5.936  0.0401 -0.4096 -0.5424
 5845SOL    HW228998   1.142   0.080   5.917  0.1390 -2.3962 -0.7760
 5846SOL     OW28999   1.822   0.841   8.181 -0.2187  0.4728 -0.6485
 5846SOL    HW129000   1.872   0.904   8.233  0.1751 -1.4860  1.3126
 5846SOL    HW229001   1.863   0.857   8.095  3.3811  1.5564  1.2486
 5847SOL     OW29002   4.309   1.525   5.856  0.5825  0.1086  0.1587
 5847SOL    HW129003   4.309   1.619   5.838 -0.3343 -0.1574 -1.1692
 5847SOL    HW229004   4.220   1.510   5.825  0.4378  0.1205  0.5653
 5848SOL     OW29005   2.135   0.186   3.030 -0.0165  0.2445 -0.3151
 5848SOL    HW129006   2.055   0.237   3.043  0.1614 -0.2846  2.7135
 5848SOL    HW229007   2.178   0.249   2.972  1.3647 -0.0081  0.4263
 5849SOL     OW29008   1.855   1.572   4.500 -0.4042 -0.5013 -0.1885
 5849SOL    HW129009   1.882   1.481   4.509  0.6233 -0.0240  1.6541
 5849SOL    HW229010   1.804   1.568   4.580  0.3169  1.4518  0.3705
 5850SOL     OW29011   4.334   4.081   0.891 -0.4630  0.4348 -0.0354
 5850SOL    HW129012   4.246   4.054   0.915 -0.5163  0.1014 -0.5882
 5850SOL    HW229013   4.364   3.992   0.872 -3.3331  0.1768 -3.4120
 5851SOL     OW29014   0.585   0.918  12.450  0.0025  0.0046 -0.3711
 5851SOL    HW129015   0.657   0.855  12.454  0.0869 -0.0371 -2.3821
 5851SOL    HW229016   0.629   0.990  12.404 -0.9101  1.1556  0.5686
 5852SOL     OW29017   4.520   1.623   4.094 -0.2244  0.5679 -0.0302
 5852SOL    HW129018   4.541   1.636   4.001  1.8567  2.2356  0.6837
 5852SOL    HW229019   4.544   1.531   4.107 -2.4224 -0.0831 -0.4923
 5853SOL     OW29020   0.127   2.166  14.460 -0.2118  0.5612 -0.1979
 5853SOL    HW129021   0.108   2.251  14.421 -0.9513  0.7440  0.5695
 5853SOL    HW229022   0.046   2.163  14.510  1.0596  0.2338  1.8711
 5854SOL     OW29023   3.416   2.563   6.436 -0.4938 -0.3404  0.2049
 5854SOL    HW129024   3.482   2.518   6.384  0.5482  0.0946  1.1699
 5854SOL    HW229025   3.460   2.563   6.520 -2.4850 -2.5225  1.2318
 5855SOL     OW29026   4.199   0.351   7.972  0.4703  0.4497 -0.3990
 5855SOL    HW129027   4.188   0.258   7.951  2.2204  0.3484 -0.9103
 5855SOL    HW229028   4.266   0.343   8.040 -0.0246  0.8372  0.1246
 5856SOL     OW29029   3.290   2.283   7.387 -0.0255 -0.1263 -0.3982
 5856SOL    HW129030   3.335   2.357   7.428  0.5877  1.1925 -3.3747
 5856SOL    HW229031   3.289   2.316   7.297  1.5274  1.6876  0.2530
 5857SOL     OW29032   0.765   1.048   1.893 -0.2493 -0.4980  0.0572
 5857SOL    HW129033   0.683   1.027   1.937 -0.8868 -2.2664 -1.9664
 5857SOL    HW229034   0.832   1.022   1.956 -0.5000 -1.4788 -0.0817
 5858SOL     OW29035   1.589   2.373  12.505 -0.0642 -0.3019 -0.0518
 5858SOL    HW129036   1.621   2.284  12.520  2.0549  0.8531  2.2419
 5858SOL    HW229037   1.561   2.365  12.414 -0.0939 -0.4123 -0.0325
 5859SOL     OW29038   3.127   2.125   9.301  0.8115  0.0778 -0.3808
 5859SOL    HW129039   3.102   2.195   9.362 -0.1712 -0.5565 -0.0623
 5859SOL    HW229040   3.206   2.173   9.275  2.6707 -2.2586  0.9008
 5860SOL     OW29041   3.620   2.582   4.149  0.0418 -0.4544 -0.2504
 5860SOL    HW129042   3.631   2.677   4.141  2.6048 -0.8288 -1.1974
 5860SOL    HW229043   3.525   2.586   4.143 -0.1560 -2.2658  2.0191
 5861SOL     OW29044   3.448   4.006  12.861 -0.2212  0.3031  0.5619
 5861SOL    HW129045   3.460   4.076  12.797  2.2143  1.2879  2.0754
 5861SOL    HW229046   3.357   3.986  12.841  0.4433 -1.7491 -0.3558
 5862SOL     OW29047   4.697   3.799   6.937  0.2149  0.1387 -0.1513
 5862SOL    HW129048   0.034   3.743   6.888 -2.2456 -1.2807 -1.5218
 5862SOL    HW229049   0.004   3.778   7.025 -0.2234  2.3775  0.5181
 5863SOL     OW29050   1.449   3.956  17.044 -0.0722  0.4266  0.0596
 5863SOL    HW129051   1.421   4.006  16.967 -1.7976  1.0183  1.0620
 5863SOL    HW229052   1.446   3.865  17.013 -0.8865  0.6213 -0.4587
 5864SOL     OW29053   3.270   0.438   5.044 -0.0786  0.1919  0.1363
 5864SOL    HW129054   3.196   0.490   5.016 -1.0869 -0.9246  0.7063
 5864SOL    HW229055   3.242   0.354   5.008 -0.6941  0.4669 -0.0215
 5865SOL     OW29056   0.832   0.348   4.770 -1.1298  0.2366 -0.6930
 5865SOL    HW129057   0.842   0.340   4.865 -0.7933 -1.4876 -0.8631
 5865SOL    HW229058   0.920   0.327   4.740 -0.8039  1.2858 -0.4482
 5866SOL     OW29059   4.665   0.376   0.920  0.2238 -0.0382  0.4764
 5866SOL    HW129060   4.699   0.443   0.861 -1.3428  1.9694  1.8396
 5866SOL    HW229061   4.658   0.298   0.865  1.0688  1.5758 -1.8723
 5867SOL     OW29062   1.845   3.418   9.426  0.0427 -0.5226  0.4233
 5867SOL    HW129063   1.903   3.471   9.371 -1.1666  1.3392  0.9479
 5867SOL    HW229064   1.854   3.340   9.371  1.7102  0.1079 -0.2085
 5868SOL     OW29065   2.009   4.051   7.050 -0.2303 -0.1418  0.4199
 5868SOL    HW129066   2.027   3.978   7.109 -2.7328 -1.3423 -0.2769
 5868SOL    HW229067   2.096   4.083   7.029 -0.8277  1.7004  0.7214
 5869SOL     OW29068   3.128   3.880   7.411 -0.1721 -0.0591  0.2064
 5869SOL    HW129069   3.038   3.867   7.442  0.9294 -1.6752  2.7076
 5869SOL    HW229070   3.120   3.829   7.331 -0.0315 -1.5105  1.1283
 5870SOL     OW29071   2.705   3.937  13.862  0.4421  0.4332  0.0119
 5870SOL    HW129072   2.760   3.901  13.792 -0.6579 -1.1556 -0.0441
 5870SOL    HW229073   2.777   3.948  13.924  0.7716  0.4136 -0.3642
 5871SOL     OW29074   1.374   3.298   8.893 -0.3405 -0.2397  0.2821
 5871SOL    HW129075   1.286   3.286   8.857 -0.7945 -3.2025  2.3499
 5871SOL    HW229076   1.404   3.210   8.917  0.8053 -0.0323 -0.3897
 5872SOL     OW29077   2.304   3.307   6.860 -0.4682  0.0377  0.5700
 5872SOL    HW129078   2.378   3.292   6.800 -2.4920 -2.8059 -1.1859
 5872SOL    HW229079   2.340   3.279   6.944  0.7142 -0.1386  0.0035
 5873SOL     OW29080   4.027   0.580   7.576  0.0811 -0.3576 -0.6901
 5873SOL    HW129081   4.041   0.639   7.503 -3.3670  3.7380  1.9126
 5873SOL    HW229082   4.104   0.525   7.590 -0.7470 -1.1948  0.6385
 5874SOL     OW29083   2.009   4.683   8.690  0.0089 -0.0650  0.3912
 5874SOL    HW129084   1.974   0.011   8.617 -0.6686  1.8867  2.0466
 5874SOL    HW229085   1.976   0.007   8.767 -3.0455  1.1566 -1.6697
 5875SOL     OW29086   1.493   4.672   9.396 -0.2572 -0.8184  0.0333
 5875SOL    HW129087   1.584   4.700   9.382 -0.7221  0.2107 -0.9138
 5875SOL    HW229088   1.464   4.632   9.314 -0.6609 -0.9029  0.2173
 5876SOL     OW29089   1.270   2.032   5.596  0.1902 -0.2619  0.1713
 5876SOL    HW129090   1.348   2.078   5.627  0.6587 -0.4009 -0.7968
 5876SOL    HW229091   1.216   2.021   5.674  1.7759 -1.8838  1.0281
 5877SOL     OW29092   0.030   1.518   5.069 -0.0095  0.2865 -0.2904
 5877SOL    HW129093   0.080   1.510   5.150  0.4700 -0.1788 -0.6357
 5877SOL    HW229094   0.065   1.597   5.027 -0.3206  0.7824  0.3782
 5878SOL     OW29095   0.182   2.589   6.114 -0.2524 -0.2519  0.0961
 5878SOL    HW129096   0.125   2.664   6.128 -1.6840 -1.6374  1.7388
 5878SOL    HW229097   0.224   2.616   6.033  0.1109 -1.2542 -0.0517
 5879SOL     OW29098   2.683   1.889   8.420 -0.0635  0.0268  0.2366
 5879SOL    HW129099   2.715   1.947   8.352  2.5091  0.8689  2.1885
 5879SOL    HW229100   2.747   1.818   8.413 -0.6321 -0.3636 -1.0103
 5880SOL     OW29101   0.770   3.126   7.014  0.2987 -0.4887  0.0465
 5880SOL    HW129102   0.717   3.110   7.092 -2.9314 -0.1539 -2.0550
 5880SOL    HW229103   0.762   3.222   7.012  1.5719 -0.3570  1.3975
 5881SOL     OW29104   0.572   3.057   2.743 -0.2162  0.2209 -0.7228
 5881SOL    HW129105   0.500   3.037   2.802 -0.2709 -0.2297 -0.9453
 5881SOL    HW229106   0.602   2.968   2.726  0.8247  0.4923 -0.2929
 5882SOL     OW29107   1.474   3.375   7.334  0.6075 -0.2063 -0.1204
 5882SOL    HW129108   1.507   3.285   7.340  0.1414 -0.3779 -0.1155
 5882SOL    HW229109   1.418   3.374   7.256  0.8173 -1.7308 -0.2500
 5883SOL     OW29110   3.920   3.822   6.403 -0.1623  0.1095  0.0364
 5883SOL    HW129111   3.896   3.792   6.491 -0.5410  0.4621  0.0557
 5883SOL    HW229112   4.011   3.793   6.393 -0.4522 -0.9042  0.3597
 5884SOL     OW29113   4.647   0.413   6.336 -0.6628  0.1103 -0.5319
 5884SOL    HW129114   4.663   0.460   6.418  2.5908  0.1777 -1.1845
 5884SOL    HW229115   4.587   0.467   6.284 -0.1313 -0.1498 -1.4159
 5885SOL     OW29116   3.247   3.094   7.989 -0.0210 -0.2586 -0.0643
 5885SOL    HW129117   3.310   3.031   7.954 -0.6003 -0.4970 -0.6751
 5885SOL    HW229118   3.246   3.083   8.084 -0.3911 -1.2439 -0.1839
 5886SOL     OW29119   2.553   2.967   7.909 -1.0613 -0.0424 -0.3278
 5886SOL    HW129120   2.647   2.974   7.926 -1.1986 -0.3740  0.5891
 5886SOL    HW229121   2.547   2.903   7.839 -0.8881 -0.9423  0.4805
 5887SOL     OW29122   2.986   0.855   9.309  1.1286  0.2959 -0.0971
 5887SOL    HW129123   2.969   0.786   9.373 -1.7270  2.1363  1.1588
 5887SOL    HW229124   2.902   0.875   9.269  0.9566  2.2798  1.2436
 5888SOL     OW29125   3.608   3.062   5.998 -0.3045  0.2658  0.5058
 5888SOL    HW129126   3.521   3.101   5.996 -0.5356 -0.3873 -2.1483
 5888SOL    HW229127   3.647   3.108   6.073  1.4604  0.6613 -0.6494
 5889SOL     OW29128   2.789   3.185   1.479 -0.1096  0.0061 -0.7454
 5889SOL    HW129129   2.825   3.184   1.391 -1.8502  0.9261 -1.4608
 5889SOL    HW229130   2.850   3.126   1.523 -0.4180  0.4334  0.2658
 5890SOL     OW29131   4.218   0.444   8.632 -0.2968 -0.4558  0.1930
 5890SOL    HW129132   4.145   0.429   8.692 -0.4888  0.4408  0.1740
 5890SOL    HW229133   4.237   0.535   8.656 -2.8538 -0.6846  3.0160
 5891SOL     OW29134   0.154   3.182   8.890 -0.0596 -0.8595  0.3500
 5891SOL    HW129135   0.060   3.167   8.877  0.1487 -2.2447  0.4380
 5891SOL    HW229136   0.151   3.274   8.914  2.4832 -0.2369 -1.8767
 5892SOL     OW29137   2.325   3.601   6.905 -0.6514  0.4425  0.0330
 5892SOL    HW129138   2.284   3.529   6.858  0.2845  0.0570 -0.2024
 5892SOL    HW229139   2.341   3.569   6.994 -0.2264 -1.0922 -0.6070
 5893SOL     OW29140   4.181   2.514   8.578 -0.4129 -0.0320  0.2343
 5893SOL    HW129141   4.100   2.521   8.528 -0.1115 -3.8536 -0.8180
 5893SOL    HW229142   4.232   2.451   8.528 -0.3620 -1.0926  1.5943
 5894SOL     OW29143   1.758   0.159   1.656 -0.1752 -0.0961 -0.4561
 5894SOL    HW129144   1.756   0.254   1.667  0.3250 -0.1890  0.4232
 5894SOL    HW229145   1.850   0.140   1.639  0.0085 -2.4893  3.0650
 5895SOL     OW29146   4.519   1.902  16.133  0.2624  0.2350 -0.0125
 5895SOL    HW129147   4.471   1.837  16.184 -0.3384  1.2134  0.6735
 5895SOL    HW229148   4.470   1.980  16.157 -1.1994 -0.8994  0.7160
 5896SOL     OW29149   1.940   1.528   7.333 -0.1059 -0.3626  0.5836
 5896SOL    HW129150   2.030   1.531   7.301 -0.6810  0.3668 -0.9676
 5896SOL    HW229151   1.964   1.498   7.421 -1.5865 -0.2386  1.0350
 5897SOL     OW29152   0.937   1.346   6.034 -0.1436 -0.2086 -0.0155
 5897SOL    HW129153   0.863   1.295   6.066 -0.8724  0.5665 -0.4548
 5897SOL    HW229154   0.972   1.285   5.969 -2.0924 -1.5654  0.2501
 5898SOL     OW29155   2.637   1.540   2.832  0.4822  0.0283 -0.5937
 5898SOL    HW129156   2.726   1.526   2.802  1.5748  1.2468  2.0930
 5898SOL    HW229157   2.593   1.505   2.755  1.7799 -3.0783  0.0972
 5899SOL     OW29158   4.302   0.801   5.348 -0.2962 -0.8024  0.1290
 5899SOL    HW129159   4.360   0.745   5.400  2.4959  2.6323  0.6408
 5899SOL    HW229160   4.358   0.876   5.332 -1.3016  0.1080  0.8236
 5900SOL     OW29161   4.551   0.369   7.904  0.1272  0.5417  0.1026
 5900SOL    HW129162   4.608   0.406   7.972  0.1782  0.1368  0.2832
 5900SOL    HW229163   4.518   0.291   7.949 -0.9392 -0.4945 -2.5006
 5901SOL     OW29164   4.286   4.339   2.773  0.2813  0.3702  0.5997
 5901SOL    HW129165   4.261   4.428   2.799  1.5004  0.8976 -0.0122
 5901SOL    HW229166   4.198   4.305   2.756  0.6876  0.0444 -0.8623
 5902SOL     OW29167   4.372   2.784   4.210 -0.0762  0.4831 -0.3405
 5902SOL    HW129168   4.414   2.733   4.141  1.2923 -0.2472  1.0066
 5902SOL    HW229169   4.323   2.712   4.247  0.3524  0.5596  0.3966
 5903SOL     OW29170   1.122   1.760   6.243 -0.0175  0.3470 -0.2622
 5903SOL    HW129171   1.193   1.732   6.186 -0.6625  1.2164 -1.5056
 5903SOL    HW229172   1.045   1.704   6.226 -1.2824  1.0878  3.2188
 5904SOL     OW29173   1.963   0.142   6.207 -0.1470  0.1157  0.4870
 5904SOL    HW129174   2.026   0.181   6.268  1.0833 -0.5554 -0.3513
 5904SOL    HW229175   1.941   0.070   6.265 -0.0061 -0.7542 -0.5413
 5905SOL     OW29176   2.261   4.619   8.497 -0.2775 -0.2735  0.0417
 5905SOL    HW129177   2.332   4.650   8.553 -0.4909 -0.3303  0.3424
 5905SOL    HW229178   2.221   4.558   8.559  0.3553 -1.8795 -1.1400
 5906SOL     OW29179   1.422   2.585   9.259 -0.0709 -0.8014  0.6254
 5906SOL    HW129180   1.345   2.628   9.222  1.7548  0.3658 -1.7910
 5906SOL    HW229181   1.390   2.551   9.342  1.2664 -0.9614  1.0802
 5907SOL     OW29182   0.869   1.477  12.291  0.0085 -0.4532  0.2655
 5907SOL    HW129183   0.846   1.425  12.369  1.4212  0.7626  1.4999
 5907SOL    HW229184   0.828   1.559  12.316  1.1823 -0.1118  1.0926
 5908SOL     OW29185   3.869   0.676   8.713  0.0222 -0.2416  0.6197
 5908SOL    HW129186   3.804   0.746   8.715 -0.0945 -0.3700  1.2881
 5908SOL    HW229187   3.872   0.649   8.805 -0.1420  3.3391  1.6480
 5909SOL     OW29188   1.677   2.047   4.277  0.1100 -0.0617 -0.0281
 5909SOL    HW129189   1.584   2.039   4.254  0.4776 -1.9787 -0.8434
 5909SOL    HW229190   1.710   2.130   4.244  0.5438 -0.0972  0.3074
 5910SOL     OW29191   0.216   4.113   3.372 -0.2666 -0.1233  0.0903
 5910SOL    HW129192   0.138   4.085   3.419  1.4483  0.2300  3.2017
 5910SOL    HW229193   0.177   4.128   3.286  0.0271  0.4726  0.0585
 5911SOL     OW29194   0.223   3.751   8.026  0.3313  0.1960 -0.8499
 5911SOL    HW129195   0.285   3.793   7.967  1.2848 -0.0868 -0.0579
 5911SOL    HW229196   0.266   3.667   8.045 -1.2427 -0.0011  1.7466
 5912SOL     OW29197   0.396   1.971  13.297 -0.2638 -0.0595  0.7284
 5912SOL    HW129198   0.458   1.899  13.310  1.6423  1.3160 -0.8831
 5912SOL    HW229199   0.449   2.038  13.254  0.5373  0.4399  2.4807
 5913SOL     OW29200   3.961   3.574   7.450 -0.1717 -0.1167  0.1142
 5913SOL    HW129201   3.923   3.662   7.449  1.6900  0.6936  1.4686
 5913SOL    HW229202   4.028   3.570   7.517  0.1983 -0.9882 -0.3120
 5914SOL     OW29203   4.131   0.086   8.140  0.1604  0.4762 -0.5552
 5914SOL    HW129204   4.065   0.132   8.191 -0.4088 -0.5129 -0.4075
 5914SOL    HW229205   4.095   0.094   8.051 -1.4113 -0.0118  0.0447
 5915SOL     OW29206   2.225   1.592   3.635 -0.4035  0.0397  0.0613
 5915SOL    HW129207   2.183   1.524   3.687  0.7163 -0.4182  0.3520
 5915SOL    HW229208   2.175   1.574   3.555  1.0594 -1.0449 -0.5927
 5916SOL     OW29209   2.664   0.290  14.938 -0.1599  0.0907 -0.4419
 5916SOL    HW129210   2.661   0.252  14.850  1.0046  0.0104 -0.4509
 5916SOL    HW229211   2.728   0.361  14.929  1.1453 -1.0034  0.2474
 5917SOL     OW29212   3.009   3.064   8.945 -1.0244 -0.4571  0.3032
 5917SOL    HW129213   2.946   3.130   8.974  1.0770  2.4008 -1.5335
 5917SOL    HW229214   3.015   2.998   9.015  0.9391 -2.2005 -1.5019
 5918SOL     OW29215   1.909   2.105   3.012  1.0506  0.2575  0.3331
 5918SOL    HW129216   1.918   2.110   2.917  0.5920 -0.1695  0.2667
 5918SOL    HW229217   1.994   2.090   3.053  1.1327 -1.0264 -0.3065
 5919SOL     OW29218   1.697   1.782   3.310 -0.4880 -0.3970 -0.3414
 5919SOL    HW129219   1.777   1.743   3.277 -2.0017 -0.6756 -3.6615
 5919SOL    HW229220   1.689   1.848   3.242 -0.0574  1.6695  1.5896
 5920SOL     OW29221   4.400   2.549   4.753  0.0355  0.1487 -0.1405
 5920SOL    HW129222   4.406   2.455   4.740  1.7171  0.4553 -1.5978
 5920SOL    HW229223   4.429   2.551   4.845 -1.5256 -0.3370  0.3638
 5921SOL     OW29224   4.697   0.437   1.391 -0.6909 -0.1225 -0.0338
 5921SOL    HW129225   4.603   0.445   1.377 -0.5014  0.8197 -0.7473
 5921SOL    HW229226   4.694   0.448   1.486  0.3689 -1.1289  0.1099
 5922SOL     OW29227   1.133   0.567  17.669  0.3506  0.2095  0.1864
 5922SOL    HW129228   1.180   0.548   0.056 -1.6671  1.6132  1.7023
 5922SOL    HW229229   1.178   0.518  17.600  0.6564  2.0898 -0.9671
 5923SOL     OW29230   1.172   3.955   5.592 -0.2420 -0.2466  0.2165
 5923SOL    HW129231   1.161   3.930   5.684  0.9660  0.8323  0.6665
 5923SOL    HW229232   1.256   4.001   5.602 -0.2401 -0.6410  2.1065
 5924SOL     OW29233   0.816   3.219  17.186 -0.1001 -0.5219 -0.6846
 5924SOL    HW129234   0.864   3.216  17.269  0.5130  2.5420 -0.9439
 5924SOL    HW229235   0.798   3.312  17.171  1.3659  0.0091  0.7624
 5925SOL     OW29236   0.825   4.419   5.708 -0.4285 -0.5251  0.0481
 5925SOL    HW129237   0.787   4.443   5.792 -2.2647 -0.4335 -0.7926
 5925SOL    HW229238   0.871   4.500   5.684 -1.1861  0.6491  2.5085
 5926SOL     OW29239   2.815   2.460  13.222 -0.5094 -0.0732 -0.2562
 5926SOL    HW129240   2.881   2.445  13.290 -0.7119  1.4370  0.2736
 5926SOL    HW229241   2.805   2.374  13.181  1.3072 -0.3994 -0.0097
 5927SOL     OW29242   4.480   3.989  13.574  0.0983 -0.2655  0.2104
 5927SOL    HW129243   4.455   4.068  13.621 -1.3521 -1.4155  1.3665
 5927SOL    HW229244   4.399   3.939  13.569  0.2004 -0.4518  0.4120
 5928SOL     OW29245   2.526   0.712   4.127  0.4030  0.1700 -0.2263
 5928SOL    HW129246   2.470   0.637   4.145  0.7830  0.3475  1.7141
 5928SOL    HW229247   2.467   0.786   4.134  1.3413  0.6537  2.3143
 5929SOL     OW29248   0.639   2.200   7.891  0.3523 -0.2050  0.1393
 5929SOL    HW129249   0.675   2.282   7.859 -0.0026 -0.9863 -2.2290
 5929SOL    HW229250   0.564   2.238   7.936 -0.3587 -1.1919 -0.2251
 5930SOL     OW29251   2.799   0.583   1.356 -0.3763 -0.4409  0.0150
 5930SOL    HW129252   2.782   0.492   1.331  0.2046 -0.3476 -0.7249
 5930SOL    HW229253   2.850   0.578   1.437  0.4605  0.2457 -0.4601
 5931SOL     OW29254   1.335   4.238   7.209  0.1014 -0.0958  0.2155
 5931SOL    HW129255   1.263   4.296   7.183  0.5351  1.1565  1.7975
 5931SOL    HW229256   1.283   4.163   7.241  1.2535 -0.5311  1.0545
 5932SOL     OW29257   4.577   0.244  15.059  0.0964 -0.1092 -0.2872
 5932SOL    HW129258   4.618   0.318  15.104 -2.2472  2.1131 -1.8009
 5932SOL    HW229259   4.586   0.170  15.120 -2.6505  0.1556  0.4602
 5933SOL     OW29260   0.093   1.983   3.544  0.0414  0.8340  0.5307
 5933SOL    HW129261   0.049   1.910   3.501 -2.0683  2.5290 -0.1916
 5933SOL    HW229262   0.023   2.026   3.592 -0.0317  0.9481  0.3247
 5934SOL     OW29263   3.270   4.080   4.930 -0.1045  0.3293 -0.3315
 5934SOL    HW129264   3.309   4.127   4.856  0.6938  0.0291 -0.1026
 5934SOL    HW229265   3.328   4.104   5.002  2.6716 -1.0860 -2.0819
 5935SOL     OW29266   0.419   3.890   4.587 -0.1672 -0.2889  0.3617
 5935SOL    HW129267   0.450   3.813   4.539  2.1860 -0.4150  2.0923
 5935SOL    HW229268   0.474   3.958   4.547 -1.5221  0.5052 -0.1492
 5936SOL     OW29269   1.443   3.625   1.666 -0.6062  0.2535 -0.0041
 5936SOL    HW129270   1.494   3.619   1.746  0.7037  0.9637 -0.8002
 5936SOL    HW229271   1.360   3.594   1.702  0.9728  0.7676  3.9867
 5937SOL     OW29272   0.887   0.403   6.605 -0.1450  0.3688  0.0316
 5937SOL    HW129273   0.861   0.478   6.659  2.2517  1.2291 -0.0439
 5937SOL    HW229274   0.865   0.447   6.523  0.4023  2.6707  1.1206
 5938SOL     OW29275   1.931   0.116  17.328 -0.1715 -0.0801 -0.2900
 5938SOL    HW129276   1.919   0.211  17.332  0.4437 -0.0387  0.5103
 5938SOL    HW229277   2.003   0.111  17.391  0.9328 -0.3616 -1.5572
 5939SOL     OW29278   3.222   2.008  16.165  0.4448  0.6443 -0.3065
 5939SOL    HW129279   3.258   2.009  16.254  0.1555 -2.5655 -0.1619
 5939SOL    HW229280   3.259   2.092  16.138 -1.7806  0.8348 -2.6729
 5940SOL     OW29281   0.419   4.024   8.787 -0.2728  0.3825 -0.0430
 5940SOL    HW129282   0.366   3.980   8.853 -1.2521  0.4054 -0.8229
 5940SOL    HW229283   0.472   3.945   8.773 -4.4066 -2.5235  0.6592
 5941SOL     OW29284   4.435   4.345   5.461 -0.0094  0.2113 -0.0559
 5941SOL    HW129285   4.490   4.271   5.485  1.4149  0.7442 -1.6214
 5941SOL    HW229286   4.399   4.389   5.538 -0.5755 -0.1156 -0.1338
 5942SOL     OW29287   1.874   2.510   5.631 -0.5762 -0.0529  0.3147
 5942SOL    HW129288   1.958   2.497   5.675 -0.6443 -1.7122 -0.0644
 5942SOL    HW229289   1.851   2.421   5.607 -1.0352 -0.2419  1.4628
 5943SOL     OW29290   4.384   4.453   7.856  0.0951  0.2762 -0.3767
 5943SOL    HW129291   4.454   4.478   7.795  0.9049  0.3266  0.5706
 5943SOL    HW229292   4.429   4.481   7.936  1.0242 -1.4915 -0.2660
 5944SOL     OW29293   3.003   0.669   8.727 -0.1284  0.5390 -0.2379
 5944SOL    HW129294   3.061   0.730   8.772 -0.8342  2.4264 -1.8810
 5944SOL    HW229295   2.943   0.656   8.800  1.0829 -1.1505  0.4569
 5945SOL     OW29296   3.417   4.712  16.671  0.3449 -0.2055 -0.7722
 5945SOL    HW129297   3.508   4.703  16.697  0.1845 -1.8852 -0.7468
 5945SOL    HW229298   3.411   0.023  16.582  0.1850 -2.0654 -1.4829
 5946SOL     OW29299   1.455   1.133   4.678 -0.4438  0.5546  0.3958
 5946SOL    HW129300   1.483   1.223   4.662 -1.9355  1.0409  0.4379
 5946SOL    HW229301   1.495   1.124   4.764  1.5436  2.2706 -0.3579
 5947SOL     OW29302   3.816   2.335   6.339 -0.3987 -0.1438 -0.2173
 5947SOL    HW129303   3.822   2.282   6.260 -0.0278 -0.1634 -0.1747
 5947SOL    HW229304   3.904   2.337   6.377 -1.0576  3.4110  1.1384
 5948SOL     OW29305   0.433   3.837   8.339  0.3454  0.5729  0.2857
 5948SOL    HW129306   0.505   3.827   8.402  0.5857  0.7011  0.0318
 5948SOL    HW229307   0.368   3.774   8.369 -0.5882  1.6414  0.5147
 5949SOL     OW29308   1.533   3.684   4.814  0.3186  0.0087  0.0237
 5949SOL    HW129309   1.446   3.720   4.832  0.0979 -1.2655  1.4575
 5949SOL    HW229310   1.568   3.735   4.741  2.4406 -0.4401  0.7473
 5950SOL     OW29311   1.553   2.661   0.463  0.0941  0.2275 -0.2048
 5950SOL    HW129312   1.503   2.580   0.463 -0.7715  0.7522 -3.2691
 5950SOL    HW229313   1.630   2.649   0.519  0.3741  1.5923 -0.3015
 5951SOL     OW29314   3.834   2.390  10.672 -0.6506  0.1824  0.4108
 5951SOL    HW129315   3.912   2.445  10.675  0.0751 -0.7044 -2.4460
 5951SOL    HW229316   3.873   2.304  10.657 -0.4855  0.1226  1.1829
 5952SOL     OW29317   3.612   4.543  17.332  0.4578  0.1165  0.2586
 5952SOL    HW129318   3.672   4.572  17.263  1.7630  0.5311  1.5488
 5952SOL    HW229319   3.648   4.595  17.404  0.2024 -0.9553  1.1544
 5953SOL     OW29320   1.587   4.170   1.183 -0.3870 -0.1323 -0.2835
 5953SOL    HW129321   1.525   4.103   1.153 -0.7809  0.5548 -1.0140
 5953SOL    HW229322   1.601   4.135   1.270 -0.2670 -1.4869 -0.8509
 5954SOL     OW29323   1.369   0.039   1.057 -0.0286 -0.5504 -0.2592
 5954SOL    HW129324   1.401   0.027   1.146  1.5420  3.4802 -0.2706
 5954SOL    HW229325   1.339   4.674   1.035 -0.6945 -0.3993  0.0416
 5955SOL     OW29326   2.945   4.238  13.651  0.1541 -0.2663  0.1612
 5955SOL    HW129327   2.985   4.223  13.736 -0.6367 -1.2604  0.3613
 5955SOL    HW229328   2.929   4.149  13.618 -1.1968 -0.4363  1.2549
 5956SOL     OW29329   3.006   2.924   6.380  0.2992 -0.6522  0.0617
 5956SOL    HW129330   3.101   2.928   6.366  0.1503  2.4440  0.0149
 5956SOL    HW229331   2.997   2.857   6.448  3.0152 -0.5312  0.5449
 5957SOL     OW29332   2.980   2.361   1.787  0.1905 -0.0074 -0.5091
 5957SOL    HW129333   3.040   2.429   1.756  0.0547 -0.0934 -0.9657
 5957SOL    HW229334   2.959   2.308   1.710 -4.4471  0.8319  0.1678
 5958SOL     OW29335   3.939   1.043   2.581  0.0598  0.3704 -0.0612
 5958SOL    HW129336   3.868   1.076   2.526 -0.5023 -1.5290 -0.4609
 5958SOL    HW229337   4.003   1.115   2.585 -0.0524  0.4718 -0.0699
 5959SOL     OW29338   0.267   2.139   1.309  0.1224  0.9218  0.6124
 5959SOL    HW129339   0.250   2.157   1.216 -0.2166  3.2685  1.1304
 5959SOL    HW229340   0.185   2.165   1.351 -0.8459  0.9500 -1.2717
 5960SOL     OW29341   0.857   0.547  16.557 -0.0346  0.1569  0.5312
 5960SOL    HW129342   0.823   0.601  16.485  1.8873  0.1643 -0.3619
 5960SOL    HW229343   0.781   0.524  16.610  1.1010  1.2156  2.6345
 5961SOL     OW29344   2.751   2.168   2.662 -0.5974 -0.1918  0.0019
 5961SOL    HW129345   2.783   2.081   2.685 -0.2071  0.3045  1.3506
 5961SOL    HW229346   2.816   2.183   2.593  1.9529  1.1783  2.7022
 5962SOL     OW29347   1.720   0.388   4.047 -0.5364  0.3942  0.0948
 5962SOL    HW129348   1.685   0.299   4.042  0.0555  0.0899  1.4635
 5962SOL    HW229349   1.808   0.392   4.084 -0.3473 -0.4158 -0.2756
 5963SOL     OW29350   2.272   3.639  15.024  0.3034 -0.0809 -0.0236
 5963SOL    HW129351   2.280   3.699  14.950 -0.2695 -0.3305 -0.2851
 5963SOL    HW229352   2.364   3.612  15.017 -0.1875 -1.2893 -2.1075
 5964SOL     OW29353   3.247   3.019   3.277  0.2507  0.0529 -0.5186
 5964SOL    HW129354   3.263   2.994   3.186  2.0968  0.5951 -0.3425
 5964SOL    HW229355   3.307   3.090   3.298  0.0273  0.5045 -1.3922
 5965SOL     OW29356   3.646   0.748   7.829 -0.4263 -0.4344 -0.3170
 5965SOL    HW129357   3.630   0.766   7.737  1.6971 -0.7982 -0.7625
 5965SOL    HW229358   3.738   0.772   7.834 -1.6269  3.9186  1.2014
 5966SOL     OW29359   3.198   3.389   4.460  0.4826 -0.2887  0.1309
 5966SOL    HW129360   3.138   3.389   4.384 -1.4669  1.6294  1.6750
 5966SOL    HW229361   3.163   3.315   4.509  0.1185  0.6360  1.2784
 5967SOL     OW29362   4.688   0.502   2.586  0.0842  0.8636  0.5566
 5967SOL    HW129363   4.634   0.438   2.633 -0.1509  1.7468  1.4706
 5967SOL    HW229364   4.662   0.578   2.637 -0.3986  0.3363  1.1000
 5968SOL     OW29365   3.905   3.996   1.084 -0.3763  0.2734  0.5632
 5968SOL    HW129366   3.913   3.930   1.015 -3.7236 -0.7756  1.1634
 5968SOL    HW229367   3.988   4.044   1.075 -0.9406  0.3882 -4.2291
 5969SOL     OW29368   2.361   4.002  11.043 -0.2111  0.2373 -0.2591
 5969SOL    HW129369   2.367   4.098  11.036  0.4321  0.3591  2.3292
 5969SOL    HW229370   2.413   3.980  10.966 -1.5334 -1.0015 -0.7915
 5970SOL     OW29371   1.789   4.243  15.132  0.3808  0.4582 -0.6676
 5970SOL    HW129372   1.787   4.276  15.042 -0.7914 -0.2364 -0.8970
 5970SOL    HW229373   1.705   4.198  15.132 -1.8994  4.7019  1.2581
 5971SOL     OW29374   3.859   1.192  12.160 -0.4875  0.7790 -0.8522
 5971SOL    HW129375   3.810   1.121  12.201 -2.0014  2.0694 -0.4369
 5971SOL    HW229376   3.818   1.276  12.178  0.8386  1.4970 -1.2132
 5972SOL     OW29377   1.519   1.344   1.981  0.5078  0.6303  0.2302
 5972SOL    HW129378   1.511   1.436   2.004 -0.8306  0.6772 -0.4191
 5972SOL    HW229379   1.612   1.324   1.990 -0.2476 -3.0029  0.0229
 5973SOL     OW29380   1.168   3.067  12.788  0.1993  0.2932 -0.0650
 5973SOL    HW129381   1.222   3.036  12.715  1.0393 -0.4961  0.8791
 5973SOL    HW229382   1.233   3.069  12.858  0.3597  1.5894 -0.2497
 5974SOL     OW29383   0.596   1.151   5.018 -0.1590  0.2766  0.5699
 5974SOL    HW129384   0.662   1.202   4.972 -0.7737 -0.4590 -1.1149
 5974SOL    HW229385   0.523   1.158   4.956  1.4093  1.8991 -1.0843
 5975SOL     OW29386   1.088   2.680   6.773  0.1713 -0.1222  0.5930
 5975SOL    HW129387   1.048   2.762   6.804 -0.4769  0.4844 -1.8253
 5975SOL    HW229388   1.168   2.717   6.737  0.7095  1.3773  3.3154
 5976SOL     OW29389   0.216   1.965   2.742  0.0697 -0.0023 -0.4566
 5976SOL    HW129390   0.153   2.037   2.733 -0.5164 -0.2655  1.6581
 5976SOL    HW229391   0.213   1.921   2.657  0.2051  0.1890 -0.5624
 5977SOL     OW29392   0.425   0.075  12.270  0.3599  0.4137  0.2829
 5977SOL    HW129393   0.476   0.142  12.316  1.1535  0.6154 -0.8964
 5977SOL    HW229394   0.477   0.058  12.192 -0.9276 -3.4320  0.2953
 5978SOL     OW29395   3.402   3.957  14.581 -0.3798 -0.3889  0.0969
 5978SOL    HW129396   3.442   4.018  14.518 -3.1931  0.5387 -0.7690
 5978SOL    HW229397   3.471   3.953  14.648  0.0537  0.3153 -0.2953
 5979SOL     OW29398   4.704   1.949   3.224  0.0720 -0.7583 -0.6314
 5979SOL    HW129399   4.701   2.018   3.290 -0.2240 -1.9804  0.6546
 5979SOL    HW229400   4.613   1.919   3.232 -0.4002  1.1061  1.1206
 5980SOL     OW29401   2.326   2.783   7.354  0.1806  0.0990 -0.4928
 5980SOL    HW129402   2.326   2.806   7.447  0.3630  0.0585 -0.4835
 5980SOL    HW229403   2.346   2.866   7.311 -1.4901 -0.4754 -2.3536
 5981SOL     OW29404   3.745   3.325   2.996  0.3672 -0.4773 -1.0477
 5981SOL    HW129405   3.720   3.407   2.954  0.6730 -0.9666 -2.1812
 5981SOL    HW229406   3.749   3.351   3.088  0.2343 -0.6738 -0.9860
 5982SOL     OW29407   3.786   4.006   3.999 -0.0326  0.0211  0.5828
 5982SOL    HW129408   3.777   3.932   4.060 -2.1939 -1.5928 -1.6625
 5982SOL    HW229409   3.837   4.066   4.053 -0.3206 -1.1186  2.1469
 5983SOL     OW29410   2.580   0.896  12.750  0.1219 -0.4142 -0.0044
 5983SOL    HW129411   2.526   0.829  12.707 -0.3488  0.0516 -0.1414
 5983SOL    HW229412   2.648   0.848  12.798  1.5984  3.4959  1.8098
 5984SOL     OW29413   3.247   4.265   8.257 -0.0861  0.3283  0.6031
 5984SOL    HW129414   3.276   4.353   8.234  3.3505 -0.5513  1.6218
 5984SOL    HW229415   3.268   4.262   8.350  0.4752  0.1641  0.4698
 5985SOL     OW29416   0.933   0.094   2.667 -0.0174 -0.2046 -0.7695
 5985SOL    HW129417   0.948   0.050   2.750 -1.5029 -1.0078 -0.9294
 5985SOL    HW229418   0.938   0.017   2.609 -2.0897  0.2216 -1.4958
 5986SOL     OW29419   3.041   2.987   2.139 -0.4558  0.1395 -0.1130
 5986SOL    HW129420   3.076   3.029   2.061  0.4600  1.3010  0.9194
 5986SOL    HW229421   2.948   3.006   2.126 -0.1556  1.9031  0.3192
 5987SOL     OW29422   2.605   2.209   4.457  0.0033 -1.3913 -0.2121
 5987SOL    HW129423   2.594   2.115   4.472  0.4738 -1.1947  1.2845
 5987SOL    HW229424   2.637   2.245   4.539  0.3590 -2.3182  0.0547
 5988SOL     OW29425   3.663   3.593  10.793 -0.1609 -0.2581 -0.0004
 5988SOL    HW129426   3.620   3.508  10.788  0.9145 -0.6903 -2.0986
 5988SOL    HW229427   3.595   3.638  10.844 -1.4691  0.0180 -1.9698
 5989SOL     OW29428   3.616   0.803  15.292 -0.0897  0.7951  0.4792
 5989SOL    HW129429   3.529   0.765  15.301  0.2166  0.4836  2.2108
 5989SOL    HW229430   3.597   0.870  15.226 -0.1406  2.0363  1.7707
 5990SOL     OW29431   2.893   4.598   5.517  0.1917  0.3814 -0.4208
 5990SOL    HW129432   2.890   4.617   5.611 -1.8996  0.0673 -0.4285
 5990SOL    HW229433   2.800   4.594   5.494  0.2407 -0.0905 -0.5409
 5991SOL     OW29434   0.978   3.569   3.157  0.2293 -0.2208  0.3121
 5991SOL    HW129435   0.920   3.620   3.101  2.4430 -0.1004 -1.8485
 5991SOL    HW229436   1.066   3.573   3.119  0.4766 -3.8075  0.5210
 5992SOL     OW29437   1.551   0.304   5.694 -0.3116  0.3883 -0.2339
 5992SOL    HW129438   1.640   0.300   5.659 -0.8322  1.9609 -1.7527
 5992SOL    HW229439   1.569   0.281   5.785 -2.0193  0.0101 -0.0014
 5993SOL     OW29440   2.072   2.695   6.943  0.2878  0.5623  0.0232
 5993SOL    HW129441   2.058   2.734   6.857 -1.5460 -0.8973 -0.3325
 5993SOL    HW229442   1.990   2.647   6.954  1.1708 -1.0316 -0.3226
 5994SOL     OW29443   0.836   2.755   0.833 -0.0897 -0.0760 -0.6564
 5994SOL    HW129444   0.859   2.672   0.789 -1.1084 -0.6469 -0.0992
 5994SOL    HW229445   0.741   2.751   0.826 -0.1537  0.5780 -0.1393
 5995SOL     OW29446   1.873   3.157   9.284  0.0494  0.1999  0.9154
 5995SOL    HW129447   1.963   3.146   9.253 -0.5202  0.0930 -0.7352
 5995SOL    HW229448   1.883   3.115   9.369  0.2006  0.5341  1.0611
 5996SOL     OW29449   1.981   1.706   2.236 -0.6507 -0.5398 -0.5072
 5996SOL    HW129450   1.964   1.726   2.328 -1.3926 -0.9915 -0.5534
 5996SOL    HW229451   1.908   1.651   2.210 -1.5133  0.0081  0.7824
 5997SOL     OW29452   1.517   0.391   8.671  0.2900  0.3975  0.7349
 5997SOL    HW129453   1.461   0.359   8.742 -0.7847 -0.5821 -0.5569
 5997SOL    HW229454   1.466   0.363   8.595 -0.1757  2.5075  0.2950
 5998SOL     OW29455   1.755   1.941   6.431  0.1179 -0.1300  0.0682
 5998SOL    HW129456   1.727   1.937   6.523 -1.1462 -1.0755 -0.3606
 5998SOL    HW229457   1.688   2.000   6.397  0.5499  0.2488 -0.1220
 5999SOL     OW29458   2.577   1.718   6.952 -0.1032 -0.1740 -1.2720
 5999SOL    HW129459   2.673   1.712   6.951 -0.1358 -0.7410 -1.7667
 5999SOL    HW229460   2.563   1.757   6.866 -1.7188  1.9148 -0.0509
 6000SOL     OW29461   4.088   3.503   8.106 -0.6834  0.1938  0.4590
 6000SOL    HW129462   4.095   3.572   8.171  2.2020  0.1402  0.1987
 6000SOL    HW229463   4.153   3.533   8.042 -3.1497  2.1410 -1.1324
 6001SOL     OW29464   1.220   0.135  10.659  0.9690  0.1246  0.1184
 6001SOL    HW129465   1.287   0.115  10.594  0.3438  0.6684 -0.6745
 6001SOL    HW229466   1.225   0.057  10.715  1.6728 -0.9155 -1.3907
 6002SOL     OW29467   2.596   4.393   3.016  0.4832 -0.5780  0.1159
 6002SOL    HW129468   2.555   4.309   2.992  0.5049 -1.0844  1.8407
 6002SOL    HW229469   2.519   4.450   3.027  0.3061 -0.7593 -0.1698
 6003SOL     OW29470   0.719   0.209  11.736  0.1312 -0.0487 -0.3478
 6003SOL    HW129471   0.746   0.118  11.749  0.0001 -0.2444 -1.4515
 6003SOL    HW229472   0.804   0.253  11.736  1.4195 -2.5353 -0.1049
 6004SOL     OW29473   1.290   1.581   6.070 -0.2826 -0.4292  0.0768
 6004SOL    HW129474   1.297   1.497   6.113 -2.3754  1.0183  3.1951
 6004SOL    HW229475   1.247   1.557   5.988  2.9329 -0.5354 -1.5669
 6005SOL     OW29476   4.108   1.225   8.771  0.0446 -0.3180  0.1806
 6005SOL    HW129477   4.054   1.237   8.693 -0.7043 -0.8409  0.6206
 6005SOL    HW229478   4.116   1.313   8.808  0.6211  0.7850 -2.5256
 6006SOL     OW29479   2.863   1.832   6.514 -0.0913 -0.5872 -0.0188
 6006SOL    HW129480   2.923   1.869   6.579  0.0405 -1.0655  0.1301
 6006SOL    HW229481   2.854   1.910   6.459 -1.8317  0.3573  1.6170
 6007SOL     OW29482   1.694   4.202   2.892  0.1881  0.7089  0.8392
 6007SOL    HW129483   1.790   4.204   2.892  0.2537 -1.8112 -1.0186
 6007SOL    HW229484   1.674   4.180   2.801  0.8823  2.5934  0.2476
 6008SOL     OW29485   0.735   4.544   2.350  0.0624  0.2606 -0.5029
 6008SOL    HW129486   0.698   4.476   2.293 -0.0036 -1.1498  1.1985
 6008SOL    HW229487   0.668   4.612   2.360  0.6237  1.0559 -2.3309
 6009SOL     OW29488   1.067   2.933  15.953  0.1884  0.1571  0.0037
 6009SOL    HW129489   1.024   2.858  15.993 -1.3922 -0.2625 -2.5071
 6009SOL    HW229490   1.110   2.899  15.875  0.0283  0.3156 -0.1574
 6010SOL     OW29491   2.666   4.335   8.392  0.1290 -0.1549  0.6264
 6010SOL    HW129492   2.584   4.310   8.348  0.8583  0.5199 -1.1274
 6010SOL    HW229493   2.725   4.325   8.318 -0.1837 -0.2464  0.3856
 6011SOL     OW29494   2.347   1.900   3.229  0.0700 -0.5897  0.3949
 6011SOL    HW129495   2.379   1.827   3.282  0.2898 -0.8396 -0.0889
 6011SOL    HW229496   2.422   1.959   3.235 -1.9184  1.9702  0.0167
 6012SOL     OW29497   2.074   4.643  16.260 -0.2990 -0.0145 -0.0951
 6012SOL    HW129498   2.117   0.000  16.290 -0.3831 -0.0206  0.0414
 6012SOL    HW229499   2.039   4.674  16.177  0.6109 -2.1463 -1.2676
 6013SOL     OW29500   4.558   4.464  12.653  0.3891  0.4162  0.0758
 6013SOL    HW129501   4.530   4.501  12.737 -0.8419 -3.7217  1.4733
 6013SOL    HW229502   4.618   4.395  12.682 -2.0913 -1.6325  0.3308
 6014SOL     OW29503   2.025   1.119   4.949 -0.2916 -0.4409 -0.3822
 6014SOL    HW129504   1.995   1.073   4.870 -1.3854  2.8115 -1.8808
 6014SOL    HW229505   1.982   1.070   5.018 -0.0190 -0.6849 -0.3829
 6015SOL     OW29506   2.126   1.150   7.752  0.2550 -0.0156 -0.0752
 6015SOL    HW129507   2.189   1.219   7.729 -1.6682  1.3388 -1.2696
 6015SOL    HW229508   2.082   1.142   7.668 -0.2077 -1.3581  0.3017
 6016SOL     OW29509   1.375   0.021   8.594 -0.2049 -0.0897 -0.2343
 6016SOL    HW129510   1.377   0.114   8.569  1.2129  0.0483  0.4034
 6016SOL    HW229511   1.311   0.002   8.525 -1.3601 -0.0397  0.8156
 6017SOL     OW29512   3.015   0.879   1.884  0.1761 -0.3324 -0.5525
 6017SOL    HW129513   3.032   0.875   1.978 -0.2454  1.9547 -0.3683
 6017SOL    HW229514   3.076   0.818   1.844  2.4685  1.9241 -0.4724
 6018SOL     OW29515   2.365   2.423  13.526 -0.4908 -0.3542 -0.3370
 6018SOL    HW129516   2.408   2.402  13.442 -1.2502 -2.9671 -0.0809
 6018SOL    HW229517   2.362   2.341  13.576 -1.6948  0.0543  0.2475
 6019SOL     OW29518   4.318   0.133  14.589 -0.0283  0.8681 -0.3372
 6019SOL    HW129519   4.249   0.071  14.609  1.9920 -1.6003 -0.9837
 6019SOL    HW229520   4.348   0.148  14.678 -0.1134  1.3174 -0.3858
 6020SOL     OW29521   0.485   1.338  16.169 -0.1289 -0.7435  0.0421
 6020SOL    HW129522   0.543   1.262  16.179 -0.5527 -1.0183  0.4044
 6020SOL    HW229523   0.472   1.366  16.259  0.2723  2.4641 -0.8827
 6021SOL     OW29524   4.698   4.088   4.647 -0.1204  0.1018 -0.2706
 6021SOL    HW129525   0.028   4.168   4.647  1.2510 -0.8127  0.1121
 6021SOL    HW229526   0.030   4.014   4.671 -0.1144  0.8860  2.1961
 6022SOL     OW29527   0.313   0.466  16.320 -0.1084 -1.2884  0.2836
 6022SOL    HW129528   0.243   0.520  16.357  1.3850 -0.0094  1.2622
 6022SOL    HW229529   0.299   0.479  16.226 -1.6647 -2.3719  0.3688
 6023SOL     OW29530   4.456   2.305   7.066 -0.4954  0.2182 -1.2009
 6023SOL    HW129531   4.463   2.259   7.150  0.6408 -0.6419 -1.7606
 6023SOL    HW229532   4.532   2.362   7.076  0.3653 -1.0320 -0.6511
 6024SOL     OW29533   1.203   0.866  13.578 -0.7188  0.1695  0.2675
 6024SOL    HW129534   1.177   0.953  13.609 -0.4415  0.7546 -1.1304
 6024SOL    HW229535   1.298   0.858  13.590 -0.9308 -0.4910  1.5493
 6025SOL     OW29536   0.761   1.907   6.998  0.4842  0.2885  0.5164
 6025SOL    HW129537   0.677   1.875   7.031 -0.4826  0.2099 -2.0264
 6025SOL    HW229538   0.827   1.848   7.035 -1.7045 -2.4702  0.0448
 6026SOL     OW29539   3.265   0.451   5.552  0.0316 -0.0073 -0.4579
 6026SOL    HW129540   3.311   0.489   5.477 -0.9797  2.8079  0.3325
 6026SOL    HW229541   3.178   0.439   5.514 -1.4839  1.6391  2.5162
 6027SOL     OW29542   1.191   4.578  12.524  0.1878  0.5149  0.2694
 6027SOL    HW129543   1.234   4.556  12.441  0.6806 -0.7132  0.8704
 6027SOL    HW229544   1.110   4.623  12.498 -0.9307 -2.0481 -0.6666
 6028SOL     OW29545   2.331   1.842  16.528  0.1105 -0.8584  0.0969
 6028SOL    HW129546   2.332   1.777  16.458 -0.3625 -0.9436  0.1748
 6028SOL    HW229547   2.405   1.810  16.580  1.4327  0.3485 -1.0068
 6029SOL     OW29548   2.011   3.637   4.907  0.1434 -1.3125  0.5454
 6029SOL    HW129549   2.079   3.602   4.850  1.2776  0.1678  0.9863
 6029SOL    HW229550   2.066   3.687   4.967  1.2562 -0.5270 -1.1363
 6030SOL     OW29551   2.237   2.980   6.609  0.1978  0.1554  0.0466
 6030SOL    HW129552   2.292   3.016   6.540  0.9792 -3.9616 -1.4671
 6030SOL    HW229553   2.300   2.972   6.681  2.2502 -1.1135 -1.9052
 6031SOL     OW29554   1.524   0.371   7.081  0.3034 -0.3886  0.3051
 6031SOL    HW129555   1.598   0.421   7.114 -0.3232  0.5921  0.2239
 6031SOL    HW229556   1.456   0.439   7.078  0.5028 -0.2302 -0.6615
 6032SOL     OW29557   0.669   1.528   8.286 -0.2436  0.4658  0.5883
 6032SOL    HW129558   0.691   1.602   8.229  0.2605 -0.3602 -0.3106
 6032SOL    HW229559   0.707   1.458   8.232 -0.6550  0.5209  0.2254
 6033SOL     OW29560   4.150   3.350   6.228 -0.2977  0.1412 -0.2363
 6033SOL    HW129561   4.196   3.426   6.194  2.3257 -0.6987  1.3928
 6033SOL    HW229562   4.089   3.325   6.159 -0.6004 -2.9135  1.1219
 6034SOL     OW29563   2.685   1.071  13.546 -0.1423  0.5954  0.3262
 6034SOL    HW129564   2.678   0.993  13.601 -2.7656  1.0098  0.5630
 6034SOL    HW229565   2.684   1.034  13.457  0.0514 -0.3141  0.7075
 6035SOL     OW29566   2.858   3.058  15.754 -0.0154 -0.3855 -0.3084
 6035SOL    HW129567   2.903   3.021  15.679  0.2357  1.4141 -1.0557
 6035SOL    HW229568   2.775   3.084  15.714 -0.3279 -0.3970  0.3300
 6036SOL     OW29569   4.585   0.414  14.682  0.1451 -0.0858  0.2278
 6036SOL    HW129570   4.546   0.436  14.767  0.9452  0.8378  0.3654
 6036SOL    HW229571   4.657   0.477  14.671 -0.2638 -0.2473 -3.4940
 6037SOL     OW29572   0.737   2.120   9.830 -0.3290  0.1086 -0.2263
 6037SOL    HW129573   0.757   2.093   9.920  0.7735 -1.2542 -0.8805
 6037SOL    HW229574   0.651   2.162   9.835  0.2265  1.0584  1.4161
 6038SOL     OW29575   4.525   0.041  16.113  0.1108 -0.2800 -0.1157
 6038SOL    HW129576   4.440   0.061  16.153 -0.8860 -2.3817 -1.1835
 6038SOL    HW229577   4.565   0.128  16.113 -0.1682 -0.1513  0.8570
 6039SOL     OW29578   1.698   2.924   2.379 -0.2587 -0.1596 -0.0047
 6039SOL    HW129579   1.772   2.983   2.390  1.2666 -1.8444 -1.2263
 6039SOL    HW229580   1.732   2.835   2.388 -2.6605 -1.2750 -1.9432
 6040SOL     OW29581   0.238   0.031   7.683 -0.0211 -0.8361 -0.2089
 6040SOL    HW129582   0.200   4.667   7.669  0.2088 -0.9637 -0.0369
 6040SOL    HW229583   0.177   0.067   7.748  1.6822 -0.7352  1.3368
 6041SOL     OW29584   0.939   3.224  12.852  0.2350  0.2542 -0.1169
 6041SOL    HW129585   1.019   3.173  12.856  0.6213  0.8633 -0.1371
 6041SOL    HW229586   0.868   3.167  12.820 -0.0354  1.3573 -1.5037
 6042SOL     OW29587   2.002   3.402  16.784  0.0042  0.0200  0.5633
 6042SOL    HW129588   1.957   3.449  16.713  0.1166 -1.5475 -0.5527
 6042SOL    HW229589   1.924   3.373  16.831 -0.6035  1.8501  0.6699
 6043SOL     OW29590   1.011   0.877  13.215  0.3710 -0.6575 -0.4723
 6043SOL    HW129591   1.096   0.834  13.225  0.1116 -0.8271  0.9770
 6043SOL    HW229592   0.958   0.808  13.176  1.6591 -1.4724 -0.7812
 6044SOL     OW29593   1.618   1.547   7.707  0.0362 -0.5673  0.0530
 6044SOL    HW129594   1.566   1.471   7.731 -1.5445 -0.4160 -2.8405
 6044SOL    HW229595   1.551   1.614   7.693  0.2468 -0.5081 -0.6823
 6045SOL     OW29596   4.656   4.212   7.162 -0.7094  0.2913  0.2304
 6045SOL    HW129597   4.632   4.285   7.105 -1.8500 -0.1953  0.0847
 6045SOL    HW229598   4.689   4.159   7.089 -0.4881  1.3097 -0.4138
 6046SOL     OW29599   3.070   2.039   5.145  0.3791  0.4626 -0.5765
 6046SOL    HW129600   3.081   2.041   5.050  3.6323 -3.4694 -0.3122
 6046SOL    HW229601   3.114   1.956   5.165 -0.0562  0.0241 -1.4611
 6047SOL     OW29602   4.456   1.437   5.600  0.0609  0.3880  0.5622
 6047SOL    HW129603   4.532   1.397   5.557  0.2824  0.0221  1.2758
 6047SOL    HW229604   4.380   1.381   5.585  0.0637  0.5822 -0.1658
 6048SOL     OW29605   4.388   3.395   8.792  0.0773  0.2176  0.3227
 6048SOL    HW129606   4.331   3.317   8.794  1.7231 -0.9993 -0.2921
 6048SOL    HW229607   4.379   3.433   8.705 -0.5622  1.2066  0.8182
 6049SOL     OW29608   0.562   4.378   2.606 -0.2773 -0.5354  0.1474
 6049SOL    HW129609   0.579   4.356   2.698 -1.7179  1.8836  0.9822
 6049SOL    HW229610   0.634   4.342   2.554  0.5090 -0.0057  0.8757
 6050SOL     OW29611   1.005   2.176  14.051  0.5665  0.3464 -0.0379
 6050SOL    HW129612   0.970   2.149  13.966 -0.4879  3.5171 -0.6064
 6050SOL    HW229613   1.021   2.093  14.096  0.0942 -0.3362 -1.1378
 6051SOL     OW29614   4.553   2.589   1.791 -0.6929  0.6929  0.2074
 6051SOL    HW129615   4.575   2.500   1.762  0.5943  0.9069  0.5339
 6051SOL    HW229616   4.587   2.637   1.715 -0.7608 -1.7584 -1.3794
 6052SOL     OW29617   3.750   2.072   6.662 -0.6319  0.7675  0.1272
 6052SOL    HW129618   3.784   2.119   6.586 -1.4850  0.6474 -0.3228
 6052SOL    HW229619   3.815   2.003   6.668  0.2550  1.5376 -0.6230
 6053SOL     OW29620   3.461   2.896   7.419  0.0590  0.2817  0.0058
 6053SOL    HW129621   3.459   2.827   7.486 -2.8385  0.9189  0.5728
 6053SOL    HW229622   3.510   2.967   7.461  1.7461  0.3445 -2.1188
 6054SOL     OW29623   3.485   3.129   2.954 -0.0599 -0.7779  0.5538
 6054SOL    HW129624   3.396   3.162   2.940 -0.1083 -1.2340 -0.2075
 6054SOL    HW229625   3.533   3.185   2.892  0.2127  0.6449  2.0501
 6055SOL     OW29626   0.965   2.593  10.121  0.0036  0.2021  0.3402
 6055SOL    HW129627   0.939   2.628  10.036  1.5918  1.4357  0.3453
 6055SOL    HW229628   0.984   2.500  10.114 -3.5101 -0.6260  1.8430
 6056SOL     OW29629   3.257   3.585   5.040 -0.2458 -0.0832 -0.1973
 6056SOL    HW129630   3.189   3.576   5.107 -1.2219  0.4164 -1.1252
 6056SOL    HW229631   3.204   3.623   4.970  1.4423  0.8307 -0.9858
 6057SOL     OW29632   0.832   3.947   1.167 -0.4994 -0.2910 -0.2415
 6057SOL    HW129633   0.766   3.999   1.121 -1.6409 -0.3012  1.3932
 6057SOL    HW229634   0.787   3.936   1.251  1.9182 -3.4822  0.6444
 6058SOL     OW29635   4.247   0.295   4.098  0.5523 -0.3835 -0.0866
 6058SOL    HW129636   4.163   0.252   4.083  1.0547 -1.0579 -0.9859
 6058SOL    HW229637   4.273   0.241   4.173  0.6426  1.7642  1.4234
 6059SOL     OW29638   0.140   4.364  15.441  0.5206 -0.1267 -0.0407
 6059SOL    HW129639   0.052   4.346  15.406  1.2279 -4.1066  0.1646
 6059SOL    HW229640   0.126   4.312  15.520  0.5436 -0.2037 -0.0870
 6060SOL     OW29641   1.687   1.704   8.773  0.1277 -0.0890  0.1897
 6060SOL    HW129642   1.749   1.770   8.742 -0.8609  1.0087  0.5452
 6060SOL    HW229643   1.605   1.736   8.737 -0.7710  0.1898  2.4754
 6061SOL     OW29644   2.714   3.649   3.712  0.3015  0.1007  0.3418
 6061SOL    HW129645   2.770   3.726   3.721 -0.6709  0.6834  1.4421
 6061SOL    HW229646   2.669   3.661   3.796  1.4646 -0.9667  1.1160
 6062SOL     OW29647   1.879   3.269   1.150 -1.1345 -0.6204 -0.0497
 6062SOL    HW129648   1.936   3.320   1.208 -2.3033  1.2661 -0.5585
 6062SOL    HW229649   1.817   3.233   1.213 -1.2588 -2.9947 -1.5447
 6063SOL     OW29650   2.612   0.245   3.935 -0.2464  0.1387  0.4695
 6063SOL    HW129651   2.688   0.274   3.886  1.0994 -2.0218  1.2821
 6063SOL    HW229652   2.550   0.309   3.901 -0.2496  0.2707  0.7205
 6064SOL     OW29653   4.131   3.139   1.627 -0.3243 -0.2857  0.1872
 6064SOL    HW129654   4.160   3.206   1.566 -2.1050  1.3948  1.2214
 6064SOL    HW229655   4.077   3.084   1.570 -2.3674  1.1657  0.7319
 6065SOL     OW29656   2.996   0.779   6.636 -0.4861 -0.2859  0.5306
 6065SOL    HW129657   2.989   0.740   6.549  1.5947  0.5206  0.0011
 6065SOL    HW229658   3.040   0.858   6.605 -0.2923  0.1905  2.0296
 6066SOL     OW29659   0.687   3.035   1.794 -0.0851  0.0253  0.2867
 6066SOL    HW129660   0.745   2.978   1.743 -1.3864 -0.8176 -0.2548
 6066SOL    HW229661   0.753   3.084   1.843  0.8777  1.2640 -2.2710
 6067SOL     OW29662   2.666   2.711   5.751  0.7866  0.3052 -0.4013
 6067SOL    HW129663   2.695   2.623   5.726 -1.9394 -0.4699 -0.8860
 6067SOL    HW229664   2.570   2.711   5.750  0.7961  2.1486 -0.3457
 6068SOL     OW29665   0.408   3.862   7.870 -0.7033 -0.5079 -0.0361
 6068SOL    HW129666   0.412   3.950   7.832 -1.3861  0.1078  1.3141
 6068SOL    HW229667   0.503   3.851   7.872 -0.6187  0.1087 -0.5263
 6069SOL     OW29668   2.147   2.388   6.594 -0.5991  0.1698 -0.0409
 6069SOL    HW129669   2.172   2.480   6.583 -0.5038 -0.1695 -2.6216
 6069SOL    HW229670   2.075   2.400   6.656  0.1654 -0.0430  0.8877
 6070SOL     OW29671   3.782   3.980  16.840 -0.5888  0.1315  0.1825
 6070SOL    HW129672   3.768   4.075  16.838  1.3296  0.4059  0.2612
 6070SOL    HW229673   3.694   3.953  16.811 -0.9433  0.3670  1.0553
 6071SOL     OW29674   1.694   1.684  15.805 -0.0483  0.0881 -0.0083
 6071SOL    HW129675   1.684   1.728  15.720 -0.6471 -0.6990 -0.3586
 6071SOL    HW229676   1.679   1.597  15.767  1.8205 -0.4119  0.4180
 6072SOL     OW29677   2.639   2.983  15.091 -0.1181 -0.1055 -0.2556
 6072SOL    HW129678   2.627   3.003  15.184 -3.9329  0.5587 -0.8852
 6072SOL    HW229679   2.562   3.023  15.051 -1.3442 -0.8692  1.3770
 6073SOL     OW29680   1.210   4.693   3.455 -0.2411 -0.0280 -0.1142
 6073SOL    HW129681   1.125   4.722   3.487  0.3516 -0.5375  1.9392
 6073SOL    HW229682   1.257   0.025   3.518 -1.5814 -0.6729  1.4451
 6074SOL     OW29683   2.280   1.463   5.859  0.4632  0.3168 -0.0903
 6074SOL    HW129684   2.221   1.529   5.823 -1.2033 -0.2805  1.4828
 6074SOL    HW229685   2.249   1.438   5.946  2.4351  2.0448  1.0967
 6075SOL     OW29686   0.898   0.129   7.083 -0.6685  0.2439 -0.2834
 6075SOL    HW129687   0.950   0.207   7.103 -0.2057 -0.5324  1.5488
 6075SOL    HW229688   0.913   0.088   7.168 -0.7962  0.2793 -0.2433
 6076SOL     OW29689   2.438   1.518   7.155  0.0790 -0.1747  0.6826
 6076SOL    HW129690   2.488   1.451   7.107 -1.3365  0.6476 -1.8946
 6076SOL    HW229691   2.463   1.597   7.108  1.2621 -0.3433  1.0250
 6077SOL     OW29692   4.511   1.777   7.983 -0.7298  0.6318  0.4529
 6077SOL    HW129693   4.561   1.696   7.991  2.4318  2.6897  1.7249
 6077SOL    HW229694   4.474   1.764   7.895  0.8755 -2.1833  0.1870
 6078SOL     OW29695   3.574   0.830   3.228  0.4858 -0.8916  0.1937
 6078SOL    HW129696   3.535   0.823   3.315  0.3060  1.3028  0.2693
 6078SOL    HW229697   3.561   0.741   3.194  0.5036 -0.9149  0.2470
 6079SOL     OW29698   1.643   0.312   2.605 -0.7528 -0.4607 -0.4034
 6079SOL    HW129699   1.555   0.290   2.636 -0.4493 -1.2328 -0.1004
 6079SOL    HW229700   1.627   0.276   2.518  1.2298 -0.2120 -0.8627
 6080SOL     OW29701   4.642   2.808  16.369  0.3839  0.0311 -0.3751
 6080SOL    HW129702   4.721   2.859  16.388  1.1174 -1.6622  1.0372
 6080SOL    HW229703   4.581   2.878  16.347 -0.4824 -1.0049 -1.2739
 6081SOL     OW29704   1.275   1.802   0.895 -0.2109  0.3302  0.1681
 6081SOL    HW129705   1.339   1.731   0.889 -1.0852 -0.3982 -0.6412
 6081SOL    HW229706   1.196   1.755   0.923  1.0763 -0.9666  1.5906
 6082SOL     OW29707   2.110   4.546   5.497 -0.4482 -0.5091  0.4695
 6082SOL    HW129708   2.023   4.583   5.486 -0.1695 -0.0075 -0.0954
 6082SOL    HW229709   2.090   4.473   5.554  1.1479 -0.2688  1.3508
 6083SOL     OW29710   1.360   1.755   2.897 -0.2876 -0.2000  0.1270
 6083SOL    HW129711   1.332   1.829   2.950  0.3210 -1.0876  1.6950
 6083SOL    HW229712   1.450   1.738   2.927 -1.5556 -3.8807  1.9034
 6084SOL     OW29713   0.150   1.418  13.025 -0.0099  0.7738 -0.4952
 6084SOL    HW129714   0.141   1.325  13.045 -0.2802  0.7622 -0.6666
 6084SOL    HW229715   0.063   1.455  13.007 -1.3420 -1.5960  1.1064
 6085SOL     OW29716   1.835   3.842   2.875 -0.3268 -0.0973  0.2403
 6085SOL    HW129717   1.814   3.891   2.796 -2.3732 -1.7872 -0.2575
 6085SOL    HW229718   1.762   3.781   2.886  0.5589 -1.4237 -1.2188
 6086SOL     OW29719   0.332   4.548   6.310  0.1245  0.2295 -0.0390
 6086SOL    HW129720   0.250   4.566   6.354  0.5205  1.4642  0.1889
 6086SOL    HW229721   0.371   4.635   6.302  1.9247 -0.6425 -0.7699
 6087SOL     OW29722   3.740   0.066   4.862 -0.5783  0.3042  0.0894
 6087SOL    HW129723   3.667   0.055   4.923  1.7590 -0.3578  2.7695
 6087SOL    HW229724   3.696   0.070   4.777  0.1603  1.1896 -0.2382
 6088SOL     OW29725   2.579   4.548   6.739  0.2783  0.4153 -0.2856
 6088SOL    HW129726   2.655   4.549   6.681 -0.6753  1.0987 -1.5413
 6088SOL    HW229727   2.584   4.458   6.772  0.5557 -0.2192 -2.0535
 6089SOL     OW29728   2.710   1.077  17.011 -0.2113  0.1703  0.3889
 6089SOL    HW129729   2.707   1.076  16.915 -0.9983  1.3823  0.4060
 6089SOL    HW229730   2.733   0.985  17.025 -0.4583 -0.4952 -3.3618
 6090SOL     OW29731   0.409   4.505  13.414 -0.0135  0.1363 -0.5024
 6090SOL    HW129732   0.369   4.463  13.337  0.1141 -1.0793  0.1116
 6090SOL    HW229733   0.469   4.567  13.372 -2.9557  2.0940 -1.8535
 6091SOL     OW29734   4.668   2.290   9.496  0.2062  0.1129  0.3905
 6091SOL    HW129735   0.006   2.217   9.488  0.8607  1.0176 -2.6761
 6091SOL    HW229736   4.697   2.330   9.578 -0.5035  1.9627 -0.2607
 6092SOL     OW29737   0.914   4.670   5.648 -0.1256  0.5119 -0.0204
 6092SOL    HW129738   1.004   4.650   5.621 -0.8999 -1.0254 -1.5436
 6092SOL    HW229739   0.927   0.033   5.688  0.1262  0.5571 -0.1985
 6093SOL     OW29740   3.243   1.774   2.534  0.4831  0.1382 -0.7963
 6093SOL    HW129741   3.205   1.818   2.458 -1.0674  2.1831  1.1743
 6093SOL    HW229742   3.281   1.840   2.591 -0.1532 -0.4196  0.2747
 6094SOL     OW29743   1.818   0.735   8.578  0.2892 -0.0965  0.0460
 6094SOL    HW129744   1.863   0.818   8.597 -1.4081  1.3526 -2.1523
 6094SOL    HW229745   1.878   0.685   8.523  1.9785  1.8683  0.1036
 6095SOL     OW29746   1.226   1.892   2.298 -0.3476 -0.3996 -0.4345
 6095SOL    HW129747   1.303   1.844   2.269 -0.7388  0.5709 -3.0827
 6095SOL    HW229748   1.194   1.937   2.220 -1.6610 -0.9508 -0.2206
 6096SOL     OW29749   2.106   2.511   5.785 -0.4465 -0.7053 -0.0432
 6096SOL    HW129750   2.084   2.432   5.834 -3.3758  1.3748  2.0482
 6096SOL    HW229751   2.188   2.550   5.814  0.4789 -2.7054 -0.0068
 6097SOL     OW29752   3.978   3.771  11.574  0.2699 -0.2374  0.2355
 6097SOL    HW129753   4.013   3.815  11.497  1.0142  1.4528  1.5415
 6097SOL    HW229754   3.899   3.819  11.600 -0.6273 -0.7347 -1.5833
 6098SOL     OW29755   0.840   0.299  11.076 -0.1465 -0.1059 -0.3797
 6098SOL    HW129756   0.842   0.277  11.169  0.5968  0.7535 -0.1986
 6098SOL    HW229757   0.856   0.392  11.090 -0.1644 -0.0637 -0.6334
 6099SOL     OW29758   1.353   4.481   7.771 -0.3046  0.1702 -0.6039
 6099SOL    HW129759   1.360   4.557   7.828  0.3976  0.2902 -0.8525
 6099SOL    HW229760   1.444   4.456   7.754 -1.0907 -1.6159 -2.1595
 6100SOL     OW29761   3.256   2.883   9.582 -0.4844 -0.2085  0.4213
 6100SOL    HW129762   3.248   2.846   9.670  3.4693 -1.9627  0.0283
 6100SOL    HW229763   3.169   2.920   9.569  0.2849  1.9637  1.4163
 6101SOL     OW29764   3.502   4.604   1.145  0.3201 -0.6124  0.9774
 6101SOL    HW129765   3.576   4.612   1.084 -0.9612 -0.3536 -0.5601
 6101SOL    HW229766   3.459   4.525   1.112 -0.5173 -0.1145  0.8928
 6102SOL     OW29767   4.210   1.152  13.896  0.3139  0.2874 -0.7361
 6102SOL    HW129768   4.264   1.229  13.880  0.8393 -0.0286 -0.4847
 6102SOL    HW229769   4.123   1.187  13.876 -0.5550 -2.3347 -1.6056
 6103SOL     OW29770   3.002   3.334  15.335  0.0689  0.1822  0.1498
 6103SOL    HW129771   3.038   3.333  15.423  0.2583  0.2500  0.0734
 6103SOL    HW229772   3.013   3.427  15.318  0.7752  0.2255  0.8394
 6104SOL     OW29773   0.322   0.266   7.457  0.7075 -0.3492 -0.3600
 6104SOL    HW129774   0.263   0.225   7.520  2.7097 -1.3389  0.8572
 6104SOL    HW229775   0.308   0.206   7.383 -3.1594 -1.4577  1.2503
 6105SOL     OW29776   0.289   0.885   8.206 -0.1736 -0.1762 -0.0899
 6105SOL    HW129777   0.270   0.864   8.297  4.3530 -2.4854  0.2984
 6105SOL    HW229778   0.366   0.937   8.229  0.0540  0.4984 -2.3619
 6106SOL     OW29779   2.132   2.211   3.595 -0.1167 -0.2285  0.2959
 6106SOL    HW129780   2.190   2.225   3.670 -0.9143  0.5434  0.7605
 6106SOL    HW229781   2.144   2.117   3.578  1.3528 -0.2860  1.6799
 6107SOL     OW29782   1.327   1.682  15.877 -0.3066 -0.2582 -0.0454
 6107SOL    HW129783   1.287   1.695  15.963 -0.0163 -0.7474  0.1661
 6107SOL    HW229784   1.374   1.600  15.893 -0.3241 -0.4308 -0.8627
 6108SOL     OW29785   1.598   2.764   2.102 -0.0113 -0.7262  0.5185
 6108SOL    HW129786   1.583   2.826   2.174  0.4817 -0.4632  0.3938
 6108SOL    HW229787   1.506   2.743   2.088  0.9306 -2.0858 -3.5997
 6109SOL     OW29788   3.614   1.095   5.921 -0.4761 -0.0344 -0.3950
 6109SOL    HW129789   3.682   1.156   5.893 -0.3420  0.2296  0.5027
 6109SOL    HW229790   3.548   1.115   5.855  0.6455 -0.0384 -1.5138
 6110SOL     OW29791   2.832   3.951  10.903 -0.1900  0.0127  0.0939
 6110SOL    HW129792   2.874   3.913  10.826  0.2813 -0.2088  0.4631
 6110SOL    HW229793   2.861   3.898  10.977 -1.5212 -0.8390  0.0184
 6111SOL     OW29794   4.081   2.587  17.545  0.1849  0.3014  0.7017
 6111SOL    HW129795   4.091   2.542  17.461  0.2289  0.4566  0.6251
 6111SOL    HW229796   4.113   2.675  17.529 -0.0855  0.4090  0.7481
 6112SOL     OW29797   2.295   4.036   8.632 -0.0198  0.1064  0.2271
 6112SOL    HW129798   2.206   4.021   8.599 -0.8267  1.6222  1.7160
 6112SOL    HW229799   2.328   3.955   8.594  1.2376  0.9007 -0.3814
 6113SOL     OW29800   4.114   2.817   8.002  0.7937  0.5025  0.0110
 6113SOL    HW129801   4.144   2.895   8.050 -0.8907  0.3841  1.2431
 6113SOL    HW229802   4.106   2.859   7.916  0.5829 -0.4410 -0.4226
 6114SOL     OW29803   1.915   3.057   2.500  0.1504 -0.1810  0.6980
 6114SOL    HW129804   1.827   3.059   2.537  0.6601 -1.1200  1.9779
 6114SOL    HW229805   1.961   3.119   2.556 -0.6642  1.7181 -0.7681
 6115SOL     OW29806   1.492   1.993   4.866  0.9050 -0.2872 -0.1823
 6115SOL    HW129807   1.427   2.019   4.801 -0.4292 -0.9185  0.9028
 6115SOL    HW229808   1.489   2.069   4.923  2.0581  0.5392 -1.2336
 6116SOL     OW29809   2.083   4.429   7.245 -0.2401  0.1812  0.0373
 6116SOL    HW129810   2.082   4.334   7.250 -3.3912  0.1251 -2.0968
 6116SOL    HW229811   2.085   4.442   7.150 -1.6236 -0.0677 -0.0274
 6117SOL     OW29812   2.011   3.214  11.449 -0.4798 -0.1853 -0.2354
 6117SOL    HW129813   1.916   3.216  11.438 -0.6494  2.8537  1.5591
 6117SOL    HW229814   2.031   3.200  11.357 -0.2977 -1.8987  0.0712
 6118SOL     OW29815   3.824   0.331   3.960  0.5012 -0.1593  0.5548
 6118SOL    HW129816   3.750   0.387   3.940  0.1229 -1.3202 -1.3068
 6118SOL    HW229817   3.886   0.399   3.985 -1.5363  1.8520  0.1540
 6119SOL     OW29818   2.247   2.478   3.166  0.4433 -0.2249  0.1846
 6119SOL    HW129819   2.232   2.451   3.257 -0.2678  0.0342  0.1383
 6119SOL    HW229820   2.291   2.563   3.164 -1.2825  0.7014  1.3621
 6120SOL     OW29821   4.055   1.952  13.625  0.0589 -0.2955  0.0754
 6120SOL    HW129822   4.012   2.035  13.604 -4.4252 -2.7427 -0.4516
 6120SOL    HW229823   4.052   1.899  13.545  1.8806 -0.5312  0.1784
 6121SOL     OW29824   2.513   2.362   8.285 -0.2036  0.0765  0.4203
 6121SOL    HW129825   2.537   2.455   8.277  0.9374 -0.2709 -0.1559
 6121SOL    HW229826   2.521   2.349   8.380  0.9699 -0.4889  0.2368
 6122SOL     OW29827   1.434   4.049   9.674  0.3029 -0.0466  0.0373
 6122SOL    HW129828   1.424   4.006   9.758 -2.3969 -0.7813 -0.6704
 6122SOL    HW229829   1.494   4.121   9.692 -0.4177  0.5908 -0.1180
 6123SOL     OW29830   2.650   3.299  13.401  0.5402  0.0231  0.5964
 6123SOL    HW129831   2.691   3.358  13.464 -0.6138  2.7943 -1.2718
 6123SOL    HW229832   2.563   3.291  13.438 -0.4956 -0.8535 -1.9870
 6124SOL     OW29833   3.174   1.340  14.388  0.0633 -0.0275 -0.0461
 6124SOL    HW129834   3.149   1.347  14.296 -0.3372  0.0210  0.0695
 6124SOL    HW229835   3.231   1.263  14.378  0.4901  0.1313  1.0752
 6125SOL     OW29836   0.003   4.632  15.473 -0.1477 -0.3279  0.2402
 6125SOL    HW129837   0.067   4.614  15.542  0.9065  0.8510 -0.4182
 6125SOL    HW229838   0.044   4.597  15.394  1.5238  1.9997  0.0890
 6126SOL     OW29839   0.801   2.505  14.133 -0.1977  0.4050 -0.1167
 6126SOL    HW129840   0.723   2.511  14.189 -0.9334 -0.4576 -1.0319
 6126SOL    HW229841   0.865   2.475  14.197  0.8938  1.8086 -0.5774
 6127SOL     OW29842   1.850   0.186   3.082  0.0493  0.0377  1.3912
 6127SOL    HW129843   1.887   0.150   3.163 -1.1425  0.0723  1.9594
 6127SOL    HW229844   1.853   0.108   3.027 -0.5475  2.5511 -2.2065
 6128SOL     OW29845   2.494   3.362  11.532  0.0889 -0.7058 -0.1280
 6128SOL    HW129846   2.515   3.360  11.438  3.9382  1.9956  0.7017
 6128SOL    HW229847   2.570   3.322  11.573  0.7577  0.1674 -0.5096
 6129SOL     OW29848   2.526   4.531   9.129 -0.3526 -0.6124 -0.2934
 6129SOL    HW129849   2.490   4.452   9.170  0.1882 -0.2265  0.9378
 6129SOL    HW229850   2.568   4.582   9.198 -2.8571 -0.5986  1.2322
 6130SOL     OW29851   4.452   1.036   5.255  0.4098 -0.6440  0.1850
 6130SOL    HW129852   4.467   1.098   5.326 -0.0433  0.9331 -1.0935
 6130SOL    HW229853   4.405   1.083   5.186 -3.9870 -3.5812  1.1582
 6131SOL     OW29854   3.301   2.399   3.735 -0.1730 -0.1334 -0.0777
 6131SOL    HW129855   3.377   2.346   3.759 -0.1826  0.3422  0.9960
 6131SOL    HW229856   3.237   2.335   3.769  1.3545 -0.1849  2.6933
 6132SOL     OW29857   2.463   1.708  17.529 -0.0664  0.0896 -0.1389
 6132SOL    HW129858   2.443   1.775  17.463  0.9960  1.5825  1.0371
 6132SOL    HW229859   2.391   1.647  17.515  0.4686 -0.4142 -0.7221
 6133SOL     OW29860   3.801   1.517   5.007 -0.2213  0.6554  0.3841
 6133SOL    HW129861   3.744   1.591   4.985 -0.0865  1.0909  1.5232
 6133SOL    HW229862   3.843   1.505   4.922 -0.9557  1.3731 -0.0823
 6134SOL     OW29863   0.795   2.690   4.451  0.1090 -0.3559 -0.0555
 6134SOL    HW129864   0.874   2.736   4.423 -1.2497  0.9597 -1.7009
 6134SOL    HW229865   0.760   2.752   4.515  3.2445 -0.1407  1.4700
 6135SOL     OW29866   1.301   1.320  15.030 -0.0396 -0.0556  0.0596
 6135SOL    HW129867   1.383   1.299  15.074  0.3672  1.1814 -0.1270
 6135SOL    HW229868   1.299   1.414  15.045  0.5153 -0.0218 -0.0957
 6136SOL     OW29869   3.471   2.496   7.446  0.7668  0.3733  0.7989
 6136SOL    HW129870   3.502   2.578   7.485 -0.1429  1.8716 -1.5963
 6136SOL    HW229871   3.550   2.442   7.446  0.6194  0.1585  0.9221
 6137SOL     OW29872   3.487   1.060  15.165  0.3506  0.5512 -0.2112
 6137SOL    HW129873   3.462   1.047  15.074  0.9719 -0.2194 -0.2749
 6137SOL    HW229874   3.458   1.150  15.184  2.6319  0.8564  1.8428
 6138SOL     OW29875   0.894   1.094   7.850  0.5729 -0.3107  0.2192
 6138SOL    HW129876   0.884   1.189   7.850 -0.2075 -0.3895  0.9150
 6138SOL    HW229877   0.819   1.065   7.902 -2.7626  1.5818 -3.5373
 6139SOL     OW29878   0.969   2.133   3.214 -0.3118  0.4992  0.4308
 6139SOL    HW129879   0.995   2.108   3.125  0.2232 -1.1631  1.0535
 6139SOL    HW229880   0.922   2.214   3.196 -1.9431 -0.8895 -1.5302
 6140SOL     OW29881   0.536   0.963   9.831  0.1378  0.0872 -0.2006
 6140SOL    HW129882   0.470   0.929   9.770  0.2659 -1.4718  0.5292
 6140SOL    HW229883   0.487   0.972   9.913  1.9283 -2.5624  1.1581
 6141SOL     OW29884   0.823   4.028  10.305 -0.9589 -0.2381  0.7413
 6141SOL    HW129885   0.896   4.057  10.250 -0.6020 -1.4537  0.5639
 6141SOL    HW229886   0.875   4.011  10.383 -1.2446  2.1558  1.4361
 6142SOL     OW29887   1.970   0.871   1.350  0.1312  0.2799 -0.1025
 6142SOL    HW129888   1.884   0.830   1.335  0.9222 -1.4767  0.2162
 6142SOL    HW229889   2.009   0.882   1.264  1.1612  0.4719  0.3847
 6143SOL     OW29890   4.661   2.915  14.942  0.4080 -0.3284 -0.1041
 6143SOL    HW129891   4.578   2.937  14.899  0.9781 -0.4035 -1.2275
 6143SOL    HW229892   4.618   2.849  14.996 -1.6041 -0.2358 -1.6104
 6144SOL     OW29893   0.869   1.068   3.540 -0.2516  0.0083  0.1194
 6144SOL    HW129894   0.892   1.107   3.455  1.0177  1.1691  0.9999
 6144SOL    HW229895   0.842   1.143   3.592  1.5756  0.0953  0.9519
 6145SOL     OW29896   0.354   3.474  15.861 -0.1677  0.4899  0.0790
 6145SOL    HW129897   0.353   3.399  15.921  2.5355  0.6156  0.2654
 6145SOL    HW229898   0.406   3.533  15.916  2.4670 -0.1401 -1.7382
 6146SOL     OW29899   4.004   0.514   4.038  0.0641 -0.0479 -0.0247
 6146SOL    HW129900   3.940   0.581   4.015  0.1207 -0.4437 -1.3304
 6146SOL    HW229901   4.085   0.543   3.997  0.6380 -0.9898  0.4339
 6147SOL     OW29902   3.176   2.061   7.876  0.0300  0.1454 -0.1187
 6147SOL    HW129903   3.124   2.025   7.804 -2.9834  1.1093  1.5817
 6147SOL    HW229904   3.116   2.047   7.950  0.1721 -0.8373 -0.1839
 6148SOL     OW29905   3.651   0.093   7.268 -0.2473  0.0129  0.1008
 6148SOL    HW129906   3.612   0.153   7.204  0.6187  1.8264  1.2694
 6148SOL    HW229907   3.636   0.148   7.345 -1.4204 -1.5010  0.9580
 6149SOL     OW29908   3.126   2.770  10.974 -0.6299  0.0288 -0.0897
 6149SOL    HW129909   3.148   2.695  11.028 -1.5521  0.0555  0.3205
 6149SOL    HW229910   3.031   2.773  10.978 -0.7583 -1.8504 -1.4639
 6150SOL     OW29911   3.863   1.103   7.971  0.2617  0.0545  0.0828
 6150SOL    HW129912   3.829   1.168   7.909  0.0388 -2.2642 -2.2019
 6150SOL    HW229913   3.817   1.127   8.052 -0.1057 -0.3905  0.0032
 6151SOL     OW29914   0.594   2.338  12.444  0.5337 -0.0074 -0.0255
 6151SOL    HW129915   0.551   2.282  12.379 -0.5236  0.1697  0.5189
 6151SOL    HW229916   0.684   2.328  12.414  0.6109  2.8625 -0.7471
 6152SOL     OW29917   0.142   1.108   9.184  0.0856  0.0313  0.3067
 6152SOL    HW129918   0.120   1.200   9.199  2.3079  0.6804 -0.4115
 6152SOL    HW229919   0.226   1.115   9.139  0.5009 -2.8761  0.6281
 6153SOL     OW29920   1.497   3.492   3.950 -0.3566 -0.1579  0.4074
 6153SOL    HW129921   1.488   3.455   4.038 -1.9838 -1.4561 -0.3076
 6153SOL    HW229922   1.419   3.547   3.942  0.7841  1.4997  0.8091
 6154SOL     OW29923   0.343   2.929   4.156 -0.3784 -0.2962 -0.2509
 6154SOL    HW129924   0.332   3.022   4.138  1.5369  0.1031  0.6356
 6154SOL    HW229925   0.436   2.921   4.175 -0.0894  0.9782 -1.1720
 6155SOL     OW29926   3.073   1.833   2.864 -0.1092 -0.1003  0.4909
 6155SOL    HW129927   3.013   1.782   2.919 -0.3665  0.6459  0.9026
 6155SOL    HW229928   3.097   1.766   2.800 -1.9055  0.1353 -0.4347
 6156SOL     OW29929   2.324   0.871   2.304 -0.4599  0.2820 -0.3263
 6156SOL    HW129930   2.248   0.817   2.328 -0.9812  1.3630  0.4760
 6156SOL    HW229931   2.356   0.906   2.387 -0.8233  3.9219 -1.7437
 6157SOL     OW29932   3.398   2.834   9.136 -0.6748  0.1921 -0.0982
 6157SOL    HW129933   3.305   2.812   9.127 -0.7299  1.0115 -1.6237
 6157SOL    HW229934   3.391   2.903   9.203 -1.6406  0.0023 -0.0072
 6158SOL     OW29935   2.730   2.735  11.061  0.1398 -0.4222 -0.0899
 6158SOL    HW129936   2.749   2.807  11.121  1.1834  0.0823 -1.0274
 6158SOL    HW229937   2.708   2.782  10.981  0.9051  0.7353  0.3726
 6159SOL     OW29938   0.491   3.392   3.677 -0.3138  0.3306  0.6951
 6159SOL    HW129939   0.541   3.312   3.693 -0.9756 -0.3978 -0.8461
 6159SOL    HW229940   0.427   3.349   3.621 -0.1515 -0.8504  1.4202
 6160SOL     OW29941   1.070   2.896   7.343 -0.5722 -0.6639 -0.2638
 6160SOL    HW129942   1.049   2.966   7.405  0.4703  1.9824 -2.8982
 6160SOL    HW229943   1.115   2.839   7.406 -2.5746  0.3672  2.1204
 6161SOL     OW29944   2.991   4.669   7.532 -0.0435 -0.0731 -0.3936
 6161SOL    HW129945   3.074   4.628   7.557  1.1026  0.7038 -2.9941
 6161SOL    HW229946   3.028   0.033   7.516 -0.8360  0.0427 -1.6117
 6162SOL     OW29947   0.178   0.613   4.251  0.4097  0.5128  0.5656
 6162SOL    HW129948   0.205   0.705   4.258 -0.0885  0.6928  0.2006
 6162SOL    HW229949   0.223   0.574   4.325  0.2155 -1.1626 -0.2109
 6163SOL     OW29950   1.192   2.772   5.209 -0.2004  0.1421 -0.1482
 6163SOL    HW129951   1.158   2.706   5.149 -1.8820  1.9428 -1.2056
 6163SOL    HW229952   1.202   2.723   5.290 -2.3940 -0.4421 -0.2104
 6164SOL     OW29953   0.992   1.951   4.742 -0.1574  0.0914  0.3838
 6164SOL    HW129954   1.010   1.858   4.734  0.6852  0.1768  1.2135
 6164SOL    HW229955   1.080   1.990   4.744 -0.3273  0.5088 -0.2837
 6165SOL     OW29956   2.733   0.943   8.251 -0.3496  0.0753  0.6300
 6165SOL    HW129957   2.705   0.903   8.333  3.3666  1.6231  2.6664
 6165SOL    HW229958   2.753   0.871   8.192 -0.9433  1.5245 -1.3511
 6166SOL     OW29959   4.167   0.847   3.980  0.1884  0.3575  0.5409
 6166SOL    HW129960   4.193   0.762   3.945  1.4475  1.1285 -0.4191
 6166SOL    HW229961   4.246   0.896   3.957  1.5854 -1.2195  1.9766
 6167SOL     OW29962   3.005   3.426   1.671  0.0778 -0.2731  0.4520
 6167SOL    HW129963   3.067   3.497   1.680  0.3171 -0.3868 -0.3105
 6167SOL    HW229964   2.960   3.451   1.590 -0.8676 -0.8504  0.7927
 6168SOL     OW29965   2.612   2.903   8.767 -0.5949 -0.1969 -0.1089
 6168SOL    HW129966   2.564   2.888   8.848  0.0333  0.5661  0.4045
 6168SOL    HW229967   2.656   2.821   8.742  0.3727  0.4986 -0.6495
 6169SOL     OW29968   2.880   2.655   4.545 -0.0541 -0.6385 -0.2880
 6169SOL    HW129969   2.815   2.616   4.604 -0.1270 -0.4606 -0.2506
 6169SOL    HW229970   2.904   2.571   4.507 -0.8969 -0.9744 -0.0710
 6170SOL     OW29971   3.767   3.746   6.883  0.3413  0.0688 -0.2517
 6170SOL    HW129972   3.686   3.695   6.892  0.9559 -0.7815  0.4720
 6170SOL    HW229973   3.791   3.723   6.793  0.4493 -1.2357  0.0987
 6171SOL     OW29974   0.304   1.196   2.405 -0.0326  1.0387 -0.0809
 6171SOL    HW129975   0.342   1.115   2.439  1.6065  1.9236  0.2100
 6171SOL    HW229976   0.339   1.260   2.467  0.3239 -0.9151  1.7343
 6172SOL     OW29977   4.296   2.296   6.162 -0.2474 -0.6410 -0.0235
 6172SOL    HW129978   4.205   2.324   6.178 -1.0914 -2.3812 -1.7943
 6172SOL    HW229979   4.311   2.239   6.237 -0.8887  1.4390  1.6919
 6173SOL     OW29980   1.819   2.565   6.969 -0.3436 -0.3281  0.5169
 6173SOL    HW129981   1.731   2.600   6.977 -1.1131 -2.3282  0.7970
 6173SOL    HW229982   1.831   2.527   7.056 -1.1029  0.7651  1.0924
 6174SOL     OW29983   3.473   1.490   7.525  0.3509  0.0556 -0.5040
 6174SOL    HW129984   3.476   1.584   7.508  1.9970  0.4116  1.7130
 6174SOL    HW229985   3.400   1.477   7.586 -1.1281 -0.2903 -2.3716
 6175SOL     OW29986   0.942   1.233   7.459 -0.1199 -0.6352  0.5391
 6175SOL    HW129987   0.933   1.309   7.516  0.0349 -0.1716 -0.0560
 6175SOL    HW229988   0.959   1.275   7.375 -3.5058  2.0939  1.2351
 6176SOL     OW29989   1.388   0.178   0.419 -0.1461 -0.0480 -0.7434
 6176SOL    HW129990   1.439   0.156   0.497  0.0283 -0.3772 -0.9488
 6176SOL    HW229991   1.394   0.273   0.430  1.2344 -0.2087 -0.0867
 6177SOL     OW29992   2.549   3.819   4.975  0.4319  0.0935  0.1301
 6177SOL    HW129993   2.619   3.764   5.011  0.8676 -0.1902 -1.1518
 6177SOL    HW229994   2.573   3.825   4.882 -0.6969 -0.4626 -0.1834
 6178SOL     OW29995   1.514   0.851   2.862 -0.0984 -0.2161 -0.1823
 6178SOL    HW129996   1.424   0.880   2.876 -0.2624 -0.1466 -1.3469
 6178SOL    HW229997   1.528   0.921   2.798 -0.0449  1.1774  1.3493
 6179SOL     OW29998   2.108   3.900   8.075  0.3166 -0.0799 -0.1884
 6179SOL    HW129999   2.015   3.918   8.094  0.7730  1.0198  1.0253
 6179SOL    HW230000   2.130   3.937   7.990  3.1978  1.6176  1.2894
 6180SOL     OW30001   2.417   3.023   4.685  0.4020 -0.0313 -0.1823
 6180SOL    HW130002   2.454   2.946   4.727 -1.1066 -1.3191 -1.2112
 6180SOL    HW230003   2.324   3.002   4.686 -0.2920  2.9742  0.6118
 6181SOL     OW30004   2.923   0.853   6.124 -0.4113 -0.7561  0.4179
 6181SOL    HW130005   2.931   0.912   6.049 -3.6696  0.2834  0.9105
 6181SOL    HW230006   2.865   0.896   6.186  0.3336 -1.8840  1.9157
 6182SOL     OW30007   1.165   2.413   5.925  0.4264 -1.0047 -0.5107
 6182SOL    HW130008   1.151   2.449   6.013  1.4579 -0.1487 -0.6964
 6182SOL    HW230009   1.218   2.336   5.943  2.1398  0.4729  0.6645
 6183SOL     OW30010   1.452   3.885   9.905 -0.0847 -0.4813 -0.0757
 6183SOL    HW130011   1.508   3.915   9.978  0.2983  1.7298 -1.2829
 6183SOL    HW230012   1.501   3.812   9.867 -0.8592  0.8088 -3.5365
 6184SOL     OW30013   2.374   4.131   9.114  0.0645  0.8628 -0.2105
 6184SOL    HW130014   2.333   4.138   9.028 -0.9317 -0.5388  0.1554
 6184SOL    HW230015   2.330   4.049   9.135 -0.3987  1.3772  0.8593
 6185SOL     OW30016   2.369   3.790   1.703  0.2046 -0.0457 -0.3663
 6185SOL    HW130017   2.390   3.697   1.714 -0.8425 -0.4891 -2.0554
 6185SOL    HW230018   2.284   3.800   1.747  0.8018  3.4074 -0.0061
 6186SOL     OW30019   4.085   1.570   6.063  0.4818  0.4690  0.1511
 6186SOL    HW130020   4.029   1.496   6.038  1.0504  0.2470 -0.4411
 6186SOL    HW230021   4.133   1.533   6.137 -1.2098 -0.1457  0.9382
 6187SOL     OW30022   4.048   3.200   7.732  0.0922 -0.0438 -0.2291
 6187SOL    HW130023   4.137   3.213   7.765  0.3517 -1.9270 -0.1891
 6187SOL    HW230024   4.018   3.289   7.717  0.9240  0.5186  1.4353
 6188SOL     OW30025   0.032   1.104   8.427  0.1186  0.2333 -0.3475
 6188SOL    HW130026   4.659   1.110   8.425  0.0479 -0.2850  1.6114
 6188SOL    HW230027   0.061   1.154   8.351  1.8729 -0.7934 -0.3690
 6189SOL     OW30028   2.209   1.012   6.184 -0.3603 -0.5448  0.1267
 6189SOL    HW130029   2.243   0.926   6.208 -0.0607 -0.2073  0.9274
 6189SOL    HW230030   2.199   1.048   6.273  1.9855  1.6243 -0.4883
 6190SOL     OW30031   1.647   4.152   4.352 -0.0157 -0.4028  0.2155
 6190SOL    HW130032   1.630   4.119   4.441 -0.9680 -1.6082 -0.4238
 6190SOL    HW230033   1.693   4.080   4.310 -0.3082 -0.2704 -0.3244
 6191SOL     OW30034   0.266   4.178  15.271  0.6625  0.5668 -0.1742
 6191SOL    HW130035   0.227   4.251  15.318 -0.8113 -0.8833  0.8627
 6191SOL    HW230036   0.357   4.182  15.301  0.5763 -2.5650  0.5565
 6192SOL     OW30037   4.278   0.873   7.073 -0.7482 -0.2348  0.5983
 6192SOL    HW130038   4.304   0.862   7.164  1.6390 -0.2803 -0.0737
 6192SOL    HW230039   4.352   0.910   7.024 -1.8044  0.3931 -0.5341
 6193SOL     OW30040   1.995   2.343   8.558  0.6854  0.4153 -0.2429
 6193SOL    HW130041   2.021   2.379   8.643  2.2444 -1.2982  0.0099
 6193SOL    HW230042   1.913   2.297   8.578  2.0877 -1.7412  0.5279
 6194SOL     OW30043   2.458   1.769   6.370 -0.2615 -0.6871  0.1255
 6194SOL    HW130044   2.397   1.696   6.385  1.7060 -1.9572  1.8789
 6194SOL    HW230045   2.422   1.800   6.287 -2.6435 -0.0425  1.3983
 6195SOL     OW30046   2.485   3.631   7.483 -0.2212  0.5550 -0.0790
 6195SOL    HW130047   2.528   3.556   7.523 -1.9503 -0.8082 -0.8054
 6195SOL    HW230048   2.408   3.588   7.446  1.2609 -0.7101 -1.7164
 6196SOL     OW30049   3.158   0.053   0.707  0.4116 -0.0327  0.4175
 6196SOL    HW130050   3.103   0.127   0.731 -2.2259 -2.4856  2.0590
 6196SOL    HW230051   3.092   4.706   0.711  0.8773 -0.5104 -0.1535
 6197SOL     OW30052   3.722   2.852   8.799  0.4460  0.2899  0.1359
 6197SOL    HW130053   3.670   2.909   8.742  0.3806 -0.4015 -0.4929
 6197SOL    HW230054   3.694   2.879   8.887 -1.4472 -2.8244  0.5008
 6198SOL     OW30055   2.743   3.909   3.832 -0.6304  0.6222 -0.0472
 6198SOL    HW130056   2.759   3.976   3.766 -0.5563  0.9119  0.2656
 6198SOL    HW230057   2.657   3.922   3.871 -1.7866 -0.7084 -2.1102
 6199SOL     OW30058   2.828   3.210  14.091  0.3262  0.0457 -0.0142
 6199SOL    HW130059   2.845   3.230  13.999  2.0025  1.1892  0.5577
 6199SOL    HW230060   2.887   3.274  14.130  0.5660 -0.4112  0.3732
 6200SOL     OW30061   3.796   2.967  15.889  0.3890 -0.2507  0.2791
 6200SOL    HW130062   3.779   2.991  15.981  1.7441 -1.9228  0.9644
 6200SOL    HW230063   3.882   3.007  15.875  0.8171 -1.1475  0.3668
 6201SOL     OW30064   3.085   0.575   5.998 -0.3155 -0.2919  0.0527
 6201SOL    HW130065   3.151   0.541   5.938  1.1816 -0.9592  2.0555
 6201SOL    HW230066   3.035   0.627   5.935  0.0732  0.7377  0.5905
 6202SOL     OW30067   3.066   2.704   2.271 -0.1769 -0.4393 -0.0362
 6202SOL    HW130068   3.072   2.792   2.236  0.6106 -0.6712 -0.4885
 6202SOL    HW230069   2.984   2.670   2.236 -0.4188  0.1019  0.0135
 6203SOL     OW30070   4.722   0.014  14.081  0.2228  0.2978 -0.2759
 6203SOL    HW130071   4.677   0.089  14.121  0.6065  0.2780  0.1891
 6203SOL    HW230072   0.016   4.685  14.159 -1.9787  0.3231  0.2210
 6204SOL     OW30073   1.002   2.828   3.255  0.0381  0.1709 -0.8135
 6204SOL    HW130074   1.040   2.776   3.184  0.4634  0.5791 -0.8891
 6204SOL    HW230075   1.056   2.907   3.250  1.4017 -0.8325 -2.0434
 6205SOL     OW30076   2.554   4.325   7.508  0.5526  0.5161 -0.6882
 6205SOL    HW130077   2.557   4.276   7.590 -1.9638 -1.3269 -1.7143
 6205SOL    HW230078   2.613   4.401   7.514 -0.4989  1.3481 -0.9191
 6206SOL     OW30079   4.157   4.261  16.302 -0.2314  0.2633  0.3478
 6206SOL    HW130080   4.202   4.309  16.233  1.0850 -0.2418  0.8497
 6206SOL    HW230081   4.065   4.273  16.280 -0.2087  1.9112  1.0944
 6207SOL     OW30082   2.881   0.779  14.433 -0.3037 -0.3906  0.1064
 6207SOL    HW130083   2.801   0.733  14.408 -0.1139  0.8742 -2.8413
 6207SOL    HW230084   2.909   0.730  14.511 -1.6741 -1.1693  0.1031
 6208SOL     OW30085   0.232   2.593   6.729  0.4682 -0.1618 -0.5269
 6208SOL    HW130086   0.274   2.531   6.788 -1.8650 -0.5927  0.6906
 6208SOL    HW230087   0.195   2.528   6.669  1.5193  1.7685 -3.2998
 6209SOL     OW30088   4.149   0.696   6.497 -0.2878  0.0183  0.3115
 6209SOL    HW130089   4.101   0.714   6.578  0.9142 -2.7238  1.6383
 6209SOL    HW230090   4.103   0.618   6.467  0.5890 -1.4972  2.8670
 6210SOL     OW30091   3.648   4.336  13.110 -0.0552 -0.9148 -0.3057
 6210SOL    HW130092   3.667   4.343  13.204 -4.8939  1.4849  0.4570
 6210SOL    HW230093   3.672   4.425  13.085 -2.4839 -0.3613 -0.6646
 6211SOL     OW30094   3.869   1.149   2.172  0.3807 -0.2400  0.6297
 6211SOL    HW130095   3.863   1.137   2.078  2.2576  1.5700  0.2970
 6211SOL    HW230096   3.963   1.164   2.179  0.0659  0.9059  2.4596
 6212SOL     OW30097   1.910   1.989   4.407  0.4015  0.4608  0.0770
 6212SOL    HW130098   1.827   2.036   4.404  1.5455  2.4229 -0.6545
 6212SOL    HW230099   1.936   1.982   4.316 -0.3701  0.4884 -0.1442
 6213SOL     OW30100   0.136   1.758  12.065  0.0752  0.1383 -0.1613
 6213SOL    HW130101   0.085   1.734  12.143 -0.3101 -0.2054 -0.5180
 6213SOL    HW230102   0.226   1.729  12.077  0.4314  0.6650 -1.5055
 6214SOL     OW30103   0.492   1.354   2.548 -0.1497  0.4148 -0.2433
 6214SOL    HW130104   0.578   1.318   2.525  0.3074  0.2978  1.6625
 6214SOL    HW230105   0.490   1.437   2.499 -1.9717  2.0965  2.7021
 6215SOL     OW30106   1.514   2.187   8.970 -0.4879 -0.0281  0.0131
 6215SOL    HW130107   1.495   2.216   9.059  1.1591 -0.6908  0.5726
 6215SOL    HW230108   1.478   2.099   8.978 -1.6254  0.5203  1.0630
 6216SOL     OW30109   0.562   0.228   3.249  0.0968 -0.4016  0.2300
 6216SOL    HW130110   0.543   0.171   3.174 -0.9768  1.5887 -1.0088
 6216SOL    HW230111   0.585   0.310   3.205  2.1219 -2.0376 -1.7200
 6217SOL     OW30112   2.146   1.547  16.124  0.2431  0.0390  0.7297
 6217SOL    HW130113   2.195   1.465  16.118  0.7851  0.3661  0.7036
 6217SOL    HW230114   2.215   1.600  16.085 -0.2669 -0.1352 -0.4070
 6218SOL     OW30115   3.608   0.289   5.055 -0.3241  0.3376  0.3351
 6218SOL    HW130116   3.584   0.201   5.084  1.3215 -0.9416 -2.1716
 6218SOL    HW230117   3.681   0.315   5.111 -2.6554  2.5057  2.3932
 6219SOL     OW30118   3.223   0.586   8.159  0.0800  0.3827  0.1911
 6219SOL    HW130119   3.297   0.568   8.216  0.1169  1.1672  0.3939
 6219SOL    HW230120   3.246   0.520   8.093  0.1570  0.4663  0.1335
 6220SOL     OW30121   3.640   4.320   3.229  0.2654 -0.4871 -0.6030
 6220SOL    HW130122   3.665   4.362   3.147  3.3031 -1.5330 -0.2266
 6220SOL    HW230123   3.713   4.261   3.252  0.8983  0.8027  0.6865
 6221SOL     OW30124   1.448   2.264   7.070 -0.5583 -0.0943 -0.2042
 6221SOL    HW130125   1.531   2.287   7.029 -1.1012 -1.4559 -2.0621
 6221SOL    HW230126   1.437   2.169   7.060  0.6742 -0.4431  1.8033
 6222SOL     OW30127   1.018   0.180   1.406  0.6186  0.3170 -0.1717
 6222SOL    HW130128   1.062   0.260   1.375 -0.6204  0.7916 -0.6930
 6222SOL    HW230129   1.061   0.168   1.491 -3.5038 -0.1950  1.8097
 6223SOL     OW30130   1.576   3.419   9.553  0.0903  0.0664  0.0151
 6223SOL    HW130131   1.506   3.460   9.503  0.6529  0.2005 -0.6648
 6223SOL    HW230132   1.656   3.437   9.504 -1.0334 -0.0807 -1.8667
 6224SOL     OW30133   0.822   1.501   3.842  0.1041  0.4189 -0.1244
 6224SOL    HW130134   0.901   1.528   3.888  1.0716 -0.7658 -1.0749
 6224SOL    HW230135   0.791   1.582   3.803  0.8099  1.5847  1.7546
 6225SOL     OW30136   1.958   3.092   4.283  0.0898 -0.1492  0.5238
 6225SOL    HW130137   2.020   3.023   4.304  0.8188  0.1527 -0.6048
 6225SOL    HW230138   2.002   3.131   4.207 -2.2605  0.3046 -0.6203
 6226SOL     OW30139   4.145   3.829   7.262 -0.3702  0.5898 -0.2985
 6226SOL    HW130140   4.121   3.747   7.220  1.7757 -0.7924  1.1698
 6226SOL    HW230141   4.218   3.859   7.208  0.6689 -1.7459 -0.2051
 6227SOL     OW30142   3.299   1.095  14.340 -0.4593  0.3050  0.4671
 6227SOL    HW130143   3.314   1.026  14.404 -1.4489 -2.8694 -2.7636
 6227SOL    HW230144   3.213   1.060  14.318 -0.4717 -0.8338  2.4001
 6228SOL     OW30145   0.223   1.040  16.151 -0.0647  0.2155 -0.0114
 6228SOL    HW130146   0.174   0.985  16.091  0.5199 -0.6361  0.3022
 6228SOL    HW230147   0.174   1.122  16.164  0.6060  0.7807 -1.1146
 6229SOL     OW30148   1.714   4.680   3.498  0.1170 -0.1538 -0.7798
 6229SOL    HW130149   1.648   4.628   3.453  0.0581 -0.8059  0.0573
 6229SOL    HW230150   1.788   4.694   3.438  1.6555 -0.2916  1.0786
 6230SOL     OW30151   3.809   4.720   9.331 -0.3546 -0.6547  0.0343
 6230SOL    HW130152   3.807   0.049   9.412  0.7992 -0.0310 -0.3498
 6230SOL    HW230153   3.894   4.678   9.329  0.0914  0.2531 -0.3105
 6231SOL     OW30154   2.413   1.550  13.259  0.1273  0.4807 -0.0226
 6231SOL    HW130155   2.460   1.538  13.176 -1.8372 -0.7161 -0.9794
 6231SOL    HW230156   2.492   1.547  13.313  1.7820 -3.0547 -2.6389
 6232SOL     OW30157   2.977   4.091  15.305 -0.1054 -0.6330  0.1585
 6232SOL    HW130158   2.967   4.073  15.211  2.2760 -0.0794 -0.2202
 6232SOL    HW230159   3.006   4.180  15.324 -0.6001 -0.5636  0.5650
 6233SOL     OW30160   3.118   0.140  14.132  0.0512 -0.1786  0.6576
 6233SOL    HW130161   3.052   0.081  14.095  1.0461 -0.8291 -0.0841
 6233SOL    HW230162   3.118   0.108  14.222  1.2946 -0.0666  0.7066
 6234SOL     OW30163   1.321   3.892   7.082  0.7710  0.1229 -0.7541
 6234SOL    HW130164   1.400   3.837   7.090  0.0663 -1.0497 -1.9939
 6234SOL    HW230165   1.345   3.947   7.008  0.3690  2.0649  0.5658
 6235SOL     OW30166   1.519   3.457   0.968  0.0154  0.0028  0.2495
 6235SOL    HW130167   1.454   3.480   0.901 -0.0791  0.8019  0.6172
 6235SOL    HW230168   1.477   3.455   1.054 -2.3657 -0.5581 -0.9272
 6236SOL     OW30169   0.288   3.006  12.067 -0.1753  0.0050 -0.3218
 6236SOL    HW130170   0.210   3.061  12.059  1.2835  2.3938  1.8257
 6236SOL    HW230171   0.299   2.962  11.983 -1.8201  0.5862 -0.8405
 6237SOL     OW30172   0.957   2.856  12.780 -0.1559  0.6591 -0.0284
 6237SOL    HW130173   1.010   2.919  12.828  1.4692  1.3398 -2.7289
 6237SOL    HW230174   0.982   2.770  12.815 -0.5653  1.7650  3.0273
 6238SOL     OW30175   1.659   3.655   6.254  0.1534 -0.0747 -0.1930
 6238SOL    HW130176   1.722   3.585   6.273 -0.0307 -0.5480 -1.3054
 6238SOL    HW230177   1.713   3.732   6.239 -0.4669  0.5382  0.7151
 6239SOL     OW30178   4.557   1.847   5.430  0.5789 -0.0644  0.7181
 6239SOL    HW130179   4.528   1.929   5.470 -0.4607  0.3854 -0.9630
 6239SOL    HW230180   4.651   1.861   5.438  0.5956 -0.8729  1.9209
 6240SOL     OW30181   4.318   3.360   7.495 -0.0643 -0.1818  0.2957
 6240SOL    HW130182   4.370   3.423   7.445  0.5176 -0.5475  0.4301
 6240SOL    HW230183   4.389   3.318   7.544 -0.4689  0.2185  1.2205
 6241SOL     OW30184   4.472   0.430   2.809 -0.0773 -0.3084 -0.1496
 6241SOL    HW130185   4.393   0.405   2.856 -1.2426  2.6542 -0.5676
 6241SOL    HW230186   4.430   0.486   2.744 -0.7339 -0.0798  0.4755
 6242SOL     OW30187   4.701   0.848   6.784  0.5953 -0.2764  1.0094
 6242SOL    HW130188   4.622   0.805   6.751 -0.9264  0.8944  3.0670
 6242SOL    HW230189   0.007   0.799   6.861  0.1721  1.1791  2.1128
 6243SOL     OW30190   1.774   2.838   7.583  0.2901 -0.2275  0.1333
 6243SOL    HW130191   1.732   2.842   7.669  0.1497  0.3983  0.0333
 6243SOL    HW230192   1.744   2.750   7.560 -0.3906  0.0579 -0.0763
 6244SOL     OW30193   4.330   1.548   1.815  0.1254 -0.2459 -0.0019
 6244SOL    HW130194   4.352   1.477   1.755  0.9714 -1.6129  1.9203
 6244SOL    HW230195   4.319   1.610   1.742  1.7544  0.7230  0.5847
 6245SOL     OW30196   0.190   3.791   0.862  0.3825  0.2999 -0.1463
 6245SOL    HW130197   0.198   3.757   0.952  1.8910  4.0227  1.1297
 6245SOL    HW230198   0.214   3.711   0.815 -1.2426 -0.8481  0.9981
 6246SOL     OW30199   1.851   1.316   9.078  0.0931 -0.2739 -0.9499
 6246SOL    HW130200   1.787   1.380   9.048  0.6020  1.1904  1.0741
 6246SOL    HW230201   1.796   1.265   9.138  0.8643 -0.1964 -0.1762
 6247SOL     OW30202   3.074   3.269   3.269 -0.1871 -0.5627  0.2144
 6247SOL    HW130203   3.113   3.185   3.245  0.0171 -0.6596  0.8983
 6247SOL    HW230204   3.031   3.241   3.350  1.0342  1.6946  1.6568
 6248SOL     OW30205   0.153   2.412   7.999 -0.0703  0.0342  0.1937
 6248SOL    HW130206   0.096   2.379   7.930  1.7641 -3.6907  0.4437
 6248SOL    HW230207   0.172   2.502   7.976  0.6807  0.0013  0.6800
 6249SOL     OW30208   4.513   4.555   1.503 -0.4394  0.5543  0.0493
 6249SOL    HW130209   4.556   4.489   1.557 -3.0737 -0.4395  0.9367
 6249SOL    HW230210   4.421   4.538   1.521 -0.5159  0.4291 -0.4672
 6250SOL     OW30211   3.649   1.966   6.314  0.1971 -0.1632  0.1546
 6250SOL    HW130212   3.735   1.927   6.293  1.0362  0.6483  2.0985
 6250SOL    HW230213   3.605   1.884   6.292  0.3975 -0.0825 -0.5495
 6251SOL     OW30214   2.448   3.460  11.185  0.2003 -0.4584 -0.0474
 6251SOL    HW130215   2.540   3.474  11.204  0.1674  2.3239 -1.9056
 6251SOL    HW230216   2.439   3.522  11.113 -1.2818  0.1455  0.6469
 6252SOL     OW30217   2.372   0.785   2.859  0.1393  0.2241  0.1708
 6252SOL    HW130218   2.420   0.752   2.935 -0.6806 -0.6509  0.3106
 6252SOL    HW230219   2.446   0.815   2.807 -0.2204  1.1008  0.1734
 6253SOL     OW30220   3.964   2.144   0.664  0.3408 -0.0430 -0.3720
 6253SOL    HW130221   3.905   2.208   0.624  0.3301  0.3028  0.1991
 6253SOL    HW230222   3.970   2.192   0.747 -1.0733 -0.5288  0.0103
 6254SOL     OW30223   2.116   2.054   8.328 -0.1654 -0.2017 -0.1503
 6254SOL    HW130224   2.165   2.130   8.360 -1.8283  0.1264  1.5836
 6254SOL    HW230225   2.025   2.083   8.317  0.3153  1.1316 -0.5748
 6255SOL     OW30226   2.280   1.277   1.283  0.8649  0.6495  0.1133
 6255SOL    HW130227   2.296   1.256   1.191  0.1762  1.0928 -0.1116
 6255SOL    HW230228   2.195   1.235   1.296  1.1893 -0.4971 -1.4045
 6256SOL     OW30229   0.725   2.606   1.471 -0.6412 -0.3712  0.4583
 6256SOL    HW130230   0.817   2.592   1.493 -0.3360  2.0337  0.7650
 6256SOL    HW230231   0.678   2.568   1.545  1.4924 -0.7891  1.5943
 6257SOL     OW30232   1.940   1.236   6.622  0.4094 -0.0289 -0.2946
 6257SOL    HW130233   1.989   1.245   6.540 -1.9955 -0.1420 -1.7339
 6257SOL    HW230234   1.932   1.142   6.631 -0.5273 -0.0350 -1.2123
 6258SOL     OW30235   0.343   1.801  16.576  0.1844  0.9623 -0.0108
 6258SOL    HW130236   0.306   1.712  16.576 -0.2608  1.1448 -1.2010
 6258SOL    HW230237   0.317   1.838  16.660 -0.5204  0.5785 -0.0596
 6259SOL     OW30238   0.755   1.443   9.036  0.2199  0.5772 -0.9117
 6259SOL    HW130239   0.828   1.504   9.048  2.0668 -1.4518 -1.9376
 6259SOL    HW230240   0.800   1.359   9.045  0.0630  0.5177 -0.6800
 6260SOL     OW30241   3.942   1.873  15.584 -0.4408  0.1896 -0.0042
 6260SOL    HW130242   3.950   1.839  15.495 -1.6723  0.0939 -0.0767
 6260SOL    HW230243   4.026   1.918  15.597 -0.8810  0.5557  1.6236
 6261SOL     OW30244   4.577   4.393   4.557  0.3807 -0.8507  0.1851
 6261SOL    HW130245   4.608   4.431   4.639  1.5035  1.1487 -1.1590
 6261SOL    HW230246   4.665   4.381   4.521  1.1773  0.4929  1.7086
 6262SOL     OW30247   4.061   3.728  11.279 -0.7332  0.0802 -0.4425
 6262SOL    HW130248   4.106   3.716  11.195  1.5638  0.5534  0.7242
 6262SOL    HW230249   4.105   3.653  11.318  0.7089  0.6981 -0.9088
 6263SOL     OW30250   3.056   3.223   9.942  0.0908  0.4911  0.6520
 6263SOL    HW130251   3.109   3.212   9.864 -1.9960  1.9521 -0.9603
 6263SOL    HW230252   3.090   3.154   9.999 -1.5608 -0.6898  0.2090
 6264SOL     OW30253   1.145   0.312   9.747 -0.2786  0.4760  0.5864
 6264SOL    HW130254   1.185   0.397   9.729  0.4666 -0.2569 -1.2212
 6264SOL    HW230255   1.090   0.344   9.819 -2.2241  0.9360 -1.0945
 6265SOL     OW30256   2.389   2.998   2.880 -0.4687  0.4299  0.4700
 6265SOL    HW130257   2.401   2.962   2.968  3.8618 -1.3906 -0.8552
 6265SOL    HW230258   2.387   3.092   2.899  1.6799  0.2620  1.4535
 6266SOL     OW30259   1.055   4.682   6.362  0.1823 -0.0452  0.1271
 6266SOL    HW130260   0.972   4.637   6.379  1.7590 -1.9663  2.7324
 6266SOL    HW230261   1.047   0.044   6.406  1.3674  1.3792 -2.4137
 6267SOL     OW30262   2.738   2.783   2.350 -0.4897 -0.3548 -0.0247
 6267SOL    HW130263   2.740   2.777   2.254  1.8522  0.6445 -0.0568
 6267SOL    HW230264   2.652   2.749   2.371  0.4843 -2.1228  1.1402
 6268SOL     OW30265   2.214   0.669   8.587  0.0058 -0.2998  0.5209
 6268SOL    HW130266   2.240   0.721   8.511  0.2422 -1.6913 -0.3505
 6268SOL    HW230267   2.291   0.611   8.591  0.0223 -0.0071  4.7812
 6269SOL     OW30268   3.454   0.905  15.606 -0.2108 -0.6375 -0.0311
 6269SOL    HW130269   3.540   0.946  15.597 -0.2736  0.2264  3.3763
 6269SOL    HW230270   3.490   0.818  15.627 -0.4699 -1.1418 -1.6635
 6270SOL     OW30271   0.744   0.534   5.748 -0.0306 -0.3319 -0.1587
 6270SOL    HW130272   0.654   0.529   5.780  0.8328  0.8386  2.4084
 6270SOL    HW230273   0.786   0.554   5.831 -0.4474  0.3265 -0.1073
 6271SOL     OW30274   2.371   2.167  12.959  0.0458 -0.0835 -0.2471
 6271SOL    HW130275   2.372   2.262  12.960  0.1062 -0.0758 -0.8435
 6271SOL    HW230276   2.455   2.150  12.916 -1.2823 -0.5992 -2.6032
 6272SOL     OW30277   3.562   4.613   4.681  0.3117  0.6529  0.6630
 6272SOL    HW130278   3.474   4.635   4.652  0.7541  2.0302  0.3301
 6272SOL    HW230279   3.611   4.690   4.652 -0.7617  0.8278 -0.6451
 6273SOL     OW30280   4.362   0.208   3.456 -0.3784  0.5972 -0.4337
 6273SOL    HW130281   4.443   0.207   3.405  0.1033 -1.9327  0.3774
 6273SOL    HW230282   4.291   0.190   3.394 -1.8928  1.3478  1.0931
 6274SOL     OW30283   0.689   0.618   4.965 -0.6625 -0.5687 -0.0008
 6274SOL    HW130284   0.673   0.666   4.884  0.4839 -0.6308 -0.2595
 6274SOL    HW230285   0.685   0.688   5.030  1.4754  0.3067 -0.8004
 6275SOL     OW30286   0.521   2.029   8.331 -0.2711 -0.1473  0.6568
 6275SOL    HW130287   0.491   1.983   8.253 -2.6114  0.8490  0.9648
 6275SOL    HW230288   0.508   1.963   8.399 -2.0695 -2.6348 -2.1098
 6276SOL     OW30289   0.816   4.025   6.643  0.1611 -0.3488  0.4719
 6276SOL    HW130290   0.784   3.983   6.723 -0.2761  0.0249  0.4956
 6276SOL    HW230291   0.761   4.103   6.647 -0.4730 -0.9023  2.7999
 6277SOL     OW30292   3.186   3.175   2.894  0.1714  0.5295  0.4951
 6277SOL    HW130293   3.151   3.095   2.855  1.1868 -0.1977  1.0920
 6277SOL    HW230294   3.174   3.238   2.823 -1.7004  0.3899  0.6841
 6278SOL     OW30295   2.613   2.205   7.452  0.0091 -0.5279 -0.0406
 6278SOL    HW130296   2.520   2.213   7.430 -0.6797  1.0821  3.3800
 6278SOL    HW230297   2.657   2.276   7.406  4.0523 -0.9210  3.1915
 6279SOL     OW30298   1.151   2.481  13.756 -0.6313  0.2792  0.2764
 6279SOL    HW130299   1.084   2.448  13.816 -0.1883 -1.0975  0.0171
 6279SOL    HW230300   1.091   2.528  13.698 -0.2972  0.0126 -0.2876
 6280SOL     OW30301   1.173   2.380  10.638 -0.3651 -0.6155  0.2228
 6280SOL    HW130302   1.095   2.325  10.635 -0.6360 -0.2083 -0.2761
 6280SOL    HW230303   1.157   2.436  10.714 -2.1552 -1.0677  0.1728
 6281SOL     OW30304   4.086   3.170   9.818 -0.2514 -0.0079 -0.5447
 6281SOL    HW130305   4.077   3.110   9.744 -0.3360  1.4879 -1.7317
 6281SOL    HW230306   4.114   3.253   9.781 -0.4027 -0.0385 -0.7305
 6282SOL     OW30307   4.071   1.278  10.214  0.1683  0.2855 -0.3440
 6282SOL    HW130308   4.104   1.204  10.265  0.1889 -0.7236 -1.8220
 6282SOL    HW230309   3.996   1.233  10.175  0.2242 -1.1027  1.1812
 6283SOL     OW30310   3.661   1.045  14.033  0.0826 -0.1509  0.5286
 6283SOL    HW130311   3.575   1.085  14.023  1.0089  1.8712  0.6287
 6283SOL    HW230312   3.718   1.106  13.987  1.1073 -0.9310  0.7484
 6284SOL     OW30313   3.553   0.083   5.317 -0.3063  0.0674 -0.4348
 6284SOL    HW130314   3.535   0.008   5.374 -1.9217 -0.0986 -1.1663
 6284SOL    HW230315   3.507   0.148   5.369  0.1307  0.0693 -0.0526
 6285SOL     OW30316   3.597   1.724   6.001  0.0045  0.4939  0.0774
 6285SOL    HW130317   3.549   1.796   5.959  0.1839  0.8686  0.5126
 6285SOL    HW230318   3.547   1.726   6.083  0.0947  0.2091  0.1369
 6286SOL     OW30319   3.333   2.010   2.721  0.1187  0.5220 -0.6777
 6286SOL    HW130320   3.324   2.036   2.812 -1.3469  0.6490 -0.8588
 6286SOL    HW230321   3.415   2.052   2.695  0.4187  0.8102  0.7768
 6287SOL     OW30322   0.876   0.009   8.679  0.3695  0.1069 -0.5684
 6287SOL    HW130323   0.929   4.685   8.743 -0.1486 -1.5476 -1.3221
 6287SOL    HW230324   0.856   0.094   8.718 -1.4798 -1.0290  0.9433
 6288SOL     OW30325   0.401   2.906   1.007  0.7833 -0.1793 -0.3176
 6288SOL    HW130326   0.403   2.929   0.915  0.4317  1.8544  0.1797
 6288SOL    HW230327   0.474   2.954   1.047  1.7546 -1.4187 -0.6164
 6289SOL     OW30328   3.366   1.911   4.793  0.0857 -0.1794  0.0064
 6289SOL    HW130329   3.357   2.001   4.824 -0.1065  0.7193 -2.7159
 6289SOL    HW230330   3.449   1.929   4.749  1.3409 -2.6120  1.3535
 6290SOL     OW30331   1.363   3.160   6.103 -0.3780 -0.3500 -0.0805
 6290SOL    HW130332   1.340   3.235   6.048 -1.7108  0.0506  1.0054
 6290SOL    HW230333   1.452   3.181   6.132 -0.0291 -2.4681  0.4285
 6291SOL     OW30334   0.933   1.475  13.846 -0.1016 -0.5722 -0.0352
 6291SOL    HW130335   0.996   1.408  13.872  1.7154  0.3704 -2.0274
 6291SOL    HW230336   0.984   1.554  13.827 -0.9208 -0.9182 -3.5954
 6292SOL     OW30337   1.925   3.757   8.357  0.9232 -0.1198  0.0036
 6292SOL    HW130338   2.012   3.742   8.320  1.0367 -2.0043  0.9976
 6292SOL    HW230339   1.920   3.852   8.346 -0.6899 -0.6316 -3.7710
 6293SOL     OW30340   0.056   4.248  11.942 -0.0024  0.1333  0.3440
 6293SOL    HW130341   0.092   4.310  12.004  3.2783 -0.5370 -0.9033
 6293SOL    HW230342   0.079   4.289  11.858  0.9077  0.2581  0.6538
 6294SOL     OW30343   2.582   3.028   5.423 -0.6165  0.6597 -0.2541
 6294SOL    HW130344   2.495   3.021   5.383  0.0068  1.6468 -1.7601
 6294SOL    HW230345   2.554   3.069   5.505  1.4617 -0.1454  0.8478
 6295SOL     OW30346   2.736   0.703   2.870 -0.3475  0.2835 -0.4397
 6295SOL    HW130347   2.814   0.725   2.921 -1.8260  3.2772  0.5116
 6295SOL    HW230348   2.772   0.683   2.784 -1.2653  0.0834 -0.7787
 6296SOL     OW30349   3.864   1.245  14.731  0.3305 -0.6466  0.5684
 6296SOL    HW130350   3.884   1.156  14.702  0.3644  0.3662 -2.5490
 6296SOL    HW230351   3.775   1.242  14.765 -0.0128  0.0234 -0.2595
 6297SOL     OW30352   0.524   0.999   8.846  0.3043 -0.0403 -0.7260
 6297SOL    HW130353   0.558   1.030   8.762  0.0402  1.7252 -0.1752
 6297SOL    HW230354   0.477   1.077   8.876  1.3847  0.9979 -1.7281
 6298SOL     OW30355   4.189   0.889   5.787 -0.2301 -0.0114 -0.3604
 6298SOL    HW130356   4.214   0.809   5.833 -1.9518 -0.8723 -0.9228
 6298SOL    HW230357   4.133   0.839   5.728 -1.2823 -0.0123  0.6322
 6299SOL     OW30358   0.418   1.242   9.164 -0.1503 -0.6264  0.5393
 6299SOL    HW130359   0.384   1.331   9.177  0.9460 -0.2943  1.0765
 6299SOL    HW230360   0.405   1.234   9.069  1.0158  1.0786  0.2370
 6300SOL     OW30361   3.969   1.216  16.112 -0.1955 -0.0564  0.0240
 6300SOL    HW130362   3.880   1.248  16.128  0.2516  1.6485 -0.8576
 6300SOL    HW230363   4.023   1.278  16.160  1.6670 -1.5973 -0.0872
 6301SOL     OW30364   3.965   2.496  10.960 -0.1344  0.8785  0.0567
 6301SOL    HW130365   3.923   2.512  11.044 -0.3325  1.6180 -0.1816
 6301SOL    HW230366   3.967   2.579  10.913 -1.4333  0.3030 -1.0525
 6302SOL     OW30367   0.807   4.138   5.906 -0.0409  0.4947 -0.3674
 6302SOL    HW130368   0.748   4.116   5.978 -0.4463 -2.0956 -1.4738
 6302SOL    HW230369   0.845   4.055   5.876 -1.5921 -1.4592  3.0535
 6303SOL     OW30370   4.327   4.352   5.930 -0.1920  0.8302  0.3525
 6303SOL    HW130371   4.395   4.284   5.936  0.7548  1.9291  2.1709
 6303SOL    HW230372   4.307   4.360   6.023 -2.8523  2.0935 -0.3421
 6304SOL     OW30373   4.299   1.371  10.608  0.2259  0.6276  0.8268
 6304SOL    HW130374   4.228   1.396  10.550  1.7538  0.3444 -1.1630
 6304SOL    HW230375   4.253   1.344  10.688  0.7102  0.0562  0.9143
 6305SOL     OW30376   0.211   2.510   7.159 -0.6187 -0.3518 -0.2040
 6305SOL    HW130377   0.261   2.465   7.228  1.7273 -0.4004 -1.9160
 6305SOL    HW230378   0.272   2.583   7.148  1.4564 -1.8833  1.0750
 6306SOL     OW30379   0.153   1.983  15.486  0.1922 -0.2305  0.2465
 6306SOL    HW130380   0.058   1.984  15.495  0.4148  0.5767  2.3039
 6306SOL    HW230381   0.161   1.889  15.504 -3.4034 -0.3784  0.8926
 6307SOL     OW30382   0.588   2.697   0.680  0.0912  0.5715 -0.3512
 6307SOL    HW130383   0.578   2.625   0.617  0.3794  1.2111 -1.1290
 6307SOL    HW230384   0.496   2.705   0.706 -0.6472  0.5817 -2.8712
 6308SOL     OW30385   3.824   3.216   6.461 -0.3178 -0.3559  0.2800
 6308SOL    HW130386   3.814   3.121   6.460 -0.7292 -0.3353  2.2607
 6308SOL    HW230387   3.839   3.221   6.556 -1.8493 -1.8337  0.6008
 6309SOL     OW30388   1.015   0.479   4.417 -0.2706  0.3556 -0.0404
 6309SOL    HW130389   1.024   0.574   4.408 -0.0097  0.2729 -0.6549
 6309SOL    HW230390   1.076   0.450   4.349 -0.5845 -2.0651  0.7158
 6310SOL     OW30391   2.057   2.627   9.703  0.0954 -0.0499  0.1624
 6310SOL    HW130392   2.103   2.646   9.621 -0.5792  0.8187 -0.0224
 6310SOL    HW230393   2.108   2.554   9.737 -0.5981 -0.5127  0.2113
 6311SOL     OW30394   4.150   3.943   3.009  0.2062 -0.0613 -0.5765
 6311SOL    HW130395   4.061   3.978   2.998 -0.2719 -1.5375 -1.3808
 6311SOL    HW230396   4.140   3.848   3.014 -0.8914  0.0346 -0.8118
 6312SOL     OW30397   3.549   1.325   2.073 -0.0577 -0.5303  0.1769
 6312SOL    HW130398   3.567   1.348   2.164 -3.8547  0.4960  0.6685
 6312SOL    HW230399   3.483   1.256   2.081 -0.9509  0.3537  0.3037
 6313SOL     OW30400   0.503   2.263   1.862  0.3763 -0.2840 -0.3318
 6313SOL    HW130401   0.471   2.188   1.812 -2.5933  0.8985 -0.2462
 6313SOL    HW230402   0.493   2.230   1.951  1.7614 -0.9879 -0.4460
 6314SOL     OW30403   3.976   0.790  14.373  0.6368  0.1506  0.5183
 6314SOL    HW130404   4.002   0.797  14.282 -0.5133  2.6291  0.3822
 6314SOL    HW230405   4.052   0.744  14.408 -0.2841 -1.4406  0.4325
 6315SOL     OW30406   2.107   2.049   3.359  0.5273  0.1055 -0.7059
 6315SOL    HW130407   2.046   2.115   3.324  3.1496  2.6676 -0.4636
 6315SOL    HW230408   2.168   2.038   3.286  0.3529 -0.8770 -0.6979
 6316SOL     OW30409   3.195   4.401   7.345  0.4689 -0.0771 -0.3941
 6316SOL    HW130410   3.208   4.432   7.434  1.2484 -1.2320 -0.1051
 6316SOL    HW230411   3.223   4.474   7.289 -0.4120  1.3524  1.0562
 6317SOL     OW30412   0.763   2.048   4.618  0.0530  0.1353  0.1021
 6317SOL    HW130413   0.842   2.015   4.659  0.5593  1.1888 -0.0273
 6317SOL    HW230414   0.757   1.995   4.538  0.1557 -1.2526  1.0320
 6318SOL     OW30415   4.404   0.962  11.706 -0.3433 -0.1920 -0.4745
 6318SOL    HW130416   4.403   1.056  11.688 -1.7865  0.1987  1.6619
 6318SOL    HW230417   4.311   0.940  11.699 -0.8576  2.3454 -1.7839
 6319SOL     OW30418   1.624   3.720   8.586 -0.1437  0.0462  0.3311
 6319SOL    HW130419   1.586   3.675   8.510 -0.9688  0.8255  0.2942
 6319SOL    HW230420   1.591   3.807   8.565  0.4449  0.0376 -0.6759
 6320SOL     OW30421   0.449   3.432   4.068  0.4850  0.0579  0.0106
 6320SOL    HW130422   0.442   3.493   3.994  1.3997  1.2064  0.8783
 6320SOL    HW230423   0.366   3.384   4.058 -0.1874  1.8839 -3.2595
 6321SOL     OW30424   3.418   2.991   6.924  0.1281 -0.0174  0.1837
 6321SOL    HW130425   3.472   2.966   6.999  1.9968 -0.0482 -1.1759
 6321SOL    HW230426   3.366   2.912   6.907  1.5099 -0.8034 -0.3576
 6322SOL     OW30427   4.401   0.169  12.664 -0.3383 -0.0455 -0.0149
 6322SOL    HW130428   4.325   0.111  12.662 -0.5374  0.1462  2.2814
 6322SOL    HW230429   4.376   0.225  12.737 -0.5584 -1.2316  0.8139
 6323SOL     OW30430   1.837   0.427   2.904  0.4843  0.5050 -0.7981
 6323SOL    HW130431   1.804   0.385   2.984  2.8945  1.3395  0.6245
 6323SOL    HW230432   1.775   0.498   2.886  1.4485  1.7247  0.7458
 6324SOL     OW30433   4.315   0.558   9.528 -0.0663  0.3708  0.3233
 6324SOL    HW130434   4.296   0.465   9.517  3.0155 -0.1470 -0.7081
 6324SOL    HW230435   4.341   0.571   9.619  0.0773  0.5212  0.2620
 6325SOL     OW30436   2.330   0.297   6.108  0.0044 -0.1464  0.2823
 6325SOL    HW130437   2.406   0.239   6.103  0.3420  0.3653 -0.5876
 6325SOL    HW230438   2.279   0.241   6.050 -0.5426  1.4071 -0.7472
 6326SOL     OW30439   4.080   1.665   2.868  0.0317 -0.2379  0.7614
 6326SOL    HW130440   4.113   1.751   2.844  1.8677 -0.7630  1.3897
 6326SOL    HW230441   3.987   1.686   2.876 -0.2398 -1.3133  0.4740
 6327SOL     OW30442   2.933   1.934   3.335 -0.7473  0.0643 -0.0107
 6327SOL    HW130443   2.974   1.879   3.402  0.3399 -0.7156 -1.3268
 6327SOL    HW230444   2.902   2.008   3.388 -0.8632  0.0166 -0.0127
 6328SOL     OW30445   1.624   4.720   2.696  0.7684  0.1570  0.1033
 6328SOL    HW130446   1.700   4.671   2.666 -0.5740 -0.4263 -2.3439
 6328SOL    HW230447   1.582   0.022   2.614 -0.1471 -2.6041 -0.2422
 6329SOL     OW30448   4.456   4.010  12.472  0.7392 -0.0240  0.2078
 6329SOL    HW130449   4.481   3.919  12.459 -1.5860 -0.5052 -0.8954
 6329SOL    HW230450   4.361   4.003  12.482  0.6186  0.6746 -0.4541
 6330SOL     OW30451   0.427   4.022  14.940 -0.4618 -0.0375 -0.3678
 6330SOL    HW130452   0.463   3.963  14.873 -0.8944 -0.6483 -0.0637
 6330SOL    HW230453   0.480   4.101  14.932  0.5058 -0.6224  0.3315
 6331SOL     OW30454   2.826   4.085   6.886 -0.2470  0.1629  0.0913
 6331SOL    HW130455   2.739   4.077   6.925 -0.0760 -1.4367  0.1227
 6331SOL    HW230456   2.876   4.033   6.948  1.0774  0.4290 -0.7422
 6332SOL     OW30457   0.526   4.524   4.445  0.0692 -0.4870 -0.1381
 6332SOL    HW130458   0.497   4.450   4.392  0.2691 -0.4446 -0.3071
 6332SOL    HW230459   0.485   4.510   4.531  0.7707 -0.8121  0.1371
 6333SOL     OW30460   4.176   4.215  10.957 -0.0504  0.5212  0.5741
 6333SOL    HW130461   4.182   4.267  10.876  0.2834 -1.0350 -0.3887
 6333SOL    HW230462   4.083   4.195  10.953  0.4056 -1.2283 -0.9274
 6334SOL     OW30463   2.946   1.475   8.664  0.0515 -0.0979  0.1677
 6334SOL    HW130464   2.919   1.482   8.755  0.6003 -2.4795  0.4991
 6334SOL    HW230465   2.867   1.496   8.614  1.0288 -1.1919 -1.8514
 6335SOL     OW30466   3.760   1.198   1.584 -0.6090 -0.3469  0.0507
 6335SOL    HW130467   3.740   1.286   1.617 -0.9676 -0.7578  0.9167
 6335SOL    HW230468   3.671   1.169   1.564 -0.2884 -0.8590 -0.6368
 6336SOL     OW30469   3.096   3.546   3.277  0.0230 -0.2820  0.1292
 6336SOL    HW130470   3.096   3.591   3.192 -0.1358  1.4445  1.0367
 6336SOL    HW230471   3.107   3.453   3.258 -1.3118 -0.2998 -0.5364
 6337SOL     OW30472   0.237   4.081   8.517 -0.1105  0.1549 -0.3953
 6337SOL    HW130473   0.232   4.036   8.602 -2.5840  0.1277 -0.5818
 6337SOL    HW230474   0.150   4.069   8.482 -1.8494  0.5883  3.7316
 6338SOL     OW30475   1.977   0.261  10.295 -0.0556  0.5713  0.3332
 6338SOL    HW130476   2.051   0.228  10.243  2.0088  0.4181  3.3303
 6338SOL    HW230477   1.955   0.342  10.249  2.3778  0.7006 -0.6136
 6339SOL     OW30478   1.500   0.328   1.937 -0.1346 -0.2849  0.2271
 6339SOL    HW130479   1.412   0.331   1.900 -0.6784 -1.0058  1.4936
 6339SOL    HW230480   1.540   0.252   1.895 -0.1629 -0.3425  0.3067
 6340SOL     OW30481   0.178   4.568   3.064  0.0692  0.2086  0.2785
 6340SOL    HW130482   0.221   4.484   3.077  0.7725  0.7065  1.1957
 6340SOL    HW230483   0.084   4.555   3.073 -0.1937  1.0375 -1.2742
 6341SOL     OW30484   3.950   0.756  13.979  0.3838 -0.1633 -0.0150
 6341SOL    HW130485   3.974   0.809  13.903  3.0102  3.0139  3.0322
 6341SOL    HW230486   4.034   0.740  14.022  0.7711  2.6226  0.2380
 6342SOL     OW30487   2.070   4.132   4.508 -0.7698  0.3813  0.2754
 6342SOL    HW130488   2.160   4.138   4.476 -1.1528  1.3595 -0.5856
 6342SOL    HW230489   2.058   4.192   4.582  1.0602 -0.5810  1.3715
 6343SOL     OW30490   2.549   0.655   5.427  0.1001 -0.4521 -0.2286
 6343SOL    HW130491   2.482   0.661   5.359  1.2636  1.2326 -1.2273
 6343SOL    HW230492   2.618   0.703   5.381 -0.8421  0.9512 -0.1661
 6344SOL     OW30493   0.448   2.440  10.756 -0.3713 -0.5733 -0.6815
 6344SOL    HW130494   0.483   2.424  10.843 -0.6322 -0.8966 -0.6310
 6344SOL    HW230495   0.527   2.473  10.713  0.0542 -1.4795 -0.5999
 6345SOL     OW30496   0.369   1.435   7.228  0.2664 -0.1906  0.7396
 6345SOL    HW130497   0.365   1.467   7.137  3.8045 -0.7701  0.3923
 6345SOL    HW230498   0.424   1.505   7.264  0.6756  0.4873 -1.1993
 6346SOL     OW30499   4.170   2.353   7.051  0.0256 -0.4894 -0.5221
 6346SOL    HW130500   4.130   2.288   7.108  1.0414 -1.5051 -0.9763
 6346SOL    HW230501   4.265   2.354   7.069 -0.0617  1.3300 -0.1075
 6347SOL     OW30502   3.716   3.458  11.384 -0.3514  0.4624 -0.1797
 6347SOL    HW130503   3.704   3.552  11.398  0.8748  0.5018  0.6160
 6347SOL    HW230504   3.683   3.447  11.295 -1.7172 -0.6604  0.4616
 6348SOL     OW30505   4.643   1.563  13.941 -0.2724  0.0406  0.4203
 6348SOL    HW130506   4.576   1.498  13.922 -0.0706  0.2558 -1.0090
 6348SOL    HW230507   4.624   1.635  13.881 -0.1672  0.3776  0.7874
 6349SOL     OW30508   1.796   0.872  14.223 -0.5900 -0.0987  0.4909
 6349SOL    HW130509   1.754   0.825  14.151 -0.7977  0.6668  0.1092
 6349SOL    HW230510   1.731   0.942  14.234 -0.6428 -0.0085 -0.4148
 6350SOL     OW30511   2.055   1.473   6.299 -1.1353 -0.0072  0.4157
 6350SOL    HW130512   1.983   1.535   6.289 -1.5985 -0.5748  0.1944
 6350SOL    HW230513   2.004   1.396   6.275 -1.2405  0.0178  0.5638
 6351SOL     OW30514   0.850   1.650  17.031 -0.4055  0.3269  0.8348
 6351SOL    HW130515   0.791   1.664  16.958  1.4403 -0.5480 -0.8365
 6351SOL    HW230516   0.940   1.671  17.004 -0.7524 -1.0261 -1.4145
 6352SOL     OW30517   0.256   2.764   8.661  0.3104 -0.1924 -0.3189
 6352SOL    HW130518   0.339   2.744   8.704  0.0907 -2.4744 -0.9440
 6352SOL    HW230519   0.248   2.695   8.595  1.6869  0.3358 -1.0255
 6353SOL     OW30520   0.980   0.938   8.504 -0.3149 -0.1016 -0.0270
 6353SOL    HW130521   0.974   0.876   8.431  0.2346 -0.9066  0.6108
 6353SOL    HW230522   1.028   1.008   8.461 -1.9677  0.2142 -1.3414
 6354SOL     OW30523   0.952   3.107  15.235 -0.2970  0.4692 -0.5305
 6354SOL    HW130524   0.874   3.148  15.198 -1.8410 -1.0288  1.0953
 6354SOL    HW230525   0.952   3.019  15.198 -0.9834  0.0036  0.5746
 6355SOL     OW30526   3.041   3.771   9.007  0.1612  0.1888 -0.1211
 6355SOL    HW130527   2.967   3.793   8.951  0.6362  2.0555 -0.0369
 6355SOL    HW230528   3.113   3.792   8.947 -0.2801 -0.9929 -1.0559
 6356SOL     OW30529   2.533   2.966   3.091  0.1216  0.2879 -0.2980
 6356SOL    HW130530   2.580   2.982   3.009  3.7034 -1.9277  1.2905
 6356SOL    HW230531   2.582   3.017   3.155  0.9502  0.2870 -0.9320
 6357SOL     OW30532   4.395   1.593   3.351  0.3057  0.2952  0.8791
 6357SOL    HW130533   4.479   1.556   3.323 -0.8553 -2.4846  1.0299
 6357SOL    HW230534   4.337   1.517   3.359  1.6009 -0.8072 -0.2101
 6358SOL     OW30535   2.403   0.966   1.138 -0.1617 -0.2359  0.3330
 6358SOL    HW130536   2.342   0.909   1.186 -0.5874 -2.0463 -2.3608
 6358SOL    HW230537   2.433   1.020   1.211 -0.9617 -0.8448  1.1034
 6359SOL     OW30538   3.279   1.740   4.392  0.4160 -0.1922 -0.0906
 6359SOL    HW130539   3.279   1.683   4.470  1.3778  0.2246  0.2059
 6359SOL    HW230540   3.350   1.804   4.396  1.2562 -1.1957  1.0566
 6360SOL     OW30541   3.649   3.321   5.880  0.1116  0.2472  0.3516
 6360SOL    HW130542   3.686   3.233   5.876  0.8973  0.5949 -0.0862
 6360SOL    HW230543   3.591   3.317   5.956 -2.8989 -2.3359 -2.0759
 6361SOL     OW30544   1.083   1.766   8.763 -0.1955 -0.6084  0.6203
 6361SOL    HW130545   1.143   1.698   8.794  0.5664 -0.3669 -0.3257
 6361SOL    HW230546   1.120   1.841   8.811  0.0244 -1.0104  1.0836
 6362SOL     OW30547   2.840   2.779  11.864  0.5286 -0.3946 -0.2993
 6362SOL    HW130548   2.804   2.836  11.796  3.3156  0.8786 -0.7167
 6362SOL    HW230549   2.929   2.774  11.830  1.3521  0.2174  1.7358
 6363SOL     OW30550   0.752   3.661  16.090 -0.0984  0.6531 -0.0063
 6363SOL    HW130551   0.838   3.646  16.130 -0.2317 -0.7549 -0.2762
 6363SOL    HW230552   0.767   3.625  16.003 -2.4291 -1.2208  0.3905
 6364SOL     OW30553   0.429   4.153   5.610 -0.4568  0.8404 -0.1491
 6364SOL    HW130554   0.491   4.118   5.547 -0.5760 -0.7522  0.6228
 6364SOL    HW230555   0.402   4.234   5.567  3.1643  1.5901 -1.0274
 6365SOL     OW30556   2.598   4.505   4.512  0.0077  0.4822  0.2709
 6365SOL    HW130557   2.555   4.517   4.427 -3.5700  1.6276  2.1977
 6365SOL    HW230558   2.690   4.519   4.492  0.0589 -2.6776 -1.6402
 6366SOL     OW30559   0.845   0.227   7.918 -0.0812  0.0218 -0.1126
 6366SOL    HW130560   0.898   0.182   7.853  1.1544 -1.1704  1.7237
 6366SOL    HW230561   0.793   0.156   7.957 -0.6072 -1.1419 -2.9617
 6367SOL     OW30562   2.616   0.161   6.612 -0.4992  0.5235  0.5099
 6367SOL    HW130563   2.616   0.256   6.603 -1.8178  0.5143  0.4954
 6367SOL    HW230564   2.669   0.152   6.691  1.7571  1.1310 -0.9153
 6368SOL     OW30565   3.458   1.266   7.054 -0.4365  0.2169 -0.7419
 6368SOL    HW130566   3.443   1.360   7.063  3.2495  0.7722 -0.2620
 6368SOL    HW230567   3.518   1.254   7.128 -0.4445  2.4321 -0.3647
 6369SOL     OW30568   1.558   4.135   7.078  0.3082  0.3468 -0.5176
 6369SOL    HW130569   1.505   4.116   7.001 -0.0503  2.7621 -0.8824
 6369SOL    HW230570   1.492   4.182   7.128  2.0265 -0.4667  2.4999
 6370SOL     OW30571   1.629   0.604   2.867  0.5124 -1.0644 -0.1311
 6370SOL    HW130572   1.608   0.697   2.877 -0.6590 -1.6077  2.5281
 6370SOL    HW230573   1.541   0.572   2.886 -0.2501  0.7909 -0.5539
 6371SOL     OW30574   0.142   3.900   8.937  0.2676 -0.2399 -0.4930
 6371SOL    HW130575   0.131   3.818   8.984 -3.1420 -0.1901 -1.1729
 6371SOL    HW230576   0.177   3.951   9.009 -1.6302  0.0377  0.2164
 6372SOL     OW30577   3.394   2.178   8.653 -0.2202 -0.1218 -0.1914
 6372SOL    HW130578   3.437   2.240   8.594 -0.1116  0.3093  0.3482
 6372SOL    HW230579   3.425   2.219   8.733 -2.7465 -0.2124  0.8310
 6373SOL     OW30580   0.549   2.116  10.129  0.1291 -0.3025 -0.3781
 6373SOL    HW130581   0.534   2.102  10.222 -0.2276 -0.9748 -0.5387
 6373SOL    HW230582   0.632   2.162  10.133 -1.0732  1.6006  2.7690
 6374SOL     OW30583   3.803   1.423   2.143 -0.7022  0.1960 -0.4318
 6374SOL    HW130584   3.819   1.330   2.157  1.1444  0.5102 -0.4825
 6374SOL    HW230585   3.804   1.419   2.048 -0.9123  1.2728 -0.4865
 6375SOL     OW30586   0.407   0.639   5.287 -0.1066 -0.6596  0.6581
 6375SOL    HW130587   0.343   0.634   5.357  0.0245 -1.8888  0.6852
 6375SOL    HW230588   0.353   0.691   5.227  0.9218 -2.2689 -1.6606
 6376SOL     OW30589   3.289   4.165   0.515 -0.0926 -0.5303  0.5346
 6376SOL    HW130590   3.220   4.211   0.562 -1.2817 -1.2559 -0.5156
 6376SOL    HW230591   3.306   4.089   0.570 -2.0108  1.8435  4.3998
 6377SOL     OW30592   3.594   2.846   6.641 -0.0403 -0.1021 -0.2936
 6377SOL    HW130593   3.545   2.771   6.674  0.3186  0.4966  1.6094
 6377SOL    HW230594   3.568   2.917   6.699  0.0720 -1.4143  1.3649
 6378SOL     OW30595   4.193   0.377   7.421 -0.3573 -0.8085  0.4335
 6378SOL    HW130596   4.102   0.350   7.420 -1.0750  1.6555  0.3459
 6378SOL    HW230597   4.218   0.358   7.512  1.0209 -0.0877  0.2060
 6379SOL     OW30598   3.811   0.999  14.618  0.6745 -0.0267  1.0966
 6379SOL    HW130599   3.901   0.978  14.642  1.1647  1.2501  0.3683
 6379SOL    HW230600   3.762   0.951  14.685  0.5912  0.8115  1.6327
 6380SOL     OW30601   2.053   3.954   8.797 -0.0828  0.0844 -0.2525
 6380SOL    HW130602   1.964   3.989   8.796 -0.0133  0.2412 -1.6233
 6380SOL    HW230603   2.035   3.875   8.848 -1.5190  0.8436  0.3945
 6381SOL     OW30604   1.245   2.407   1.749  0.2492  0.1659 -0.4771
 6381SOL    HW130605   1.281   2.407   1.838 -1.7073  0.5104  0.3219
 6381SOL    HW230606   1.210   2.318   1.750 -2.1206  1.0860 -0.4427
 6382SOL     OW30607   3.539   0.878  14.667  0.3884  0.5948 -0.2141
 6382SOL    HW130608   3.458   0.868  14.617 -0.0857 -0.5588  0.7904
 6382SOL    HW230609   3.599   0.810  14.637 -1.3529 -0.3541 -1.5242
 6383SOL     OW30610   2.479   3.723   8.311  0.1045  0.0094  0.6191
 6383SOL    HW130611   2.561   3.771   8.313 -0.4383  1.1450 -3.6272
 6383SOL    HW230612   2.477   3.716   8.215 -2.7488 -2.9712  0.8718
 6384SOL     OW30613   4.021   4.564  14.959 -0.6387 -0.5182  0.1290
 6384SOL    HW130614   4.070   4.633  15.004  0.0190 -1.2890  0.5923
 6384SOL    HW230615   4.097   4.507  14.945  2.0510  3.4785 -1.3475
 6385SOL     OW30616   2.047   1.136   1.699 -0.0928 -0.4279 -0.2455
 6385SOL    HW130617   2.090   1.192   1.764 -0.8897  0.5790 -0.5847
 6385SOL    HW230618   1.958   1.169   1.690 -0.5839 -2.1474 -1.6362
 6386SOL     OW30619   0.323   0.379   2.623  0.1309  0.0935  0.0585
 6386SOL    HW130620   0.236   0.345   2.640 -0.3428 -0.0622 -2.6609
 6386SOL    HW230621   0.313   0.377   2.528 -0.4541 -0.3880  0.1304
 6387SOL     OW30622   4.483   1.911   9.776  0.0738  0.5086 -0.2759
 6387SOL    HW130623   4.497   1.824   9.813 -0.0285  0.7618  0.3543
 6387SOL    HW230624   4.576   1.931   9.766 -0.0828  1.3791  0.0096
 6388SOL     OW30625   0.391   2.026   9.686 -0.0427 -0.7726 -0.6474
 6388SOL    HW130626   0.452   2.099   9.692 -0.7641 -0.3235  1.2129
 6388SOL    HW230627   0.391   1.994   9.776 -0.9676  1.2703  0.0717
 6389SOL     OW30628   4.143   2.331  17.674 -0.1821 -0.1508  0.0512
 6389SOL    HW130629   4.115   2.410  17.628  0.4801 -0.1441 -0.3354
 6389SOL    HW230630   4.224   2.313  17.627  0.6949  1.4516  0.9853
 6390SOL     OW30631   3.029   1.699   8.364  0.1173  0.0969 -0.0080
 6390SOL    HW130632   3.083   1.657   8.431 -2.5535 -0.7880  1.5558
 6390SOL    HW230633   2.942   1.671   8.392 -1.1233  1.7971 -2.1334
 6391SOL     OW30634   1.977   2.151   6.645  0.2304 -0.4246 -0.7294
 6391SOL    HW130635   1.991   2.096   6.722 -0.1175 -1.1493 -1.1817
 6391SOL    HW230636   2.068   2.166   6.619  0.0179 -0.4681 -1.4961
 6392SOL     OW30637   3.316   0.043   5.788  0.5038 -0.1015  0.6119
 6392SOL    HW130638   3.317   0.103   5.714  3.6649  0.5591  1.1950
 6392SOL    HW230639   3.251   4.696   5.778 -0.4826  0.8234  0.5943
 6393SOL     OW30640   1.731   3.337  16.815  0.4012  0.0422  0.3627
 6393SOL    HW130641   1.667   3.290  16.869  1.6023 -1.2852  0.6385
 6393SOL    HW230642   1.771   3.270  16.760  0.8389  0.8027 -0.2384
 6394SOL     OW30643   1.096   3.918   4.937 -0.5461 -0.1870  0.0660
 6394SOL    HW130644   1.106   4.005   4.976 -2.2176 -1.1346  2.6023
 6394SOL    HW230645   1.082   3.859   5.011 -1.7986  0.9807  0.7625
 6395SOL     OW30646   2.614   0.484   6.780 -0.6493  0.6061 -0.4393
 6395SOL    HW130647   2.706   0.463   6.763 -0.9738  1.9131 -3.7303
 6395SOL    HW230648   2.629   0.575   6.756  1.0907 -0.3050 -2.8326
 6396SOL     OW30649   4.346   0.509   0.392 -0.1608 -0.5348  0.0507
 6396SOL    HW130650   4.312   0.515   0.303  2.0639  1.4002 -0.6996
 6396SOL    HW230651   4.401   0.586   0.407 -0.3661 -0.2061 -0.8763
 6397SOL     OW30652   3.678   0.070   6.168  0.7513 -0.5412  0.1568
 6397SOL    HW130653   3.620   0.074   6.244  0.0121  0.0027 -0.4335
 6397SOL    HW230654   3.616   0.037   6.103 -0.2862  1.9232 -0.0997
 6398SOL     OW30655   2.979   3.897   4.463 -0.2999 -0.3827 -0.2459
 6398SOL    HW130656   3.063   3.880   4.506 -0.3095  1.0365  0.3365
 6398SOL    HW230657   3.005   3.869   4.375 -3.1010  3.3391 -2.2721
 6399SOL     OW30658   1.879   4.034   3.121 -0.1899  0.2605 -0.5168
 6399SOL    HW130659   1.956   4.083   3.092  0.7490 -1.4071 -0.7966
 6399SOL    HW230660   1.835   4.011   3.039 -0.5746  2.3450 -0.8948
 6400SOL     OW30661   0.357   4.607   8.977  0.3373  0.2580 -0.9609
 6400SOL    HW130662   0.335   4.516   8.995  0.0539  0.3281 -0.9447
 6400SOL    HW230663   0.449   4.595   8.955  1.0833 -0.7000  2.6894
 6401SOL     OW30664   2.908   1.468  17.635 -0.2514  0.1294  0.4135
 6401SOL    HW130665   2.816   1.468  17.664 -0.6263 -0.8013 -0.7802
 6401SOL    HW230666   2.944   1.436   0.024 -0.1702 -1.5876 -0.2900
 6402SOL     OW30667   1.127   3.401  12.777  0.0513 -0.3092  0.2337
 6402SOL    HW130668   1.184   3.367  12.846 -0.8718  0.6920  1.4905
 6402SOL    HW230669   1.063   3.330  12.778  0.5952 -0.7958  0.5959
 6403SOL     OW30670   0.745   3.481   3.742  0.1032 -0.2320 -0.4959
 6403SOL    HW130671   0.686   3.453   3.672  0.0003  0.5170 -0.7106
 6403SOL    HW230672   0.750   3.574   3.720  0.8513 -0.1069  0.1840
 6404SOL     OW30673   4.233   3.543   1.150  0.2893  0.0479 -0.4000
 6404SOL    HW130674   4.157   3.572   1.099  0.4354  1.0604 -0.0461
 6404SOL    HW230675   4.303   3.585   1.101  0.7863  1.3108  1.4253
 6405SOL     OW30676   3.170   4.192   5.371 -0.1630 -0.4920 -0.4122
 6405SOL    HW130677   3.096   4.149   5.329 -3.3446  2.9118  1.7425
 6405SOL    HW230678   3.177   4.152   5.457 -0.2731  0.3707 -0.0102
 6406SOL     OW30679   2.875   3.838   2.846 -0.3635  0.5094 -0.3790
 6406SOL    HW130680   2.905   3.754   2.812  0.0846  0.3108  0.5050
 6406SOL    HW230681   2.830   3.813   2.927  0.0200  1.8007  0.2272
 6407SOL     OW30682   3.680   3.342   8.830 -0.1096 -0.5277  0.0196
 6407SOL    HW130683   3.702   3.417   8.885 -0.8501 -1.0068  0.9695
 6407SOL    HW230684   3.591   3.342   8.865 -0.4762  0.8408 -0.9060
 6408SOL     OW30685   0.573   4.709   9.934  0.2245  0.4293  0.0643
 6408SOL    HW130686   0.632   4.702   9.859  0.0286  1.1958 -0.1579
 6408SOL    HW230687   0.559   0.080   9.942  0.5251  0.5781 -1.1561
 6409SOL     OW30688   3.170   3.879  11.167  0.2553  0.1643 -0.0407
 6409SOL    HW130689   3.075   3.874  11.181  0.4887 -1.5580  0.9764
 6409SOL    HW230690   3.195   3.815  11.234 -2.3072 -0.2786  0.5150
 6410SOL     OW30691   2.927   4.630   6.319 -0.3886  0.1482  0.1425
 6410SOL    HW130692   3.015   4.666   6.325  0.7829 -2.6551 -0.2325
 6410SOL    HW230693   2.883   4.685   6.254 -1.2910 -0.9987 -0.2240
 6411SOL     OW30694   0.550   3.585   2.835 -0.2385  0.0645  0.3778
 6411SOL    HW130695   0.601   3.509   2.864 -0.5038  0.4626  1.9109
 6411SOL    HW230696   0.477   3.572   2.896 -1.3916  0.2741 -0.9569
 6412SOL     OW30697   4.102   2.165   5.003 -0.3485  0.1263 -0.0786
 6412SOL    HW130698   4.167   2.193   5.068  1.5146  2.1636 -2.8068
 6412SOL    HW230699   4.159   2.106   4.955  0.7980  1.1530  0.0087
 6413SOL     OW30700   0.112   1.724   3.823  0.0015 -0.0944 -0.0651
 6413SOL    HW130701   0.113   1.808   3.869 -2.6038  1.4691 -2.8761
 6413SOL    HW230702   0.200   1.699   3.795 -0.1380  0.6309 -1.1454
 6414SOL     OW30703   0.108   0.801   0.802 -0.0461 -0.3307 -0.0286
 6414SOL    HW130704   0.077   0.885   0.768 -0.1422 -0.0782  0.6822
 6414SOL    HW230705   0.157   0.835   0.877 -0.7336 -0.1263  0.3332
 6415SOL     OW30706   2.625   3.840   9.046 -0.1807 -0.8543  0.2162
 6415SOL    HW130707   2.694   3.806   9.102  0.0080 -0.3467  0.2890
 6415SOL    HW230708   2.647   3.932   9.063  0.9579 -0.7055 -2.1597
 6416SOL     OW30709   3.729   1.677   4.726  0.2235 -0.2471 -0.0184
 6416SOL    HW130710   3.648   1.626   4.718 -0.1157  0.2397  0.2979
 6416SOL    HW230711   3.789   1.603   4.731  0.7404  0.2645  1.2005
 6417SOL     OW30712   4.217   0.583   4.992  0.2484 -0.1806 -0.0487
 6417SOL    HW130713   4.249   0.638   4.921  0.1507 -1.7615 -1.3340
 6417SOL    HW230714   4.124   0.570   4.976  0.2138 -0.6946  0.5325
 6418SOL     OW30715   2.587   2.492   1.900 -0.3751 -0.2809 -0.4701
 6418SOL    HW130716   2.567   2.585   1.894  1.6587  0.1828 -0.1999
 6418SOL    HW230717   2.524   2.461   1.965 -1.5472 -1.3291 -2.1196
 6419SOL     OW30718   1.855   4.321   8.539  0.1153  0.1255  0.0386
 6419SOL    HW130719   1.843   4.387   8.608 -0.4255  2.5611 -2.3807
 6419SOL    HW230720   1.763   4.300   8.518  0.2028  0.3027 -0.5259
 6420SOL     OW30721   1.922   4.508   1.954 -0.4092  0.2207  0.2150
 6420SOL    HW130722   1.928   4.549   2.040  2.6705  0.4291 -0.1176
 6420SOL    HW230723   2.010   4.533   1.928 -0.4804  0.2741  0.0216
 6421SOL     OW30724   1.423   2.808   8.137  0.4447  0.0259  0.0144
 6421SOL    HW130725   1.458   2.855   8.212 -0.5102  1.4245 -0.4032
 6421SOL    HW230726   1.342   2.776   8.176  0.2869 -2.6366 -2.5052
 6422SOL     OW30727   0.391   3.211   5.243  0.3464  0.3690 -0.1610
 6422SOL    HW130728   0.352   3.279   5.189  2.6885  0.3428 -1.8988
 6422SOL    HW230729   0.329   3.138   5.240  1.4967 -0.6661  1.2715
 6423SOL     OW30730   4.439   1.008   5.988 -0.6656 -0.0238 -0.1008
 6423SOL    HW130731   4.377   0.954   5.939  0.7549 -3.4910  1.9165
 6423SOL    HW230732   4.453   1.086   5.935  0.6769 -1.8855 -2.4933
 6424SOL     OW30733   4.261   4.176   0.549  0.0270  0.0967 -0.0549
 6424SOL    HW130734   4.253   4.082   0.533  2.6379 -0.1002 -0.1339
 6424SOL    HW230735   4.356   4.176   0.556  0.0205  0.5644  0.0131
 6425SOL     OW30736   4.387   3.029  10.838  0.1418  0.1759  0.0720
 6425SOL    HW130737   4.434   3.097  10.887 -2.6090  0.5566  2.1366
 6425SOL    HW230738   4.425   2.945  10.863 -1.6106 -0.5270  0.3379
 6426SOL     OW30739   3.071   3.443  16.938  0.2082 -0.0411  0.3215
 6426SOL    HW130740   3.061   3.395  17.020 -1.3127  0.7140  0.5738
 6426SOL    HW230741   3.080   3.533  16.969 -2.2379  0.7573 -1.2322
 6427SOL     OW30742   0.643   2.281   4.561 -0.2922 -0.2727  0.3811
 6427SOL    HW130743   0.708   2.328   4.510 -1.5002 -0.1194 -1.0041
 6427SOL    HW230744   0.692   2.208   4.599 -0.7680  0.0629  1.6458
 6428SOL     OW30745   3.093   1.244   9.167  0.1024  0.1779  0.5173
 6428SOL    HW130746   3.022   1.213   9.224 -0.6752 -1.4914 -1.3615
 6428SOL    HW230747   3.171   1.207   9.209 -0.6126 -2.5029 -0.5035
 6429SOL     OW30748   2.197   3.553  16.888  0.3696  0.2931  0.6678
 6429SOL    HW130749   2.140   3.598  16.951 -0.9420 -1.9643  1.0668
 6429SOL    HW230750   2.138   3.489  16.850  0.5581  0.3589  0.2655
 6430SOL     OW30751   1.225   3.889   9.123 -0.0643 -0.6228  0.3320
 6430SOL    HW130752   1.246   3.980   9.139 -1.9646 -0.3231  1.1559
 6430SOL    HW230753   1.139   3.891   9.080 -0.8626 -1.6718  1.8950
 6431SOL     OW30754   1.552   4.309   1.558 -0.0643  0.4619  0.1185
 6431SOL    HW130755   1.478   4.304   1.618  0.2631  3.1733  0.7822
 6431SOL    HW230756   1.597   4.234   1.597  0.9828  1.3170  0.5898
 6432SOL     OW30757   3.817   4.549   4.445 -0.0752  0.0237  0.0229
 6432SOL    HW130758   3.866   4.479   4.402 -1.1712  0.5585 -2.1090
 6432SOL    HW230759   3.737   4.545   4.392  1.3139 -0.0788 -2.0449
 6433SOL     OW30760   4.175   0.764  17.048 -0.0316 -0.2042  0.3455
 6433SOL    HW130761   4.136   0.685  17.013 -0.4067 -0.2715  0.9210
 6433SOL    HW230762   4.168   0.823  16.973 -1.2485 -1.4996 -0.5441
 6434SOL     OW30763   4.534   4.241   8.140 -0.0042  0.0582 -0.2207
 6434SOL    HW130764   4.512   4.148   8.138 -0.3828  0.1314  0.4953
 6434SOL    HW230765   4.447   4.281   8.143  0.0804  0.1490  0.8622
 6435SOL     OW30766   2.770   2.626   7.063  0.2820 -0.7256 -0.4510
 6435SOL    HW130767   2.802   2.537   7.046  0.3204 -0.5353 -1.4049
 6435SOL    HW230768   2.705   2.629   6.993  1.9984 -1.3377 -2.0851
 6436SOL     OW30769   1.744   4.407   4.497  0.3956 -0.1894 -0.4222
 6436SOL    HW130770   1.687   4.477   4.466 -1.0842 -1.5428 -0.7766
 6436SOL    HW230771   1.704   4.343   4.437 -0.3279  0.5800 -0.7581
 6437SOL     OW30772   3.007   0.000  15.829 -0.1168  0.8548  0.0682
 6437SOL    HW130773   3.103   4.718  15.832 -0.0942 -0.7239 -3.1555
 6437SOL    HW230774   2.983   4.634  15.854  0.4427  0.6259 -0.2132
 6438SOL     OW30775   4.526   3.754   3.227 -0.0274 -0.0448  0.1514
 6438SOL    HW130776   4.491   3.664   3.226  1.0239 -0.4645  1.1198
 6438SOL    HW230777   4.539   3.762   3.322  1.2302  1.0534 -0.1166
 6439SOL     OW30778   2.485   1.724   8.820 -0.0152 -0.2085 -0.1562
 6439SOL    HW130779   2.435   1.706   8.900  1.0418  0.0355  0.5619
 6439SOL    HW230780   2.521   1.812   8.830 -0.1115 -0.2393  0.5162
 6440SOL     OW30781   3.702   0.026  14.046 -0.3297  0.2839 -0.2436
 6440SOL    HW130782   3.680   0.025  13.953 -1.3815 -0.4641  0.0022
 6440SOL    HW230783   3.627   0.070  14.086 -0.4776 -0.9517  0.8631
 6441SOL     OW30784   1.380   4.233   6.668 -0.4620  0.0313 -0.1756
 6441SOL    HW130785   1.356   4.279   6.749 -2.8939 -0.9653 -0.3337
 6441SOL    HW230786   1.439   4.293   6.624 -0.1075  0.5626  1.0233
 6442SOL     OW30787   3.252   0.221  16.755 -0.4635 -0.1662  0.2134
 6442SOL    HW130788   3.302   0.140  16.752 -1.0555 -0.5425  0.6650
 6442SOL    HW230789   3.298   0.259  16.680 -1.5637  0.6973 -0.0218
 6443SOL     OW30790   1.625   2.630   8.211 -0.0136 -0.4724  0.1846
 6443SOL    HW130791   1.581   2.687   8.147  0.9770  1.4708  1.2256
 6443SOL    HW230792   1.639   2.546   8.167 -0.1900 -0.0745 -0.6293
 6444SOL     OW30793   4.444   2.066   8.380  0.0897  0.2657 -0.7769
 6444SOL    HW130794   4.463   2.010   8.455  0.1641  1.2908 -0.0224
 6444SOL    HW230795   4.498   2.027   8.311 -0.8924 -1.0381 -0.7954
 6445SOL     OW30796   1.732   1.178  14.901 -0.1627 -0.4187  0.3732
 6445SOL    HW130797   1.703   1.148  14.987  0.7694 -0.8891  0.5316
 6445SOL    HW230798   1.794   1.110  14.872  0.4505  0.5530 -0.5854
 6446SOL     OW30799   0.741   4.590  16.621 -0.1924  0.6643  0.9489
 6446SOL    HW130800   0.667   4.647  16.641 -1.3436 -0.8905  1.1223
 6446SOL    HW230801   0.802   4.649  16.577 -0.5294 -0.1209 -0.5934
 6447SOL     OW30802   3.399   3.328   8.892 -0.0339 -0.2854  0.3004
 6447SOL    HW130803   3.341   3.254   8.875  0.5888 -1.0053  1.2629
 6447SOL    HW230804   3.452   3.290   8.962 -0.0175 -0.9084 -0.0486
 6448SOL     OW30805   0.843   3.923   3.921  0.0847  0.0170 -0.4270
 6448SOL    HW130806   0.871   3.986   3.854  0.3592 -0.0993 -0.4188
 6448SOL    HW230807   0.840   3.978   3.999  1.7388  0.2083 -0.5022
 6449SOL     OW30808   0.843   4.061   9.237 -0.3324  0.1856 -0.2984
 6449SOL    HW130809   0.938   4.075   9.241 -0.0436 -1.7895 -0.2725
 6449SOL    HW230810   0.824   4.092   9.326 -1.4758  2.6129 -1.4023
 6450SOL     OW30811   0.157   2.872   4.630 -1.0150 -0.0865  1.2191
 6450SOL    HW130812   0.101   2.795   4.636 -1.3146 -0.0355 -0.6578
 6450SOL    HW230813   0.142   2.891   4.537  1.3053  2.5708  1.3831
 6451SOL     OW30814   0.110   1.734   7.415 -0.5826  0.4338  0.0332
 6451SOL    HW130815   0.206   1.737   7.408 -0.4935 -0.9051  0.6631
 6451SOL    HW230816   0.101   1.657   7.471 -2.1651  2.6587  2.8329
 6452SOL     OW30817   2.989   4.175  15.042 -0.1382  0.4812 -0.2919
 6452SOL    HW130818   2.978   4.141  14.954 -0.3982 -1.2700  0.4260
 6452SOL    HW230819   3.079   4.208  15.041 -0.2288  0.7858  0.8567
 6453SOL     OW30820   2.617   0.045   6.335  0.0714  0.5719 -0.8428
 6453SOL    HW130821   2.606   4.677   6.365  1.3414  0.6623 -0.1045
 6453SOL    HW230822   2.660   0.086   6.409 -1.6627 -1.8384  1.5048
 6454SOL     OW30823   2.703   2.022   7.623 -0.0179 -0.2693 -0.4280
 6454SOL    HW130824   2.689   2.091   7.558  0.0073  1.3811  1.3212
 6454SOL    HW230825   2.644   1.953   7.594  1.1564 -0.5164 -2.2302
 6455SOL     OW30826   0.373   2.971  13.120  0.2677  0.5365 -0.5558
 6455SOL    HW130827   0.443   3.031  13.146  0.2141  0.3001  0.1129
 6455SOL    HW230828   0.403   2.885  13.148  0.4390  1.0432  0.7969
 6456SOL     OW30829   3.695   3.813   1.978 -0.0103  0.1240 -0.0967
 6456SOL    HW130830   3.644   3.796   2.057 -0.8504  1.7699 -0.2741
 6456SOL    HW230831   3.694   3.909   1.982 -0.8182  0.0675  0.8817
 6457SOL     OW30832   3.214   1.252  17.315 -0.1606 -0.3399 -0.4854
 6457SOL    HW130833   3.280   1.184  17.305  2.0556  1.5061  1.5536
 6457SOL    HW230834   3.177   1.248  17.226 -0.1429  0.4732 -0.5295
 6458SOL     OW30835   0.311   4.307   6.814 -0.3362  0.2250 -0.2947
 6458SOL    HW130836   0.281   4.220   6.786 -0.7069 -0.3554  1.8590
 6458SOL    HW230837   0.406   4.294   6.810  0.0433  2.9572  0.0393
 6459SOL     OW30838   2.057   2.990   0.391 -0.1295  0.1113 -0.1953
 6459SOL    HW130839   2.034   3.065   0.445 -2.2206 -0.0619 -0.8297
 6459SOL    HW230840   2.150   2.978   0.409  0.0095 -2.6998 -2.7252
 6460SOL     OW30841   0.433   1.424  15.903 -0.0583  0.2173 -0.0940
 6460SOL    HW130842   0.340   1.413  15.889  0.7222 -2.5233 -2.9727
 6460SOL    HW230843   0.436   1.401  15.996 -1.1651 -0.7380 -0.3114
 6461SOL     OW30844   3.668   3.588   7.173 -0.1101  0.1899 -0.5594
 6461SOL    HW130845   3.628   3.541   7.100  1.0653 -0.3857 -0.8258
 6461SOL    HW230846   3.609   3.663   7.184 -0.6645 -0.2270 -0.7072
 6462SOL     OW30847   3.093   3.055  10.353  0.1899  0.4441  0.3044
 6462SOL    HW130848   3.172   3.033  10.403 -1.1017 -0.2746  2.0478
 6462SOL    HW230849   3.039   3.101  10.417 -1.8060 -1.9921  0.3479
 6463SOL     OW30850   0.080   0.511   4.984 -0.4604  0.6912 -0.1371
 6463SOL    HW130851   0.006   0.457   4.954 -1.7938  1.0248  2.5838
 6463SOL    HW230852   0.158   0.460   4.965 -0.2603  0.7007  0.6807
 6464SOL     OW30853   3.495   1.302   4.925  0.2368 -0.0492 -0.0645
 6464SOL    HW130854   3.419   1.245   4.936 -1.7993  2.3185 -1.7790
 6464SOL    HW230855   3.492   1.345   5.010 -0.0546  0.7442 -0.4683
 6465SOL     OW30856   4.298   3.093   7.295 -0.3679 -0.4048 -0.2674
 6465SOL    HW130857   4.368   3.153   7.319  0.6762 -2.2090  1.1722
 6465SOL    HW230858   4.328   3.020   7.348 -1.3351  0.7794  1.8941
 6466SOL     OW30859   0.353   2.427   9.900 -0.0328 -0.1241 -0.4662
 6466SOL    HW130860   0.264   2.397   9.917  0.6855 -2.3869 -0.6754
 6466SOL    HW230861   0.348   2.523   9.907  0.1373 -0.1010 -0.6456
 6467SOL     OW30862   4.602   1.785  16.557 -0.2564  0.0951  0.4312
 6467SOL    HW130863   4.686   1.828  16.538  0.2224 -1.9002 -2.0009
 6467SOL    HW230864   4.543   1.860  16.561  0.1152  0.4353 -0.5000
 6468SOL     OW30865   4.357   2.653   9.110  0.4966  0.0611 -0.0485
 6468SOL    HW130866   4.320   2.597   9.041  1.7791  1.5467 -1.9615
 6468SOL    HW230867   4.447   2.653   9.078  0.5199 -1.3560  0.0032
 6469SOL     OW30868   1.648   1.136   8.533  0.4323 -0.0699 -0.1156
 6469SOL    HW130869   1.632   1.174   8.446 -2.1533 -1.3850 -0.2254
 6469SOL    HW230870   1.652   1.042   8.516  0.4262  0.3825 -2.7109
 6470SOL     OW30871   0.259   3.580   4.504 -0.4311  0.1108 -0.1548
 6470SOL    HW130872   0.210   3.527   4.441  2.0481 -0.8384 -1.2854
 6470SOL    HW230873   0.292   3.641   4.439  0.4957  1.1771  1.3223
 6471SOL     OW30874   3.367   0.384   1.211  1.3371 -0.1608 -0.0888
 6471SOL    HW130875   3.274   0.400   1.224  1.5419  1.2864 -0.3663
 6471SOL    HW230876   3.366   0.310   1.150 -0.4495 -0.4257  0.2799
 6472SOL     OW30877   0.118   1.350   9.281  0.5795 -0.1875 -0.0758
 6472SOL    HW130878   0.133   1.366   9.374 -0.9572 -0.3934  0.2040
 6472SOL    HW230879   0.174   1.418   9.243  0.6411 -0.1240  0.1295
 6473SOL     OW30880   0.557   0.447   5.157 -0.8148 -0.3132  0.5422
 6473SOL    HW130881   0.505   0.515   5.199  0.0297 -0.3171  1.5776
 6473SOL    HW230882   0.624   0.489   5.102 -1.9919  0.0588 -0.6247
 6474SOL     OW30883   0.280   1.871   4.131 -0.1336  0.7099 -0.4865
 6474SOL    HW130884   0.192   1.847   4.104  0.1582  0.0073 -0.8194
 6474SOL    HW230885   0.257   1.907   4.217  4.5337 -0.5930  1.3396
 6475SOL     OW30886   4.566   1.758   6.409 -0.5212 -0.2942 -0.1736
 6475SOL    HW130887   4.544   1.777   6.318  3.5878  0.2200 -1.0354
 6475SOL    HW230888   4.642   1.701   6.400 -0.7288 -0.6226  0.1038
 6476SOL     OW30889   2.085   3.325  12.810  0.2611  0.2829  0.0436
 6476SOL    HW130890   2.065   3.418  12.802  0.0563  0.4123  2.1786
 6476SOL    HW230891   2.176   3.327  12.778  0.3134 -0.3600  0.1676
 6477SOL     OW30892   3.271   1.884   6.615 -0.3780 -0.4180  0.4641
 6477SOL    HW130893   3.350   1.917   6.657  0.9208 -0.5280 -1.8708
 6477SOL    HW230894   3.280   1.915   6.525  0.2158  0.3624  0.7896
 6478SOL     OW30895   1.145   2.709   0.640  0.2549 -0.0283 -0.0281
 6478SOL    HW130896   1.105   2.782   0.594  1.9170 -0.4289 -2.1383
 6478SOL    HW230897   1.171   2.646   0.573  2.5210  1.2059 -0.3251
 6479SOL     OW30898   2.452   2.879   3.474 -0.4420  0.2713 -0.1148
 6479SOL    HW130899   2.507   2.901   3.548 -0.1100 -0.4925 -0.1293
 6479SOL    HW230900   2.415   2.798   3.511 -0.7355 -0.9801 -3.1321
 6480SOL     OW30901   0.792   0.197  13.228  0.9742  0.8369 -0.1155
 6480SOL    HW130902   0.708   0.163  13.198  2.5192 -1.9482 -1.2831
 6480SOL    HW230903   0.766   0.273  13.279  4.3609  1.4830  0.6820
 6481SOL     OW30904   2.479   0.682  10.470 -0.1434 -0.0810 -0.3097
 6481SOL    HW130905   2.386   0.675  10.492 -1.1631  0.4372 -4.5197
 6481SOL    HW230906   2.512   0.593  10.460  0.4721  0.2766 -1.4305
 6482SOL     OW30907   2.171   3.443   3.514 -0.2023  0.1074  0.4046
 6482SOL    HW130908   2.187   3.537   3.510 -2.4033  0.4162 -1.3067
 6482SOL    HW230909   2.081   3.434   3.544 -0.9016  1.5922 -1.2124
 6483SOL     OW30910   1.754   0.497  10.200  0.3773  0.8388 -0.7384
 6483SOL    HW130911   1.842   0.524  10.225  0.3462 -1.5093  1.8532
 6483SOL    HW230912   1.745   0.565  10.132 -1.9086  0.8164 -0.4400
 6484SOL     OW30913   1.014   1.463   7.298  0.5703  0.1608  0.7119
 6484SOL    HW130914   0.946   1.455   7.231 -0.6687  0.8430  1.9031
 6484SOL    HW230915   0.988   1.542   7.345  1.8070  0.2694  1.1988
 6485SOL     OW30916   2.739   0.712   6.719 -0.4919  0.1829  0.7786
 6485SOL    HW130917   2.832   0.724   6.700 -0.7241  0.9100  0.0943
 6485SOL    HW230918   2.715   0.794   6.762 -1.0069  0.5629 -0.2192
 6486SOL     OW30919   1.793   4.414   5.211  0.2448 -0.3435 -0.1877
 6486SOL    HW130920   1.737   4.482   5.174  3.4578  1.8887 -0.9482
 6486SOL    HW230921   1.750   4.329   5.200 -1.0652  0.2123  0.6896
 6487SOL     OW30922   2.748   0.717   4.961  0.1783  0.6221  0.1153
 6487SOL    HW130923   2.748   0.621   4.958 -1.1638  0.6373 -0.2713
 6487SOL    HW230924   2.675   0.742   5.017  0.2239  1.0628 -0.0242
 6488SOL     OW30925   3.115   3.194   4.622  0.4836  0.3776 -0.5109
 6488SOL    HW130926   3.080   3.265   4.677 -1.1411  0.0322 -1.0771
 6488SOL    HW230927   3.053   3.130   4.658  2.6051 -1.7446 -0.6886
 6489SOL     OW30928   1.188   4.345   5.296 -1.0685  0.2391 -0.2570
 6489SOL    HW130929   1.161   4.426   5.253  0.8093  0.1070 -1.6787
 6489SOL    HW230930   1.159   4.281   5.231  1.6394 -0.1846 -1.0889
 6490SOL     OW30931   3.644   3.488   6.409  0.3572 -0.4982 -0.1707
 6490SOL    HW130932   3.614   3.570   6.448  0.6449  0.2341 -1.4820
 6490SOL    HW230933   3.736   3.515   6.406  0.2612 -0.1076  0.4083
 6491SOL     OW30934   2.429   3.611  11.648  0.0780 -0.2795  0.0927
 6491SOL    HW130935   2.443   3.519  11.626 -1.1899 -1.2813  3.4652
 6491SOL    HW230936   2.338   3.614  11.618  0.6232 -1.1832 -1.6825
 6492SOL     OW30937   1.460   3.737  15.436 -0.2058  0.6479  0.3247
 6492SOL    HW130938   1.450   3.682  15.358  0.9140  1.2816 -0.2696
 6492SOL    HW230939   1.519   3.809  15.413  1.4307  0.1631  2.9756
 6493SOL     OW30940   2.653   3.769   6.903 -0.5458 -0.3818 -0.5115
 6493SOL    HW130941   2.665   3.678   6.876 -1.5398 -0.8268  0.5505
 6493SOL    HW230942   2.737   3.809   6.881 -1.3073  0.3787 -2.0213
 6494SOL     OW30943   4.652   1.107   9.710 -0.0765 -0.1395  0.1231
 6494SOL    HW130944   4.623   1.194   9.683 -1.0879 -0.2076  0.9939
 6494SOL    HW230945   4.666   1.121   9.804 -0.2603  0.2498  0.0917
 6495SOL     OW30946   3.264   0.643   7.000 -0.3876  0.8069 -0.4022
 6495SOL    HW130947   3.286   0.551   7.012 -0.7321  0.8177  0.3160
 6495SOL    HW230948   3.194   0.637   6.936  0.9291 -0.8880 -1.6617
 6496SOL     OW30949   4.295   2.977   6.703 -0.3694 -0.0264 -0.6678
 6496SOL    HW130950   4.230   3.008   6.766  1.4024 -0.7983  1.5794
 6496SOL    HW230951   4.236   2.916   6.661  2.7549 -2.6704 -1.2228
 6497SOL     OW30952   0.462   1.349   3.732 -0.2526 -0.6229  0.4304
 6497SOL    HW130953   0.377   1.316   3.761  1.3351 -2.1586  3.3527
 6497SOL    HW230954   0.521   1.300   3.790  0.7246 -0.7468 -0.6773
 6498SOL     OW30955   2.098   4.229   0.779 -0.2048 -0.0596  0.3952
 6498SOL    HW130956   2.105   4.285   0.856  1.2739  0.3171 -0.0094
 6498SOL    HW230957   2.006   4.245   0.757  0.1647  0.6663 -0.6238
 6499SOL     OW30958   1.308   1.038   7.840  0.1779  0.0528 -0.5671
 6499SOL    HW130959   1.271   1.112   7.792 -1.2601  0.1267  0.6523
 6499SOL    HW230960   1.234   0.994   7.882  1.3523 -1.6219 -0.2563
 6500SOL     OW30961   0.273   2.165   5.487  0.0556 -0.2039  0.0304
 6500SOL    HW130962   0.316   2.139   5.406  0.9744 -0.8901  0.7424
 6500SOL    HW230963   0.219   2.240   5.460 -0.8248 -1.0592 -0.5715
 6501SOL     OW30964   3.412   3.654   8.210  0.4853 -0.2359 -0.0330
 6501SOL    HW130965   3.454   3.619   8.131  0.5817  0.2269 -0.1867
 6501SOL    HW230966   3.479   3.651   8.278 -0.6908 -1.7819  1.0386
 6502SOL     OW30967   4.561   2.660   2.951 -0.3793  0.3814  0.2729
 6502SOL    HW130968   4.468   2.652   2.930 -0.0596  0.5841 -1.2197
 6502SOL    HW230969   4.584   2.734   2.894 -3.8595  1.3104  0.0741
 6503SOL     OW30970   2.232   1.900  16.813  0.2252  0.6279 -0.3002
 6503SOL    HW130971   2.318   1.861  16.830  0.8416  2.1539  0.1133
 6503SOL    HW230972   2.245   1.958  16.738 -0.0705  1.8677  0.6216
 6504SOL     OW30973   2.300   2.455   3.768 -0.5686 -0.0289  0.2208
 6504SOL    HW130974   2.272   2.375   3.813 -1.3531  0.6850  0.9835
 6504SOL    HW230975   2.331   2.508   3.841  0.1075  0.2848 -0.2993
 6505SOL     OW30976   0.140   1.905  10.911 -0.1247  0.2880  0.3797
 6505SOL    HW130977   0.083   1.948  10.975  1.4069  2.6630  0.1675
 6505SOL    HW230978   0.134   1.814  10.938  0.4171  0.5159  1.2731
 6506SOL     OW30979   2.234   4.411   4.242  0.2843  0.3988  0.6102
 6506SOL    HW130980   2.321   4.381   4.216 -0.2719 -1.4714  0.9369
 6506SOL    HW230981   2.259   4.434   4.332  1.8192  2.4650 -0.3313
 6507SOL     OW30982   0.718   4.478  14.825  0.2602 -0.2041 -0.0084
 6507SOL    HW130983   0.689   4.520  14.744 -0.1728 -2.0433 -0.8074
 6507SOL    HW230984   0.688   4.546  14.886 -3.0799 -1.5540 -0.1176
 6508SOL     OW30985   1.199   0.424  16.714 -0.2628 -0.0393  0.2384
 6508SOL    HW130986   1.156   0.420  16.629 -0.0004  1.1924  0.0423
 6508SOL    HW230987   1.279   0.469  16.686 -0.1636 -0.6273 -0.4143
 6509SOL     OW30988   4.722   3.048   4.397 -0.1710 -0.5990  0.2359
 6509SOL    HW130989   0.053   2.969   4.389 -1.7084 -1.7537  1.1584
 6509SOL    HW230990   0.053   3.112   4.445 -0.9944 -0.5432  1.0803
 6510SOL     OW30991   1.172   4.213   7.490 -0.8570 -0.5094  0.1057
 6510SOL    HW130992   1.206   4.129   7.522 -2.1121  0.4131  3.8393
 6510SOL    HW230993   1.249   4.266   7.508  0.9025 -3.3371  0.8770
 6511SOL     OW30994   3.209   1.397   7.235 -0.6348  0.1080 -0.2389
 6511SOL    HW130995   3.277   1.385   7.302  1.1854  1.1019 -1.8979
 6511SOL    HW230996   3.232   1.477   7.187 -1.0085  0.9562  0.9873
 6512SOL     OW30997   3.824   0.992   3.530 -0.5975 -0.1090  0.1644
 6512SOL    HW130998   3.877   1.051   3.583 -0.3801  0.8697 -1.1233
 6512SOL    HW230999   3.859   1.012   3.443 -0.0606 -1.0705  0.1606
 6513SOL     OW31000   2.715   1.283   8.816  0.2295 -0.6384 -0.2601
 6513SOL    HW131001   2.640   1.260   8.761 -0.6240  1.4810  0.0362
 6513SOL    HW231002   2.738   1.370   8.783 -2.1532 -0.3432 -1.1689
 6514SOL     OW31003   3.206   4.176   6.087 -0.2113  0.6120  0.2363
 6514SOL    HW131004   3.187   4.125   6.009 -0.8037  1.6872 -0.3237
 6514SOL    HW231005   3.150   4.254   6.082  1.0436  1.4609 -0.7429
 6515SOL     OW31006   0.239   2.702   1.029  0.2734  0.7655 -0.1673
 6515SOL    HW131007   0.324   2.747   1.026  1.4045 -1.5148 -2.2492
 6515SOL    HW231008   0.191   2.754   0.964 -1.2268 -0.7605 -0.2663
 6516SOL     OW31009   3.310   2.161  15.074  0.1665 -0.0402  0.2584
 6516SOL    HW131010   3.338   2.078  15.035 -1.8305 -1.2235  1.3008
 6516SOL    HW231011   3.393   2.207  15.086  0.1077 -0.2678  1.5515
 6517SOL     OW31012   3.885   4.093   0.647 -0.0895 -0.6106 -0.1691
 6517SOL    HW131013   3.836   4.167   0.610 -0.2394 -0.1665  0.9220
 6517SOL    HW231014   3.907   4.122   0.735 -1.2329  0.2275 -0.1661
 6518SOL     OW31015   2.860   0.444   0.883  0.0095 -0.0080 -0.6063
 6518SOL    HW131016   2.786   0.505   0.882  0.0215  0.0044 -0.8668
 6518SOL    HW231017   2.938   0.500   0.876 -0.9086  1.4280  0.8149
 6519SOL     OW31018   2.352   3.224   2.684 -0.5436 -0.0591  0.3877
 6519SOL    HW131019   2.269   3.251   2.644 -0.5537 -0.5080  0.1057
 6519SOL    HW231020   2.410   3.296   2.661 -1.3637  0.0806 -1.2288
 6520SOL     OW31021   4.649   1.824   4.924  0.4197  0.1695  0.1479
 6520SOL    HW131022   4.620   1.889   4.988 -0.0494  1.4471 -1.3622
 6520SOL    HW231023   0.020   1.843   4.918  0.4467 -0.1759 -0.4770
 6521SOL     OW31024   0.782   4.709   4.919  0.5350 -0.0979 -0.0480
 6521SOL    HW131025   0.759   0.049   4.989  0.9130 -1.0107  0.8971
 6521SOL    HW231026   0.847   0.033   4.867  0.8230 -1.6744 -1.0958
 6522SOL     OW31027   0.749   1.450   3.184 -0.0431  0.0623 -0.4515
 6522SOL    HW131028   0.677   1.494   3.138  0.2504 -0.7106 -1.6414
 6522SOL    HW231029   0.748   1.358   3.160 -2.5453 -0.7878  2.8945
 6523SOL     OW31030   3.884   1.125   2.902 -0.9614 -0.0559 -0.0967
 6523SOL    HW131031   3.818   1.127   2.833 -0.5445  0.8234 -0.4608
 6523SOL    HW231032   3.911   1.217   2.908  2.9522 -1.1408 -1.4150
 6524SOL     OW31033   4.394   3.513   5.844 -0.2826 -0.6115  0.2094
 6524SOL    HW131034   4.465   3.512   5.909 -0.8695  0.1949  0.8731
 6524SOL    HW231035   4.379   3.607   5.838  1.7131 -0.3648 -0.9290
 6525SOL     OW31036   1.289   1.007   2.913 -0.0907  0.0296 -0.6237
 6525SOL    HW131037   1.336   1.037   2.990 -1.4185 -1.7841  0.8802
 6525SOL    HW231038   1.234   1.084   2.897  1.2344  1.1115  0.1116
 6526SOL     OW31039   3.082   2.033   4.840 -0.2397  0.2756 -0.0142
 6526SOL    HW131040   3.090   2.033   4.745 -1.5834  2.7041 -0.1193
 6526SOL    HW231041   3.055   1.945   4.866  1.4199  0.1645  1.3828
 6527SOL     OW31042   4.246   0.424   3.675  0.5227  0.0256  0.1608
 6527SOL    HW131043   4.307   0.352   3.659  0.5975  0.1412 -0.0653
 6527SOL    HW231044   4.161   0.383   3.656 -0.6834  2.6915 -0.0960
 6528SOL     OW31045   2.538   1.548  13.024  0.4229  0.5436  0.0254
 6528SOL    HW131046   2.573   1.624  12.977  0.4290  0.1950 -0.5245
 6528SOL    HW231047   2.551   1.488  12.951 -0.3518  0.2723  0.1142
 6529SOL     OW31048   3.920   1.859   6.629  0.1754 -0.3655 -0.1290
 6529SOL    HW131049   3.991   1.891   6.574 -1.9216  2.9287 -0.9352
 6529SOL    HW231050   3.896   1.778   6.584 -1.3548 -1.3596  2.4908
 6530SOL     OW31051   2.784   1.165   2.775  0.1292 -0.0403  0.0734
 6530SOL    HW131052   2.810   1.257   2.764 -2.4088  0.9219  2.1446
 6530SOL    HW231053   2.750   1.160   2.686  1.8551 -2.2458 -0.4661
 6531SOL     OW31054   4.451   2.342  10.940  0.3773 -0.4525 -0.1364
 6531SOL    HW131055   4.433   2.291  11.019 -0.3911  1.1854  0.7341
 6531SOL    HW231056   4.523   2.290  10.904  1.8225 -0.9777  3.4645
 6532SOL     OW31057   1.746   0.286   6.867 -0.0044 -0.2959 -0.5057
 6532SOL    HW131058   1.715   0.258   6.781 -1.9411 -0.6551  0.3185
 6532SOL    HW231059   1.677   0.340   6.905 -0.3630 -1.8751  1.1086
 6533SOL     OW31060   3.943   0.514   5.005  0.3363 -0.0494 -0.2559
 6533SOL    HW131061   3.901   0.512   5.091  0.8890 -2.1217 -0.0360
 6533SOL    HW231062   3.946   0.422   4.979 -1.0751  0.2292 -1.4229
 6534SOL     OW31063   1.436   4.418  11.704  0.4927  0.0131 -0.2794
 6534SOL    HW131064   1.387   4.427  11.786 -0.0884  0.8861 -0.7296
 6534SOL    HW231065   1.390   4.353  11.652 -0.5724  1.3382 -0.9751
 6535SOL     OW31066   2.789   4.558  16.447  0.4259 -0.5323 -0.7311
 6535SOL    HW131067   2.802   4.653  16.446 -0.1802 -0.4312  1.6228
 6535SOL    HW231068   2.838   4.532  16.525  1.1702  1.3441 -0.5577
 6536SOL     OW31069   2.018   4.140   1.432  0.1601  0.4610 -0.3835
 6536SOL    HW131070   1.973   4.074   1.378 -1.1013  1.3317 -0.4079
 6536SOL    HW231071   2.093   4.096   1.471 -0.1382 -1.1093 -1.5804
 6537SOL     OW31072   1.444   3.626   5.488 -0.0975  0.0831 -0.6023
 6537SOL    HW131073   1.490   3.575   5.422  0.2118 -0.3621 -0.0434
 6537SOL    HW231074   1.514   3.690   5.505 -0.5918  0.3982  0.2597
 6538SOL     OW31075   0.280   0.349   7.929 -0.0447  0.0336 -0.0879
 6538SOL    HW131076   0.261   0.305   8.012 -0.8241  0.4452 -0.0474
 6538SOL    HW231077   0.339   0.293   7.880  0.9367  0.4743  0.5729
 6539SOL     OW31078   0.325   1.954   7.539 -0.4241 -0.0763  0.5455
 6539SOL    HW131079   0.296   1.962   7.448 -1.0614  0.4562  0.7911
 6539SOL    HW231080   0.296   1.865   7.559  1.3845 -0.2442  2.3671
 6540SOL     OW31081   0.458   1.661   3.293  0.5754  0.0434  0.2498
 6540SOL    HW131082   0.547   1.695   3.287  0.4359  0.1029 -1.4354
 6540SOL    HW231083   0.458   1.570   3.321 -1.2996  0.3190  1.1429
 6541SOL     OW31084   1.726   2.416   6.475 -0.6774 -0.1192 -0.0536
 6541SOL    HW131085   1.775   2.456   6.547 -1.1471 -2.1288  1.3612
 6541SOL    HW231086   1.648   2.473   6.479  0.3068  1.2881 -0.6910
 6542SOL     OW31087   4.625   0.319   9.541 -0.0452  0.2684  0.1829
 6542SOL    HW131088   4.676   0.276   9.472 -3.1258 -1.6047 -0.9361
 6542SOL    HW231089   4.596   0.398   9.496 -0.2306  0.1527  0.1006
 6543SOL     OW31090   2.329   3.680  10.828  0.2960 -0.0065  0.3837
 6543SOL    HW131091   2.237   3.693  10.807  0.1793 -0.3672  0.6725
 6543SOL    HW231092   2.368   3.676  10.741  0.6471  0.0742  0.5358
 6544SOL     OW31093   1.587   3.761  13.791 -0.4227  0.0736  0.1879
 6544SOL    HW131094   1.607   3.695  13.724  0.2456  2.0313 -1.5452
 6544SOL    HW231095   1.674   3.793  13.816 -0.7837  0.3524  1.0680
 6545SOL     OW31096   0.611   1.648   8.797  0.3460 -0.2074 -0.4905
 6545SOL    HW131097   0.673   1.714   8.827  1.7211 -0.7872 -2.0853
 6545SOL    HW231098   0.632   1.652   8.704 -2.2754 -0.3974 -1.0983
 6546SOL     OW31099   2.271   2.086   7.056  0.2530 -0.4093  0.1664
 6546SOL    HW131100   2.281   2.006   7.108 -0.3112 -0.1480  0.6707
 6546SOL    HW231101   2.303   2.063   6.969 -0.0481  0.6787 -0.2330
 6547SOL     OW31102   4.155   1.819   5.181 -0.0479  0.0715 -0.7490
 6547SOL    HW131103   4.123   1.811   5.271  2.5997 -0.4625  0.1495
 6547SOL    HW231104   4.104   1.890   5.142 -0.2445  0.9425  1.0525
 6548SOL     OW31105   3.553   1.869   2.055 -0.0027 -0.5595 -0.4154
 6548SOL    HW131106   3.606   1.813   1.999  0.1686 -2.1933  1.3682
 6548SOL    HW231107   3.501   1.907   1.985  1.4745  0.2168 -1.0900
 6549SOL     OW31108   0.411   4.559   9.680  0.1965  0.6292  0.2187
 6549SOL    HW131109   0.393   4.653   9.681  0.6309  0.7187 -0.6816
 6549SOL    HW231110   0.364   4.525   9.605  0.0874  1.8302 -0.2621
 6550SOL     OW31111   4.700   2.005   7.715 -0.6565  0.2564  0.2498
 6550SOL    HW131112   0.013   1.917   7.723  0.9434  0.8481 -0.3512
 6550SOL    HW231113   4.618   1.987   7.669 -0.2638  0.3128 -0.4685
 6551SOL     OW31114   3.233   0.257   5.971 -0.1259 -0.4672  0.0133
 6551SOL    HW131115   3.269   0.182   5.923  0.5490 -1.1737  1.6213
 6551SOL    HW231116   3.310   0.295   6.012 -0.3205  1.7314 -1.6938
 6552SOL     OW31117   2.747   2.175  15.746  0.1372 -0.3039  0.5901
 6552SOL    HW131118   2.828   2.141  15.710  0.8137  0.2588  1.5456
 6552SOL    HW231119   2.756   2.148  15.838  0.4019 -2.2436 -0.0272
 6553SOL     OW31120   0.845   0.514   6.974  0.1971 -0.0668 -0.5995
 6553SOL    HW131121   0.804   0.529   6.889  0.7320  0.3185 -0.7886
 6553SOL    HW231122   0.787   0.444   7.005 -0.1627  0.4540 -0.0731
 6554SOL     OW31123   2.444   1.731   2.907  0.0540  0.3554  0.3546
 6554SOL    HW131124   2.487   1.816   2.906 -1.1320  0.9225 -0.8800
 6554SOL    HW231125   2.504   1.665   2.872 -1.0913 -1.1858  1.2708
 6555SOL     OW31126   0.121   4.080   6.935 -0.2587  0.0311 -0.1317
 6555SOL    HW131127   0.160   4.014   6.993  0.6034  0.1526 -0.5780
 6555SOL    HW231128   0.044   4.035   6.900 -1.4697  1.9530  0.0631
 6556SOL     OW31129   2.657   3.269   7.349 -0.1797 -0.2595  0.2929
 6556SOL    HW131130   2.634   3.334   7.415 -0.2827  0.3610 -0.3563
 6556SOL    HW231131   2.687   3.327   7.279 -0.2849  1.6689  1.8498
 6557SOL     OW31132   2.210   2.698   9.430 -0.3395 -0.2817  0.0230
 6557SOL    HW131133   2.277   2.630   9.427  1.2465  1.2849 -0.0049
 6557SOL    HW231134   2.232   2.732   9.344  2.1988 -1.0064  0.3779
 6558SOL     OW31135   3.019   3.624   6.299 -0.4132  0.0621 -0.2772
 6558SOL    HW131136   3.108   3.617   6.264  0.3043  1.3434  1.2582
 6558SOL    HW231137   3.004   3.534   6.328  0.5943 -0.1851 -0.5293
 6559SOL     OW31138   0.510   3.463   8.577  0.0443 -0.0026  0.0390
 6559SOL    HW131139   0.442   3.396   8.568  0.4588 -0.3750 -0.3096
 6559SOL    HW231140   0.590   3.429   8.536 -0.1912  0.1517 -0.5501
 6560SOL     OW31141   0.714   4.675   9.053  0.5141 -0.5561  0.0654
 6560SOL    HW131142   0.683   0.005   8.980  0.2907 -0.1296  0.4673
 6560SOL    HW231143   0.719   4.592   9.005  1.5337 -0.6856  0.3948
 6561SOL     OW31144   0.227   1.060   8.746 -0.0722 -0.3114 -0.3007
 6561SOL    HW131145   0.184   0.981   8.778 -1.3845  0.7248  0.5007
 6561SOL    HW231146   0.275   1.023   8.672 -0.4479  1.3214 -1.3567
 6562SOL     OW31147   3.171   3.849   3.113 -0.1272 -0.1774  0.6146
 6562SOL    HW131148   3.235   3.920   3.114 -1.5864  1.1312  0.1633
 6562SOL    HW231149   3.166   3.825   3.206 -1.7579  1.4860  0.9452
 6563SOL     OW31150   3.663   4.718  16.744 -0.0978 -0.2510 -0.0060
 6563SOL    HW131151   3.732   0.061  16.743  0.8693 -1.1963  2.0966
 6563SOL    HW231152   3.709   4.636  16.764 -2.6678 -1.5423  0.5079
 6564SOL     OW31153   4.584   3.131  11.175 -0.8804 -0.3025  0.3785
 6564SOL    HW131154   4.568   3.037  11.178 -0.4192 -0.3617  0.9574
 6564SOL    HW231155   4.628   3.151  11.258 -1.8264 -0.4191  0.9146
 6565SOL     OW31156   2.001   3.674   8.978  0.5104 -0.1229 -0.2981
 6565SOL    HW131157   2.090   3.664   8.942  0.8466  0.5000  0.3727
 6565SOL    HW231158   1.946   3.625   8.917 -0.9049 -0.6931  1.4493
 6566SOL     OW31159   0.312   0.143   3.972  0.1853  0.2235 -0.1473
 6566SOL    HW131160   0.267   0.170   3.892 -0.8630 -1.8466 -0.2620
 6566SOL    HW231161   0.242   0.171   4.030 -1.3778  1.3813 -2.5906
 6567SOL     OW31162   1.106   0.772   8.681  0.2978 -0.1674  0.3482
 6567SOL    HW131163   1.194   0.804   8.662  0.8889 -0.2956  2.8488
 6567SOL    HW231164   1.042   0.826   8.635  2.1198  0.4974 -1.4234
 6568SOL     OW31165   3.194   4.638   4.861 -0.1610 -0.0026  0.1559
 6568SOL    HW131166   3.208   4.552   4.901  0.6470 -0.9357 -2.1439
 6568SOL    HW231167   3.099   4.629   4.849  0.1401 -0.7281 -1.7059
 6569SOL     OW31168   3.194   2.865   3.500  0.6390  0.7768 -0.3076
 6569SOL    HW131169   3.234   2.785   3.467 -1.1300 -0.2224  0.0024
 6569SOL    HW231170   3.226   2.927   3.435 -0.2363  2.1345  0.5535
 6570SOL     OW31171   2.276   0.057   4.452  0.7371  0.0238 -0.0469
 6570SOL    HW131172   2.281   0.054   4.357  1.3199  2.7119 -0.1051
 6570SOL    HW231173   2.291   4.687   4.469  1.3588 -0.2722 -2.1968
 6571SOL     OW31174   2.091   3.854   5.146 -0.1981 -0.9304  0.0393
 6571SOL    HW131175   2.155   3.849   5.075 -1.6856 -2.2479 -1.2127
 6571SOL    HW231176   2.152   3.854   5.219 -0.3470  0.8017  0.1634
 6572SOL     OW31177   3.216   1.542   3.260  0.2568 -0.2314  0.4944
 6572SOL    HW131178   3.295   1.557   3.209 -1.6001  2.3251 -1.6398
 6572SOL    HW231179   3.250   1.471   3.316  0.3156  0.2091  1.0195
 6573SOL     OW31180   3.560   0.516   8.437 -0.2984  0.1397 -0.5010
 6573SOL    HW131181   3.466   0.532   8.447 -0.2586  0.4070 -0.5474
 6573SOL    HW231182   3.583   0.509   8.529 -0.6031 -2.3766 -0.5997
 6574SOL     OW31183   0.904   2.697   9.840  0.0448 -0.4296  0.2084
 6574SOL    HW131184   0.932   2.779   9.881  1.3403 -0.3029 -0.9295
 6574SOL    HW231185   0.911   2.723   9.749  2.3732  2.4659  1.1996
 6575SOL     OW31186   4.549   0.181   2.723 -0.3694  0.6715 -0.5705
 6575SOL    HW131187   4.531   0.265   2.767  0.8861 -0.7022  2.5324
 6575SOL    HW231188   4.465   0.168   2.678 -0.1675 -0.3803 -0.6201
 6576SOL     OW31189   1.709   4.037   0.603 -0.4574  0.2983 -0.0348
 6576SOL    HW131190   1.764   4.106   0.638 -0.3844  0.2015  0.0427
 6576SOL    HW231191   1.635   4.047   0.662  0.1256 -0.4689  0.8345
 6577SOL     OW31192   3.643   4.715   2.501  0.6847 -0.5094 -0.7279
 6577SOL    HW131193   3.653   0.005   2.595 -1.3989  0.6887 -0.6772
 6577SOL    HW231194   3.550   0.007   2.489  1.0311  0.4944 -2.2561
 6578SOL     OW31195   0.514   4.470   5.890  0.4873  0.0898 -0.3081
 6578SOL    HW131196   0.553   4.489   5.976 -0.5862 -0.3383  0.2668
 6578SOL    HW231197   0.466   4.552   5.884 -3.1291 -2.0197 -0.3911
 6579SOL     OW31198   4.369   4.003   7.245  0.2114 -0.2900  0.2798
 6579SOL    HW131199   4.457   4.007   7.208  0.9239 -4.1310  1.5048
 6579SOL    HW231200   4.314   4.025   7.170  0.4912 -2.0154 -0.4222
 6580SOL     OW31201   2.083   0.214  17.524 -0.1547 -0.3784 -0.2237
 6580SOL    HW131202   2.107   0.306  17.515 -3.0343  0.6247  2.0861
 6580SOL    HW231203   2.161   0.183  17.570  1.1255 -0.0891 -2.1919
 6581SOL     OW31204   0.215   1.697   4.913 -0.7929 -0.2659  0.2893
 6581SOL    HW131205   0.286   1.743   4.867 -2.3814  2.0851  0.1655
 6581SOL    HW231206   0.219   1.608   4.879  2.1834  0.3635 -1.0534
 6582SOL     OW31207   3.773   2.777   6.197 -0.5282  0.3454 -0.3983
 6582SOL    HW131208   3.707   2.710   6.176 -1.6252  0.6868  1.9979
 6582SOL    HW231209   3.854   2.727   6.184 -0.3631  0.1290  1.5444
 6583SOL     OW31210   3.413   3.362   3.700  0.1365 -0.7381  0.7181
 6583SOL    HW131211   3.498   3.322   3.718  0.8804  0.6849  0.3971
 6583SOL    HW231212   3.371   3.340   3.783 -1.0218 -1.9579 -0.1930
 6584SOL     OW31213   1.297   3.757   4.192  0.2895 -0.1820  0.1587
 6584SOL    HW131214   1.340   3.743   4.108 -2.2042 -0.3638 -1.1031
 6584SOL    HW231215   1.362   3.739   4.259  0.5863 -1.0799 -0.3761
 6585SOL     OW31216   1.370   1.151   1.519 -0.4673  0.3413 -0.2319
 6585SOL    HW131217   1.423   1.154   1.599 -0.4872 -2.7902 -0.1046
 6585SOL    HW231218   1.324   1.234   1.506  1.6047  1.6382  0.6575
 6586SOL     OW31219   3.852   2.783   3.258  0.2357 -0.2449  0.2675
 6586SOL    HW131220   3.834   2.690   3.244  0.1655 -0.4492  1.6770
 6586SOL    HW231221   3.791   2.830   3.202 -1.5528 -2.1214  0.6357
 6587SOL     OW31222   1.088   4.158   5.876  0.2814 -1.0692 -0.2500
 6587SOL    HW131223   0.994   4.138   5.883 -0.0992  0.0722 -1.9034
 6587SOL    HW231224   1.117   4.069   5.896 -0.9918 -0.9964  1.8416
 6588SOL     OW31225   3.948   1.936   6.938 -0.2708  0.0876 -0.2107
 6588SOL    HW131226   3.911   1.849   6.950  1.8368 -0.5893  1.3048
 6588SOL    HW231227   4.019   1.919   6.876  0.6328  1.8012  0.3281
 6589SOL     OW31228   0.233   0.281   5.096 -0.4154  0.2928 -0.2819
 6589SOL    HW131229   0.267   0.233   5.021 -0.3249  1.0101 -0.6956
 6589SOL    HW231230   0.308   0.305   5.149 -1.1083  1.3322  0.2223
 6590SOL     OW31231   1.980   0.109  15.455 -0.2812  0.0254 -0.0295
 6590SOL    HW131232   1.896   0.132  15.494 -1.2334  0.5025 -2.4371
 6590SOL    HW231233   1.966   0.140  15.366 -0.5882  1.5125  0.5385
 6591SOL     OW31234   3.221   4.313  15.016 -0.3196  0.3844 -0.8210
 6591SOL    HW131235   3.314   4.321  15.039 -0.7216 -0.1516  0.9727
 6591SOL    HW231236   3.240   4.322  14.923  0.0047 -3.2738 -1.1077
 6592SOL     OW31237   1.234   0.349   1.916 -0.7826  0.8159  0.4175
 6592SOL    HW131238   1.213   0.441   1.900  0.3975  0.8312 -1.0775
 6592SOL    HW231239   1.213   0.340   2.009 -0.9780 -1.9442  0.1007
 6593SOL     OW31240   0.639   1.390   5.476  0.5323  0.1315  0.8707
 6593SOL    HW131241   0.687   1.460   5.520 -0.3637  0.3481  1.5052
 6593SOL    HW231242   0.705   1.338   5.430 -2.2515 -1.8376 -0.9264
 6594SOL     OW31243   4.072   2.231   1.333  0.1606  0.3773  0.0068
 6594SOL    HW131244   4.141   2.174   1.366 -0.8941 -0.7507  0.2837
 6594SOL    HW231245   4.077   2.217   1.239 -0.9841  3.9175 -0.5932
 6595SOL     OW31246   1.516   0.094   1.559  0.0667 -0.2525 -0.4576
 6595SOL    HW131247   1.591   0.149   1.582  0.4321 -0.3087 -1.5231
 6595SOL    HW231248   1.554   0.006   1.561 -1.3650 -0.8559  0.1148
 6596SOL     OW31249   4.089   2.783   4.996 -0.1436 -0.2593  0.1029
 6596SOL    HW131250   4.178   2.809   4.974 -0.1724  0.7925  1.2203
 6596SOL    HW231251   4.102   2.744   5.082  0.0692 -0.6434 -0.1041
 6597SOL     OW31252   3.964   1.655   6.854  0.2547  0.6890 -0.6974
 6597SOL    HW131253   3.892   1.598   6.829 -0.2072  0.5249  0.9947
 6597SOL    HW231254   3.991   1.692   6.770 -1.4660  2.6317 -0.4217
 6598SOL     OW31255   0.519   2.479  14.293  0.2035  0.0495 -0.5365
 6598SOL    HW131256   0.474   2.411  14.243 -0.9829  0.6197 -0.2414
 6598SOL    HW231257   0.498   2.458  14.384  0.2796  0.4070 -0.4329
 6599SOL     OW31258   1.934   2.206  16.199  0.4153 -0.3655  0.5347
 6599SOL    HW131259   1.924   2.125  16.149 -3.7336 -1.2857  2.8512
 6599SOL    HW231260   1.859   2.201  16.258 -1.0626  3.1176 -1.0337
 6600SOL     OW31261   1.329   0.984   9.052 -0.0871  0.0737 -0.6421
 6600SOL    HW131262   1.348   0.956   8.962  0.9631  0.6230 -0.5907
 6600SOL    HW231263   1.337   1.079   9.046  1.6282  0.1538  2.9985
 6601SOL     OW31264   2.681   1.643  10.500  0.1653  0.0884 -0.1698
 6601SOL    HW131265   2.635   1.620  10.420  0.8886 -0.1164 -0.5236
 6601SOL    HW231266   2.657   1.585  10.572  1.6522  3.4896  3.1109
 6602SOL     OW31267   4.154   0.323   1.521 -0.3141  0.3469  0.0831
 6602SOL    HW131268   4.153   0.352   1.430 -0.3173  0.0255 -0.0179
 6602SOL    HW231269   4.206   0.243   1.512  0.0502  0.6062 -0.1257
 6603SOL     OW31270   0.134   2.024  10.671  0.1047 -0.7256  0.6609
 6603SOL    HW131271   0.214   2.076  10.676 -0.8589  0.9172 -1.2070
 6603SOL    HW231272   0.140   1.975  10.753 -4.3843  1.1343  2.1167
 6604SOL     OW31273   2.364   4.664  10.620  0.5546 -0.5299 -0.7054
 6604SOL    HW131274   2.273   4.640  10.601  0.5297 -0.4696 -0.6643
 6604SOL    HW231275   2.414   4.596  10.577  0.0033 -0.7961 -0.9319
 6605SOL     OW31276   1.722   1.748   5.854  0.6137  0.0218  0.1179
 6605SOL    HW131277   1.764   1.724   5.772 -0.8353 -0.5610 -0.4444
 6605SOL    HW231278   1.672   1.669   5.874 -1.5052  1.2178 -0.4120
 6606SOL     OW31279   1.249   2.534   3.469  0.0892  0.3982 -0.0589
 6606SOL    HW131280   1.267   2.495   3.555 -0.1381  1.7387  0.5851
 6606SOL    HW231281   1.155   2.537   3.485  0.3818  2.6683  1.1875
 6607SOL     OW31282   2.074   0.906   3.657 -0.7746 -0.8691  0.2148
 6607SOL    HW131283   2.113   0.954   3.584 -3.4498  2.5508  1.0496
 6607SOL    HW231284   1.984   0.936   3.651 -0.7008 -0.6739  0.0678
 6608SOL     OW31285   3.800   3.951  10.416  0.3649  0.6647 -0.3792
 6608SOL    HW131286   3.780   3.907  10.499 -1.0059 -0.6727 -1.4064
 6608SOL    HW231287   3.722   3.934  10.362 -0.2103 -0.2321  0.7455
 6609SOL     OW31288   4.514   0.082   5.854 -0.1423 -0.5694  0.1432
 6609SOL    HW131289   4.602   0.099   5.822 -0.4607 -2.5086 -1.7401
 6609SOL    HW231290   4.482   0.023   5.786 -0.8144  0.2553 -0.2630
 6610SOL     OW31291   0.099   1.742   5.668 -0.5083 -0.0958  0.2315
 6610SOL    HW131292   0.170   1.696   5.714  0.7192  0.6786 -0.8720
 6610SOL    HW231293   0.147   1.779   5.593 -2.2424  1.7134  0.0282
 6611SOL     OW31294   0.027   1.249   4.058 -0.4685  0.2082 -0.1604
 6611SOL    HW131295   0.058   1.200   4.134  0.4041 -1.1745 -1.4051
 6611SOL    HW231296   4.671   1.287   4.097 -0.0331  1.0060 -0.0711
 6612SOL     OW31297   4.322   2.351   1.608  0.0510  0.1636  0.2710
 6612SOL    HW131298   4.325   2.266   1.562 -0.4792  0.4071 -0.2211
 6612SOL    HW231299   4.344   2.416   1.542  0.0949  1.4385  1.5567
 6613SOL     OW31300   3.973   1.521   5.244  0.0433 -0.2757 -0.2719
 6613SOL    HW131301   4.047   1.484   5.195  1.1624  3.6444 -1.5870
 6613SOL    HW231302   3.924   1.572   5.180  0.6053  1.7444  0.8929
 6614SOL     OW31303   1.641   0.438  14.281 -0.6463  0.1058 -0.2332
 6614SOL    HW131304   1.606   0.510  14.334 -2.7801 -1.1818  0.0872
 6614SOL    HW231305   1.568   0.404  14.230  1.3563 -0.2803 -2.8599
 6615SOL     OW31306   4.154   3.392   9.703  0.3655 -0.7254 -0.2862
 6615SOL    HW131307   4.196   3.446   9.637 -0.8709 -0.9435 -1.2514
 6615SOL    HW231308   4.065   3.407   9.673 -0.1408  1.8566  2.5296
 6616SOL     OW31309   0.608   2.118  10.393  0.4264 -0.2672 -0.5213
 6616SOL    HW131310   0.674   2.107  10.462  0.2449  1.6720 -0.0366
 6616SOL    HW231311   0.624   2.207  10.364 -0.2382 -0.0346 -0.1723
 6617SOL     OW31312   0.441   3.037   0.724 -0.6173  0.5500 -0.1957
 6617SOL    HW131313   0.392   2.999   0.651 -1.6809  1.5561 -0.0035
 6617SOL    HW231314   0.532   3.029   0.696 -1.6975 -1.2065 -3.1367
 6618SOL     OW31315   2.768   1.162   9.036 -0.0222  0.4945  0.2705
 6618SOL    HW131316   2.854   1.176   9.076  0.9454 -0.5409 -1.4593
 6618SOL    HW231317   2.778   1.212   8.955  1.2334 -1.6593 -0.9112
 6619SOL     OW31318   2.779   2.832  12.481 -0.0028 -0.0747  0.1625
 6619SOL    HW131319   2.797   2.859  12.391  0.7486  1.3171  0.7396
 6619SOL    HW231320   2.802   2.739  12.477 -1.6082 -0.4885  0.4330
 6620SOL     OW31321   3.533   2.437   3.051  0.7126  0.4638  0.1172
 6620SOL    HW131322   3.470   2.376   3.015 -0.4764  2.0693 -0.5243
 6620SOL    HW231323   3.577   2.457   2.968  0.0743 -1.1752 -0.6250
 6621SOL     OW31324   1.502   2.257   9.239 -0.4090  0.1074 -0.9016
 6621SOL    HW131325   1.497   2.211   9.322 -0.8611 -0.1687 -1.0816
 6621SOL    HW231326   1.547   2.336   9.272  0.3365 -0.3874 -0.7224
 6622SOL     OW31327   1.875   1.021   4.226  0.0860  0.5278  0.5247
 6622SOL    HW131328   1.788   1.021   4.188  0.7900 -0.2769 -1.1187
 6622SOL    HW231329   1.868   0.977   4.310  0.3738  1.1281  0.8629
 6623SOL     OW31330   1.996   0.194   4.806 -0.1936 -0.2854  0.0748
 6623SOL    HW131331   1.992   0.155   4.893 -0.9270 -0.0820  0.1325
 6623SOL    HW231332   2.023   0.112   4.765 -0.8825 -0.7450  0.5457
 6624SOL     OW31333   4.411   0.385   7.218 -0.1768  0.1954 -0.3153
 6624SOL    HW131334   4.330   0.377   7.268  0.2512 -1.8489  0.0481
 6624SOL    HW231335   4.437   0.294   7.205  0.0499  0.4366 -1.5195
 6625SOL     OW31336   3.942   2.719   4.724  0.2100  0.1346  0.3007
 6625SOL    HW131337   3.985   2.739   4.807  0.4090  2.3595 -0.3406
 6625SOL    HW231338   3.879   2.650   4.744  1.3512 -0.3527  2.1737
 6626SOL     OW31339   0.961   3.367   4.675  0.0366 -0.8811  0.1798
 6626SOL    HW131340   0.874   3.364   4.635  0.8236  0.0640 -1.6175
 6626SOL    HW231341   0.937   3.338   4.763 -1.3924  1.8802  0.7032
 6627SOL     OW31342   3.761   1.576   7.877  0.4795 -0.1614  0.3660
 6627SOL    HW131343   3.845   1.590   7.920 -0.3744 -2.4133  2.7775
 6627SOL    HW231344   3.699   1.580   7.950 -1.4092  0.6915 -1.2829
 6628SOL     OW31345   4.424   0.920   3.859 -0.5251  0.9492 -0.4299
 6628SOL    HW131346   4.460   0.831   3.866 -1.7746  0.3762 -1.3841
 6628SOL    HW231347   4.431   0.942   3.766 -2.5547 -0.7052 -0.9692
 6629SOL     OW31348   1.873   0.610  12.427 -0.6850  0.2594  0.3537
 6629SOL    HW131349   1.797   0.667  12.430 -0.1899  1.1752 -4.1154
 6629SOL    HW231350   1.938   0.669  12.466  0.0540 -1.3493  1.6093
 6630SOL     OW31351   2.925   4.567   4.760  0.0847  0.0881 -1.0049
 6630SOL    HW131352   2.844   4.563   4.708 -0.8481 -0.8998  0.5180
 6630SOL    HW231353   2.987   4.516   4.709 -0.6922 -3.2550  1.4095
 6631SOL     OW31354   0.128   3.868   4.677 -0.1429  0.1694 -0.4701
 6631SOL    HW131355   0.201   3.839   4.623  0.0704 -2.6164  1.3106
 6631SOL    HW231356   0.105   3.781   4.708 -0.3881  0.3943 -0.0261
 6632SOL     OW31357   0.650   2.240   5.425 -0.0116  0.1943  0.1701
 6632SOL    HW131358   0.687   2.241   5.336  0.7791 -0.6738  0.4869
 6632SOL    HW231359   0.597   2.160   5.422  0.7452 -0.2688 -1.3423
 6633SOL     OW31360   2.537   3.626   5.871 -0.2491  0.1945 -0.3704
 6633SOL    HW131361   2.588   3.673   5.806  1.9292  1.6939  2.4382
 6633SOL    HW231362   2.565   3.675   5.948  0.0129 -0.7152  0.1124
 6634SOL     OW31363   4.163   1.013   7.658 -0.2490 -0.1207 -0.6487
 6634SOL    HW131364   4.082   0.977   7.623  1.0947 -1.8349 -2.0450
 6634SOL    HW231365   4.189   0.951   7.727 -2.9605 -0.9152 -0.3671
 6635SOL     OW31366   0.847   2.044   7.698  0.3033 -0.5026 -0.1159
 6635SOL    HW131367   0.805   2.100   7.763  0.0666 -0.7874 -0.0232
 6635SOL    HW231368   0.771   2.024   7.643 -0.5628  0.4482  0.7200
 6636SOL     OW31369   4.436   2.832  13.588 -0.0896  0.2515 -0.1094
 6636SOL    HW131370   4.439   2.759  13.651 -0.5366 -1.2590 -1.8371
 6636SOL    HW231371   4.347   2.834  13.554  0.1379 -1.1153 -0.7964
 6637SOL     OW31372   4.531   4.431  14.976 -0.6768 -0.3278  0.3681
 6637SOL    HW131373   4.512   4.445  14.883  1.2739  0.6894  0.1032
 6637SOL    HW231374   4.444   4.396  14.995 -1.3746  2.4608  2.1733
 6638SOL     OW31375   2.854   2.163   9.307 -0.0894 -0.1256 -0.0303
 6638SOL    HW131376   2.941   2.127   9.288 -0.8486  0.1576 -3.8467
 6638SOL    HW231377   2.838   2.193   9.218  2.8874 -0.0938 -0.5491
 6639SOL     OW31378   4.466   2.843  17.324  0.9538 -0.3820 -0.0153
 6639SOL    HW131379   4.426   2.847  17.237  0.6125 -1.9176  0.0681
 6639SOL    HW231380   4.440   2.928  17.360 -0.2137 -1.4459  1.6729
 6640SOL     OW31381   3.575   1.638   8.121 -0.3104 -0.0576  0.8949
 6640SOL    HW131382   3.495   1.594   8.093  0.5112 -1.6487  0.9987
 6640SOL    HW231383   3.539   1.688   8.194 -2.6473 -0.8236  0.2798
 6641SOL     OW31384   0.445   0.263   5.500  0.9407  0.2508 -0.3131
 6641SOL    HW131385   0.396   0.182   5.486  1.3464 -0.5484  2.8900
 6641SOL    HW231386   0.384   0.328   5.464  1.0844  0.9530  0.6955
 6642SOL     OW31387   3.413   2.764   2.698  0.4042 -0.0779  0.0692
 6642SOL    HW131388   3.355   2.719   2.759  1.6465  1.6957  2.5114
 6642SOL    HW231389   3.356   2.758   2.621  0.5539  0.6636 -0.0947
 6643SOL     OW31390   1.291   1.272   5.712  0.8781  0.1919 -0.1981
 6643SOL    HW131391   1.283   1.243   5.621 -1.5738  3.8662 -1.1517
 6643SOL    HW231392   1.241   1.206   5.759 -0.7215  0.9223 -0.8862
 6644SOL     OW31393   3.310   4.384  11.889  0.1035 -0.6452  0.3585
 6644SOL    HW131394   3.226   4.430  11.894  0.7831  0.5995  0.1930
 6644SOL    HW231395   3.286   4.293  11.873  1.1858 -1.2795  2.3359
 6645SOL     OW31396   3.145   4.101   8.775 -0.1052  0.2226  0.2881
 6645SOL    HW131397   3.117   4.192   8.763  0.0050  0.4750  1.9686
 6645SOL    HW231398   3.087   4.055   8.715  3.0280 -1.4979 -1.4151
 6646SOL     OW31399   3.857   0.259   0.804  0.9077 -0.3695 -0.9065
 6646SOL    HW131400   3.950   0.276   0.787  1.3012  0.6996  2.3767
 6646SOL    HW231401   3.871   0.171   0.839 -2.6012 -0.0931  1.1846
 6647SOL     OW31402   2.737   0.153   5.557  0.0398 -0.4678 -0.1162
 6647SOL    HW131403   2.716   0.061   5.539  0.0972 -0.3121 -0.9733
 6647SOL    HW231404   2.681   0.161   5.634 -0.7493  0.0486 -0.7416
 6648SOL     OW31405   4.596   4.601   7.729  0.2716  0.2812  0.1354
 6648SOL    HW131406   4.650   4.574   7.655  1.7356 -0.7665  1.5884
 6648SOL    HW231407   4.523   4.644   7.685 -0.3589 -0.1424  0.7753
 6649SOL     OW31408   0.963   0.675   7.984 -0.0672 -0.1335  0.3515
 6649SOL    HW131409   0.896   0.708   8.044 -0.0359 -0.6265  0.6542
 6649SOL    HW231410   0.940   0.582   7.981 -2.2606  0.4507 -0.4144
 6650SOL     OW31411   0.134   3.313   6.281  0.3383 -0.2672 -0.5440
 6650SOL    HW131412   0.209   3.256   6.300 -1.3190 -2.1877  0.1973
 6650SOL    HW231413   0.085   3.281   6.356  1.6945 -0.2358  0.3553
 6651SOL     OW31414   3.248   3.604   1.762 -0.0736  0.2858  0.1447
 6651SOL    HW131415   3.306   3.608   1.685  1.1123  1.6328  1.1051
 6651SOL    HW231416   3.294   3.570   1.838 -0.5138  2.1820  1.2584
 6652SOL     OW31417   3.622   1.318  12.686  0.5197 -0.0098 -0.3962
 6652SOL    HW131418   3.664   1.262  12.751 -1.3821 -2.6945 -1.4643
 6652SOL    HW231419   3.633   1.261  12.611 -1.5495 -0.6330 -0.2324
 6653SOL     OW31420   0.603   3.021   7.249 -0.0659 -0.0832 -0.0723
 6653SOL    HW131421   0.645   2.935   7.254  1.2871  0.6009  0.4400
 6653SOL    HW231422   0.633   3.056   7.334  0.9889 -2.0398  0.3573
 6654SOL     OW31423   1.804   1.420   8.099  0.1901 -0.6395 -0.4067
 6654SOL    HW131424   1.878   1.390   8.047  3.4443  1.3682  3.0632
 6654SOL    HW231425   1.837   1.481   8.165  0.2788  0.9486 -1.9365
 6655SOL     OW31426   0.631   2.076  14.767 -0.0759  0.1718 -0.1703
 6655SOL    HW131427   0.670   2.092  14.681  0.3461  0.9159  0.1636
 6655SOL    HW231428   0.693   2.114  14.830 -1.2324  0.3396  0.8750
 6656SOL     OW31429   2.483   1.679   4.711  0.0183 -0.3606 -0.0318
 6656SOL    HW131430   2.516   1.604   4.759 -1.0049 -1.6723 -1.3661
 6656SOL    HW231431   2.418   1.639   4.653 -0.5886 -0.6125  0.8168
 6657SOL     OW31432   2.634   1.015   3.326  0.2064  0.0786  0.6930
 6657SOL    HW131433   2.573   0.979   3.262 -0.3258  2.5502 -0.2054
 6657SOL    HW231434   2.573   1.024   3.400  0.1093  1.1485  0.4745
 6658SOL     OW31435   2.208   2.784   5.565 -0.0033  0.1261  0.7200
 6658SOL    HW131436   2.140   2.717   5.555 -0.2923  0.3416  1.2457
 6658SOL    HW231437   2.157   2.859   5.537 -2.2192 -1.2775  0.9756
 6659SOL     OW31438   0.234   1.151   3.215  0.2499 -0.1679  0.1531
 6659SOL    HW131439   0.150   1.175   3.256 -0.7323 -1.2744 -1.2286
 6659SOL    HW231440   0.287   1.127   3.291  1.6893  0.3981 -0.6815
 6660SOL     OW31441   2.495   3.617   4.396  0.1480  0.3062  0.1664
 6660SOL    HW131442   2.421   3.678   4.404 -0.7599 -0.9754  1.5669
 6660SOL    HW231443   2.493   3.559   4.472 -0.8642  2.2961  1.6668
 6661SOL     OW31444   4.005   3.152   9.245  0.3201 -0.4000 -0.2985
 6661SOL    HW131445   3.954   3.217   9.293 -2.7633 -0.4410 -3.5396
 6661SOL    HW231446   3.964   3.152   9.159 -0.8198 -1.4035  0.2446
 6662SOL     OW31447   1.796   2.715  15.331  0.0111 -0.3319  0.2384
 6662SOL    HW131448   1.767   2.805  15.322  1.7775  0.4410  2.1774
 6662SOL    HW231449   1.733   2.694  15.399  0.1307  1.6827  0.9648
 6663SOL     OW31450   4.361   2.687   2.141  0.1451 -0.3347  0.1536
 6663SOL    HW131451   4.342   2.781   2.149  0.1716 -0.3405  0.2882
 6663SOL    HW231452   4.335   2.682   2.049 -2.1861  0.8372  0.7459
 6664SOL     OW31453   1.936   1.618   3.874  0.7625  1.3076  0.3575
 6664SOL    HW131454   1.950   1.546   3.813 -0.8654  1.8124 -0.6152
 6664SOL    HW231455   1.842   1.616   3.893  0.3348  0.1660 -1.8476
 6665SOL     OW31456   2.432   2.477   5.843 -0.6199  0.4195 -0.3358
 6665SOL    HW131457   2.452   2.559   5.887 -0.1961  0.6324 -0.9178
 6665SOL    HW231458   2.482   2.409   5.888 -2.7984  0.1426  1.6736
 6666SOL     OW31459   3.692   1.822   7.804  0.0854 -0.1715  0.1267
 6666SOL    HW131460   3.645   1.844   7.884  0.9343  0.2896  0.4983
 6666SOL    HW231461   3.756   1.761   7.841  0.0750  0.5490  1.3191
 6667SOL     OW31462   1.858   0.628   4.606 -1.0511  0.0689  0.0499
 6667SOL    HW131463   1.941   0.587   4.631  0.8661  1.9699 -3.2725
 6667SOL    HW231464   1.817   0.654   4.689 -2.3548  1.6574 -1.1196
 6668SOL     OW31465   3.972   0.004   3.768 -0.0017  0.0891  0.2117
 6668SOL    HW131466   4.052   4.693   3.809  0.1483  0.2183  0.0224
 6668SOL    HW231467   3.996   0.088   3.730  0.6689 -1.0213 -1.8147
 6669SOL     OW31468   0.187   2.273  17.657 -0.2305 -0.3147 -0.5679
 6669SOL    HW131469   0.191   2.179  17.639 -0.1999 -0.4608  0.2091
 6669SOL    HW231470   0.279   2.291  17.639 -0.3089 -0.8437 -1.4719
 6670SOL     OW31471   2.478   4.673   7.807  0.2804  0.0371  0.1001
 6670SOL    HW131472   2.388   4.682   7.838  0.3495 -0.2015  0.3740
 6670SOL    HW231473   2.503   0.040   7.830 -1.1474  0.4352  0.0959
 6671SOL     OW31474   2.150   2.713   7.781  0.0557 -0.6819  0.7832
 6671SOL    HW131475   2.079   2.706   7.845 -0.9899  3.7608  0.1038
 6671SOL    HW231476   2.182   2.624   7.790 -1.0791 -1.0340  1.2546
 6672SOL     OW31477   2.556   1.420  11.681  0.3659  0.4521 -0.0786
 6672SOL    HW131478   2.571   1.385  11.593  0.9840  1.0290 -0.1998
 6672SOL    HW231479   2.615   1.362  11.729 -0.6731 -1.4269 -1.0380
 6673SOL     OW31480   1.492   2.407   3.382 -0.2361 -0.0963 -0.2516
 6673SOL    HW131481   1.527   2.480   3.330  2.4650 -0.8877  0.4429
 6673SOL    HW231482   1.406   2.445   3.397 -0.5908 -0.2512 -1.8761
 6674SOL     OW31483   1.062   1.292   5.419 -0.0221  0.0391 -0.4587
 6674SOL    HW131484   1.136   1.240   5.451  0.0281 -0.8051 -1.9318
 6674SOL    HW231485   1.015   1.231   5.362  1.1288  0.2998 -1.6975
 6675SOL     OW31486   1.091   0.944   9.265 -0.1065  0.1830  0.1487
 6675SOL    HW131487   0.997   0.929   9.257  0.2671 -1.5217 -0.9668
 6675SOL    HW231488   1.120   0.993   9.188  0.0596  0.4094  0.3513
 6676SOL     OW31489   0.443   0.848   6.537  1.0031 -0.0407 -0.4357
 6676SOL    HW131490   0.512   0.867   6.600 -1.6065 -0.9498  2.6676
 6676SOL    HW231491   0.365   0.890   6.575  0.6074 -0.9293 -0.2529
 6677SOL     OW31492   2.032   4.156   5.111  0.2114 -0.3954 -0.5480
 6677SOL    HW131493   2.031   4.064   5.088 -1.2827 -1.0371  2.1054
 6677SOL    HW231494   2.053   4.152   5.205 -0.1680  1.3006 -0.3913
 6678SOL     OW31495   4.299   4.136   2.510 -0.5661  0.0315 -0.2201
 6678SOL    HW131496   4.373   4.167   2.562  0.3686  1.6864 -2.5466
 6678SOL    HW231497   4.313   4.041   2.514 -3.0264 -0.2618  0.7557
 6679SOL     OW31498   1.885   2.442   6.713 -0.5619  0.3037  0.1264
 6679SOL    HW131499   1.895   2.354   6.751 -1.2271  0.4240  0.5892
 6679SOL    HW231500   1.871   2.491   6.794 -1.2397 -2.0609  1.4331
 6680SOL     OW31501   3.518   3.331   6.749 -0.2383 -0.4891 -0.3221
 6680SOL    HW131502   3.470   3.265   6.699  2.0711 -0.4550 -2.6095
 6680SOL    HW231503   3.576   3.268   6.793 -0.9994 -0.9655 -0.0108
 6681SOL     OW31504   2.292   2.230  10.202 -0.6533  0.5048  0.4669
 6681SOL    HW131505   2.342   2.311  10.193 -0.9622  0.8986  2.2245
 6681SOL    HW231506   2.313   2.203  10.291 -2.0675 -1.2564  0.2586
 6682SOL     OW31507   4.359   2.793   5.501  0.0508 -0.5046 -0.0148
 6682SOL    HW131508   4.417   2.736   5.552  2.2555  1.3940 -0.4072
 6682SOL    HW231509   4.362   2.865   5.564 -2.9387  1.0708 -1.6897
 6683SOL     OW31510   1.460   3.062   9.025  0.4833  0.1105 -0.2513
 6683SOL    HW131511   1.548   3.026   9.032  0.1115 -0.8082 -0.2328
 6683SOL    HW231512   1.411   3.021   9.097 -0.2834  1.2511 -0.1161
 6684SOL     OW31513   3.879   2.586  11.762  0.2903 -0.6042 -0.7568
 6684SOL    HW131514   3.916   2.674  11.765 -0.4740 -0.4333  3.7137
 6684SOL    HW231515   3.891   2.561  11.854  2.8940 -2.3343 -1.5481
 6685SOL     OW31516   0.095   2.767  13.607 -0.2036 -0.9175 -0.7545
 6685SOL    HW131517   0.040   2.708  13.556  1.2291 -3.1174  0.2386
 6685SOL    HW231518   0.130   2.696  13.661  0.5231 -0.6975 -0.9316
 6686SOL     OW31519   2.928   0.480  14.498 -0.1063  0.3954 -0.1420
 6686SOL    HW131520   2.983   0.457  14.423 -0.9596  1.4817 -1.0988
 6686SOL    HW231521   2.915   0.390  14.527  1.3172  0.7839  1.7824
 6687SOL     OW31522   2.899   0.328   4.077 -0.3717 -0.3741  0.3502
 6687SOL    HW131523   2.889   0.354   3.985  2.3244 -0.1611  0.1088
 6687SOL    HW231524   2.915   0.234   4.074  0.4305 -0.1759 -1.5511
 6688SOL     OW31525   4.226   2.467  11.054  0.3032 -0.0510  0.0057
 6688SOL    HW131526   4.300   2.430  11.005  1.3144  0.5560  1.0673
 6688SOL    HW231527   4.154   2.429  11.003  1.5300 -1.9633 -0.3132
 6689SOL     OW31528   2.916   1.116  14.541  0.4613 -0.4975  0.1604
 6689SOL    HW131529   2.867   1.112  14.459 -1.4612 -2.8746  1.4204
 6689SOL    HW231530   2.993   1.059  14.531 -0.1402 -1.0229 -1.5103
 6690SOL     OW31531   2.870   0.532  15.954  0.1620  0.3765  0.0542
 6690SOL    HW131532   2.938   0.578  16.004 -0.8326 -1.7755  3.3229
 6690SOL    HW231533   2.781   0.558  15.976  0.4507  0.9192  0.5861
 6691SOL     OW31534   4.491   4.284   4.068  0.4293 -0.0099  0.6871
 6691SOL    HW131535   4.542   4.205   4.050 -1.5748 -0.9111 -1.1264
 6691SOL    HW231536   4.570   4.329   4.095 -0.1536  0.1471  2.1250
 6692SOL     OW31537   2.363   2.201   8.123 -0.0777 -0.0908  0.3220
 6692SOL    HW131538   2.286   2.259   8.116  0.2795  0.3372 -0.0779
 6692SOL    HW231539   2.416   2.256   8.180  0.3659  0.6859 -0.8315
 6693SOL     OW31540   0.210   1.784   9.175  0.0343 -0.1486  0.1272
 6693SOL    HW131541   0.131   1.772   9.122  0.5900  0.4929 -0.8376
 6693SOL    HW231542   0.172   1.839   9.244  2.0454 -0.5761  1.5904
 6694SOL     OW31543   4.193   0.515   3.404  0.4989  0.1956  0.2014
 6694SOL    HW131544   4.149   0.523   3.488 -0.0492 -1.0086  0.0369
 6694SOL    HW231545   4.261   0.452   3.429 -0.0088 -0.3336  0.2385
 6695SOL     OW31546   2.554   1.314  13.458  0.1171 -0.0301 -0.2141
 6695SOL    HW131547   2.466   1.282  13.437  0.6476 -0.0268 -2.5096
 6695SOL    HW231548   2.591   1.230  13.487 -1.2742 -0.5454  0.0850
 6696SOL     OW31549   2.424   3.312   8.113 -0.0264  0.4267 -0.7463
 6696SOL    HW131550   2.407   3.217   8.111  0.5509  0.3301 -1.2396
 6696SOL    HW231551   2.515   3.307   8.086 -0.0271 -0.7998 -0.5318
 6697SOL     OW31552   2.153   2.727   1.600  0.3040  0.1428  0.2767
 6697SOL    HW131553   2.190   2.793   1.659  3.7773 -1.8103  0.3178
 6697SOL    HW231554   2.236   2.682   1.586 -0.8872 -2.1594  0.5262
 6698SOL     OW31555   1.906   1.209   6.278 -0.1289  0.1454 -0.0737
 6698SOL    HW131556   1.931   1.162   6.358  1.5194 -0.1563 -0.7699
 6698SOL    HW231557   1.917   1.134   6.219  0.1622 -0.4818  0.7840
 6699SOL     OW31558   3.678   0.274   8.064  0.0075 -0.5325  0.4483
 6699SOL    HW131559   3.734   0.351   8.057  0.1824 -0.8386 -1.5532
 6699SOL    HW231560   3.666   0.254   8.157  0.0746 -0.2231  0.5235
 6700SOL     OW31561   1.617   4.510   3.875  0.0383 -0.0978 -0.1665
 6700SOL    HW131562   1.638   4.447   3.944  1.2703 -0.3881 -0.8053
 6700SOL    HW231563   1.554   4.459   3.824 -0.7666 -0.3669  1.0939
 6701SOL     OW31564   0.391   3.077   2.510 -0.0555  0.0032 -0.0378
 6701SOL    HW131565   0.431   3.111   2.590  2.9845 -0.7742 -1.2398
 6701SOL    HW231566   0.387   3.157   2.457 -1.1080 -1.5352 -2.2707
 6702SOL     OW31567   2.566   0.214  16.568  0.1441  0.4343  0.6343
 6702SOL    HW131568   2.529   0.292  16.527  0.1321  0.1614  0.1283
 6702SOL    HW231569   2.494   0.153  16.557 -1.2972  2.2715 -0.1028
 6703SOL     OW31570   2.347   1.044   4.677  0.3331  0.0382  0.4072
 6703SOL    HW131571   2.441   1.032   4.662 -0.0530 -0.8553 -1.2181
 6703SOL    HW231572   2.355   1.139   4.685 -3.7608  0.3921  0.0906
 6704SOL     OW31573   4.566   0.387   5.590 -0.0816  0.2905 -0.2433
 6704SOL    HW131574   4.659   0.368   5.588  0.1830  1.6355 -0.6400
 6704SOL    HW231575   4.557   0.410   5.682 -0.6345 -0.3313 -0.1385
 6705SOL     OW31576   1.745   2.582   7.577  0.1099  0.4417 -0.0890
 6705SOL    HW131577   1.838   2.562   7.588 -0.0121  0.2271  0.5257
 6705SOL    HW231578   1.706   2.558   7.661 -2.7014  0.9446 -1.2325
 6706SOL     OW31579   3.125   4.596  10.532 -0.2022  0.1319  0.1962
 6706SOL    HW131580   3.216   4.570  10.547 -0.5734 -1.1749  0.2459
 6706SOL    HW231581   3.128   4.623  10.440  1.9625 -0.5745  0.0650
 6707SOL     OW31582   0.575   1.539   4.258  0.2896 -0.0402  0.0455
 6707SOL    HW131583   0.516   1.478   4.302  0.3253 -1.3981 -1.8230
 6707SOL    HW231584   0.658   1.527   4.304 -0.6128  0.5973  1.8630
 6708SOL     OW31585   0.403   2.282   3.904 -0.2528 -0.2245 -0.0282
 6708SOL    HW131586   0.454   2.320   3.976 -0.3034  1.1004 -0.6862
 6708SOL    HW231587   0.379   2.364   3.862 -0.7421 -0.6615 -0.6014
 6709SOL     OW31588   4.190   4.612   2.820  0.2513 -0.6147 -0.2999
 6709SOL    HW131589   4.124   4.678   2.841  2.4591  1.4558  0.1685
 6709SOL    HW231590   4.260   4.641   2.879 -0.4014  1.2823 -0.4364
 6710SOL     OW31591   2.904   2.750   2.775  0.4500 -0.1425 -0.5902
 6710SOL    HW131592   2.878   2.688   2.707  0.1732  0.7773 -1.3222
 6710SOL    HW231593   2.912   2.693   2.851 -1.1841  1.0473  0.4782
 6711SOL     OW31594   1.905   0.029  10.644 -0.1055 -0.1257  0.1040
 6711SOL    HW131595   1.818   0.000  10.672  0.9615 -2.6985  0.7800
 6711SOL    HW231596   1.913   0.123  10.663  0.8165  0.2698 -2.3130
 6712SOL     OW31597   0.648   4.635   6.700 -0.2931  0.0112 -0.2479
 6712SOL    HW131598   0.564   4.638   6.654 -0.5724  1.9491  0.3841
 6712SOL    HW231599   0.635   4.674   6.787  0.4550 -0.4881  0.0829
 6713SOL     OW31600   0.202   2.115   3.082  0.4846 -0.4738  0.1130
 6713SOL    HW131601   0.236   2.111   3.172  1.2684 -2.0784 -0.2541
 6713SOL    HW231602   0.146   2.037   3.079 -1.7179  1.0849  1.3639
 6714SOL     OW31603   3.292   2.217   4.608  0.5146 -0.0373 -0.0696
 6714SOL    HW131604   3.300   2.192   4.516  0.7724  0.0437 -0.0675
 6714SOL    HW231605   3.324   2.305   4.593  2.4298 -0.8832 -0.9443
 6715SOL     OW31606   3.776   3.804  10.661  0.0950 -0.2361 -0.2976
 6715SOL    HW131607   3.751   3.715  10.686 -1.9083 -0.5193 -3.2216
 6715SOL    HW231608   3.804   3.842  10.744 -0.0544  0.2607 -0.4679
 6716SOL     OW31609   4.075   3.331  14.710  0.4886  0.3169  0.0483
 6716SOL    HW131610   4.004   3.274  14.739 -0.9223  1.0760 -1.9293
 6716SOL    HW231611   4.033   3.415  14.692  2.5871  1.7844  1.9345
 6717SOL     OW31612   3.908   2.609   5.832  1.1304  0.3243  0.0661
 6717SOL    HW131613   3.983   2.633   5.777 -1.2424  2.8049 -2.0711
 6717SOL    HW231614   3.857   2.689   5.824  0.1234 -0.2437  0.8171
 6718SOL     OW31615   0.425   2.312  14.100 -0.0895  0.2121  0.1275
 6718SOL    HW131616   0.478   2.255  14.044 -1.7219 -1.1830 -0.0053
 6718SOL    HW231617   0.367   2.247  14.139 -1.7944  1.5607 -0.1287
 6719SOL     OW31618   1.304   1.981   3.056 -0.6566 -0.0481  0.1057
 6719SOL    HW131619   1.233   2.031   3.015  0.2849  2.6561  1.7371
 6719SOL    HW231620   1.359   2.052   3.089 -2.6055  0.9992  1.1061
 6720SOL     OW31621   1.570   3.677   0.398 -0.4949 -0.0580 -0.3910
 6720SOL    HW131622   1.519   3.758   0.400  0.2369  0.3471  2.2669
 6720SOL    HW231623   1.505   3.609   0.413  0.5191 -0.5875  1.5513
 6721SOL     OW31624   3.010   3.957  13.713 -0.1300 -0.1552 -0.1840
 6721SOL    HW131625   3.008   4.038  13.765  2.2615  0.4199 -1.0061
 6721SOL    HW231626   3.053   3.896  13.774  0.7766  0.4013 -0.2699
 6722SOL     OW31627   2.255   4.299   1.946  0.5284  0.1020 -0.0042
 6722SOL    HW131628   2.310   4.299   2.025  0.7923  1.0863 -0.1865
 6722SOL    HW231629   2.240   4.392   1.929 -2.3758 -0.3742 -0.0031
 6723SOL     OW31630   1.386   4.149   0.550  0.2161 -0.0427  0.1970
 6723SOL    HW131631   1.314   4.211   0.565 -0.3564 -0.1711 -1.9952
 6723SOL    HW231632   1.458   4.200   0.513 -0.3919 -1.0717 -2.4076
 6724SOL     OW31633   4.102   2.824  10.001  0.1500 -0.4812  0.0322
 6724SOL    HW131634   4.160   2.899  10.015 -0.7949  0.3612 -0.5776
 6724SOL    HW231635   4.037   2.843  10.068 -0.0496 -0.1912 -0.2406
 6725SOL     OW31636   2.204   3.460   0.373 -1.0259  0.0389  0.0135
 6725SOL    HW131637   2.229   3.529   0.435  2.0869  0.2597 -1.5176
 6725SOL    HW231638   2.243   3.488   0.291 -2.0298 -1.6049 -1.0355
 6726SOL     OW31639   4.382   2.711  16.839 -0.5872 -0.5041  0.0501
 6726SOL    HW131640   4.402   2.717  16.932 -2.0253  0.6053  0.2789
 6726SOL    HW231641   4.410   2.623  16.813  2.9294  0.4320  0.6634
 6727SOL     OW31642   1.373   3.019   4.455 -0.3921  0.2837 -0.0434
 6727SOL    HW131643   1.288   3.043   4.418 -0.9592 -0.4766  0.7358
 6727SOL    HW231644   1.351   2.948   4.516  0.2039 -0.3468 -0.5591
 6728SOL     OW31645   2.459   3.941   6.913  0.3208  0.1055  0.3984
 6728SOL    HW131646   2.386   3.917   6.970  1.1279  0.4225  1.5619
 6728SOL    HW231647   2.530   3.879   6.932  0.9067  0.8986  0.8480
 6729SOL     OW31648   1.237   0.295   2.192  0.2286  0.1914  0.3336
 6729SOL    HW131649   1.177   0.222   2.180 -0.2870  0.6928 -0.1828
 6729SOL    HW231650   1.195   0.350   2.259  3.5030  0.9911  1.7217
 6730SOL     OW31651   3.659   1.979   3.238 -0.1971  0.3603 -0.4754
 6730SOL    HW131652   3.597   1.917   3.200  0.1577  0.4673 -1.2225
 6730SOL    HW231653   3.738   1.925   3.245 -0.4788  0.1968  1.4797
 6731SOL     OW31654   4.568   0.090   1.473  0.4301  0.5730  1.2354
 6731SOL    HW131655   4.491   0.132   1.511  0.0436  2.0571 -1.2013
 6731SOL    HW231656   4.544   4.721   1.484  0.2564  0.9773  4.0453
 6732SOL     OW31657   2.030   1.383   3.715  0.0298 -0.2378 -1.0769
 6732SOL    HW131658   1.975   1.340   3.649  0.3230 -1.6756 -0.3968
 6732SOL    HW231659   2.051   1.311   3.775 -0.5825 -0.8509 -1.6096
 6733SOL     OW31660   2.827   1.139   0.769 -0.4576 -0.9129 -0.9811
 6733SOL    HW131661   2.879   1.127   0.689  0.4674 -0.3094 -0.4719
 6733SOL    HW231662   2.756   1.077   0.753 -1.1666 -0.3774  0.0907
 6734SOL     OW31663   2.006   3.953   3.931 -0.0437 -0.0894  0.3500
 6734SOL    HW131664   2.087   3.917   3.968  0.3099  0.8424  0.4756
 6734SOL    HW231665   2.033   3.996   3.850 -1.3013 -1.3132 -0.7265
 6735SOL     OW31666   1.881   2.071   5.359 -0.5990  0.0284 -0.0010
 6735SOL    HW131667   1.841   2.002   5.305 -0.7381 -0.1521  0.3335
 6735SOL    HW231668   1.886   2.135   5.288 -0.6358 -0.0726 -0.0949
 6736SOL     OW31669   4.287   1.939   6.020  0.2871 -0.2248 -0.2743
 6736SOL    HW131670   4.341   1.972   6.092  0.1229  1.8971 -1.1203
 6736SOL    HW231671   4.202   1.936   6.065 -0.0407 -1.6822 -1.0093
 6737SOL     OW31672   1.418   0.300   2.763 -0.3355 -0.0435 -0.4700
 6737SOL    HW131673   1.411   0.379   2.817 -0.1720 -0.8421  0.7131
 6737SOL    HW231674   1.327   0.301   2.733 -0.0156 -0.2870 -1.4670
 6738SOL     OW31675   1.231   3.983   1.714  0.3631 -0.1332 -0.3846
 6738SOL    HW131676   1.137   3.997   1.706  0.4248 -0.2078 -1.2953
 6738SOL    HW231677   1.251   3.998   1.621 -0.7482 -2.6626 -1.0342
 6739SOL     OW31678   4.288   4.367  14.390  0.4387  0.4451 -0.0361
 6739SOL    HW131679   4.289   4.452  14.435  0.7536  2.1446 -3.2394
 6739SOL    HW231680   4.203   4.335  14.419  0.7684 -0.7973 -0.4722
 6740SOL     OW31681   0.723   2.542   2.674 -0.1142  0.1993 -0.1200
 6740SOL    HW131682   0.700   2.528   2.582 -0.1331 -1.4399  0.1270
 6740SOL    HW231683   0.807   2.577   2.645 -0.3217 -1.0473 -2.2003
 6741SOL     OW31684   1.494   0.395  11.682  0.3490  0.1451  0.0020
 6741SOL    HW131685   1.582   0.378  11.647  1.0741  1.1155  1.3261
 6741SOL    HW231686   1.474   0.305  11.707  2.2389 -1.1236 -3.0454
 6742SOL     OW31687   1.477   4.415   5.069  0.6592 -0.4312  0.5721
 6742SOL    HW131688   1.403   4.414   5.009  0.6577 -1.9118  0.5947
 6742SOL    HW231689   1.532   4.472   5.015  2.0595 -0.3436  2.0731
 6743SOL     OW31690   2.933   0.945  10.136  0.1022  0.0870  0.0557
 6743SOL    HW131691   2.962   0.894  10.060 -0.7533 -1.3856  0.7221
 6743SOL    HW231692   2.879   1.009  10.090  0.3396  2.0996  2.5770
 6744SOL     OW31693   2.935   0.410   3.044 -0.6458  0.4609  0.4337
 6744SOL    HW131694   2.864   0.432   2.984 -0.9571  0.2166  0.7077
 6744SOL    HW231695   2.938   0.489   3.098  0.5903  0.7888 -0.1114
 6745SOL     OW31696   2.868   1.008  15.556  0.4263 -0.6704  0.1510
 6745SOL    HW131697   2.778   1.037  15.573 -0.6195 -3.8107  0.0266
 6745SOL    HW231698   2.906   1.058  15.628 -0.4093 -1.5896  1.2168
 6746SOL     OW31699   1.107   1.026   6.100  0.0095 -0.1850  0.3518
 6746SOL    HW131700   1.014   1.022   6.125 -0.1909 -2.8802 -0.8046
 6746SOL    HW231701   1.147   0.944   6.129  1.0183  0.9146  2.0888
 6747SOL     OW31702   3.359   2.260  17.237 -0.1001 -0.5693 -0.4627
 6747SOL    HW131703   3.368   2.287  17.329  2.7751  1.4116 -1.3288
 6747SOL    HW231704   3.277   2.210  17.240  0.5035 -1.5145  0.1323
 6748SOL     OW31705   1.398   3.102   9.989 -0.3337  0.0669  0.0576
 6748SOL    HW131706   1.373   3.081  10.078  4.1275  1.7286  1.6989
 6748SOL    HW231707   1.359   3.029   9.942 -1.6061  0.5306  0.4007
 6749SOL     OW31708   1.887   4.374   6.361  0.0963 -0.0194  0.5924
 6749SOL    HW131709   1.916   4.303   6.418  0.7142  0.6350  1.1008
 6749SOL    HW231710   1.969   4.420   6.343 -1.0694  1.9427  0.3026
 6750SOL     OW31711   4.714   0.462   5.272  0.8912  0.1261 -0.0362
 6750SOL    HW131712   4.659   0.388   5.246 -1.5707  1.6347  0.8256
 6750SOL    HW231713   0.034   0.466   5.187 -0.3129 -0.3993 -0.6841
 6751SOL     OW31714   2.111   3.850  12.796  0.0813  0.3440 -0.2705
 6751SOL    HW131715   2.175   3.831  12.727 -0.9667 -1.3600 -0.7716
 6751SOL    HW231716   2.163   3.828  12.873 -1.2690 -1.4642  0.1203
 6752SOL     OW31717   2.779   3.678   7.899 -0.2798  0.3009 -0.0578
 6752SOL    HW131718   2.821   3.727   7.828  0.5248  1.1490  0.9976
 6752SOL    HW231719   2.860   3.644   7.937  0.3847  0.2533 -1.5444
 6753SOL     OW31720   4.000   0.759   8.173 -0.2219  0.2938  0.7163
 6753SOL    HW131721   3.908   0.733   8.183 -0.6433  2.1679  1.7157
 6753SOL    HW231722   4.041   0.752   8.259  1.6178  0.2938 -0.1728
 6754SOL     OW31723   2.316   3.123   5.376 -0.0967  0.6354 -0.0924
 6754SOL    HW131724   2.264   3.186   5.426  0.3640  0.5893  0.4474
 6754SOL    HW231725   2.255   3.111   5.303  0.1574  1.4575 -0.4386
 6755SOL     OW31726   1.975   0.344   5.201 -0.2782  0.0454 -0.2150
 6755SOL    HW131727   2.046   0.398   5.166  0.4805 -0.3389  0.7364
 6755SOL    HW231728   1.896   0.379   5.160 -0.3900 -1.5653 -1.3752
 6756SOL     OW31729   1.279   3.408   2.569  0.5635  0.2336 -0.3216
 6756SOL    HW131730   1.276   3.448   2.482 -1.5317 -0.6820 -0.6719
 6756SOL    HW231731   1.358   3.355   2.559 -0.0593 -0.9375  1.0810
 6757SOL     OW31732   3.560   4.167   7.882  0.2006 -0.1931 -0.7700
 6757SOL    HW131733   3.621   4.236   7.855 -0.1291 -0.1386 -1.3689
 6757SOL    HW231734   3.604   4.088   7.850 -0.1140 -0.5898 -0.2344
 6758SOL     OW31735   3.889   4.688   4.141 -0.4262 -0.9107  0.4032
 6758SOL    HW131736   3.979   4.655   4.135 -0.1574 -0.4793  1.9698
 6758SOL    HW231737   3.838   4.618   4.100  0.4146 -1.1510 -0.2258
 6759SOL     OW31738   4.268   3.023   3.558  0.2471 -0.9324 -0.1196
 6759SOL    HW131739   4.353   3.047   3.593 -0.0465 -0.5796  0.3464
 6759SOL    HW231740   4.246   2.965   3.631  0.6349  0.0706  0.7853
 6760SOL     OW31741   2.863   1.137  11.590  0.5543  0.3356 -0.2902
 6760SOL    HW131742   2.858   1.192  11.668 -0.0009  0.4868 -0.4276
 6760SOL    HW231743   2.845   1.058  11.641  0.0161 -0.0526 -1.0844
 6761SOL     OW31744   3.762   0.690   4.390 -0.2480 -0.0146 -0.0862
 6761SOL    HW131745   3.829   0.623   4.374  0.4257  0.1569  1.9376
 6761SOL    HW231746   3.690   0.634   4.419 -0.4015  1.9542  3.3305
 6762SOL     OW31747   4.227   4.102   7.486 -0.2346 -0.2131 -0.2744
 6762SOL    HW131748   4.280   4.108   7.407  0.2763 -0.3783  0.0559
 6762SOL    HW231749   4.241   4.010   7.511  3.2262  0.8960  1.8465
 6763SOL     OW31750   3.572   1.024  14.306 -0.0571 -0.4708  0.0934
 6763SOL    HW131751   3.482   0.992  14.316 -0.9818  1.7843 -1.1458
 6763SOL    HW231752   3.572   1.073  14.224  0.8288 -0.0191  0.3647
 6764SOL     OW31753   4.352   3.714   0.080  0.2607 -0.9530  0.9456
 6764SOL    HW131754   4.291   3.734   0.151 -2.2094 -1.3764 -1.0543
 6764SOL    HW231755   4.425   3.681   0.132  0.3106  0.3048  1.6760
 6765SOL     OW31756   2.619   1.559  13.453  0.0380  0.0094 -0.2846
 6765SOL    HW131757   2.610   1.471  13.489 -0.3203  0.7399  1.4122
 6765SOL    HW231758   2.587   1.613  13.526 -1.3729  0.4025 -1.1850
 6766SOL     OW31759   1.269   4.522   5.732 -0.1669  0.6357  0.7241
 6766SOL    HW131760   1.255   4.444   5.678  2.6040 -0.3536  1.4217
 6766SOL    HW231761   1.245   4.591   5.671  1.9184  0.1055 -0.6955
 6767SOL     OW31762   1.751   1.752   1.792 -0.1966  0.4454 -0.0451
 6767SOL    HW131763   1.750   1.795   1.878 -1.1628  2.6683 -1.1686
 6767SOL    HW231764   1.714   1.820   1.736  0.0907  1.6966  1.2796
 6768SOL     OW31765   1.942   2.261   6.936  0.4029 -0.0662  0.3909
 6768SOL    HW131766   2.006   2.288   7.002  1.6436  0.8642 -1.1861
 6768SOL    HW231767   1.941   2.166   6.932  1.0935 -0.1491  2.1833
 6769SOL     OW31768   2.965   1.277   5.854  0.1734  0.0547 -0.2205
 6769SOL    HW131769   3.041   1.242   5.807 -1.9016 -0.2331 -3.3419
 6769SOL    HW231770   2.897   1.277   5.787  0.5027 -1.8066 -0.5638
 6770SOL     OW31771   0.077   2.976   1.099  0.2036  0.4615 -0.4069
 6770SOL    HW131772   0.140   3.036   1.060 -1.5779  1.6305 -1.4796
 6770SOL    HW231773   0.044   2.919   1.029 -0.4036 -1.0657  1.1209
 6771SOL     OW31774   0.760   0.662   6.717  0.5798 -0.5135  0.4733
 6771SOL    HW131775   0.711   0.709   6.784  0.0607  0.0638 -0.3189
 6771SOL    HW231776   0.827   0.726   6.695  0.2305 -1.3284 -3.0412
 6772SOL     OW31777   0.290   0.962   3.699  0.1849  0.5118  0.4098
 6772SOL    HW131778   0.288   0.956   3.795  1.2228  1.9407  0.5105
 6772SOL    HW231779   0.229   1.034   3.688 -0.3752  0.2008  1.4020
 6773SOL     OW31780   3.892   2.271   2.690 -0.0478  0.4528  0.1255
 6773SOL    HW131781   3.965   2.329   2.711  0.2676  0.6441 -1.5125
 6773SOL    HW231782   3.950   2.207   2.650 -0.3466 -0.0673  0.5279
 6774SOL     OW31783   0.076   0.868   5.751 -0.2544 -0.0516  0.1577
 6774SOL    HW131784   4.715   0.828   5.774 -0.6480  2.2653  2.8210
 6774SOL    HW231785   0.118   0.875   5.837  0.6852  2.2998 -0.4859
 6775SOL     OW31786   4.121   2.152   2.537  0.1816  0.4375  0.2067
 6775SOL    HW131787   4.093   2.222   2.479 -2.3801  0.7307  1.8042
 6775SOL    HW231788   4.161   2.083   2.483 -1.4703 -2.7878  3.0556
 6776SOL     OW31789   1.407   4.564  10.609  0.0471  0.1005 -0.4177
 6776SOL    HW131790   1.487   4.616  10.615 -0.6315  0.8405  2.1189
 6776SOL    HW231791   1.344   4.618  10.656 -0.7134 -0.4680 -0.7849
 6777SOL     OW31792   3.611   2.467   3.748  0.2181 -0.2290 -0.5090
 6777SOL    HW131793   3.668   2.395   3.722  1.1738 -0.7122  2.8876
 6777SOL    HW231794   3.599   2.502   3.660 -0.8033  1.0050  0.1084
 6778SOL     OW31795   0.924   1.260   0.649  0.1470  0.1938 -0.1350
 6778SOL    HW131796   0.874   1.257   0.567 -2.9674  1.8354  1.7050
 6778SOL    HW231797   0.889   1.343   0.681  2.3605  0.8276  0.6727
 6779SOL     OW31798   1.816   1.248   1.731 -0.0302 -0.5260 -0.0645
 6779SOL    HW131799   1.786   1.231   1.820 -0.7127 -1.2998 -0.4435
 6779SOL    HW231800   1.781   1.337   1.722  1.2184 -0.0459 -0.1252
 6780SOL     OW31801   4.039   1.394   8.453 -0.3123 -0.1722  0.2483
 6780SOL    HW131802   4.132   1.382   8.474 -0.5040 -3.1057 -0.5041
 6780SOL    HW231803   4.013   1.482   8.481  0.8859 -0.3918  2.0735
 6781SOL     OW31804   1.146   3.298   2.961  0.4802 -0.1402  0.7033
 6781SOL    HW131805   1.181   3.376   3.005 -0.2552  0.1661  0.7519
 6781SOL    HW231806   1.097   3.328   2.885  1.0125  0.2360  0.5085
 6782SOL     OW31807   1.829   1.898  13.996 -0.0132  0.7478  0.3189
 6782SOL    HW131808   1.766   1.895  14.068  0.2724  1.6457  0.5948
 6782SOL    HW231809   1.820   1.991  13.979 -2.7633  0.3736 -0.2936
 6783SOL     OW31810   3.021   2.809   5.454 -0.0761 -0.1745  0.1091
 6783SOL    HW131811   2.926   2.810   5.451 -0.0488 -0.2754 -0.7789
 6783SOL    HW231812   3.048   2.812   5.546  0.9249 -0.2432 -0.1851
 6784SOL     OW31813   2.444   3.979  13.758  0.1816  0.3022  0.3933
 6784SOL    HW131814   2.533   3.980  13.793  0.3123 -1.1439  0.0679
 6784SOL    HW231815   2.460   4.002  13.667  0.9663 -0.5782  0.3087
 6785SOL     OW31816   0.180   3.608   2.363 -0.3744 -0.0665  0.2267
 6785SOL    HW131817   0.217   3.659   2.290 -0.0002 -2.8070 -1.4971
 6785SOL    HW231818   0.088   3.626   2.346  0.5176  0.2014 -4.5195
 6786SOL     OW31819   3.727   0.056   3.047 -0.1611 -0.3503 -0.0397
 6786SOL    HW131820   3.756   0.101   3.126 -4.0704  0.2419  1.0762
 6786SOL    HW231821   3.633   0.073   3.038 -0.1028 -1.0393 -2.1104
 6787SOL     OW31822   3.590   4.476  11.926 -0.2364 -0.0777  0.3499
 6787SOL    HW131823   3.497   4.454  11.914 -0.1340  1.0103 -2.4171
 6787SOL    HW231824   3.604   4.482  12.020 -0.3239  0.0659  0.3541
 6788SOL     OW31825   0.669   3.177   5.593 -0.3510 -0.3254 -0.0894
 6788SOL    HW131826   0.739   3.228   5.551 -0.6984  1.2145  1.2037
 6788SOL    HW231827   0.585   3.210   5.561  0.0903  0.0178 -0.8938
 6789SOL     OW31828   4.252   4.287   3.907  0.1700  0.5674 -0.0734
 6789SOL    HW131829   4.336   4.293   3.952 -0.6760  0.5730  1.4728
 6789SOL    HW231830   4.267   4.338   3.827 -1.5416 -0.6803 -1.1979
 6790SOL     OW31831   4.226   1.900   2.462 -0.0552 -0.0036  0.0185
 6790SOL    HW131832   4.150   1.842   2.459  0.8528 -1.2470  0.9808
 6790SOL    HW231833   4.278   1.852   2.526 -1.3114  0.3214  1.2963
 6791SOL     OW31834   2.568   4.439   6.333  0.1522  0.4026  0.3356
 6791SOL    HW131835   2.601   4.373   6.393  1.2112 -0.2625 -0.9903
 6791SOL    HW231836   2.481   4.441   6.372 -0.1317  0.1779 -0.2828
 6792SOL     OW31837   0.919   0.428   9.268 -0.1719 -0.4597  0.1916
 6792SOL    HW131838   0.979   0.381   9.210  0.2906 -0.0645  0.3465
 6792SOL    HW231839   0.897   0.506   9.217  0.0391  0.0882  0.9292
 6793SOL     OW31840   3.730   4.493   2.747 -0.4147 -0.2859  0.2415
 6793SOL    HW131841   3.797   4.426   2.760 -1.0110 -0.6241  1.5522
 6793SOL    HW231842   3.693   4.457   2.667  2.1355  0.4219 -1.2644
 6794SOL     OW31843   4.621   4.016  16.207 -0.1292 -0.5202 -0.3320
 6794SOL    HW131844   4.571   4.093  16.179 -1.2808 -1.3072 -0.4289
 6794SOL    HW231845   4.581   3.989  16.289  1.0649 -0.7571  0.1789
 6795SOL     OW31846   1.962   4.344   4.239  0.5813 -0.0258 -0.2474
 6795SOL    HW131847   2.053   4.372   4.251  1.0937 -0.2545 -3.5999
 6795SOL    HW231848   1.929   4.349   4.328 -1.0128  1.9278 -0.9560
 6796SOL     OW31849   2.897   4.650   0.856  0.1249  0.2256 -0.2293
 6796SOL    HW131850   2.888   4.621   0.765  0.6163  0.2310 -0.2777
 6796SOL    HW231851   2.929   4.567   0.890 -0.7657  0.3195  0.8269
 6797SOL     OW31852   1.570   3.871  12.037  0.0087 -0.4016 -0.1657
 6797SOL    HW131853   1.496   3.830  12.082  0.2635  0.4839  1.0580
 6797SOL    HW231854   1.635   3.808  12.066  0.3715  0.9232  1.8438
 6798SOL     OW31855   3.016   3.895   9.292  0.3020 -0.1174  0.5647
 6798SOL    HW131856   3.062   3.979   9.285  0.7548 -0.4059 -0.0016
 6798SOL    HW231857   3.013   3.868   9.200  1.4032  0.0062  0.4871
 6799SOL     OW31858   2.252   4.409   8.812 -0.1165  0.6607  0.2603
 6799SOL    HW131859   2.271   4.317   8.832 -1.3017  0.6233  1.1956
 6799SOL    HW231860   2.198   4.411   8.734 -0.5088 -1.2184  0.4752
 6800SOL     OW31861   4.320   0.027   5.657 -0.4304  0.2136 -0.4760
 6800SOL    HW131862   4.228   0.050   5.671 -0.2447  0.0645  0.9386
 6800SOL    HW231863   4.318   4.656   5.639 -4.0239 -0.1170  1.6593
 6801SOL     OW31864   3.739   3.364  11.952 -0.6485  0.3745 -0.0617
 6801SOL    HW131865   3.734   3.328  11.864  0.5697 -3.3917  1.3906
 6801SOL    HW231866   3.833   3.378  11.966 -0.9653 -0.4616  2.7880
 6802SOL     OW31867   0.617   1.297   6.107  0.0063  0.0495 -0.6591
 6802SOL    HW131868   0.606   1.352   6.030 -1.8750  0.3420 -0.2002
 6802SOL    HW231869   0.624   1.213   6.061  0.0675 -0.7772  0.8700
 6803SOL     OW31870   0.204   0.630  11.243 -0.1434  0.2388 -0.3707
 6803SOL    HW131871   0.216   0.690  11.169 -0.6416 -1.0415 -1.5020
 6803SOL    HW231872   0.109   0.616  11.242 -0.1780  0.4854 -0.4100
 6804SOL     OW31873   0.385   4.009  10.404 -0.3219 -0.2836  0.2566
 6804SOL    HW131874   0.337   3.932  10.433  0.3913 -0.9928 -0.4763
 6804SOL    HW231875   0.316   4.075  10.418 -0.6739 -0.3901 -0.9821
 6805SOL     OW31876   4.123   0.105   6.108 -0.1655  0.4050  0.0229
 6805SOL    HW131877   4.052   0.096   6.044  0.7391  0.8010 -1.0432
 6805SOL    HW231878   4.076   0.148   6.179 -1.7001 -3.2192  1.1719
 6806SOL     OW31879   3.152   3.434   8.878 -0.3811  0.3027  0.1384
 6806SOL    HW131880   3.144   3.368   8.809  0.5116 -0.6488  0.9504
 6806SOL    HW231881   3.247   3.434   8.873 -0.3722 -1.3195  0.1391
 6807SOL     OW31882   4.121   2.448  10.630  0.1691 -0.0363 -0.4516
 6807SOL    HW131883   4.200   2.498  10.611  0.0412 -0.4025 -1.8931
 6807SOL    HW231884   4.126   2.434  10.725 -0.9137  0.6710 -0.2830
 6808SOL     OW31885   3.289   4.662   1.677 -0.3261 -0.4254 -0.5047
 6808SOL    HW131886   3.364   4.704   1.719 -1.8386 -0.4261  2.1997
 6808SOL    HW231887   3.321   4.584   1.633 -0.2651 -0.6930  0.0114
 6809SOL     OW31888   4.663   1.745   2.328  0.3065  0.2071  0.9025
 6809SOL    HW131889   4.569   1.747   2.343  0.1625  0.7707 -0.0871
 6809SOL    HW231890   4.673   1.837   2.353 -0.8479  0.8328 -0.9573
 6810SOL     OW31891   1.702   1.818  13.461  0.2189  0.0671 -0.2101
 6810SOL    HW131892   1.750   1.894  13.495  2.4141 -1.2434 -0.3562
 6810SOL    HW231893   1.648   1.862  13.396  0.3761  1.1069  0.3721
 6811SOL     OW31894   1.580   0.477   3.515  0.2379 -0.4092 -0.5111
 6811SOL    HW131895   1.566   0.549   3.454  2.7430  1.9859  1.7028
 6811SOL    HW231896   1.625   0.520   3.588  1.1149  0.6331 -1.6492
 6812SOL     OW31897   1.526   4.139   0.167  0.0051  0.1324  0.1945
 6812SOL    HW131898   1.560   4.196   0.236 -0.0247  2.3078 -1.5842
 6812SOL    HW231899   1.530   4.203   0.097  0.6154  1.6845  1.6473
 6813SOL     OW31900   0.958   4.066   4.740  0.8823 -0.3586 -0.3753
 6813SOL    HW131901   1.029   4.025   4.790 -0.7956 -0.9378  1.5432
 6813SOL    HW231902   1.004   4.134   4.691 -0.6881  0.0217 -1.3436
 6814SOL     OW31903   0.314   3.604  15.623  0.3698  0.8804 -0.2850
 6814SOL    HW131904   0.225   3.574  15.641  1.4502 -2.8198 -1.1259
 6814SOL    HW231905   0.350   3.571  15.706 -1.9524  0.1061  0.4021
 6815SOL     OW31906   1.110   1.508   9.615  0.3620  0.9554 -0.3422
 6815SOL    HW131907   1.113   1.414   9.630  0.7019  1.2846  1.6188
 6815SOL    HW231908   1.018   1.530   9.604  0.3190  0.3997 -1.1251
 6816SOL     OW31909   2.156   2.122  16.392  0.0956  0.5424 -0.7931
 6816SOL    HW131910   2.095   2.163  16.331 -0.3220  2.1556  0.7141
 6816SOL    HW231911   2.106   2.048  16.426 -1.3813  1.0310 -1.9275
 6817SOL     OW31912   0.755   0.860   8.023  0.3588  0.1223 -0.4237
 6817SOL    HW131913   0.683   0.797   8.016 -0.5918  1.1320  0.3655
 6817SOL    HW231914   0.723   0.920   8.090 -0.7543 -0.1850 -0.6929
 6818SOL     OW31915   1.842   3.880   4.887 -0.5517 -0.0211  0.3414
 6818SOL    HW131916   1.867   3.789   4.903  1.5119  0.9754  2.6675
 6818SOL    HW231917   1.927   3.912   4.858 -0.1205  0.9127  2.6550
 6819SOL     OW31918   0.799   2.972   7.461  0.1260 -0.0954  0.0354
 6819SOL    HW131919   0.770   3.061   7.478 -1.9684 -1.1412  2.0230
 6819SOL    HW231920   0.893   2.972   7.481  0.5714 -2.0673 -2.0460
 6820SOL     OW31921   2.613   3.847  16.277 -0.0131  0.4967 -0.0176
 6820SOL    HW131922   2.668   3.822  16.203  0.7678  1.3847  0.2654
 6820SOL    HW231923   2.612   3.774  16.339 -0.0298  0.0499 -0.5447
 6821SOL     OW31924   1.581   3.861   5.076 -0.1083  0.5429 -0.1926
 6821SOL    HW131925   1.555   3.855   4.984 -2.9412 -1.1690  0.7041
 6821SOL    HW231926   1.562   3.771   5.105 -3.0454  0.8629 -1.0933
 6822SOL     OW31927   0.064   0.876  16.013  0.1351 -0.4794 -0.7711
 6822SOL    HW131928   0.008   0.919  15.948 -1.6433  1.6282  2.1555
 6822SOL    HW231929   0.032   0.786  16.026  0.1187 -0.4513 -0.6213
 6823SOL     OW31930   3.187   1.548   2.103 -0.0981 -0.0933 -0.0361
 6823SOL    HW131931   3.117   1.485   2.116  0.2414 -0.5999 -0.6061
 6823SOL    HW231932   3.155   1.619   2.048  0.7350  1.0857  0.9993
 6824SOL     OW31933   0.027   2.409   4.442  0.6184  0.3561 -0.3583
 6824SOL    HW131934   4.662   2.387   4.412  0.6934  1.5960 -1.4613
 6824SOL    HW231935   0.085   2.355   4.389 -1.3318 -0.8155 -1.3104
 6825SOL     OW31936   0.651   1.595  13.809  0.3327  0.1525 -0.2380
 6825SOL    HW131937   0.672   1.666  13.869  2.6275  0.6097 -1.5719
 6825SOL    HW231938   0.731   1.555  13.776  1.7103  0.8676  2.2986
 6826SOL     OW31939   4.311   1.950   7.125 -0.2497 -0.4241  0.0526
 6826SOL    HW131940   4.292   2.000   7.045  0.0201 -1.6914 -0.7894
 6826SOL    HW231941   4.407   1.952   7.122 -0.2778 -0.3546 -0.7248
 6827SOL     OW31942   1.072   1.840  11.276  0.4796 -0.2605 -0.7744
 6827SOL    HW131943   1.058   1.823  11.183  1.1838 -1.7326 -0.6048
 6827SOL    HW231944   1.157   1.880  11.294  0.6795 -1.4759  0.9560
 6828SOL     OW31945   0.956   3.898   6.147  0.1250  0.4420  0.2274
 6828SOL    HW131946   0.988   3.821   6.194  2.2521  1.8973  1.1439
 6828SOL    HW231947   1.033   3.950   6.127  0.4808  0.2484  1.0815
 6829SOL     OW31948   1.817   0.602   1.839 -0.0406  0.0205 -0.2938
 6829SOL    HW131949   1.739   0.645   1.875  0.0225 -0.4882  0.4334
 6829SOL    HW231950   1.890   0.623   1.898 -0.6101  4.6942 -1.2197
 6830SOL     OW31951   1.264   4.150  15.698 -0.0454 -0.0024 -0.0865
 6830SOL    HW131952   1.304   4.072  15.659  0.5976  0.5057 -0.4244
 6830SOL    HW231953   1.285   4.138  15.791  0.3456  0.4770 -0.1142
 6831SOL     OW31954   2.615   4.146   9.229  0.0556 -0.0263 -0.4006
 6831SOL    HW131955   2.532   4.135   9.182 -1.0999 -1.4530  1.9681
 6831SOL    HW231956   2.621   4.075   9.293  0.7217 -1.8994 -2.5185
 6832SOL     OW31957   3.081   2.418  16.327 -0.6343  0.1208 -0.0514
 6832SOL    HW131958   2.990   2.417  16.359 -0.5570 -1.3665  0.0860
 6832SOL    HW231959   3.087   2.387  16.237 -1.3489 -0.8196  0.2192
 6833SOL     OW31960   3.171   2.690   0.307 -0.0862 -0.1955 -0.6048
 6833SOL    HW131961   3.258   2.697   0.267  0.2509  2.2783  0.5602
 6833SOL    HW231962   3.166   2.594   0.311  1.3893 -0.2960 -1.1679
 6834SOL     OW31963   3.825   0.880   3.781  0.5535 -0.4784  0.4803
 6834SOL    HW131964   3.815   0.906   3.689 -2.9705  0.2030  1.0562
 6834SOL    HW231965   3.835   0.963   3.828  1.5756  0.3757 -1.2301
 6835SOL     OW31966   1.274   1.378   4.579  0.5082  0.0384  0.5765
 6835SOL    HW131967   1.269   1.321   4.503 -1.6489  2.4524 -1.1193
 6835SOL    HW231968   1.320   1.450   4.536  2.5040  0.3830  3.3616
 6836SOL     OW31969   3.481   1.188   7.995  0.0530  0.0551 -0.5904
 6836SOL    HW131970   3.552   1.168   8.056  0.2223  0.4179 -0.6749
 6836SOL    HW231971   3.523   1.231   7.921  0.9027 -1.1221 -0.7875
 6837SOL     OW31972   0.748   2.328  10.164  0.1812  0.2598  0.3922
 6837SOL    HW131973   0.730   2.380  10.242 -1.8875  0.3374 -0.1215
 6837SOL    HW231974   0.843   2.338  10.163  0.1366  0.6069 -0.2565
 6838SOL     OW31975   2.652   3.140  14.269 -0.5447 -0.2474  0.4993
 6838SOL    HW131976   2.719   3.145  14.200 -2.3177  0.6265 -1.1406
 6838SOL    HW231977   2.698   3.162  14.351  2.7187 -1.6636 -0.9504
 6839SOL     OW31978   2.605   1.281   9.252 -0.2990  0.0387 -0.8405
 6839SOL    HW131979   2.673   1.239   9.199 -0.3368 -0.1490 -0.7406
 6839SOL    HW231980   2.622   1.365   9.208  0.0268  1.3378  1.7560
 6840SOL     OW31981   2.758   2.016   6.904 -0.8672 -0.2917 -0.3425
 6840SOL    HW131982   2.744   2.068   6.984 -1.6712 -2.8392  1.1809
 6840SOL    HW231983   2.811   1.942   6.932  1.4134  0.6617 -2.2225
 6841SOL     OW31984   2.024   1.635  14.805  0.0098  0.5408 -0.0371
 6841SOL    HW131985   2.031   1.551  14.850 -1.3940 -0.5994 -1.9398
 6841SOL    HW231986   2.089   1.692  14.847 -0.9019  0.6502  1.2329
 6842SOL     OW31987   3.012   0.707   1.050  0.0088 -0.3425 -0.0945
 6842SOL    HW131988   2.978   0.785   1.007 -0.4486  0.1399  1.1309
 6842SOL    HW231989   2.929   0.682   1.092  1.3539 -1.2756  2.0251
 6843SOL     OW31990   4.651   4.615   4.731  0.0563 -0.0582  0.1311
 6843SOL    HW131991   4.689   4.556   4.795  1.3946 -0.2377 -0.8266
 6843SOL    HW231992   0.004   4.643   4.681  1.2803 -0.7244  1.6245
 6844SOL     OW31993   3.182   4.614   5.475  0.2487 -0.2217  0.8908
 6844SOL    HW131994   3.093   4.623   5.441  0.6005 -1.4356 -0.3580
 6844SOL    HW231995   3.164   4.587   5.565  1.3798  0.1441  1.2376
 6845SOL     OW31996   3.103   1.691   7.381 -0.4725 -0.1654  0.5277
 6845SOL    HW131997   3.168   1.707   7.449  1.1232 -0.2141 -0.9857
 6845SOL    HW231998   3.069   1.613   7.424 -1.8666 -0.2699 -0.7556
 6846SOL     OW31999   2.109   3.804   6.287 -0.3759 -0.0953  0.0359
 6846SOL    HW132000   2.128   3.888   6.328 -0.6582 -0.5781  1.1557
 6846SOL    HW232001   2.101   3.751   6.366  1.3998 -0.3088  0.0681
 6847SOL     OW32002   4.197   2.073   8.255  0.3212  0.1549 -0.1178
 6847SOL    HW132003   4.208   2.131   8.180 -1.3660  0.0219 -0.4579
 6847SOL    HW232004   4.283   2.076   8.298  0.3760 -1.2261 -0.1212
 6848SOL     OW32005   4.241   0.731   3.225 -0.1643  0.1733 -0.2634
 6848SOL    HW132006   4.202   0.653   3.264 -1.1469 -0.5765 -2.7853
 6848SOL    HW232007   4.290   0.698   3.150  1.0902 -0.1766  0.6911
 6849SOL     OW32008   2.661   3.888   3.438 -0.5596 -0.0952 -0.2596
 6849SOL    HW132009   2.735   3.847   3.394 -0.8238 -1.1250  0.2713
 6849SOL    HW232010   2.603   3.895   3.362 -3.7346 -1.7214  1.9971
 6850SOL     OW32011   1.271   0.541  15.975  0.3989  0.1887  0.0282
 6850SOL    HW132012   1.224   0.556  15.893  0.7803  0.1355 -0.1972
 6850SOL    HW232013   1.359   0.546  15.939  0.2056 -0.3447 -0.5275
 6851SOL     OW32014   3.309   0.298   8.149 -0.7234  0.0736 -0.0996
 6851SOL    HW132015   3.374   0.242   8.192  0.6947 -0.3951 -2.8536
 6851SOL    HW232016   3.331   0.281   8.057 -0.2256 -0.0578  0.0414
 6852SOL     OW32017   1.009   4.362   2.494 -0.2829 -0.0526  0.2910
 6852SOL    HW132018   1.091   4.362   2.543 -2.4387 -0.1181  3.8357
 6852SOL    HW232019   1.042   4.348   2.405 -0.0547 -3.3148  0.8938
 6853SOL     OW32020   4.221   3.108   5.239 -0.6613  0.1995  0.5660
 6853SOL    HW132021   4.307   3.128   5.277 -1.0954 -1.5668  2.4773
 6853SOL    HW232022   4.226   3.014   5.259 -2.4843 -0.3581 -1.6376
 6854SOL     OW32023   2.352   2.140   8.808 -0.3928  0.5462  0.3921
 6854SOL    HW132024   2.335   2.048   8.830 -1.2107  0.9542  1.4793
 6854SOL    HW232025   2.433   2.159   8.855  0.6624 -2.6502 -0.1677
 6855SOL     OW32026   3.103   1.394   5.649 -0.7834  0.0679  0.5759
 6855SOL    HW132027   3.189   1.383   5.609 -1.1644 -1.7223  0.2441
 6855SOL    HW232028   3.053   1.442   5.583  0.6389 -0.2458 -0.7211
 6856SOL     OW32029   0.524   4.055   5.087  0.8959  0.8497 -0.0236
 6856SOL    HW132030   0.571   4.138   5.083 -0.6684  1.9112  3.1915
 6856SOL    HW232031   0.499   4.042   4.996 -0.8507 -1.5751  0.8157
 6857SOL     OW32032   1.582   1.022  12.343  0.3873  0.4100  0.1285
 6857SOL    HW132033   1.672   1.031  12.313 -0.1167  0.2961 -1.4164
 6857SOL    HW232034   1.538   1.010  12.259  2.0233  2.2405 -0.9965
 6858SOL     OW32035   4.549   3.421   0.091  0.6807  0.1074  0.4962
 6858SOL    HW132036   4.526   3.430   0.183  2.6807  2.8643  0.7033
 6858SOL    HW232037   4.645   3.422   0.094  0.5720  1.6493  2.8968
 6859SOL     OW32038   0.171   0.914   3.449  0.0493 -0.1274  0.1494
 6859SOL    HW132039   0.234   0.863   3.501 -1.5928 -1.8722  0.4068
 6859SOL    HW232040   0.201   1.003   3.467  0.6561 -0.5404  1.2294
 6860SOL     OW32041   3.266   0.364  14.358  0.6100 -0.3781 -0.2290
 6860SOL    HW132042   3.293   0.371  14.450  0.8757  0.5966 -0.3863
 6860SOL    HW232043   3.244   0.271  14.350  0.4456 -0.3620  0.0298
 6861SOL     OW32044   2.198   1.444  13.375 -0.2058  0.1811  0.1022
 6861SOL    HW132045   2.276   1.467  13.325 -0.5932  0.8214 -0.1969
 6861SOL    HW232046   2.164   1.533  13.386  0.8917  0.3077  2.3735
 6862SOL     OW32047   3.703   1.640   2.275  0.1279 -0.2021 -0.0699
 6862SOL    HW132048   3.609   1.631   2.260 -0.1800  0.2989  1.5395
 6862SOL    HW232049   3.736   1.584   2.205 -1.4196 -0.6446 -0.4359
 6863SOL     OW32050   1.884   3.937   1.007  0.4116 -0.0104 -0.2827
 6863SOL    HW132051   1.920   3.931   0.918  0.1245  0.5847 -0.4365
 6863SOL    HW232052   1.888   4.031   1.022  2.2855 -0.1855  0.3068
 6864SOL     OW32053   2.458   0.605   8.654 -0.1503  0.4743  0.3116
 6864SOL    HW132054   2.455   0.525   8.706  1.5043 -0.7166 -1.4146
 6864SOL    HW232055   2.552   0.621   8.667  0.4963 -2.1798 -1.2157
 6865SOL     OW32056   0.791   2.306   9.651 -0.2036 -0.3320 -0.0793
 6865SOL    HW132057   0.755   2.247   9.717  0.2970  0.7343  1.1369
 6865SOL    HW232058   0.880   2.288   9.680 -1.0990 -0.6440  2.5072
 6866SOL     OW32059   3.472   0.022   4.141  0.7341 -0.1221  0.5119
 6866SOL    HW132060   3.454   4.702   4.225  0.8626  0.5277  0.8674
 6866SOL    HW232061   3.509   4.668   4.099  0.0703  1.1610 -2.4534
 6867SOL     OW32062   0.874   3.793   2.714  0.7500 -0.0941 -0.5545
 6867SOL    HW132063   0.867   3.839   2.631  2.4867  0.3569 -0.4585
 6867SOL    HW232064   0.823   3.713   2.699  0.3863 -0.0810  0.6237
 6868SOL     OW32065   2.344   1.968   6.596  0.8092  0.2631 -0.0082
 6868SOL    HW132066   2.384   1.907   6.535  0.6168  1.6613 -1.5400
 6868SOL    HW232067   2.354   2.051   6.549  0.2952 -0.9674 -2.2899
 6869SOL     OW32068   1.763   1.885   2.030 -0.1678  0.4007  0.1462
 6869SOL    HW132069   1.707   1.892   2.108  0.3063  1.4685  0.3995
 6869SOL    HW232070   1.788   1.977   2.018 -1.3174  0.8395  1.1175
 6870SOL     OW32071   1.176   1.113  14.929 -0.3908 -0.0958 -0.0532
 6870SOL    HW132072   1.098   1.161  14.902 -0.0361  1.9330  2.5051
 6870SOL    HW232073   1.233   1.186  14.953  0.2206 -0.6774  0.2706
 6871SOL     OW32074   0.474   0.970   4.604  0.3190  0.4904  0.1937
 6871SOL    HW132075   0.412   1.029   4.562 -0.3278 -1.0585 -1.0227
 6871SOL    HW232076   0.549   0.982   4.546 -0.1530 -1.0958 -0.7497
 6872SOL     OW32077   2.232   2.709   8.618 -0.6983  0.2125 -0.1138
 6872SOL    HW132078   2.209   2.739   8.706 -0.2347  0.4900 -0.0862
 6872SOL    HW232079   2.300   2.776   8.618 -1.1858  0.6950 -1.5594
 6873SOL     OW32080   0.391   2.388  11.292 -0.3464 -0.3047 -0.4463
 6873SOL    HW132081   0.313   2.395  11.346  1.3305 -0.1194  1.9379
 6873SOL    HW232082   0.449   2.439  11.349  0.3280 -1.2929 -0.2551
 6874SOL     OW32083   0.892   0.982   8.747 -0.0816  0.4447 -0.2359
 6874SOL    HW132084   0.904   0.951   8.657  2.5901  1.0631 -0.0885
 6874SOL    HW232085   0.926   1.071   8.755 -1.5976  0.9851  0.2004
 6875SOL     OW32086   2.725   0.779   3.619 -0.4381  0.0911 -0.4465
 6875SOL    HW132087   2.723   0.873   3.602 -1.1881 -0.1157 -1.5134
 6875SOL    HW232088   2.632   0.761   3.632 -0.7002  2.0411  0.4668
 6876SOL     OW32089   4.536   3.282   6.093 -0.6900 -0.3578 -0.3761
 6876SOL    HW132090   4.493   3.296   6.177  1.6451  4.3852  0.0421
 6876SOL    HW232091   4.505   3.193   6.077 -1.8081 -0.0586  0.1345
 6877SOL     OW32092   3.242   2.172   9.982  0.6050 -0.0969  0.0458
 6877SOL    HW132093   3.162   2.208   9.945  1.1345 -1.1240 -2.1031
 6877SOL    HW232094   3.223   2.079   9.993 -0.1728  0.1684  0.9438
 6878SOL     OW32095   1.154   0.904   3.742 -0.2908  0.0989 -0.5005
 6878SOL    HW132096   1.094   0.830   3.730 -1.2985  0.9274 -0.6299
 6878SOL    HW232097   1.094   0.962   3.789  1.4189 -0.2862  2.1540
 6879SOL     OW32098   3.444   1.791  10.325 -0.0107  0.1372 -0.2308
 6879SOL    HW132099   3.349   1.783  10.323 -0.3651  3.8208  0.9702
 6879SOL    HW232100   3.465   1.781  10.418 -3.7385  2.0985  0.8151
 6880SOL     OW32101   0.564   0.064  12.043  0.5178  0.0358  0.4198
 6880SOL    HW132102   0.566   4.721  11.973  0.6626 -0.0682  0.5218
 6880SOL    HW232103   0.586   0.141  11.992  0.0544 -1.6991 -2.3896
 6881SOL     OW32104   4.273   1.868  15.259  0.0808  0.3440 -0.1262
 6881SOL    HW132105   4.275   1.892  15.166  0.6961 -1.1614 -0.5115
 6881SOL    HW232106   4.188   1.904  15.283  1.4470  2.1598  2.0054
 6882SOL     OW32107   3.250   0.672  14.933  0.2818  0.1376  0.2140
 6882SOL    HW132108   3.209   0.678  14.847  0.7696 -1.1749 -0.1053
 6882SOL    HW232109   3.209   0.745  14.981  0.7296 -0.0681  0.9026
 6883SOL     OW32110   1.011   4.312   1.627 -0.4404  0.1422  0.6474
 6883SOL    HW132111   1.049   4.383   1.574  0.1740 -0.9271 -0.3565
 6883SOL    HW232112   0.924   4.346   1.644 -1.1479 -1.3419 -0.0136
 6884SOL     OW32113   0.640   0.990  17.290  0.5512  0.1344 -0.3748
 6884SOL    HW132114   0.646   1.067  17.232 -2.6939  1.6849  1.3196
 6884SOL    HW232115   0.726   0.990  17.332 -0.0018 -1.0654  0.7519
 6885SOL     OW32116   4.720   0.539   3.744 -0.5522  0.1274 -0.1612
 6885SOL    HW132117   0.065   0.555   3.810 -1.7991  0.2270  1.0938
 6885SOL    HW232118   4.716   0.619   3.691 -3.8849  1.3134  1.8993
 6886SOL     OW32119   1.096   0.368   7.767 -0.1446  0.3402  0.3157
 6886SOL    HW132120   1.108   0.457   7.732  1.8781  0.8920  2.4339
 6886SOL    HW232121   1.052   0.333   7.689  0.9105 -0.6149  0.1417
 6887SOL     OW32122   2.703   2.405   3.018 -0.8886  0.6103 -0.4645
 6887SOL    HW132123   2.778   2.409   3.077  0.4079 -1.5131 -1.9464
 6887SOL    HW232124   2.721   2.335   2.955 -0.4387  0.5349 -0.2517
 6888SOL     OW32125   0.372   2.411   9.089 -0.2985  0.1499 -0.1373
 6888SOL    HW132126   0.438   2.352   9.125 -0.9610 -0.5393 -0.0397
 6888SOL    HW232127   0.315   2.396   9.164  0.0811  2.0247  0.5265
 6889SOL     OW32128   3.489   3.696  10.961 -0.2761 -0.6296  0.5361
 6889SOL    HW132129   3.488   3.766  11.026 -0.7215  2.4384 -2.7758
 6889SOL    HW232130   3.411   3.727  10.915 -1.1103 -1.4942  1.3834
 6890SOL     OW32131   4.128   1.804   3.608 -0.4275  0.0807  0.2153
 6890SOL    HW132132   4.175   1.881   3.642  2.1779 -0.6653 -1.6567
 6890SOL    HW232133   4.191   1.735   3.629  1.1786  1.3604 -0.4186
 6891SOL     OW32134   3.592   0.953   6.652 -0.0485 -0.4869 -0.1847
 6891SOL    HW132135   3.627   0.864   6.658 -1.2054 -0.8907  0.4065
 6891SOL    HW232136   3.567   0.979   6.740  1.8197  0.0851  0.1856
 6892SOL     OW32137   0.028   4.011  12.061 -0.4076  0.3793  0.2156
 6892SOL    HW132138   0.107   3.995  12.009 -0.1936  1.6522  0.1503
 6892SOL    HW232139   0.014   4.101  12.030  0.6209  0.6224  0.4512
 6893SOL     OW32140   2.257   0.114   7.603  0.7875  0.7145  0.5773
 6893SOL    HW132141   2.253   0.025   7.569 -2.0639  0.4964  1.4242
 6893SOL    HW232142   2.250   0.090   7.696  0.4496  0.1985  0.4165
 6894SOL     OW32143   4.626   0.054  17.120  0.4759  0.0798  0.4982
 6894SOL    HW132144   4.665   4.691  17.101 -4.5252 -2.6223  2.2692
 6894SOL    HW232145   4.539   0.049  17.081  0.7613  1.1379 -0.2688
 6895SOL     OW32146   3.671   1.365  12.247 -0.2781  0.0588 -0.2151
 6895SOL    HW132147   3.640   1.406  12.328 -1.8964  2.2736 -1.9768
 6895SOL    HW232148   3.599   1.393  12.191 -0.8478 -1.7182 -0.3823
 6896SOL     OW32149   0.796   1.730   8.144  0.0590  0.0370  0.0578
 6896SOL    HW132150   0.805   1.789   8.218  0.8849 -1.8496  1.4603
 6896SOL    HW232151   0.869   1.746   8.085 -0.3875 -0.8886 -0.7400
 6897SOL     OW32152   4.261   0.145   4.335  0.3148 -0.0067  0.6600
 6897SOL    HW132153   4.341   0.153   4.387  0.0263 -1.6720  1.3438
 6897SOL    HW232154   4.224   0.065   4.371  0.1883 -0.5500 -0.6703
 6898SOL     OW32155   3.808   2.870   5.698  0.0704  0.3305  0.1701
 6898SOL    HW132156   3.798   2.852   5.604 -0.2468 -1.1490  0.4830
 6898SOL    HW232157   3.729   2.833   5.737 -0.0136 -1.1939 -1.4298
 6899SOL     OW32158   0.423   1.300   3.080  0.4174  0.3222  0.2280
 6899SOL    HW132159   0.431   1.287   2.986  1.3624  0.2972  0.3199
 6899SOL    HW232160   0.339   1.260   3.105  0.9650 -0.5126  0.7227
 6900SOL     OW32161   0.625   0.335  16.333  0.6318 -0.3550 -0.2327
 6900SOL    HW132162   0.669   0.293  16.259 -1.8371 -0.7111 -1.5099
 6900SOL    HW232163   0.578   0.409  16.293  0.4274 -1.1238 -1.4129
 6901SOL     OW32164   0.670   4.584   9.687 -0.4408  0.7530 -0.0089
 6901SOL    HW132165   0.577   4.564   9.686 -0.6183  1.8427 -2.9434
 6901SOL    HW232166   0.692   4.637   9.611 -1.0956  1.1273  0.0656
 6902SOL     OW32167   4.140   2.941   1.184 -0.2461 -0.0057 -0.8836
 6902SOL    HW132168   4.217   2.997   1.196  0.0331 -0.8496  1.4193
 6902SOL    HW232169   4.096   2.971   1.263  0.6361 -0.0947 -0.3552
 6903SOL     OW32170   2.431   1.055   3.501  0.0989 -0.0541 -0.1262
 6903SOL    HW132171   2.428   1.119   3.572  1.5624  0.4998 -0.5643
 6903SOL    HW232172   2.344   1.077   3.467  0.1538 -0.4771 -0.5452
 6904SOL     OW32173   3.859   1.959  14.942  0.8124 -0.1814 -1.3918
 6904SOL    HW132174   3.909   2.036  14.970 -1.1696  0.8061 -0.5501
 6904SOL    HW232175   3.834   1.989  14.854 -2.2477 -2.0569 -1.1529
 6905SOL     OW32176   1.008   2.335   0.290 -0.4653 -0.0840 -0.3206
 6905SOL    HW132177   1.097   2.307   0.270 -0.6669  0.0267 -1.3329
 6905SOL    HW232178   0.958   2.315   0.212  1.4238  0.7588 -1.7390
 6906SOL     OW32179   3.701   1.030   3.124  0.0917 -0.5525  0.9349
 6906SOL    HW132180   3.770   1.003   3.064  2.6703  3.9526  1.9125
 6906SOL    HW232181   3.658   0.952   3.159 -0.6427 -0.5020  0.1729
 6907SOL     OW32182   1.523   3.964  17.348  0.5522 -0.4986  0.5268
 6907SOL    HW132183   1.480   3.966  17.263 -0.9914 -0.0311  1.3375
 6907SOL    HW232184   1.451   3.939  17.406  0.0366  0.1623  0.1659
 6908SOL     OW32185   4.522   2.085  10.553  0.0816  0.3381  0.4184
 6908SOL    HW132186   4.449   2.087  10.615 -0.5746 -0.0603 -0.3399
 6908SOL    HW232187   4.588   2.028  10.593  0.8379  1.2856  0.5161
 6909SOL     OW32188   3.879   0.380   9.801 -0.1530  0.6285 -0.4970
 6909SOL    HW132189   3.891   0.443   9.730 -0.0773  1.1490 -0.0230
 6909SOL    HW232190   3.969   0.352   9.819  0.3857  2.6873 -0.0044
 6910SOL     OW32191   0.598   3.356   2.960  0.7103  0.2237  0.0663
 6910SOL    HW132192   0.645   3.354   3.043  0.8463  1.9114  0.0355
 6910SOL    HW232193   0.544   3.278   2.969  0.1395  0.2727 -2.8299
 6911SOL     OW32194   3.458   4.067  16.256 -0.1680  0.1742  0.1476
 6911SOL    HW132195   3.450   3.990  16.313 -0.3643 -2.2041 -3.1305
 6911SOL    HW232196   3.367   4.094  16.246  0.3522  2.0539  0.4885
 6912SOL     OW32197   2.960   2.959   8.239 -0.4401  0.0307  0.0700
 6912SOL    HW132198   2.915   3.009   8.171  2.2250  3.2882  0.7538
 6912SOL    HW232199   2.893   2.949   8.307  0.2072 -0.3678  0.6451
 6913SOL     OW32200   0.154   1.585   2.775  0.0283 -0.0644  0.4265
 6913SOL    HW132201   0.237   1.630   2.759  0.1173  0.0955  1.3158
 6913SOL    HW232202   0.139   1.561   2.684  0.3351  1.1866  0.0466
 6914SOL     OW32203   1.070   4.105   8.102 -0.1465  0.4182 -0.5496
 6914SOL    HW132204   1.163   4.087   8.119 -0.2860 -1.1218 -1.5359
 6914SOL    HW232205   1.075   4.186   8.052  2.6403 -0.2776 -1.4019
 6915SOL     OW32206   1.186   3.007   7.114 -0.0976  0.6111 -0.3565
 6915SOL    HW132207   1.269   2.965   7.136  0.6385  0.7078 -2.9728
 6915SOL    HW232208   1.130   2.981   7.187  0.0418  0.4170 -0.3201
 6916SOL     OW32209   3.860   0.970   8.923 -0.2993  0.3722  0.0487
 6916SOL    HW132210   3.831   1.060   8.909  1.2483  0.7299 -0.8238
 6916SOL    HW232211   3.929   0.980   8.988  1.5716 -1.0115 -1.7324
 6917SOL     OW32212   2.625   0.883  14.974 -0.0450  0.1554  0.3158
 6917SOL    HW132213   2.658   0.895  14.885  2.0231 -1.5102  0.8677
 6917SOL    HW232214   2.680   0.952  15.012 -0.6030  0.6599  0.2187
 6918SOL     OW32215   1.761   1.020   9.977 -0.1543  0.1432  0.2477
 6918SOL    HW132216   1.847   1.007   9.937  0.5135 -1.9886  2.3575
 6918SOL    HW232217   1.774   1.068  10.059 -1.4199  2.1940 -0.7617
 6919SOL     OW32218   3.143   1.321  14.121  0.0264  0.6581  0.0185
 6919SOL    HW132219   3.187   1.368  14.050  2.1854 -0.4294  0.6390
 6919SOL    HW232220   3.058   1.304  14.080  0.0172  0.8502 -0.0428
 6920SOL     OW32221   4.618   4.623  10.526  0.0827  0.6536  0.3541
 6920SOL    HW132222   4.705   4.617  10.486  0.0143  0.2050  0.2702
 6920SOL    HW232223   4.597   4.716  10.515  1.9680  0.9836 -0.5229
 6921SOL     OW32224   1.294   0.138   0.818  0.4666 -0.0143 -0.3999
 6921SOL    HW132225   1.312   0.113   0.909 -0.3638  0.3869 -0.1289
 6921SOL    HW232226   1.313   0.057   0.771 -0.5482 -0.0338 -0.7857
 6922SOL     OW32227   3.865   3.604  11.039 -0.2325 -0.3388 -0.2585
 6922SOL    HW132228   3.947   3.630  10.997 -0.5215 -0.5298 -0.9367
 6922SOL    HW232229   3.849   3.524  10.988 -2.3734  0.8892 -1.5128
 6923SOL     OW32230   1.050   0.678   5.333  0.3693  0.1087  0.2909
 6923SOL    HW132231   1.000   0.609   5.289  0.2941  0.7187 -0.5787
 6923SOL    HW232232   1.028   0.665   5.426 -1.8479  0.0015 -0.2542
 6924SOL     OW32233   3.076   3.015   8.607 -1.2559  0.3675  0.3057
 6924SOL    HW132234   3.087   3.106   8.635  0.3260  0.4025 -0.4465
 6924SOL    HW232235   3.167   2.986   8.618 -1.6153 -0.7202  0.4444
 6925SOL     OW32236   3.897   0.721   2.969  0.5905 -0.2892  0.5498
 6925SOL    HW132237   3.959   0.734   3.041  0.8776  0.0468  0.2387
 6925SOL    HW232238   3.929   0.794   2.917 -0.0535 -0.4354 -0.0503
 6926SOL     OW32239   2.299   3.579   1.084  0.0485  0.1240  0.3014
 6926SOL    HW132240   2.236   3.649   1.104 -0.6806 -0.1601 -1.0460
 6926SOL    HW232241   2.241   3.510   1.052 -0.9287  0.0031  2.3001
 6927SOL     OW32242   2.873   0.088   6.125  0.2660 -0.0453  0.0670
 6927SOL    HW132243   2.920   0.169   6.145  1.2196 -0.8239  0.9725
 6927SOL    HW232244   2.805   0.121   6.066  1.3748 -0.6241 -1.5165
 6928SOL     OW32245   0.452   2.453   7.750 -0.2620  0.2663  0.4073
 6928SOL    HW132246   0.442   2.363   7.717 -1.7787  0.0954  1.3603
 6928SOL    HW232247   0.435   2.449   7.844  0.7874  1.9473  0.6512
 6929SOL     OW32248   4.070   3.792   5.174  0.6733 -0.2237  0.0264
 6929SOL    HW132249   4.136   3.769   5.109  1.3772  0.2133  0.5806
 6929SOL    HW232250   4.057   3.707   5.215  1.0945 -0.4670 -0.3485
 6930SOL     OW32251   2.583   3.314   6.169 -0.7077  0.6011 -0.2289
 6930SOL    HW132252   2.532   3.260   6.109 -0.3651  1.3147 -1.1516
 6930SOL    HW232253   2.654   3.342   6.112 -0.2304 -1.9847 -0.9207
 6931SOL     OW32254   1.924   3.883   4.537  0.0238  0.4082 -0.0159
 6931SOL    HW132255   1.962   3.970   4.527 -2.9431  1.6162 -0.5567
 6931SOL    HW232256   1.963   3.851   4.619  2.2565  1.0190 -0.8244
 6932SOL     OW32257   0.961   0.743   7.327  0.0665  0.4427  0.4417
 6932SOL    HW132258   0.938   0.761   7.419 -0.0130  1.2982  0.2556
 6932SOL    HW232259   1.056   0.738   7.333  0.0351 -0.3578  0.3667
 6933SOL     OW32260   1.753   0.540   6.583  0.5297  0.4664  0.5163
 6933SOL    HW132261   1.760   0.489   6.502  2.0390  1.2981  0.1107
 6933SOL    HW232262   1.672   0.511   6.625 -0.2528  0.3468 -1.0713
 6934SOL     OW32263   0.079   2.015  16.448 -0.0462  0.1003  0.3113
 6934SOL    HW132264   4.719   2.061  16.434  0.3536  0.6873 -0.0764
 6934SOL    HW232265   0.124   2.070  16.384  0.7175 -0.0652  0.7140
 6935SOL     OW32266   3.484   0.640   8.022 -0.1614 -0.1283 -0.2226
 6935SOL    HW132267   3.485   0.724   8.068  1.6028 -0.7862  0.9193
 6935SOL    HW232268   3.541   0.673   7.953  0.3754 -0.0058  0.2878
 6936SOL     OW32269   1.508   0.099   7.065 -0.0128  0.0175 -0.4000
 6936SOL    HW132270   1.540   0.101   7.155 -0.9033 -1.6441 -0.0545
 6936SOL    HW232271   1.517   0.190   7.038  0.1110  0.4421  1.0587
 6937SOL     OW32272   2.226   4.396   8.121  0.0768 -0.5357 -0.1913
 6937SOL    HW132273   2.199   4.480   8.158 -1.6739 -0.9481 -0.5354
 6937SOL    HW232274   2.161   4.382   8.052 -0.4934 -1.6963  0.5874
 6938SOL     OW32275   2.116   0.513   1.288 -0.3194  0.5151  0.3316
 6938SOL    HW132276   2.156   0.434   1.251 -1.8454  0.0901 -0.3959
 6938SOL    HW232277   2.121   0.505   1.383 -2.1113  0.2266  0.3967
 6939SOL     OW32278   2.596   4.295   6.768 -0.1751 -0.0821 -0.5304
 6939SOL    HW132279   2.520   4.239   6.787 -0.3417 -0.3025 -1.8209
 6939SOL    HW232280   2.669   4.268   6.823 -1.3138 -1.8539  0.1343
 6940SOL     OW32281   1.401   3.590   5.839  0.7519 -0.3620 -0.2561
 6940SOL    HW132282   1.453   3.579   5.919  1.2663  1.2358 -0.3742
 6940SOL    HW232283   1.451   3.666   5.810 -1.5671  0.2948 -2.5516
 6941SOL     OW32284   2.659   1.284   3.012  0.2958 -0.4569 -0.2308
 6941SOL    HW132285   2.645   1.352   2.946 -0.5052 -0.2843  0.1223
 6941SOL    HW232286   2.576   1.242   3.033  0.1275  0.4721  0.9828
 6942SOL     OW32287   1.543   1.516   8.040 -0.1713 -0.1831  0.3089
 6942SOL    HW132288   1.549   1.584   8.107  2.3912  0.3337 -0.4679
 6942SOL    HW232289   1.625   1.471   8.059 -1.3562 -2.3863  0.2722
 6943SOL     OW32290   2.190   2.970  11.895 -0.2673  0.0339  0.0984
 6943SOL    HW132291   2.175   2.978  11.801  0.2347 -0.8958 -0.0499
 6943SOL    HW232292   2.209   3.060  11.923  3.8018 -0.9169  0.3456
 6944SOL     OW32293   4.112   4.709   1.697 -0.0203  0.0832 -0.5532
 6944SOL    HW132294   4.051   0.036   1.642  0.0333 -0.0039 -0.6913
 6944SOL    HW232295   4.072   4.707   1.784 -0.1553  0.0514 -0.6158
 6945SOL     OW32296   3.206   1.693  11.797  0.0867  0.0893 -0.1792
 6945SOL    HW132297   3.140   1.759  11.817  0.3839  0.3249  0.0208
 6945SOL    HW232298   3.165   1.613  11.831  1.5314 -0.1123  1.1009
 6946SOL     OW32299   4.267   3.606   7.922 -0.1470  0.1183 -0.2679
 6946SOL    HW132300   4.280   3.645   7.836  1.6106 -0.6712 -0.3657
 6946SOL    HW232301   4.345   3.634   7.971 -1.1810 -1.3807  2.2560
 6947SOL     OW32302   0.055   4.412  15.105 -0.2079  0.6833  0.4694
 6947SOL    HW132303   4.708   4.408  15.039  0.4365 -0.6197 -0.1342
 6947SOL    HW232304   0.020   4.351  15.170  0.4895  0.2025  0.3905
 6948SOL     OW32305   0.550   1.886   0.630  0.0965 -0.3936  0.1279
 6948SOL    HW132306   0.482   1.913   0.567  1.7072 -0.7063 -1.7591
 6948SOL    HW232307   0.547   1.791   0.635  2.1505 -0.5259 -1.3284
 6949SOL     OW32308   2.062   0.588   1.605  0.3909  0.1042  0.4929
 6949SOL    HW132309   2.056   0.679   1.635  3.5120  0.1491  1.0739
 6949SOL    HW232310   2.146   0.592   1.558  0.1614  0.2971  0.1030
 6950SOL     OW32311   3.539   0.413  12.132  0.5363 -0.3168 -0.1376
 6950SOL    HW132312   3.552   0.346  12.066 -3.0350 -0.8680 -0.2997
 6950SOL    HW232313   3.612   0.472  12.113  1.1476 -0.9978  0.0990
 6951SOL     OW32314   2.077   4.586   5.861  0.0132 -0.3411  0.2668
 6951SOL    HW132315   2.173   4.593   5.866  0.2203 -1.4012 -1.9286
 6951SOL    HW232316   2.073   4.503   5.814  3.4389  0.3207 -1.2600
 6952SOL     OW32317   3.236   4.399   4.968 -0.0030 -0.2047 -0.1875
 6952SOL    HW132318   3.223   4.407   5.063  2.5789 -0.1116  0.1488
 6952SOL    HW232319   3.325   4.365   4.973  0.7286  1.7995  0.1617
 6953SOL     OW32320   2.840   1.802   4.634 -0.3298 -0.6640 -0.2668
 6953SOL    HW132321   2.902   1.875   4.643  0.0793 -0.8474 -1.6688
 6953SOL    HW232322   2.897   1.735   4.597  1.1456 -0.1829  1.1341
 6954SOL     OW32323   4.484   3.142   8.502 -0.0905  0.4432 -0.2148
 6954SOL    HW132324   4.428   3.111   8.430 -0.5121 -1.3358  0.8822
 6954SOL    HW232325   4.520   3.059   8.531 -1.4161 -0.4427 -1.0525
 6955SOL     OW32326   0.342   3.099  13.535 -0.1493  0.5377  0.6909
 6955SOL    HW132327   0.368   3.176  13.484  0.6490 -0.6360 -0.6945
 6955SOL    HW232328   0.249   3.106  13.517 -0.0202  2.6116  0.7570
 6956SOL     OW32329   3.037   2.482   7.520 -0.1500 -0.1624 -0.2212
 6956SOL    HW132330   2.974   2.415   7.546 -0.2519  0.5760  1.4223
 6956SOL    HW232331   3.090   2.495   7.598  2.3660 -0.6827 -1.8499
 6957SOL     OW32332   1.192   0.954   9.511 -0.9101 -0.2910  0.5785
 6957SOL    HW132333   1.147   0.955   9.426 -0.1283 -1.6199  0.1399
 6957SOL    HW232334   1.243   0.873   9.507  0.5001  0.6377 -0.3242
 6958SOL     OW32335   3.423   0.777   6.476 -0.3937  0.0164  0.2760
 6958SOL    HW132336   3.513   0.811   6.479 -0.1656 -0.4614 -1.0837
 6958SOL    HW232337   3.399   0.796   6.567  0.9057 -0.2023  0.6616
 6959SOL     OW32338   3.107   0.233   1.007 -0.2967 -0.4613 -0.4182
 6959SOL    HW132339   3.092   0.247   0.914 -1.3334  0.9496 -0.0282
 6959SOL    HW232340   3.196   0.199   1.018  0.2562  1.3670  0.6857
 6960SOL     OW32341   4.535   2.445   6.098 -0.5634  0.1691 -0.1951
 6960SOL    HW132342   4.444   2.418   6.113  0.0969 -2.4773 -1.0760
 6960SOL    HW232343   4.542   2.525   6.150  1.6560 -0.7541  0.9290
 6961SOL     OW32344   2.807   0.132   5.279 -0.0576  1.0510 -0.0424
 6961SOL    HW132345   2.864   0.055   5.273 -0.7710  0.4894  0.4695
 6961SOL    HW232346   2.785   0.131   5.372  1.5750 -2.4471  0.2818
 6962SOL     OW32347   0.266   0.109   6.089 -0.0868  0.3797 -0.7012
 6962SOL    HW132348   0.178   0.082   6.116  0.5528 -0.2003  0.7625
 6962SOL    HW232349   0.319   0.097   6.167  0.9195  0.2750 -1.4068
 6963SOL     OW32350   4.699   3.426   7.397  0.2959 -0.0204 -0.5711
 6963SOL    HW132351   4.645   3.496   7.359 -1.1487 -1.2575 -0.8019
 6963SOL    HW232352   0.016   3.479   7.466 -1.5238 -2.0346  1.9967
 6964SOL     OW32353   2.769   3.200   5.662  0.1487  0.3182  0.3275
 6964SOL    HW132354   2.739   3.116   5.697  2.1968 -0.0913  1.1366
 6964SOL    HW232355   2.681   3.237   5.657 -0.6159 -0.9588  3.9866
 6965SOL     OW32356   2.235   4.408  15.429  0.0097 -0.1482  0.0694
 6965SOL    HW132357   2.168   4.364  15.377  0.2801 -3.9675  2.9350
 6965SOL    HW232358   2.283   4.449  15.357  0.5591 -1.7122 -0.4647
 6966SOL     OW32359   3.241   3.801  13.642  0.4791  0.0179 -0.0811
 6966SOL    HW132360   3.234   3.813  13.737  1.6515 -1.4768  0.1864
 6966SOL    HW232361   3.179   3.871  13.622  0.1461 -0.4884 -0.7920
 6967SOL     OW32362   3.024   4.389   6.265 -0.1045 -0.3094  0.0436
 6967SOL    HW132363   2.952   4.327   6.274 -0.0534 -0.4697 -0.6885
 6967SOL    HW232364   2.976   4.472   6.272 -0.1454 -0.2646 -0.7219
 6968SOL     OW32365   0.340   2.021   7.884  0.3501 -0.8939 -0.2730
 6968SOL    HW132366   0.259   1.972   7.897  1.2148 -2.3558 -0.4183
 6968SOL    HW232367   0.404   1.965   7.928  0.3449 -2.5396 -2.3276
 6969SOL     OW32368   4.518   2.867   4.443  0.0914  0.1089 -0.0607
 6969SOL    HW132369   4.462   2.833   4.372  1.2303  0.2133 -1.0080
 6969SOL    HW232370   4.578   2.920   4.390  0.7830  0.5918  1.2144
 6970SOL     OW32371   1.590   1.246   9.428 -0.5059 -0.6223  0.0993
 6970SOL    HW132372   1.526   1.316   9.444 -0.4540 -0.3745 -0.8286
 6970SOL    HW232373   1.545   1.174   9.472  0.2833 -0.6197  0.9069
 6971SOL     OW32374   0.498   3.695   6.016 -0.1039 -0.2065 -0.4184
 6971SOL    HW132375   0.529   3.644   6.091 -2.3948 -0.5236  0.3225
 6971SOL    HW232376   0.489   3.779   6.061  0.9739  0.0698 -0.7174
 6972SOL     OW32377   1.514   1.621  10.373 -0.6428 -0.2589 -0.1877
 6972SOL    HW132378   1.572   1.545  10.381 -0.2657  0.0055 -0.3602
 6972SOL    HW232379   1.497   1.645  10.464 -0.3329  1.0586 -0.4689
 6973SOL     OW32380   0.483   4.497  17.399 -0.1622 -0.3366 -0.8287
 6973SOL    HW132381   0.526   4.581  17.413 -0.3591 -0.6128  1.4696
 6973SOL    HW232382   0.393   4.530  17.397 -0.2251 -0.5419 -1.4770
 6974SOL     OW32383   4.194   1.362  15.965  0.3461  0.1411 -0.6509
 6974SOL    HW132384   4.192   1.303  15.889  0.1422  0.0582 -0.5812
 6974SOL    HW232385   4.142   1.435  15.931 -2.1845 -1.6623 -0.6667
 6975SOL     OW32386   1.027   3.040   3.684 -0.5758  0.7854  0.0715
 6975SOL    HW132387   1.114   3.057   3.720 -0.4851 -1.6166  0.9759
 6975SOL    HW232388   0.984   3.008   3.763 -0.2314  1.0362  0.3607
 6976SOL     OW32389   4.250   3.839  13.598 -0.0424 -0.4332 -0.2499
 6976SOL    HW132390   4.188   3.771  13.575 -3.1717  1.9112  1.2051
 6976SOL    HW232391   4.185   3.910  13.602  0.6382  0.0687  2.0960
 6977SOL     OW32392   1.832   0.424   1.644  0.2234  0.6535  0.0891
 6977SOL    HW132393   1.813   0.481   1.718 -0.6762  1.0741 -0.4669
 6977SOL    HW232394   1.889   0.483   1.595 -1.5507  3.3348  1.2563
 6978SOL     OW32395   2.239   0.120   0.037  0.1049 -0.3803  0.1177
 6978SOL    HW132396   2.292   0.189   0.078 -1.1000  0.9086 -0.5145
 6978SOL    HW232397   2.273   0.041   0.079 -1.8554 -0.4568  1.5716
 6979SOL     OW32398   2.724   3.564   4.778  0.0547 -0.5113  0.0827
 6979SOL    HW132399   2.659   3.500   4.750  1.0586 -1.2585 -0.5279
 6979SOL    HW232400   2.776   3.574   4.698 -1.1746 -0.2332 -0.6758
 6980SOL     OW32401   1.566   4.521   7.484 -0.0153 -0.5981 -0.0312
 6980SOL    HW132402   1.492   4.546   7.539  1.5710  1.9890  0.9113
 6980SOL    HW232403   1.635   4.497   7.546 -1.1374 -0.8554  1.1166
 6981SOL     OW32404   2.844   1.685   6.951  0.3438 -0.0915  0.2213
 6981SOL    HW132405   2.885   1.625   7.013  3.2164  2.7763  1.0753
 6981SOL    HW232406   2.901   1.675   6.875 -2.6706 -0.4913 -1.9976
 6982SOL     OW32407   0.526   3.949   3.960  0.3535  0.3115 -0.6952
 6982SOL    HW132408   0.482   3.930   3.877 -0.1870 -1.0958 -0.0765
 6982SOL    HW232409   0.615   3.935   3.929  1.1936  2.7530  0.6224
 6983SOL     OW32410   2.298   3.823   7.576  0.8914  0.6578 -0.1470
 6983SOL    HW132411   2.229   3.757   7.588  0.7728  0.8990  0.4963
 6983SOL    HW232412   2.372   3.773   7.542 -1.2789 -0.4946 -3.2782
 6984SOL     OW32413   4.535   2.633   5.013  0.0156 -0.1120  0.4328
 6984SOL    HW132414   4.600   2.664   5.076 -0.7911  2.5614 -0.0675
 6984SOL    HW232415   4.590   2.616   4.936  0.1647  1.4343  0.2015
 6985SOL     OW32416   3.959   1.063   4.852  0.7377 -0.5054 -0.9949
 6985SOL    HW132417   3.959   1.016   4.769  0.3931 -0.8741 -0.7868
 6985SOL    HW232418   3.876   1.109   4.838 -0.0609 -1.2655  1.2215
 6986SOL     OW32419   3.888   3.226   8.152  0.3223  0.1203 -0.2375
 6986SOL    HW132420   3.881   3.168   8.077  2.5216  0.1382 -0.4581
 6986SOL    HW232421   3.929   3.309   8.125  0.1293 -0.4590 -2.2828
 6987SOL     OW32422   2.295   3.486   1.391 -0.2280 -0.0219  0.5046
 6987SOL    HW132423   2.350   3.558   1.421  1.6488 -0.4080 -1.9967
 6987SOL    HW232424   2.342   3.478   1.308 -2.0927  0.0016 -0.5417
 6988SOL     OW32425   1.124   0.919  17.659 -0.2337  0.2970  0.0517
 6988SOL    HW132426   1.209   0.948  17.692 -0.9868 -0.1787  2.3871
 6988SOL    HW232427   1.156   0.852  17.598 -0.3580  0.0390  0.2704
 6989SOL     OW32428   2.835   2.365  17.136 -0.4296 -0.3935 -0.1712
 6989SOL    HW132429   2.846   2.278  17.098 -1.2897 -0.0539 -1.2310
 6989SOL    HW232430   2.818   2.351  17.229  1.5143  1.7781  0.5147
 6990SOL     OW32431   1.440   2.152   7.812  0.0686 -0.0555 -0.3788
 6990SOL    HW132432   1.350   2.157   7.780 -0.2321 -2.7001  0.0293
 6990SOL    HW232433   1.438   2.226   7.872  2.4497  0.4866 -0.9668
 6991SOL     OW32434   1.876   1.178   5.482 -0.4842  0.0478  0.4555
 6991SOL    HW132435   1.940   1.160   5.551  0.2272  0.5261 -0.0805
 6991SOL    HW232436   1.793   1.182   5.529  0.2129 -0.3470  1.7181
 6992SOL     OW32437   4.677   1.262   7.970  0.7512  0.4382 -0.3991
 6992SOL    HW132438   4.637   1.307   7.896 -0.2253 -1.6116 -1.1040
 6992SOL    HW232439   4.668   1.171   7.941 -3.3578  0.4801  0.8026
 6993SOL     OW32440   2.983   2.434   5.148 -0.6095  0.0728  0.2415
 6993SOL    HW132441   2.908   2.480   5.186 -0.4775 -0.3955  1.0822
 6993SOL    HW232442   2.960   2.448   5.057 -0.0751 -1.2858 -0.1061
 6994SOL     OW32443   2.771   4.618  16.033  0.2736 -0.2430 -0.0175
 6994SOL    HW132444   2.792   4.699  16.080 -0.3123  0.8600 -1.6757
 6994SOL    HW232445   2.801   4.545  16.087  0.0736 -2.4334 -2.8408
 6995SOL     OW32446   0.322   1.691   5.800  0.1044  0.1125 -0.4275
 6995SOL    HW132447   0.310   1.657   5.888 -0.2499 -1.0462 -0.9149
 6995SOL    HW232448   0.389   1.756   5.820 -0.3834  0.3675  0.3443
 6996SOL     OW32449   2.254   3.775   6.678  0.1019 -0.3937  0.3328
 6996SOL    HW132450   2.295   3.861   6.686 -1.2013  0.5266 -2.9069
 6996SOL    HW232451   2.286   3.728   6.755  0.1230 -0.9327 -0.0061
 6997SOL     OW32452   4.234   0.589   3.899  0.3694  0.6970 -0.3372
 6997SOL    HW132453   4.323   0.622   3.912  1.0126 -1.5910  0.9450
 6997SOL    HW232454   4.244   0.525   3.829 -2.1166 -1.3981  1.2203
 6998SOL     OW32455   2.250   2.219   2.858  0.1491  0.2736 -0.2150
 6998SOL    HW132456   2.233   2.162   2.932 -0.0831 -0.4159 -0.8021
 6998SOL    HW232457   2.181   2.284   2.869 -1.2307 -1.4596  1.1447
 6999SOL     OW32458   1.225   2.811  10.236 -0.5740  0.5078  0.2964
 6999SOL    HW132459   1.307   2.819  10.188 -1.3485  0.1262 -1.1138
 6999SOL    HW232460   1.195   2.900  10.255 -1.3888  0.4914 -0.8449
 7000SOL     OW32461   0.524   4.699   7.472 -0.1509 -0.7893 -0.4776
 7000SOL    HW132462   0.586   4.626   7.470  0.5324 -0.1888 -1.2027
 7000SOL    HW232463   0.438   4.659   7.484 -0.2050 -0.4650  0.2121
 7001SOL     OW32464   1.792   0.637  11.120 -0.8427 -0.3021 -0.0656
 7001SOL    HW132465   1.723   0.703  11.129  2.4356  3.4251 -2.0703
 7001SOL    HW232466   1.837   0.665  11.200 -0.9640 -1.0118  0.2506
 7002SOL     OW32467   0.316   3.575   8.754  0.5283 -0.3550  0.2008
 7002SOL    HW132468   0.359   3.615   8.829  1.0860  2.5889 -1.7072
 7002SOL    HW232469   0.390   3.525   8.720  1.7985  1.6424  0.0610
 7003SOL     OW32470   0.616   4.634   8.664  0.7239  0.4359  0.0836
 7003SOL    HW132471   0.614   4.544   8.698 -0.2135  0.1402 -0.7424
 7003SOL    HW232472   0.710   4.644   8.648  1.0959 -0.4529  1.6684
 7004SOL     OW32473   2.842   3.890   7.510 -0.4300  0.1997 -0.8598
 7004SOL    HW132474   2.851   3.835   7.588  1.4424  2.4140  0.4949
 7004SOL    HW232475   2.806   3.821   7.455 -0.1300  2.1097 -3.4462
 7005SOL     OW32476   2.726   1.639   7.318  0.4168 -0.4449  0.6093
 7005SOL    HW132477   2.698   1.723   7.282 -0.1725 -1.2955 -0.9083
 7005SOL    HW232478   2.791   1.606   7.257  0.7220  2.8748 -0.8558
 7006SOL     OW32479   0.193   0.230   8.840  0.0140  0.3872 -0.6087
 7006SOL    HW132480   0.266   0.255   8.897 -1.1335  0.9809  0.6100
 7006SOL    HW232481   0.197   0.294   8.769 -1.4736  2.8545  1.5365
 7007SOL     OW32482   2.672   1.908   7.254  0.0808  0.1178 -1.0352
 7007SOL    HW132483   2.767   1.919   7.243  0.4438 -0.5147  1.4210
 7007SOL    HW232484   2.639   1.979   7.199 -1.6354 -1.0740 -1.5272
 7008SOL     OW32485   2.657   0.750   8.435  0.1256 -0.5570  0.9454
 7008SOL    HW132486   2.598   0.800   8.491  0.8429  1.7540 -0.3843
 7008SOL    HW232487   2.618   0.662   8.434  1.0131 -0.9468  0.6667
 7009SOL     OW32488   2.200   4.494   1.382 -0.1341 -0.5585  0.6979
 7009SOL    HW132489   2.231   4.503   1.472  1.9093 -1.7137  0.1088
 7009SOL    HW232490   2.208   4.400   1.362 -0.8574 -0.6024  0.6171
 7010SOL     OW32491   0.684   1.089   5.926 -0.3862 -0.6683 -0.2780
 7010SOL    HW132492   0.709   1.123   5.840  0.8496 -0.2824  0.2395
 7010SOL    HW232493   0.656   1.000   5.905 -3.9789  0.3154  0.3519
 7011SOL     OW32494   4.317   1.248   6.897  0.4604 -0.2051 -0.2286
 7011SOL    HW132495   4.377   1.298   6.842  0.4471 -1.1929 -1.1361
 7011SOL    HW232496   4.297   1.297   6.976 -3.0320 -0.5816 -0.8618
 7012SOL     OW32497   0.263   3.200  13.255  0.9806  0.3561  0.4782
 7012SOL    HW132498   0.313   3.264  13.306  1.2299  0.2496  0.3695
 7012SOL    HW232499   0.185   3.192  13.310  0.5854 -2.3780 -0.5024
 7013SOL     OW32500   3.369   0.806  14.295  0.4793  0.5267 -0.5916
 7013SOL    HW132501   3.462   0.795  14.273  0.5576  1.2267 -0.6267
 7013SOL    HW232502   3.347   0.716  14.316 -0.2270  0.8440  0.0297
 7014SOL     OW32503   1.576   4.606   5.706  0.1279 -0.7782  0.0039
 7014SOL    HW132504   1.625   4.558   5.772  0.0298  1.8484  1.9560
 7014SOL    HW232505   1.483   4.585   5.722 -0.7047  1.1100 -2.3692
 7015SOL     OW32506   4.339   1.586  10.196  0.3201 -0.2632  0.0960
 7015SOL    HW132507   4.278   1.652  10.228  1.6040  1.5917 -1.2979
 7015SOL    HW232508   4.311   1.581  10.105  0.0702  0.1987  0.1504
 7016SOL     OW32509   3.864   4.502   1.907  0.4813 -0.4130  0.2421
 7016SOL    HW132510   3.912   4.577   1.943  0.5226 -0.7599  0.9100
 7016SOL    HW232511   3.911   4.432   1.952 -1.2661 -2.1694 -0.6868
 7017SOL     OW32512   4.051   1.980   6.170 -0.6557 -0.3942  0.2852
 7017SOL    HW132513   3.995   2.058   6.170  0.9917  0.8021  2.6879
 7017SOL    HW232514   3.988   1.911   6.188 -0.1096 -0.4542  1.9994
 7018SOL     OW32515   1.123   0.411   8.695 -0.4044 -0.3290 -0.3209
 7018SOL    HW132516   1.170   0.379   8.772  0.7945 -0.6857 -1.2043
 7018SOL    HW232517   1.111   0.503   8.721 -0.2194  0.1199 -1.8292
 7019SOL     OW32518   0.739   1.145   1.623 -0.0157 -0.5776 -0.0632
 7019SOL    HW132519   0.722   1.055   1.594 -1.2207 -1.3522  3.0035
 7019SOL    HW232520   0.794   1.122   1.698 -1.0737 -2.1157  0.2462
 7020SOL     OW32521   4.291   4.142   3.152 -0.2612 -0.1023 -0.1026
 7020SOL    HW132522   4.369   4.087   3.151 -1.5052 -1.9089  1.2086
 7020SOL    HW232523   4.229   4.087   3.104 -2.3809  1.7326  0.5098
 7021SOL     OW32524   1.772   3.717  12.068  0.1294 -0.0363  0.6155
 7021SOL    HW132525   1.732   3.664  12.137 -2.0406  1.4909  0.5179
 7021SOL    HW232526   1.857   3.720  12.112  0.7942 -0.0068 -0.6779
 7022SOL     OW32527   4.039   2.056   9.129  0.0932 -0.4480 -0.1818
 7022SOL    HW132528   3.979   2.027   9.198 -0.9055  0.1774 -0.7960
 7022SOL    HW232529   3.988   2.045   9.049  1.7779  0.2747 -1.3533
 7023SOL     OW32530   0.615   4.340   8.322 -0.2076  0.1165  0.0889
 7023SOL    HW132531   0.593   4.250   8.347  1.4839 -0.2528  0.2351
 7023SOL    HW232532   0.701   4.314   8.292 -0.1778 -0.7769  0.9430
 7024SOL     OW32533   3.664   4.303   4.239 -0.5782  0.0391  0.0674
 7024SOL    HW132534   3.581   4.263   4.267  0.1314 -1.9592 -0.6695
 7024SOL    HW232535   3.723   4.257   4.299  0.0605  0.9895  0.1721
 7025SOL     OW32536   0.700   0.109   3.664 -0.1279  0.1966  0.0157
 7025SOL    HW132537   0.772   0.052   3.690  0.8379  2.1301  1.6184
 7025SOL    HW232538   0.638   0.105   3.737 -0.7148 -1.2668 -0.5599
 7026SOL     OW32539   1.229   1.008   2.629  0.3374 -0.7085  0.6465
 7026SOL    HW132540   1.256   1.007   2.721 -0.6174  2.0135  0.9485
 7026SOL    HW232541   1.241   1.101   2.612  0.9995 -1.0912 -1.0066
 7027SOL     OW32542   0.490   0.199   6.545  0.4330 -0.5075 -0.3663
 7027SOL    HW132543   0.426   0.270   6.551  2.2813  1.1771 -0.5306
 7027SOL    HW232544   0.499   0.169   6.636  1.2916  0.4877 -0.1164
 7028SOL     OW32545   3.918   0.045   4.537  0.0254  0.5898  0.3691
 7028SOL    HW132546   3.838   0.096   4.529  0.2336  0.8882  0.1685
 7028SOL    HW232547   3.877   4.685   4.511 -1.2130  0.7858  1.7526
 7029SOL     OW32548   0.792   2.088   0.428  0.0586 -0.6175 -0.0490
 7029SOL    HW132549   0.787   2.006   0.379 -1.2161 -0.6467  0.1420
 7029SOL    HW232550   0.861   2.140   0.385 -0.7161 -0.2458 -0.8470
 7030SOL     OW32551   1.132   0.655  10.338  0.2367 -0.4739  0.2215
 7030SOL    HW132552   1.184   0.713  10.282 -1.2256  2.0882  1.5156
 7030SOL    HW232553   1.188   0.578  10.346 -1.0105 -1.4507 -0.4228
 7031SOL     OW32554   1.467   4.222   3.384  0.2234 -0.4866 -0.2397
 7031SOL    HW132555   1.521   4.174   3.447 -2.2001 -1.5689  1.0203
 7031SOL    HW232556   1.496   4.198   3.296  0.7469  0.0264 -0.2052
 7032SOL     OW32557   2.770   4.258  11.664 -0.2834  0.3127 -0.6505
 7032SOL    HW132558   2.744   4.192  11.728  2.6420  0.1956  0.4474
 7032SOL    HW232559   2.857   4.234  11.633  1.0390  2.0086  1.7040
 7033SOL     OW32560   3.554   1.625   6.555  0.1077 -0.2924 -0.1636
 7033SOL    HW132561   3.537   1.571   6.632 -0.4618 -0.6007 -0.5015
 7033SOL    HW232562   3.484   1.596   6.496  0.1179 -2.4818  0.9076
 7034SOL     OW32563   3.487   3.884  15.987  0.2909  0.2196  0.4777
 7034SOL    HW132564   3.411   3.927  16.027 -0.5763 -1.2694  0.4433
 7034SOL    HW232565   3.532   3.951  15.935 -0.4299 -0.5572 -1.1187
 7035SOL     OW32566   1.597   3.811   1.046  0.3041 -0.2116 -0.2345
 7035SOL    HW132567   1.672   3.858   1.009 -0.7160  0.8277 -0.9959
 7035SOL    HW232568   1.637   3.748   1.106 -0.2595 -0.8397 -0.5150
 7036SOL     OW32569   0.275   3.613   7.309 -0.1459 -0.2964  0.4849
 7036SOL    HW132570   0.337   3.623   7.382 -0.3404  0.0098  0.6100
 7036SOL    HW232571   0.313   3.552   7.246  0.7235  0.1547  0.5748
 7037SOL     OW32572   2.706   3.396  15.501 -0.1406 -0.5286  0.2226
 7037SOL    HW132573   2.741   3.483  15.482  0.8892 -0.3708  2.8038
 7037SOL    HW232574   2.769   3.348  15.447 -1.0167 -0.2356 -1.0568
 7038SOL     OW32575   4.061   4.232  11.729  0.0335  0.3320 -0.1083
 7038SOL    HW132576   4.157   4.230  11.722  0.0785 -0.4009  0.7664
 7038SOL    HW232577   4.036   4.305  11.673  2.4513  0.6675 -0.7749
 7039SOL     OW32578   1.684   1.963   3.113 -0.1515 -0.2128  0.3196
 7039SOL    HW132579   1.639   2.039   3.151 -0.4565 -2.1895  3.8801
 7039SOL    HW232580   1.766   2.005   3.087 -0.6270  1.5040  1.5642
 7040SOL     OW32581   0.613   2.272   0.075 -0.6495 -0.2546 -0.3416
 7040SOL    HW132582   0.669   2.194   0.068 -0.3624 -0.1390  0.7556
 7040SOL    HW232583   0.555   2.246   0.147 -1.2980 -0.6995 -1.0177
 7041SOL     OW32584   4.375   3.997   8.932  0.3089 -0.0581 -0.3674
 7041SOL    HW132585   4.458   4.036   8.905 -0.2266  0.4358 -1.2899
 7041SOL    HW232586   4.391   3.987   9.026 -1.2735 -0.2085 -0.1181
 7042SOL     OW32587   2.802   2.672   7.671  0.5496 -0.0356  0.3512
 7042SOL    HW132588   2.710   2.695   7.664  0.3791 -1.0226 -0.4937
 7042SOL    HW232589   2.806   2.580   7.698  0.6068 -0.4151 -0.9603
 7043SOL     OW32590   3.400   1.532   7.074  0.7774  0.0049 -0.1501
 7043SOL    HW132591   3.429   1.590   7.144 -0.1838  0.9061 -0.5098
 7043SOL    HW232592   3.335   1.587   7.030  1.8098  2.3455  1.2317
 7044SOL     OW32593   3.895   0.208   9.554  0.7371  0.2837  0.1559
 7044SOL    HW132594   3.957   0.135   9.563 -0.6560 -0.6680  2.0319
 7044SOL    HW232595   3.873   0.215   9.647  0.6918 -0.3102  0.1902
 7045SOL     OW32596   1.486   0.326  11.335  0.3172  0.1232  0.3046
 7045SOL    HW132597   1.510   0.236  11.359 -1.0945 -0.6820 -1.3538
 7045SOL    HW232598   1.394   0.320  11.310  0.4354  0.7829 -0.2747
 7046SOL     OW32599   2.291   3.264   3.331  0.1315  0.2080  0.2524
 7046SOL    HW132600   2.240   3.344   3.317  0.8647  0.4609 -0.9823
 7046SOL    HW232601   2.342   3.273   3.411 -0.6760  1.6214  0.6096
 7047SOL     OW32602   4.623   3.574   6.402 -0.0518  0.0585 -0.7271
 7047SOL    HW132603   4.652   3.637   6.336  0.3977  1.6196  0.9521
 7047SOL    HW232604   4.707   3.564   6.447 -0.6067 -1.8800 -0.1362
 7048SOL     OW32605   2.982   0.262   5.070 -0.3842  0.1777  0.2802
 7048SOL    HW132606   2.940   0.306   5.144 -1.7606 -1.6680  0.5834
 7048SOL    HW232607   3.071   0.234   5.093 -0.4431 -1.3086 -1.4190
 7049SOL     OW32608   4.255   1.928   9.224  1.1135  0.1063 -0.5211
 7049SOL    HW132609   4.166   1.956   9.204  1.3999  1.0904 -0.4231
 7049SOL    HW232610   4.273   1.977   9.304 -2.4755 -3.1687  2.2596
 7050SOL     OW32611   1.064   1.639   3.896  0.7312 -0.3445  0.0504
 7050SOL    HW132612   1.122   1.659   3.822  0.3441 -1.7186 -0.6181
 7050SOL    HW232613   1.049   1.730   3.923 -1.1776 -1.0492  1.3329
 7051SOL     OW32614   3.546   3.240   5.378 -0.0125 -0.6131 -0.0215
 7051SOL    HW132615   3.455   3.254   5.402  0.0604  0.8322 -0.6228
 7051SOL    HW232616   3.576   3.195   5.457 -2.4395  0.4471  1.4855
 7052SOL     OW32617   1.306   3.753   7.703 -0.2106  0.0803 -0.2213
 7052SOL    HW132618   1.339   3.809   7.632  1.1553 -0.9902 -0.4311
 7052SOL    HW232619   1.387   3.709   7.727  1.3259  2.6282 -0.6743
 7053SOL     OW32620   3.477   4.668   6.012 -0.5452  0.5943  0.0465
 7053SOL    HW132621   3.413   4.601   6.037 -1.4600  1.2420 -0.5408
 7053SOL    HW232622   3.427   4.721   5.950 -0.0735  0.8158 -0.1430
 7054SOL     OW32623   0.775   1.868   9.612 -0.1724  0.6990 -0.5521
 7054SOL    HW132624   0.710   1.848   9.679  0.4806  0.2873 -0.0437
 7054SOL    HW232625   0.830   1.924   9.667 -0.7680  1.1543 -0.4171
 7055SOL     OW32626   0.648   4.585  15.724 -0.0679 -0.5114  0.2010
 7055SOL    HW132627   0.561   4.622  15.711  0.6212  1.9753  2.6686
 7055SOL    HW232628   0.619   4.520  15.787 -1.1266 -0.7273 -0.5249
 7056SOL     OW32629   3.321   2.935   8.683  0.0525  0.0306  0.0614
 7056SOL    HW132630   3.399   2.954   8.631 -0.4034 -0.8115 -0.9489
 7056SOL    HW232631   3.323   2.841   8.702  4.2312  0.0938 -0.1662
 7057SOL     OW32632   1.175   4.378   0.602 -0.1324 -0.6824 -0.5548
 7057SOL    HW132633   1.102   4.330   0.564  0.2336 -2.3791  0.8922
 7057SOL    HW232634   1.125   4.420   0.672  0.0474  0.1083 -0.9053
 7058SOL     OW32635   0.673   3.575  13.024  0.3843  0.9104 -0.2758
 7058SOL    HW132636   0.622   3.500  13.056  1.3396  0.1761 -0.4702
 7058SOL    HW232637   0.747   3.531  12.982 -0.3504  2.1303 -2.8244
 7059SOL     OW32638   1.729   0.807   9.643 -0.3182 -0.0552 -0.3091
 7059SOL    HW132639   1.650   0.759   9.620 -0.5545 -0.1560  0.6878
 7059SOL    HW232640   1.697   0.869   9.710 -2.4638 -1.3356 -0.1529
 7060SOL     OW32641   0.430   0.148   9.111  0.2007 -0.0503 -0.3109
 7060SOL    HW132642   0.500   0.131   9.048 -0.2115 -0.8232 -0.5569
 7060SOL    HW232643   0.373   0.072   9.100 -2.3688  1.6512  1.1850
 7061SOL     OW32644   4.212   0.646   1.563  0.3480 -0.3659  0.1282
 7061SOL    HW132645   4.190   0.583   1.631 -2.2710 -1.1476 -1.4610
 7061SOL    HW232646   4.306   0.629   1.555  0.1077 -3.4596  3.6088
 7062SOL     OW32647   0.071   3.030   2.696  0.6855 -0.2679 -0.2143
 7062SOL    HW132648   0.048   3.123   2.704 -0.6763 -0.6759  0.4667
 7062SOL    HW232649   4.708   2.995   2.718  1.3710 -1.6742  0.2330
 7063SOL     OW32650   0.721   3.383   6.942  0.8550  0.3189 -0.2785
 7063SOL    HW132651   0.703   3.411   6.852  2.1743 -0.5492 -0.8214
 7063SOL    HW232652   0.781   3.449   6.977 -1.9244  1.9515  1.3904
 7064SOL     OW32653   0.476   4.136   2.217 -0.5237  0.0172  0.4299
 7064SOL    HW132654   0.391   4.096   2.201 -0.0727 -1.1319  0.9517
 7064SOL    HW232655   0.463   4.229   2.198 -0.3339  0.0282  0.3548
 7065SOL     OW32656   1.391   3.675   9.045 -0.4806 -0.3292  0.1913
 7065SOL    HW132657   1.477   3.700   9.080 -0.3174 -0.2776 -0.2363
 7065SOL    HW232658   1.336   3.749   9.069 -0.2611 -0.2582  0.4774
 7066SOL     OW32659   2.463   1.353   5.081  0.3238  0.6121 -0.3502
 7066SOL    HW132660   2.432   1.437   5.115  1.5622  1.1564 -0.5304
 7066SOL    HW232661   2.383   1.301   5.078  0.7153 -0.0515  0.5848
 7067SOL     OW32662   0.574   4.106   4.489  0.1489  0.2099  0.3853
 7067SOL    HW132663   0.598   4.157   4.566 -0.5559  1.5802 -0.2992
 7067SOL    HW232664   0.595   4.176   4.428  0.8009 -0.1474  0.2038
 7068SOL     OW32665   3.040   3.353   4.811 -0.2621 -0.0527 -0.2710
 7068SOL    HW132666   3.012   3.327   4.899  1.0145  0.5821  0.3187
 7068SOL    HW232667   3.013   3.445   4.806  0.5593  0.1266 -1.3552
 7069SOL     OW32668   3.699   0.185   2.061 -0.1762  0.0184  0.8854
 7069SOL    HW132669   3.716   0.181   2.155  1.0608  0.1130  0.6649
 7069SOL    HW232670   3.783   0.217   2.029 -0.8189  2.7440  1.9520
 7070SOL     OW32671   0.695   1.987   1.556 -0.2770  0.3938 -0.6699
 7070SOL    HW132672   0.778   2.005   1.511  0.2895  0.5090  0.4169
 7070SOL    HW232673   0.636   2.019   1.488 -0.9015  2.5071  0.8882
 7071SOL     OW32674   2.459   0.401   8.829  0.0135 -0.0986  0.3690
 7071SOL    HW132675   2.453   0.451   8.910  0.4933  1.5630 -0.6075
 7071SOL    HW232676   2.532   0.345   8.853 -1.7055 -3.1897 -1.5942
 7072SOL     OW32677   2.063   2.636   3.500  0.1293  0.1997  0.5497
 7072SOL    HW132678   2.098   2.550   3.480 -0.7039  0.4552 -1.9723
 7072SOL    HW232679   2.075   2.681   3.417  0.9114 -1.8965 -0.4644
 7073SOL     OW32680   1.504   1.322   7.858  0.2934  0.1682  0.0300
 7073SOL    HW132681   1.512   1.398   7.915  0.6654 -0.2591  0.5401
 7073SOL    HW232682   1.527   1.255   7.921  2.2641 -0.4447 -1.3488
 7074SOL     OW32683   4.428   2.275   4.813  0.3902 -0.2958  0.1393
 7074SOL    HW132684   4.490   2.208   4.784 -1.2301 -1.6852 -0.1289
 7074SOL    HW232685   4.401   2.233   4.895  1.1629  0.4703  0.7862
 7075SOL     OW32686   1.446   3.334   9.205  0.5902  0.4776  0.4101
 7075SOL    HW132687   1.445   3.327   9.109 -1.0341  0.7166  0.4241
 7075SOL    HW232688   1.364   3.381   9.216 -0.7825 -1.3345 -2.0808
 7076SOL     OW32689   4.652   2.059   5.059 -0.0317  0.1164 -0.5908
 7076SOL    HW132690   4.709   2.109   5.001 -2.8680  1.6206 -2.0850
 7076SOL    HW232691   4.720   2.024   5.116 -0.2209 -2.8649 -2.2018
 7077SOL     OW32692   2.376   0.059  12.186 -0.4691 -0.4893  0.0476
 7077SOL    HW132693   2.453   0.025  12.231  1.0510 -0.0815 -2.2246
 7077SOL    HW232694   2.316   0.063  12.260  1.4381  0.0507  1.5578
 7078SOL     OW32695   4.602   1.581   2.983 -0.3023  0.1560  0.2931
 7078SOL    HW132696   4.600   1.673   2.957 -1.1607 -0.3133 -1.2752
 7078SOL    HW232697   4.543   1.546   2.916 -0.1246  0.7495 -0.1692
 7079SOL     OW32698   1.108   1.260   9.736 -0.3654 -0.0176 -0.3375
 7079SOL    HW132699   1.097   1.179   9.686 -1.1815  0.3574 -0.7736
 7079SOL    HW232700   1.200   1.257   9.761 -0.3985 -1.2276 -0.3707
 7080SOL     OW32701   1.050   1.000   4.410  0.6492  0.2379  0.0234
 7080SOL    HW132702   1.134   0.976   4.447  0.3981 -0.0167  0.4344
 7080SOL    HW232703   1.062   0.988   4.316 -2.1998  0.2368 -0.3447
 7081SOL     OW32704   2.508   3.838   6.421 -0.3937 -0.0843 -0.2602
 7081SOL    HW132705   2.456   3.897   6.477 -2.3008 -1.9329 -0.0870
 7081SOL    HW232706   2.588   3.835   6.473 -1.4603 -1.3829  1.3101
 7082SOL     OW32707   1.848   0.486   9.167 -0.1658 -0.4174 -0.1301
 7082SOL    HW132708   1.792   0.433   9.223 -1.8162  1.3385 -0.1275
 7082SOL    HW232709   1.934   0.449   9.188  0.5245  1.2774 -0.0068
 7083SOL     OW32710   0.914   0.324   8.331 -0.1414  0.2202  0.0554
 7083SOL    HW132711   0.931   0.366   8.247 -0.2770 -0.0645 -0.1157
 7083SOL    HW232712   0.918   0.231   8.305  1.4215  0.1015  0.7672
 7084SOL     OW32713   3.520   3.737   4.407  0.3308  0.4721 -0.1645
 7084SOL    HW132714   3.594   3.685   4.377  1.2336  2.7480 -1.9072
 7084SOL    HW232715   3.451   3.728   4.341  0.6104 -1.3947 -0.1942
 7085SOL     OW32716   2.125   2.137   9.120  0.0031 -0.0475  0.1905
 7085SOL    HW132717   2.158   2.078   9.053  0.6873  0.1500  0.3517
 7085SOL    HW232718   2.076   2.083   9.182 -0.4412 -0.3466 -0.4240
 7086SOL     OW32719   3.519   1.080   3.801  0.3274 -0.2202  0.4954
 7086SOL    HW132720   3.435   1.110   3.765 -0.4882 -0.3637  2.2460
 7086SOL    HW232721   3.529   1.125   3.885  2.3708 -0.7955  0.5467
 7087SOL     OW32722   1.158   0.664  11.916 -0.1014  0.0590 -0.0356
 7087SOL    HW132723   1.239   0.699  11.879 -0.1053  0.6000  0.4548
 7087SOL    HW232724   1.190   0.636  12.002  1.0362  1.6708  0.0675
 7088SOL     OW32725   2.460   0.216   1.070 -0.5056  0.3473  0.7946
 7088SOL    HW132726   2.472   0.253   0.982  0.9820  0.1419  0.9180
 7088SOL    HW232727   2.519   0.141   1.065 -1.6997 -0.5157 -0.4505
 7089SOL     OW32728   3.040   3.220  15.863  0.2866  0.9884 -0.4700
 7089SOL    HW132729   2.966   3.166  15.833 -0.0624  0.2795  1.6422
 7089SOL    HW232730   2.987   3.295  15.888  0.4902  0.9381  0.0949
 7090SOL     OW32731   3.320   2.923   2.060  0.2903  0.4085 -0.3983
 7090SOL    HW132732   3.386   2.952   1.998 -1.0496  0.2076 -1.9070
 7090SOL    HW232733   3.374   2.857   2.104 -0.0495  1.0106  0.9143
 7091SOL     OW32734   4.184   2.165  15.336 -0.3014 -0.3818  0.2050
 7091SOL    HW132735   4.208   2.210  15.255  0.6424 -2.8475 -0.8798
 7091SOL    HW232736   4.133   2.089  15.306 -0.6589 -0.1803  0.3064
 7092SOL     OW32737   0.549   3.891   7.197  0.4128  0.3917  0.7311
 7092SOL    HW132738   0.616   3.835   7.157  0.5567  0.1105  1.3735
 7092SOL    HW232739   0.471   3.843   7.171  1.0758 -0.7126  0.7607
 7093SOL     OW32740   0.813   0.706   2.812  0.2660  0.1855 -0.0027
 7093SOL    HW132741   0.734   0.760   2.822 -0.6337 -0.8972 -1.2777
 7093SOL    HW232742   0.866   0.757   2.751  0.6645 -0.6940 -0.3979
 7094SOL     OW32743   0.503   0.401  16.026 -0.0319 -0.2010 -0.2808
 7094SOL    HW132744   0.412   0.427  16.037 -0.7044 -1.6038 -2.6071
 7094SOL    HW232745   0.481   0.322  15.977  0.9385  0.1681 -1.2942
 7095SOL     OW32746   3.669   0.296   2.815 -0.1910  0.0364 -0.0106
 7095SOL    HW132747   3.698   0.213   2.778  0.9195  0.2376  0.4163
 7095SOL    HW232748   3.746   0.319   2.867 -0.0581 -1.6727  0.5481
 7096SOL     OW32749   4.293   2.580  17.287 -0.0861 -0.3810 -0.8013
 7096SOL    HW132750   4.225   2.627  17.239  2.4288  1.2740 -2.6864
 7096SOL    HW232751   4.351   2.647  17.321  0.9249 -1.3246 -0.6771
 7097SOL     OW32752   0.319   4.149   6.426 -0.6530  0.3526 -0.5203
 7097SOL    HW132753   0.270   4.105   6.496 -1.0518  2.4251  0.5086
 7097SOL    HW232754   0.268   4.125   6.349 -0.4200 -2.4945  0.2439
 7098SOL     OW32755   2.939   1.159   8.425 -0.8702 -0.1597 -0.7149
 7098SOL    HW132756   2.951   1.090   8.490 -0.2783  1.2318  0.6430
 7098SOL    HW232757   2.979   1.117   8.349 -0.1726  0.2909 -0.5874
 7099SOL     OW32758   2.777   1.187   6.869 -0.2722 -0.8020  0.0218
 7099SOL    HW132759   2.807   1.141   6.947  4.0846  1.2338 -0.4770
 7099SOL    HW232760   2.851   1.163   6.814  0.1519 -0.2885  0.3550
 7100SOL     OW32761   1.174   0.503   5.716 -0.3131  0.0363  0.1148
 7100SOL    HW132762   1.092   0.465   5.685 -1.1889  2.4999 -0.5661
 7100SOL    HW232763   1.228   0.427   5.692  0.6023  0.7415 -0.0474
 7101SOL     OW32764   3.243   4.440   5.249 -0.0124 -0.0240  0.1470
 7101SOL    HW132765   3.247   4.354   5.291  0.0409  0.0286  0.2500
 7101SOL    HW232766   3.209   4.498   5.317 -0.2171 -1.5562  1.3399
 7102SOL     OW32767   1.844   3.782   7.555  0.3864 -0.1843 -0.1270
 7102SOL    HW132768   1.901   3.753   7.627  1.4066 -0.1711 -0.9399
 7102SOL    HW232769   1.785   3.848   7.592 -0.8586  0.1060 -2.6535
 7103SOL     OW32770   4.378   2.015  11.364 -0.6749 -0.4871  0.1142
 7103SOL    HW132771   4.379   1.924  11.336  0.9899  0.7122 -3.6567
 7103SOL    HW232772   4.294   2.016  11.411  0.2086 -0.3605  1.6974
 7104SOL     OW32773   4.603   1.982   7.136 -0.2332  0.0468  0.3758
 7104SOL    HW132774   4.659   2.008   7.062 -2.7339 -1.3979 -2.0309
 7104SOL    HW232775   4.628   1.890   7.140 -0.1225  0.1430  1.8167
 7105SOL     OW32776   0.523   1.742   9.782 -0.3894 -0.3587  0.0621
 7105SOL    HW132777   0.601   1.711   9.827  0.0357 -1.2154 -1.2741
 7105SOL    HW232778   0.502   1.812   9.844  0.4896  0.0278 -0.0766
 7106SOL     OW32779   2.650   2.764  10.786  0.6358  0.8038  0.4438
 7106SOL    HW132780   2.562   2.753  10.822  0.7554  1.5182  0.9687
 7106SOL    HW232781   2.639   2.851  10.748  4.7012  0.9520 -0.3762
 7107SOL     OW32782   2.880   0.394   6.738 -0.5021 -0.4199  0.2209
 7107SOL    HW132783   2.876   0.324   6.672  1.0993  0.1873 -0.5113
 7107SOL    HW232784   2.891   0.342   6.817  1.6734  1.8477  1.3750
 7108SOL     OW32785   0.705   4.556   0.338  0.2921  0.2447  0.1614
 7108SOL    HW132786   0.702   4.461   0.354  0.1856  0.0161 -1.1949
 7108SOL    HW232787   0.792   4.581   0.369  0.6908 -2.0071  0.8968
 7109SOL     OW32788   2.500   2.116   5.608 -0.1926  0.3426 -0.0038
 7109SOL    HW132789   2.451   2.117   5.691 -1.3122 -1.6919 -0.6493
 7109SOL    HW232790   2.433   2.074   5.554 -1.0382 -0.0497  1.3486
 7110SOL     OW32791   3.967   1.940  17.376 -0.1351  0.1931 -0.0894
 7110SOL    HW132792   3.896   1.901  17.426 -0.1800 -0.8634 -0.9800
 7110SOL    HW232793   3.917   1.981  17.305  1.7447  0.3161 -1.3508
 7111SOL     OW32794   1.464   2.131   9.489  0.7196  0.1102 -0.2108
 7111SOL    HW132795   1.491   2.040   9.480  0.2801 -0.1360  0.9571
 7111SOL    HW232796   1.551   2.169   9.502  0.9907  0.6192 -3.6527
 7112SOL     OW32797   0.713   2.415   6.790 -0.4835  0.1982  0.0832
 7112SOL    HW132798   0.749   2.326   6.795 -1.1496 -0.0892 -0.2212
 7112SOL    HW232799   0.770   2.466   6.847 -0.5686 -0.6647  0.9304
 7113SOL     OW32800   2.289   0.845   8.404 -0.5190 -0.0488 -0.0968
 7113SOL    HW132801   2.272   0.931   8.443 -1.6547  0.1313 -0.9727
 7113SOL    HW232802   2.328   0.875   8.321  0.5802 -1.1925  0.0031
 7114SOL     OW32803   1.418   0.765  11.474 -0.0432 -0.8004 -0.4390
 7114SOL    HW132804   1.354   0.694  11.476  0.7543 -1.5351 -0.6355
 7114SOL    HW232805   1.472   0.727  11.404 -0.7428 -1.0091 -0.8603
 7115SOL     OW32806   4.306   3.976   6.560 -0.3718  0.4809  0.1743
 7115SOL    HW132807   4.332   3.884   6.570 -2.1257 -0.0525 -0.1105
 7115SOL    HW232808   4.390   4.021   6.565  0.1190 -0.5923  1.5222
 7116SOL     OW32809   0.305   0.206  13.104 -0.2211 -0.5448 -0.2485
 7116SOL    HW132810   0.400   0.198  13.117  0.1582 -1.7236 -4.0172
 7116SOL    HW232811   0.284   0.114  13.117  0.7431 -0.8125 -0.5342
 7117SOL     OW32812   1.662   4.347   4.161  0.4978 -0.0004  0.3652
 7117SOL    HW132813   1.648   4.268   4.213 -2.4374 -0.4039 -1.0094
 7117SOL    HW232814   1.754   4.364   4.180  0.3570  2.3790 -1.1081
 7118SOL     OW32815   1.807   0.101   9.122 -0.3855  0.5905  0.0850
 7118SOL    HW132816   1.741   0.033   9.112 -0.3023  0.2920  1.5899
 7118SOL    HW232817   1.757   0.183   9.122 -2.1645 -0.4858 -0.3570
 7119SOL     OW32818   3.180   0.064   1.282 -0.0941  0.3912 -0.1709
 7119SOL    HW132819   3.259   0.055   1.228  0.2077  1.9953  0.0025
 7119SOL    HW232820   3.206   0.129   1.346 -1.0857  1.5646 -0.9709
 7120SOL     OW32821   0.703   3.458  11.114  0.0145 -0.2464  0.1955
 7120SOL    HW132822   0.635   3.417  11.167  0.4897  0.6703  1.5173
 7120SOL    HW232823   0.738   3.529  11.168  3.7343 -0.9515 -1.2666
 7121SOL     OW32824   1.063   3.664  15.228 -0.1427  0.4672  0.3587
 7121SOL    HW132825   1.107   3.654  15.313  3.1115  2.4762 -1.0972
 7121SOL    HW232826   1.063   3.571  15.205 -3.5596 -0.0591  2.5312
 7122SOL     OW32827   1.874   1.487   9.375  0.2968  0.6683 -0.6683
 7122SOL    HW132828   1.789   1.495   9.418 -0.5006  2.2327 -2.4792
 7122SOL    HW232829   1.862   1.569   9.326 -0.5770  0.2599 -1.1405
 7123SOL     OW32830   1.249   4.087   1.453 -0.1018  0.7990  0.5628
 7123SOL    HW132831   1.192   4.065   1.379  0.1427 -0.6640  0.8111
 7123SOL    HW232832   1.242   4.183   1.458 -1.3597  0.6991  0.7151
 7124SOL     OW32833   1.419   4.311  14.241  0.0577 -0.2895 -0.6200
 7124SOL    HW132834   1.370   4.301  14.322 -0.7008 -1.5392 -1.2223
 7124SOL    HW232835   1.431   4.406  14.240 -0.4199 -0.2238  0.1718
 7125SOL     OW32836   0.460   3.544   4.747 -0.2315  0.0904  0.3509
 7125SOL    HW132837   0.397   3.578   4.683  1.7257  0.4863 -1.3706
 7125SOL    HW232838   0.476   3.625   4.795 -1.2881 -0.1525  1.1030
 7126SOL     OW32839   1.572   2.692  15.817 -0.0416  0.8497 -0.1136
 7126SOL    HW132840   1.640   2.625  15.806 -0.6315  0.0577  1.0467
 7126SOL    HW232841   1.562   2.722  15.726 -0.4606  0.8422 -0.0717
 7127SOL     OW32842   2.406   2.322   8.564 -0.2391  0.0688 -0.6401
 7127SOL    HW132843   2.366   2.408   8.572 -1.3628 -0.2640 -2.5622
 7127SOL    HW232844   2.363   2.271   8.633 -0.4310  0.0441 -0.7776
 7128SOL     OW32845   3.207   3.927  16.026 -0.0864  0.2262  0.4359
 7128SOL    HW132846   3.181   4.012  16.062 -0.1056  0.3902  0.0348
 7128SOL    HW232847   3.146   3.864  16.064  0.1026  0.0300  0.4145
 7129SOL     OW32848   3.772   3.002  16.149 -0.3883  0.0673  0.0227
 7129SOL    HW132849   3.757   3.072  16.213  0.3747 -0.3933  0.7069
 7129SOL    HW232850   3.866   3.003  16.169  0.1696 -0.4291 -2.5794
 7130SOL     OW32851   1.098   1.359   3.729  0.0562  0.1993 -0.3334
 7130SOL    HW132852   1.025   1.417   3.705  1.5227  1.7058 -1.1672
 7130SOL    HW232853   1.139   1.335   3.646  0.8323  3.5377 -0.9175
 7131SOL     OW32854   1.364   4.572  12.753 -0.0812  0.1340 -0.3790
 7131SOL    HW132855   1.312   4.611  12.683  0.9011  2.4068  0.1836
 7131SOL    HW232856   1.320   4.608  12.830  1.4542  0.3573  0.3921
 7132SOL     OW32857   2.536   1.919   5.227  0.0977  0.5576  0.1579
 7132SOL    HW132858   2.613   1.973   5.241  1.3576 -0.7613 -1.7420
 7132SOL    HW232859   2.578   1.841   5.190  1.5169  1.5056 -0.1931
 7133SOL     OW32860   1.561   1.498   3.954  0.0770  0.0256 -0.2539
 7133SOL    HW132861   1.482   1.452   3.924 -0.2118 -0.2948  1.0238
 7133SOL    HW232862   1.580   1.554   3.878  0.0964 -0.5975 -0.7091
 7134SOL     OW32863   4.557   0.885   7.503  0.0766  0.2015 -0.2641
 7134SOL    HW132864   4.554   0.858   7.412 -1.4929  1.1943 -0.5036
 7134SOL    HW232865   4.627   0.951   7.500 -0.2005  0.4017 -2.3854
 7135SOL     OW32866   4.012   3.252   2.718 -0.2075 -0.7784 -0.2960
 7135SOL    HW132867   4.064   3.172   2.718 -0.9467 -1.2619  1.0216
 7135SOL    HW232868   3.951   3.230   2.648  0.3527  1.6642 -1.5382
 7136SOL     OW32869   3.503   0.175   3.409  0.0322 -0.2477  0.7145
 7136SOL    HW132870   3.524   0.082   3.403 -1.9453 -0.5899 -0.9075
 7136SOL    HW232871   3.407   0.168   3.412  0.1419 -1.4437  1.3324
 7137SOL     OW32872   2.742   1.529   7.825 -0.0181 -0.0602  0.3161
 7137SOL    HW132873   2.689   1.607   7.838 -1.8681 -1.4547  1.1834
 7137SOL    HW232874   2.727   1.520   7.731  1.2181  1.3504 -0.0192
 7138SOL     OW32875   1.761   0.061  15.207  0.0424  0.3052 -0.4236
 7138SOL    HW132876   1.724   0.145  15.234  1.8136  0.4770  1.4911
 7138SOL    HW232877   1.853   0.075  15.182  0.3602  2.3447  1.9797
 7139SOL     OW32878   3.849   0.808   2.171  0.0668 -0.2247  0.0094
 7139SOL    HW132879   3.804   0.882   2.211  1.2795  0.4273  0.1696
 7139SOL    HW232880   3.938   0.796   2.203 -0.2528 -0.3218  0.8611
 7140SOL     OW32881   3.971   1.405   2.916  0.1512  0.3787 -0.3357
 7140SOL    HW132882   3.877   1.424   2.917  0.0916  0.1768 -1.7293
 7140SOL    HW232883   4.005   1.482   2.870 -0.0354  1.4327  1.2999
 7141SOL     OW32884   2.230   3.714  10.211 -0.3702 -0.2107 -0.2743
 7141SOL    HW132885   2.196   3.722  10.122  0.8756  1.0125 -0.6415
 7141SOL    HW232886   2.158   3.668  10.254  0.1437  0.6683  1.5676
 7142SOL     OW32887   0.736   3.356   4.026  0.5135 -0.2403 -0.0880
 7142SOL    HW132888   0.641   3.358   4.036  0.7015  1.4272  1.4759
 7142SOL    HW232889   0.750   3.414   3.952  0.5302 -0.3254 -0.1513
 7143SOL     OW32890   1.918   0.643   6.245 -0.2649 -0.1681  0.2427
 7143SOL    HW132891   1.971   0.572   6.209  0.6699 -0.5414  2.3414
 7143SOL    HW232892   1.971   0.677   6.317 -1.3102  1.2939  0.3095
 7144SOL     OW32893   4.504   1.649   9.847  0.8221 -0.0001  0.1006
 7144SOL    HW132894   4.524   1.657   9.940  0.7537 -0.9408  0.1986
 7144SOL    HW232895   4.591   1.627   9.813  1.5637  0.6165  1.5940
 7145SOL     OW32896   3.461   0.652   4.156  0.1663  0.5693  0.8221
 7145SOL    HW132897   3.416   0.649   4.072  2.6923  0.3136 -0.5028
 7145SOL    HW232898   3.459   0.561   4.186  0.8974  0.8075  1.6085
 7146SOL     OW32899   2.632   2.508   2.587  0.7165  0.0756 -0.2559
 7146SOL    HW132900   2.588   2.500   2.672  0.5860 -0.7088 -0.3994
 7146SOL    HW232901   2.592   2.440   2.533 -1.0968 -0.1627  1.3624
 7147SOL     OW32902   0.044   1.639  16.792  0.0940 -0.3924  0.2207
 7147SOL    HW132903   4.691   1.625  16.848 -0.3278  0.6416 -0.0941
 7147SOL    HW232904   0.022   1.721  16.747  1.0594  0.4809  1.3167
 7148SOL     OW32905   0.642   4.055  14.688  0.1936 -0.2089  0.0106
 7148SOL    HW132906   0.600   4.036  14.605 -0.2091 -1.6918  0.5512
 7148SOL    HW232907   0.599   4.134  14.721  1.8380 -0.1850  2.1460
 7149SOL     OW32908   4.551   1.383   5.201 -0.1467  0.2038 -0.0341
 7149SOL    HW132909   4.577   1.354   5.288 -0.4254 -0.8707 -0.3007
 7149SOL    HW232910   4.629   1.425   5.165 -0.5659  1.4061  0.4627
 7150SOL     OW32911   1.162   3.533   4.528  0.0776 -0.8044  0.1360
 7150SOL    HW132912   1.072   3.504   4.540 -0.4140  0.3880 -0.6614
 7150SOL    HW232913   1.139   3.620   4.562 -0.2788 -1.6229  1.9557
 7151SOL     OW32914   0.570   2.869  11.940  0.1773  0.5885  0.2922
 7151SOL    HW132915   0.591   2.887  12.032  1.0341 -1.3878  0.4746
 7151SOL    HW232916   0.622   2.790  11.925 -1.5535 -0.9052  2.1029
 7152SOL     OW32917   1.219   4.604   8.403  0.0227  0.4311  0.1530
 7152SOL    HW132918   1.125   4.617   8.416 -0.0258  1.0350 -0.7787
 7152SOL    HW232919   1.218   4.593   8.308 -0.6264  0.1818  0.1931
 7153SOL     OW32920   2.688   4.357   1.080  0.7561  0.2132  0.3323
 7153SOL    HW132921   2.613   4.412   1.101  0.3188 -0.6052  0.8774
 7153SOL    HW232922   2.761   4.394   1.130  1.0258 -0.8219  0.6940
 7154SOL     OW32923   1.265   2.650   1.675  0.6577  0.3846  0.3368
 7154SOL    HW132924   1.208   2.688   1.741  2.8076 -1.2185  3.1207
 7154SOL    HW232925   1.258   2.557   1.699  1.0762  0.5276  1.0027
 7155SOL     OW32926   1.572   3.415   8.739 -0.4324  0.6002 -0.1455
 7155SOL    HW132927   1.540   3.504   8.725 -1.0487  0.3610 -0.2476
 7155SOL    HW232928   1.511   3.390   8.808  1.3613 -0.8456  0.9114
 7156SOL     OW32929   4.303   1.610   4.787 -0.4408  0.1176  0.1919
 7156SOL    HW132930   4.217   1.620   4.828 -0.8384 -0.8540 -0.4310
 7156SOL    HW232931   4.358   1.613   4.866 -0.0313 -0.3944 -0.0775
 7157SOL     OW32932   3.536   2.261   3.259  0.2331 -0.3027 -0.2994
 7157SOL    HW132933   3.584   2.180   3.243  1.4467  0.5165 -0.7766
 7157SOL    HW232934   3.546   2.308   3.177 -0.1707 -0.3556 -0.3791
 7158SOL     OW32935   0.533   1.888   2.377  0.0390  0.3420  0.5611
 7158SOL    HW132936   0.463   1.906   2.313 -0.8709 -0.1660  1.4153
 7158SOL    HW232937   0.523   1.971   2.424 -0.5000  0.8708 -0.4818
 7159SOL     OW32938   1.364   0.985   8.782 -0.2435 -0.1743  0.4721
 7159SOL    HW132939   1.451   1.022   8.799  0.6867 -2.1512  0.0966
 7159SOL    HW232940   1.377   0.942   8.697  2.3772 -1.9492  1.7807
 7160SOL     OW32941   1.455   3.213   1.883  0.0483  0.1241  0.1819
 7160SOL    HW132942   1.437   3.124   1.853  0.4285  0.8488 -2.1889
 7160SOL    HW232943   1.490   3.255   1.805  0.0071 -0.8424 -0.3553
 7161SOL     OW32944   1.381   4.169  12.120  0.1900 -0.1729 -0.1377
 7161SOL    HW132945   1.343   4.084  12.097 -0.1142  0.2634 -1.2369
 7161SOL    HW232946   1.449   4.146  12.183 -2.0967  0.2609  2.5041
 7162SOL     OW32947   2.175   0.153   2.659  1.0039  0.4020  0.4199
 7162SOL    HW132948   2.229   0.201   2.721  0.9226  0.9082  0.1030
 7162SOL    HW232949   2.088   0.194   2.656  1.4211  1.2935  0.4438
 7163SOL     OW32950   2.326   2.255   6.177  0.5582 -0.1405  0.0930
 7163SOL    HW132951   2.336   2.349   6.162  0.5359 -0.0546  0.6281
 7163SOL    HW232952   2.345   2.248   6.270 -2.1041 -1.0105  0.5649
 7164SOL     OW32953   1.737   0.319   2.337 -0.0541 -0.5855  0.4182
 7164SOL    HW132954   1.669   0.359   2.284  0.8949  0.4791 -0.0004
 7164SOL    HW232955   1.810   0.374   2.309 -0.1252  0.1042  1.6090
 7165SOL     OW32956   1.068   3.456   5.658 -0.3646  0.2376 -0.4720
 7165SOL    HW132957   0.987   3.462   5.608  0.6170  2.1802 -1.8471
 7165SOL    HW232958   1.104   3.377   5.617 -2.2512 -0.9801  0.2334
 7166SOL     OW32959   0.248   0.586   7.208  0.0623 -0.3781  0.0509
 7166SOL    HW132960   0.204   0.541   7.280 -3.8840 -0.0191 -2.1035
 7166SOL    HW232961   0.324   0.528   7.208  0.3654  0.0139  1.4721
 7167SOL     OW32962   3.024   3.605   5.239 -0.0268  0.5973 -0.4077
 7167SOL    HW132963   2.998   3.571   5.325 -0.8300  0.3724 -0.7366
 7167SOL    HW232964   2.938   3.622   5.199  0.4361  1.9829 -0.7985
 7168SOL     OW32965   1.489   2.572   6.436  0.1463 -0.4036 -0.5099
 7168SOL    HW132966   1.453   2.644   6.384  1.7300  0.6528 -0.1357
 7168SOL    HW232967   1.460   2.505   6.373  2.4653 -0.2285 -1.7677
 7169SOL     OW32968   3.641   2.960   3.139  0.2159 -0.2778 -0.0307
 7169SOL    HW132969   3.697   3.019   3.190  1.1809 -1.1287 -0.1099
 7169SOL    HW232970   3.592   3.014   3.077 -0.0601 -0.3865  0.0923
 7170SOL     OW32971   3.706   3.866  15.213 -0.3529  0.2348  0.0494
 7170SOL    HW132972   3.701   3.916  15.131  2.5541  0.9055  0.2985
 7170SOL    HW232973   3.730   3.780  15.178 -2.6134 -0.4193  0.0959
 7171SOL     OW32974   3.274   1.797   4.007 -0.3078 -0.5797 -0.2435
 7171SOL    HW132975   3.337   1.855   3.964 -2.0594  0.3250 -1.6083
 7171SOL    HW232976   3.327   1.749   4.071  0.4523 -1.3155 -1.4170
 7172SOL     OW32977   1.248   0.482  13.351  0.1319  0.2154 -0.1492
 7172SOL    HW132978   1.180   0.423  13.319  1.2355 -0.1613 -1.8310
 7172SOL    HW232979   1.272   0.429  13.427  0.2369  1.7089  0.8612
 7173SOL     OW32980   2.186   0.178  12.676  0.1106  0.5867  0.2977
 7173SOL    HW132981   2.164   0.271  12.675 -3.9745 -0.3625  1.8691
 7173SOL    HW232982   2.124   0.134  12.618  2.3766 -0.6807 -1.1733
 7174SOL     OW32983   1.069   2.626  12.926 -0.6789  0.3536 -0.0210
 7174SOL    HW132984   1.007   2.556  12.908  0.1910 -0.5728  0.6116
 7174SOL    HW232985   1.142   2.589  12.876 -0.6964 -0.5311  0.6126
 7175SOL     OW32986   1.381   0.256   8.441 -0.5754 -0.9804  0.1387
 7175SOL    HW132987   1.303   0.310   8.446 -0.0292 -0.1882  0.1882
 7175SOL    HW232988   1.374   0.214   8.356 -0.2130  1.6103 -1.1924
 7176SOL     OW32989   3.273   4.691   3.468  0.6021  0.1020 -0.2267
 7176SOL    HW132990   3.311   4.608   3.496  0.1767  0.4592  1.3778
 7176SOL    HW232991   3.193   4.651   3.431  1.5331 -2.4344  0.5254
 7177SOL     OW32992   0.436   3.706   8.932 -0.2809  0.0308 -0.2315
 7177SOL    HW132993   0.465   3.696   9.023 -0.4584 -2.2623 -0.4297
 7177SOL    HW232994   0.515   3.748   8.897  1.7825 -2.1322  1.7576
 7178SOL     OW32995   2.834   3.709   1.862 -0.2813  0.5817  0.3415
 7178SOL    HW132996   2.783   3.788   1.848  1.3975  1.0590 -3.0909
 7178SOL    HW232997   2.811   3.665   1.780 -1.8091 -2.3851  2.3435
 7179SOL     OW32998   1.110   2.975   0.523 -0.5787  0.5213 -0.2914
 7179SOL    HW132999   1.168   2.961   0.449 -3.1951 -0.4587 -2.1532
 7179SOL    HW233000   1.119   3.070   0.535  1.5000  0.0613  1.8056
 7180SOL     OW33001   3.577   2.378   5.945  0.1807  0.3228  0.3385
 7180SOL    HW133002   3.550   2.298   5.900  0.5469 -0.0448  0.7755
 7180SOL    HW233003   3.634   2.409   5.875 -1.9126 -1.9762 -2.4112
 7181SOL     OW33004   1.538   2.540   7.120 -0.9280 -0.0229 -0.5348
 7181SOL    HW133005   1.501   2.452   7.121  1.7046 -1.1375 -0.2769
 7181SOL    HW233006   1.596   2.535   7.196 -2.2400 -0.5396  0.4455
 7182SOL     OW33007   4.428   4.518  17.127 -0.0359 -0.0309  0.3125
 7182SOL    HW133008   4.416   4.596  17.073 -0.3315 -0.7734 -0.6989
 7182SOL    HW233009   4.518   4.499  17.102 -0.3101 -0.4479 -0.3449
 7183SOL     OW33010   2.566   3.582  15.838 -0.3404  0.7128  0.0760
 7183SOL    HW133011   2.530   3.638  15.769  0.0500 -0.5998 -1.1756
 7183SOL    HW233012   2.543   3.492  15.815  0.4657 -0.6364  4.4883
 7184SOL     OW33013   3.822   4.359   6.371  0.3495 -0.4928 -0.1677
 7184SOL    HW133014   3.827   4.339   6.278  0.5134  3.2236 -0.9494
 7184SOL    HW233015   3.758   4.430   6.371  0.0597 -0.7547 -1.1995
 7185SOL     OW33016   3.507   4.017  15.279  0.2174 -0.2529  0.4404
 7185SOL    HW133017   3.578   4.068  15.318 -1.6439  1.9182  0.9567
 7185SOL    HW233018   3.558   3.936  15.283 -0.9690 -1.0943 -1.7037
 7186SOL     OW33019   0.235   1.594  17.061 -0.1824 -0.7001 -0.6313
 7186SOL    HW133020   0.164   1.598  16.997 -0.4828  3.6670 -0.0347
 7186SOL    HW233021   0.289   1.522  17.030 -0.0406  0.0591 -2.1469
 7187SOL     OW33022   4.665   3.540   6.002  0.5658 -0.3990  0.5730
 7187SOL    HW133023   4.646   3.456   6.042  2.0108 -1.6326 -1.3019
 7187SOL    HW233024   4.697   3.593   6.075  2.0365  1.6107 -1.5170
 7188SOL     OW33025   0.539   2.124   0.286 -0.5670  0.0287 -0.6131
 7188SOL    HW133026   0.476   2.174   0.338 -0.5018 -0.2176 -0.2957
 7188SOL    HW233027   0.572   2.060   0.349 -0.2880  0.3053 -0.4824
 7189SOL     OW33028   3.813   0.054   3.324 -0.3518  0.3021 -0.2606
 7189SOL    HW133029   3.874   4.722   3.373  1.5071  3.8041  1.4041
 7189SOL    HW233030   3.728   0.018   3.348 -1.7961  1.7956 -3.0464
 7190SOL     OW33031   0.794   2.938  17.130  0.9022  0.3198 -0.8259
 7190SOL    HW133032   0.708   2.922  17.171  0.9806 -0.1571 -0.8453
 7190SOL    HW233033   0.791   3.034  17.133  2.5983  0.2612  2.4581
 7191SOL     OW33034   4.348   0.086   7.161  0.7096 -0.0086 -0.0634
 7191SOL    HW133035   4.398   0.018   7.205  0.0621 -0.3253  0.1798
 7191SOL    HW233036   4.298   0.105   7.240  0.2315 -1.0656 -0.1127
 7192SOL     OW33037   4.024   2.186  13.873 -0.3435  0.0948 -0.2200
 7192SOL    HW133038   3.944   2.218  13.914  0.2406  1.6782 -0.2934
 7192SOL    HW233039   3.995   2.188  13.782 -0.2069  0.3053 -0.2604
 7193SOL     OW33040   3.061   2.897  12.422 -0.2699 -0.5271  0.4994
 7193SOL    HW133041   3.070   2.988  12.394 -0.2437 -0.4537  0.7386
 7193SOL    HW233042   2.967   2.887  12.410 -0.6285 -1.0300  3.6348
 7194SOL     OW33043   3.414   1.889   2.296  0.2836 -0.5730 -0.0445
 7194SOL    HW133044   3.482   1.900   2.230  0.5057  0.9720  0.4513
 7194SOL    HW233045   3.419   1.794   2.304 -1.1941 -0.6728 -0.3623
 7195SOL     OW33046   3.089   4.699   5.183  0.0655 -0.5767 -0.3179
 7195SOL    HW133047   3.137   4.620   5.205  0.0780 -0.6155 -0.4809
 7195SOL    HW233048   3.139   0.017   5.113  0.7765 -1.2389 -0.1904
 7196SOL     OW33049   2.856   3.810   8.835  0.4407 -0.0654  0.3838
 7196SOL    HW133050   2.776   3.852   8.867 -0.3294 -2.0478  1.0232
 7196SOL    HW233051   2.887   3.862   8.760 -0.1541 -1.2334 -0.6695
 7197SOL     OW33052   1.869   1.267   3.495  0.2722  0.0557 -0.0215
 7197SOL    HW133053   1.831   1.211   3.428 -0.4024 -0.6293  0.9342
 7197SOL    HW233054   1.941   1.303   3.443  0.2264 -1.1600 -0.9261
 7198SOL     OW33055   0.686   1.514   5.154 -0.2674  0.2242  0.0940
 7198SOL    HW133056   0.680   1.573   5.228  0.1054  0.1587  0.1767
 7198SOL    HW233057   0.601   1.474   5.170  0.7952 -1.9340  0.3249
 7199SOL     OW33058   4.602   4.613   6.086  0.3491 -0.3815  0.3831
 7199SOL    HW133059   4.545   4.689   6.094 -0.0054 -0.5128 -1.0319
 7199SOL    HW233060   4.610   4.597   5.993 -3.0260  1.1517 -0.1799
 7200SOL     OW33061   0.594   4.011   5.402 -0.5069 -0.6693  0.0848
 7200SOL    HW133062   0.610   3.988   5.310 -0.2094 -2.4294  0.5824
 7200SOL    HW233063   0.663   4.074   5.422  1.8085 -3.0504 -0.4181
 7201SOL     OW33064   3.111   1.518   8.167  0.2527  0.1362  0.2401
 7201SOL    HW133065   3.090   1.576   8.240  2.0667  0.8731  0.1801
 7201SOL    HW233066   3.207   1.509   8.166  0.1818 -0.5391 -0.3882
 7202SOL     OW33067   2.895   2.872   4.350  0.4426 -0.2865 -0.6802
 7202SOL    HW133068   2.803   2.846   4.340 -0.1929  1.4594  0.5642
 7202SOL    HW233069   2.913   2.837   4.437  1.2737 -0.3353 -0.8716
 7203SOL     OW33070   4.363   1.574   7.307 -0.3256  0.5692 -0.9116
 7203SOL    HW133071   4.427   1.643   7.323 -0.6758  1.0011 -1.3748
 7203SOL    HW233072   4.396   1.531   7.228  1.6888 -2.6429  1.6931
 7204SOL     OW33073   3.833   2.055   1.953 -0.2322 -0.4032  1.0669
 7204SOL    HW133074   3.858   2.147   1.942 -2.1470 -0.3103 -2.4523
 7204SOL    HW233075   3.784   2.058   2.035 -1.0895  1.0790  0.5005
 7205SOL     OW33076   3.011   3.135   3.518 -0.3354 -0.5227  0.2132
 7205SOL    HW133077   3.086   3.113   3.572  1.5812  2.9034 -1.0685
 7205SOL    HW233078   2.996   3.225   3.546 -1.4529 -0.6128 -0.0754
 7206SOL     OW33079   2.986   0.806  15.711 -0.2860  0.4834 -0.2517
 7206SOL    HW133080   2.966   0.879  15.652  0.1662  0.8248  0.0212
 7206SOL    HW233081   3.046   0.861  15.762 -0.2096  0.2444 -0.0800
 7207SOL     OW33082   1.054   1.127   3.858 -0.6364  0.0240  0.0440
 7207SOL    HW133083   1.045   1.209   3.810  0.9076 -0.8924 -1.8201
 7207SOL    HW233084   1.087   1.164   3.941  1.8529  3.3718 -2.4364
 7208SOL     OW33085   2.898   2.926   1.037  0.2190 -0.0626  0.4140
 7208SOL    HW133086   2.888   2.844   1.086  0.4719  0.6523  1.6702
 7208SOL    HW233087   2.982   2.927   0.993 -0.5650  1.0379 -1.0646
 7209SOL     OW33088   3.934   2.420   5.188 -0.4075 -0.4794 -0.3759
 7209SOL    HW133089   3.843   2.419   5.158 -0.1496  0.7216 -1.2528
 7209SOL    HW233090   3.989   2.398   5.112 -0.0810 -1.3311  0.1149
 7210SOL     OW33091   3.005   1.920   6.713  0.0225  0.2981  0.0200
 7210SOL    HW133092   3.015   1.933   6.807 -0.1494  2.2951 -0.2463
 7210SOL    HW233093   3.092   1.934   6.677 -0.3123  0.7863 -0.5921
 7211SOL     OW33094   2.713   0.617   2.088 -0.4346 -0.0524  0.3063
 7211SOL    HW133095   2.631   0.667   2.082  0.0919  0.5392 -2.0909
 7211SOL    HW233096   2.699   0.576   2.002 -0.4319  4.2148 -1.7404
 7212SOL     OW33097   0.237   0.957   6.724  0.2080  0.0731 -0.1538
 7212SOL    HW133098   0.150   0.927   6.749  0.1591  2.5694  2.6351
 7212SOL    HW233099   0.290   0.951   6.803 -0.9208  1.2453  0.6849
 7213SOL     OW33100   3.872   1.114  13.417 -0.1011  0.2051 -0.5191
 7213SOL    HW133101   3.822   1.096  13.497 -1.2584 -0.2781 -1.3460
 7213SOL    HW233102   3.842   1.044  13.359  1.8990 -0.4639 -0.7241
 7214SOL     OW33103   3.137   1.097   7.799  0.5964  0.0031 -0.3764
 7214SOL    HW133104   3.210   1.053   7.843 -0.7011 -1.8301 -0.0300
 7214SOL    HW233105   3.154   1.190   7.813 -2.3286  0.4728 -0.0011
 7215SOL     OW33106   0.983   0.082   4.689  0.4093  0.0647  0.5040
 7215SOL    HW133107   1.047   0.149   4.664 -0.6496  1.0727  0.4895
 7215SOL    HW233108   0.995   0.020   4.618  2.6679  1.2866 -0.1697
 7216SOL     OW33109   3.034   1.090   3.780  0.3156  0.2249  0.1887
 7216SOL    HW133110   3.052   1.025   3.848  0.7407 -2.0181 -2.0769
 7216SOL    HW233111   2.939   1.080   3.780  0.4804 -1.3912 -0.3293
 7217SOL     OW33112   1.260   3.649   3.912  0.0875 -0.0839 -0.0749
 7217SOL    HW133113   1.263   3.714   3.842  0.6939 -0.1665 -0.1256
 7217SOL    HW233114   1.166   3.661   3.930  0.3739 -0.9955  2.0067
 7218SOL     OW33115   4.433   4.021  14.191  0.7747 -0.3935 -0.0372
 7218SOL    HW133116   4.448   3.936  14.232  2.0227 -0.0474  0.2306
 7218SOL    HW233117   4.424   4.000  14.098 -1.1765 -0.7092  0.2250
 7219SOL     OW33118   1.301   2.534  10.154 -0.0629 -0.3508  0.3775
 7219SOL    HW133119   1.285   2.451  10.199  0.6407 -0.3369  0.6498
 7219SOL    HW233120   1.220   2.582  10.174  0.0067 -0.0544 -0.0547
 7220SOL     OW33121   2.797   0.766  10.593 -0.2292  0.1731  0.0655
 7220SOL    HW133122   2.838   0.829  10.652  1.1126 -0.2875 -0.3812
 7220SOL    HW233123   2.851   0.781  10.515 -1.7445  2.7967 -0.4851
 7221SOL     OW33124   3.089   0.246   2.389  0.5548  0.4458 -0.1339
 7221SOL    HW133125   3.098   0.337   2.363 -0.6700  0.1662 -1.5638
 7221SOL    HW233126   3.042   0.258   2.472 -0.6779 -3.4139 -0.2559
 7222SOL     OW33127   0.687   4.398   4.051 -0.0820  0.8444  0.4891
 7222SOL    HW133128   0.701   4.484   4.012  1.3112  0.0781 -0.7300
 7222SOL    HW233129   0.591   4.402   4.056 -0.2118 -0.3278 -0.9534
 7223SOL     OW33130   1.486   0.470  16.720 -0.4646  0.3140  0.2378
 7223SOL    HW133131   1.552   0.407  16.747 -1.4811 -0.5670  0.6623
 7223SOL    HW233132   1.541   0.548  16.717  0.5666 -0.3035  2.7424
 7224SOL     OW33133   4.706   0.841  16.300 -0.0828 -0.3670  0.2887
 7224SOL    HW133134   0.037   0.871  16.226 -0.8222 -0.6635 -0.3686
 7224SOL    HW233135   4.646   0.912  16.319 -1.5287 -0.8497 -2.5764
 7225SOL     OW33136   0.377   3.640   1.901  0.4377  0.0682 -0.2202
 7225SOL    HW133137   0.322   3.621   1.825  0.1694 -0.0367 -0.0020
 7225SOL    HW233138   0.438   3.566   1.899 -0.3780 -0.5407 -2.8773
 7226SOL     OW33139   1.655   3.330   2.874  0.2410 -0.8511  0.2755
 7226SOL    HW133140   1.644   3.388   2.949 -2.1420 -0.5707 -0.3123
 7226SOL    HW233141   1.580   3.273   2.889  0.3577 -0.2373  3.2015
 7227SOL     OW33142   3.142   2.481   9.015  0.3519  0.3464  0.4448
 7227SOL    HW133143   3.063   2.524   8.983  0.1358  0.4966  1.1802
 7227SOL    HW233144   3.202   2.530   8.959  0.8212  0.0936  0.7280
 7228SOL     OW33145   3.576   1.634   3.476  0.3064  0.6058 -0.4883
 7228SOL    HW133146   3.540   1.586   3.401 -0.7960  2.5204 -1.1672
 7228SOL    HW233147   3.665   1.599   3.486 -0.9457 -2.1175  0.9377
 7229SOL     OW33148   3.646   3.778   4.821  0.0503 -0.0658 -0.7817
 7229SOL    HW133149   3.651   3.870   4.795  1.5412  0.0906  0.0290
 7229SOL    HW233150   3.598   3.793   4.903 -1.0498  0.8688 -1.5925
 7230SOL     OW33151   0.934   2.100  13.790 -0.6531 -0.3334 -0.1664
 7230SOL    HW133152   0.941   2.179  13.737 -2.8643  0.0829  0.1466
 7230SOL    HW233153   0.999   2.045  13.747 -0.0591 -0.5835  1.0625
 7231SOL     OW33154   2.645   4.340   1.986 -0.1210 -0.4792 -0.3601
 7231SOL    HW133155   2.574   4.323   2.048 -1.5386  1.9852 -1.3157
 7231SOL    HW233156   2.626   4.431   1.964 -0.5920  0.1048  2.3843
 7232SOL     OW33157   1.024   3.784   1.117  0.3953  0.3197 -0.0014
 7232SOL    HW133158   1.034   3.745   1.204 -0.8396 -1.8885 -0.8664
 7232SOL    HW233159   0.945   3.832   1.142  0.7539  0.1871  1.4432
 7233SOL     OW33160   4.501   4.287  10.083 -0.5200 -0.3449 -0.5005
 7233SOL    HW133161   4.448   4.360  10.049  0.4428  1.3802  1.6338
 7233SOL    HW233162   4.483   4.211  10.028 -1.0269 -0.6329  0.0541
 7234SOL     OW33163   0.796   1.184   2.622  0.3560  0.1130  0.6047
 7234SOL    HW133164   0.786   1.247   2.550  0.2849 -0.9089 -0.2822
 7234SOL    HW233165   0.889   1.199   2.634  0.2758  1.6316 -0.5994
 7235SOL     OW33166   0.556   0.026  11.110  0.2447 -0.5586  0.1030
 7235SOL    HW133167   0.500   4.696  11.054 -0.5613  2.8109 -2.2527
 7235SOL    HW233168   0.637   0.023  11.060 -0.5106  1.3457 -1.2294
 7236SOL     OW33169   0.474   2.924   6.861  0.3914  0.1537  0.0864
 7236SOL    HW133170   0.493   2.846   6.809  1.9939  1.4714 -1.2791
 7236SOL    HW233171   0.411   2.883   6.921  0.7457 -1.1954 -0.4603
 7237SOL     OW33172   1.410   3.554   2.787  0.1240 -0.6359 -0.1142
 7237SOL    HW133173   1.388   3.493   2.717 -1.1315  2.8794 -2.7786
 7237SOL    HW233174   1.337   3.525   2.842  0.5038 -0.8916  0.2549
 7238SOL     OW33175   0.113   0.893  13.383  0.5575  0.5535 -0.4244
 7238SOL    HW133176   0.167   0.954  13.434  0.7997 -0.1135  0.1114
 7238SOL    HW233177   0.090   0.946  13.306 -0.4170 -1.2269 -1.3507
 7239SOL     OW33178   2.076   4.064  16.325 -0.4186 -0.0585 -0.3504
 7239SOL    HW133179   2.141   4.127  16.295  0.4710 -1.6529 -1.8179
 7239SOL    HW233180   2.104   3.984  16.279 -2.4401 -1.3757  0.7254
 7240SOL     OW33181   0.026   2.038  12.524 -0.0163 -0.0179  0.3543
 7240SOL    HW133182   4.705   2.077  12.600 -0.6321  0.1311 -0.0798
 7240SOL    HW233183   0.083   2.114  12.512  0.1046  0.1635  2.0636
 7241SOL     OW33184   3.696   0.815   1.432  0.5761  0.1445  0.6383
 7241SOL    HW133185   3.761   0.745   1.425  0.4673 -0.0641  1.7651
 7241SOL    HW233186   3.682   0.854   1.346 -2.0223 -1.6239  0.2564
 7242SOL     OW33187   0.708   3.403  11.799  0.1420  0.6412 -0.3050
 7242SOL    HW133188   0.649   3.363  11.735  0.3793 -0.7147  0.3109
 7242SOL    HW233189   0.691   3.496  11.784  1.6567  1.5043  3.2999
 7243SOL     OW33190   4.107   4.412   5.412  0.4316  0.4936 -0.0262
 7243SOL    HW133191   4.198   4.382   5.407 -0.1330 -1.4207  1.0471
 7243SOL    HW233192   4.096   4.398   5.506  0.0473  0.4066 -0.0835
 7244SOL     OW33193   1.816   3.014   2.106 -0.5975  0.0656  0.0470
 7244SOL    HW133194   1.883   2.948   2.125 -1.5761 -0.2667  2.2966
 7244SOL    HW233195   1.734   2.983   2.143 -1.3576  1.2286 -0.6458
 7245SOL     OW33196   0.530   2.674   8.787 -0.6141  0.0697 -0.4290
 7245SOL    HW133197   0.502   2.679   8.878 -0.3056  0.1137 -0.3362
 7245SOL    HW233198   0.554   2.762   8.759  0.5782 -0.5930 -1.5281
 7246SOL     OW33199   1.651   4.049   4.609 -0.4655  0.0578 -0.1634
 7246SOL    HW133200   1.673   4.081   4.696 -0.1153  2.2392 -1.0425
 7246SOL    HW233201   1.665   3.955   4.621 -2.7124 -0.3415 -0.6524
 7247SOL     OW33202   0.940   3.656   6.690  0.1920  0.1367  0.0711
 7247SOL    HW133203   1.022   3.618   6.659  0.2092  1.6918 -1.7891
 7247SOL    HW233204   0.923   3.729   6.630 -3.1125 -0.0497  0.8220
 7248SOL     OW33205   2.139   2.913   3.972  0.5868 -0.4891  0.6507
 7248SOL    HW133206   2.058   2.962   3.980 -0.8040 -2.7398  0.3674
 7248SOL    HW233207   2.183   2.957   3.899  1.5078  0.3987  1.7347
 7249SOL     OW33208   0.816   1.406   7.113 -0.0547 -0.2784 -0.1122
 7249SOL    HW133209   0.779   1.455   7.039 -0.1760 -0.8999 -0.4658
 7249SOL    HW233210   0.768   1.324   7.110  0.3702 -0.3775 -4.6262
 7250SOL     OW33211   2.282   3.419   7.768 -0.3359 -0.7707  0.2735
 7250SOL    HW133212   2.366   3.458   7.792  0.0146 -0.2436 -1.7469
 7250SOL    HW233213   2.284   3.335   7.814 -1.2963 -1.1525 -0.3786
 7251SOL     OW33214   2.220   0.685  15.454  1.0527  0.4072 -0.0966
 7251SOL    HW133215   2.202   0.776  15.431  1.7756  0.7484  0.6561
 7251SOL    HW233216   2.145   0.644  15.412  1.4580  1.8665 -2.2473
 7252SOL     OW33217   0.073   1.210   4.608 -0.0055  0.1781 -0.0124
 7252SOL    HW133218   0.098   1.175   4.694  0.8299  0.4291 -0.1578
 7252SOL    HW233219   0.012   1.149   4.568  0.3958 -1.2915  1.5913
 7253SOL     OW33220   3.242   2.804  10.738 -0.0213 -0.0289 -0.0452
 7253SOL    HW133221   3.195   2.811  10.821 -0.3378  4.6596 -0.6061
 7253SOL    HW233222   3.250   2.710  10.726 -2.6587 -0.0479 -1.4126
 7254SOL     OW33223   1.423   3.567  15.980  0.0517  0.1959  0.2320
 7254SOL    HW133224   1.511   3.530  15.985  1.2948  3.3071  1.8778
 7254SOL    HW233225   1.354   3.506  16.002 -0.1065  0.7751  1.3671
 7255SOL     OW33226   1.720   3.622   1.200  0.2206  0.0309  0.1008
 7255SOL    HW133227   1.688   3.585   1.282 -0.7049  0.6792  0.0320
 7255SOL    HW233228   1.803   3.579   1.181  0.1690  0.0139 -0.0861
 7256SOL     OW33229   0.710   2.065   7.339 -0.1145  0.2769 -0.7815
 7256SOL    HW133230   0.721   2.138   7.400  0.4084  0.5964 -1.2622
 7256SOL    HW233231   0.630   2.098   7.300 -0.9605 -2.4900 -1.4343
 7257SOL     OW33232   0.672   3.712  11.206 -0.0969  0.3792 -0.1868
 7257SOL    HW133233   0.722   3.769  11.264 -1.0230 -1.0366  1.9947
 7257SOL    HW233234   0.602   3.686  11.266  1.7146  0.4128  1.9243
 7258SOL     OW33235   2.961   3.154   5.492  0.5163  0.2578  0.0416
 7258SOL    HW133236   2.892   3.175   5.555  1.6826  1.5943  0.8467
 7258SOL    HW233237   2.992   3.073   5.532  1.9397  0.6841 -0.2183
 7259SOL     OW33238   3.579   0.505   4.440 -0.0404  0.4146 -0.7738
 7259SOL    HW133239   3.514   0.451   4.484  2.1224 -1.2041  0.4048
 7259SOL    HW233240   3.578   0.475   4.349 -0.6747  0.1562 -0.6769
 7260SOL     OW33241   1.425   4.103   7.617 -0.6614 -0.3083 -0.5724
 7260SOL    HW133242   1.502   4.158   7.603  0.6007 -1.6102  1.4440
 7260SOL    HW233243   1.458   4.020   7.583  0.1941 -1.0762  2.1418
 7261SOL     OW33244   0.960   2.934   1.400 -0.1181 -0.5679  0.4863
 7261SOL    HW133245   0.936   2.866   1.337 -1.1778 -0.2733  0.5744
 7261SOL    HW233246   0.872   2.935   1.438 -0.5233 -1.6761 -0.4158
 7262SOL     OW33247   4.075   4.504   7.709 -0.1805 -0.0712 -0.2951
 7262SOL    HW133248   4.067   4.474   7.618  1.7990 -3.8529  0.7844
 7262SOL    HW233249   4.160   4.547   7.712 -0.6869  0.8807  0.6474
 7263SOL     OW33250   0.242   2.198   4.577 -0.5728 -0.5226  0.2639
 7263SOL    HW133251   0.150   2.170   4.580 -1.1132  1.1746 -0.7914
 7263SOL    HW233252   0.256   2.216   4.484  1.1490  1.3833  0.8963
 7264SOL     OW33253   3.642   1.615   6.882 -0.6092 -0.3834  0.2703
 7264SOL    HW133254   3.564   1.571   6.848 -1.4045  0.2259  1.3034
 7264SOL    HW233255   3.696   1.540   6.906 -2.0325 -0.6562  2.5706
 7265SOL     OW33256   4.065   0.797   7.388  0.1389  0.3842 -0.4305
 7265SOL    HW133257   4.010   0.859   7.339 -1.9527 -0.6372  0.6242
 7265SOL    HW233258   4.151   0.836   7.378  0.2853 -0.3226 -1.9644
 7266SOL     OW33259   0.835   1.194  16.604  0.1654  0.7682 -0.1498
 7266SOL    HW133260   0.891   1.264  16.569  2.0641 -1.4963 -1.6364
 7266SOL    HW233261   0.748   1.212  16.569 -0.4083 -1.2206  0.2854
 7267SOL     OW33262   0.819   2.383   8.849 -0.1643  0.7350  0.8589
 7267SOL    HW133263   0.813   2.431   8.931  1.7961  1.0923  0.7751
 7267SOL    HW233264   0.891   2.320   8.856 -0.4685  0.3929  0.9526
 7268SOL     OW33265   2.143   2.903  10.538 -0.3117 -0.3604 -0.7225
 7268SOL    HW133266   2.179   2.883  10.452 -0.4125  0.0758 -0.8657
 7268SOL    HW233267   2.151   2.998  10.535  1.0416 -0.4149  1.4873
 7269SOL     OW33268   1.081   1.067   1.662 -0.3342  0.4412  0.4089
 7269SOL    HW133269   1.088   1.104   1.750  2.0124 -0.7763  0.7269
 7269SOL    HW233270   1.081   1.154   1.622 -0.0751  1.9266  3.6213
 7270SOL     OW33271   0.825   1.550   4.355  0.1221 -0.5245  0.3873
 7270SOL    HW133272   0.909   1.571   4.314 -0.5247 -1.5553 -1.4843
 7270SOL    HW233273   0.845   1.584   4.442 -5.6583 -0.2883  1.5890
 7271SOL     OW33274   3.506   4.301   5.405 -0.4629  0.8542 -0.4415
 7271SOL    HW133275   3.499   4.218   5.452  0.8677  0.9343 -0.0931
 7271SOL    HW233276   3.503   4.356   5.483 -1.0491  0.2289 -0.0190
 7272SOL     OW33277   3.647   3.200   4.498 -0.1007 -0.2068  0.5294
 7272SOL    HW133278   3.696   3.127   4.536 -0.2837 -1.1819 -1.1477
 7272SOL    HW233279   3.619   3.249   4.577  3.1112  1.5140  0.5847
 7273SOL     OW33280   2.098   4.169   9.358 -0.1280  0.4090 -0.0878
 7273SOL    HW133281   2.166   4.227   9.324  0.2665  0.0450  0.0758
 7273SOL    HW233282   2.057   4.220   9.427  1.4097  0.4379  0.8039
 7274SOL     OW33283   3.680   4.604   6.389 -0.3225 -0.6030  0.2737
 7274SOL    HW133284   3.704   4.653   6.311 -1.7249 -1.4302 -0.6612
 7274SOL    HW233285   3.731   4.648   6.458 -0.4271 -1.1579  0.7033
 7275SOL     OW33286   4.469   0.649   3.385 -0.2058  0.4596 -0.5128
 7275SOL    HW133287   4.481   0.577   3.323  1.5745  2.2957 -2.2959
 7275SOL    HW233288   4.374   0.659   3.383 -0.1358  1.2378 -0.0451
 7276SOL     OW33289   2.832   0.762   8.095 -0.3359  0.5859  0.6124
 7276SOL    HW133290   2.859   0.686   8.147 -1.6577 -0.3551 -0.0792
 7276SOL    HW233291   2.910   0.775   8.042  0.9561 -0.9096  2.1417
 7277SOL     OW33292   1.920   2.065   6.235  0.2641  0.4690  1.0021
 7277SOL    HW133293   1.919   2.150   6.279  1.1372  1.2240 -0.4569
 7277SOL    HW233294   1.852   2.019   6.284 -1.4224  1.2977 -0.5260
 7278SOL     OW33295   0.034   1.513   8.516  0.1072  0.0845 -0.0904
 7278SOL    HW133296   4.687   1.452   8.540 -0.0194  0.4312  0.4281
 7278SOL    HW233297   0.082   1.504   8.599 -0.3416 -0.5373  0.0986
 7279SOL     OW33298   0.351   0.954  11.387 -0.5042 -0.4282 -0.4933
 7279SOL    HW133299   0.340   0.988  11.476  0.7667 -2.1839  0.3514
 7279SOL    HW233300   0.430   1.000  11.360 -0.9481  0.0375 -0.9832
 7280SOL     OW33301   1.340   3.353  15.621  0.2059  0.3000  0.4077
 7280SOL    HW133302   1.371   3.375  15.533 -2.4610 -0.0842 -0.6342
 7280SOL    HW233303   1.352   3.258  15.617  1.0107  0.4217 -0.1142
 7281SOL     OW33304   3.296   3.510   8.562 -0.1148  0.6372 -0.2436
 7281SOL    HW133305   3.207   3.535   8.539  0.2381  1.0009 -1.1823
 7281SOL    HW233306   3.330   3.597   8.581 -1.4992  0.8403  1.3270
 7282SOL     OW33307   0.925   0.780   7.053 -1.0213 -0.2183  0.2084
 7282SOL    HW133308   0.925   0.762   7.147  0.3163  1.0798  0.4678
 7282SOL    HW233309   0.922   0.690   7.023  0.7691 -0.3615  0.4472
 7283SOL     OW33310   3.953   2.549   2.113  0.0264 -0.3499 -0.2650
 7283SOL    HW133311   4.031   2.493   2.122  1.6719  2.0309  0.2625
 7283SOL    HW233312   3.990   2.636   2.099  0.9706 -0.7489 -0.2721
 7284SOL     OW33313   1.870   3.930   1.300 -0.3135 -0.0029 -0.2239
 7284SOL    HW133314   1.856   3.848   1.347  0.2133 -0.2306 -0.4659
 7284SOL    HW233315   1.872   3.909   1.206 -0.2795 -1.5375  0.1256
 7285SOL     OW33316   2.045   3.375   1.338  0.1466 -0.4885 -0.3962
 7285SOL    HW133317   2.133   3.413   1.329 -0.3307  0.8344  0.5670
 7285SOL    HW233318   2.061   3.311   1.407 -2.7298 -0.1679  0.5425
 7286SOL     OW33319   3.375   4.276   4.078  0.2514 -0.0378 -0.4807
 7286SOL    HW133320   3.428   4.313   4.007 -0.4952  1.5608 -0.1887
 7286SOL    HW233321   3.285   4.283   4.047  0.6266  0.2484 -1.4830
 7287SOL     OW33322   2.270   1.769   9.274 -0.3683 -0.4170 -0.0278
 7287SOL    HW133323   2.345   1.823   9.247 -0.0786 -1.3881 -1.1624
 7287SOL    HW233324   2.225   1.827   9.335  3.0859  2.7029 -0.4076
 7288SOL     OW33325   0.965   0.576   4.990  0.4173  0.0297 -0.2947
 7288SOL    HW133326   0.879   0.604   4.959 -0.6904 -2.6890  0.3158
 7288SOL    HW233327   0.959   0.481   5.002 -0.2610  0.4198  2.4066
 7289SOL     OW33328   1.038   4.179   6.523  0.2317  0.1370  0.1314
 7289SOL    HW133329   1.131   4.158   6.518  0.5386  1.9843 -1.7833
 7289SOL    HW233330   0.998   4.106   6.571 -2.6338  1.1947 -0.6931
 7290SOL     OW33331   3.529   2.883  13.178 -0.7067  0.1575 -0.1337
 7290SOL    HW133332   3.591   2.925  13.119  1.1686  0.0135  1.7211
 7290SOL    HW233333   3.444   2.899  13.136 -1.4886  0.1342  1.4019
 7291SOL     OW33334   3.309   2.063  16.416  0.1088  0.0021 -0.0804
 7291SOL    HW133335   3.400   2.083  16.394  0.6260 -0.7986  1.3274
 7291SOL    HW233336   3.296   2.129  16.485 -1.0714 -0.6236  0.2960
 7292SOL     OW33337   0.375   0.342  17.030  0.3403 -0.5588  0.0047
 7292SOL    HW133338   0.302   0.377  16.979  0.2272 -0.8773 -0.0540
 7292SOL    HW233339   0.372   0.406  17.101  0.2532 -1.9467  1.2339
 7293SOL     OW33340   3.273   2.305   5.854  0.7518 -0.1547 -0.4348
 7293SOL    HW133341   3.201   2.246   5.831  0.6014  0.5343 -1.7303
 7293SOL    HW233342   3.299   2.329   5.765 -0.0167 -1.6162 -1.0611
 7294SOL     OW33343   3.531   3.535   6.117 -0.2157  0.2014  0.2896
 7294SOL    HW133344   3.571   3.622   6.121  0.3641 -0.0615  0.1683
 7294SOL    HW233345   3.574   3.490   6.189  0.2260 -2.5599 -1.7082
 7295SOL     OW33346   3.599   1.519  12.852 -0.5918 -0.0870  0.1985
 7295SOL    HW133347   3.526   1.572  12.820 -0.0110  1.4900  1.4689
 7295SOL    HW233348   3.609   1.455  12.782 -1.1646 -0.5237  0.5204
 7296SOL     OW33349   0.890   1.028  17.666  0.3827 -0.3668  0.2161
 7296SOL    HW133350   0.975   0.988  17.684 -0.0202 -0.3382  2.2151
 7296SOL    HW233351   0.879   1.015  17.572  2.1976  1.8916 -0.3319
 7297SOL     OW33352   0.855   2.270  12.339 -0.5513  0.1340 -0.2507
 7297SOL    HW133353   0.934   2.309  12.378 -1.9967  1.3340  1.5084
 7297SOL    HW233354   0.831   2.329  12.268  0.5336  1.9242  0.8635
 7298SOL     OW33355   0.162   4.267   7.729 -0.4557  0.0039 -0.2543
 7298SOL    HW133356   0.121   4.206   7.791 -1.6153  1.7203  0.6863
 7298SOL    HW233357   0.133   4.350   7.767  1.4889  0.6457 -0.2062
 7299SOL     OW33358   2.731   3.140   8.705  0.0296 -0.2967  0.3654
 7299SOL    HW133359   2.662   3.085   8.741  0.9461 -0.8150  1.3310
 7299SOL    HW233360   2.803   3.082   8.730  0.6910 -0.0402 -0.9385
 7300SOL     OW33361   2.125   2.766  13.532  0.2857  0.0393 -0.1932
 7300SOL    HW133362   2.106   2.816  13.453  1.2118 -1.6716 -1.4882
 7300SOL    HW233363   2.120   2.836  13.597 -0.1729  2.1444 -2.5001
 7301SOL     OW33364   3.886   0.125   5.971 -0.7010  0.0401 -0.2147
 7301SOL    HW133365   3.812   0.176   5.938 -1.9073 -0.3248  1.8975
 7301SOL    HW233366   3.850   0.077   6.046 -1.1903  0.7464 -0.0045
 7302SOL     OW33367   2.210   1.892   4.256  0.4971 -0.8776  0.1276
 7302SOL    HW133368   2.185   1.812   4.303  3.0169 -1.9932 -0.4337
 7302SOL    HW233369   2.162   1.874   4.175 -1.5137  2.5705  0.5570
 7303SOL     OW33370   2.840   1.558   8.943  0.2028 -0.5243 -0.2855
 7303SOL    HW133371   2.838   1.649   8.973  0.0504 -0.7206  0.2879
 7303SOL    HW233372   2.755   1.525   8.970 -0.9364  1.2978 -1.6673
 7304SOL     OW33373   1.725   4.483   2.320 -0.2047 -0.3524 -0.0871
 7304SOL    HW133374   1.714   4.553   2.255 -0.3727 -0.6789 -0.4110
 7304SOL    HW233375   1.687   4.409   2.272  0.4889  0.3330 -1.6699
 7305SOL     OW33376   3.176   4.396  14.747  0.1901  0.4945  0.3266
 7305SOL    HW133377   3.215   4.346  14.676 -0.5547 -1.2529  1.1390
 7305SOL    HW233378   3.082   4.376  14.748  0.1214  0.6513 -2.7270
 7306SOL     OW33379   1.387   3.136   4.849  0.5250  0.0916  0.8592
 7306SOL    HW133380   1.348   3.196   4.786  1.1475 -1.4894 -1.0162
 7306SOL    HW233381   1.432   3.070   4.797  1.5549  2.3924 -1.1633
 7307SOL     OW33382   0.384   1.955   8.615 -0.2595  0.1119  0.1489
 7307SOL    HW133383   0.427   1.871   8.598 -0.1247  0.0257  0.8985
 7307SOL    HW233384   0.460   2.010   8.637 -2.0354  2.3076  0.8723
 7308SOL     OW33385   0.891   3.065   5.702  0.2458  0.2758 -0.1569
 7308SOL    HW133386   0.820   3.125   5.680 -0.8051  0.0052  2.4451
 7308SOL    HW233387   0.856   3.004   5.637  1.8792  0.7394 -1.4696
 7309SOL     OW33388   1.140   1.970   5.935  0.1253  0.0657  0.4155
 7309SOL    HW133389   1.101   2.020   6.007 -2.4821  0.6926 -1.4425
 7309SOL    HW233390   1.057   1.956   5.889  1.4856 -0.4952 -1.8363
 7310SOL     OW33391   0.593   1.637   0.668 -0.4468 -0.0389 -0.1134
 7310SOL    HW133392   0.662   1.578   0.699 -0.3342 -0.3776 -1.0134
 7310SOL    HW233393   0.552   1.571   0.613 -1.6603  1.6674 -1.2560
 7311SOL     OW33394   2.194   3.010  15.868  0.2469  0.3817  0.2693
 7311SOL    HW133395   2.159   2.931  15.827 -0.6805  0.8399  0.1709
 7311SOL    HW233396   2.204   2.977  15.957 -1.2802 -0.9274 -0.0510
 7312SOL     OW33397   2.709   0.946   8.819  0.0561  0.2325 -0.1300
 7312SOL    HW133398   2.645   0.930   8.749  0.2152 -1.7566  0.1753
 7312SOL    HW233399   2.689   1.029   8.861 -1.6955 -0.0759 -0.3525
 7313SOL     OW33400   3.158   3.287   8.638 -0.1284 -0.4854 -0.4152
 7313SOL    HW133401   3.164   3.279   8.543 -1.3535  1.4497 -0.6563
 7313SOL    HW233402   3.225   3.354   8.656 -1.5190  0.8884 -0.3969
 7314SOL     OW33403   1.431   1.104   9.598 -0.9233 -0.3270 -0.5639
 7314SOL    HW133404   1.461   1.049   9.671  1.1227  1.4280 -0.0645
 7314SOL    HW233405   1.362   1.048   9.563 -2.3470  1.2813 -0.2996
 7315SOL     OW33406   2.968   2.508   4.883  0.5156 -0.0754  0.0127
 7315SOL    HW133407   2.887   2.557   4.865 -0.4095 -0.9113  1.8886
 7315SOL    HW233408   2.981   2.455   4.805 -0.4600 -0.4694  0.1101
 7316SOL     OW33409   3.427   1.714  14.948  0.2322 -0.3483  0.6278
 7316SOL    HW133410   3.403   1.750  14.863 -1.2838 -1.1366  0.7308
 7316SOL    HW233411   3.356   1.754  14.999  0.6523  0.4866  0.5614
 7317SOL     OW33412   2.036   3.113   7.600 -0.2560  0.4292  0.1275
 7317SOL    HW133413   1.956   3.097   7.551 -0.3878 -0.1452  0.5294
 7317SOL    HW233414   2.000   3.124   7.688  0.7529  0.8739  0.4955
 7318SOL     OW33415   3.848   0.030   2.313  0.4531  0.4334  0.0696
 7318SOL    HW133416   3.775   0.020   2.374  0.4733 -2.4553 -0.4038
 7318SOL    HW233417   3.919   0.061   2.371 -0.3640 -0.2602  1.4508
 7319SOL     OW33418   4.706   1.712   3.505  0.3623  0.3402  0.0309
 7319SOL    HW133419   4.682   1.701   3.413 -0.9224  0.5710  0.3340
 7319SOL    HW233420   0.034   1.633   3.523 -0.9876 -0.7982 -1.2859
 7320SOL     OW33421   3.967   0.532   4.316  0.1641 -0.1584 -0.1847
 7320SOL    HW133422   3.995   0.515   4.226  0.4233 -0.8121  0.0277
 7320SOL    HW233423   3.990   0.447   4.352  0.2228 -0.1304 -0.1568
 7321SOL     OW33424   3.089   1.606   2.700 -0.2247 -0.9159  0.9380
 7321SOL    HW133425   3.098   1.521   2.656 -2.4224 -1.0760  0.7924
 7321SOL    HW233426   3.150   1.656   2.646 -0.9264 -0.8168  0.2436
 7322SOL     OW33427   1.965   3.614   1.011 -0.8034  0.1595  0.2896
 7322SOL    HW133428   1.990   3.621   0.919 -2.0420 -3.3002 -0.2758
 7322SOL    HW233429   1.906   3.688   1.024  0.5411  1.2012  0.4877
 7323SOL     OW33430   1.339   2.780   4.034 -0.4160  0.1404  0.0704
 7323SOL    HW133431   1.347   2.862   4.084  0.3342 -0.3042  0.6774
 7323SOL    HW233432   1.430   2.752   4.027 -0.5592 -0.4924  0.6985
 7324SOL     OW33433   2.295   0.545  13.996 -0.0162  0.2628  0.3176
 7324SOL    HW133434   2.224   0.608  14.009  0.4620  0.4689  1.9301
 7324SOL    HW233435   2.284   0.475  14.059 -1.5684 -0.0036 -0.2543
 7325SOL     OW33436   3.508   1.217  10.625 -0.0197 -0.2008  0.2394
 7325SOL    HW133437   3.496   1.311  10.637 -2.0173 -0.3233 -0.9060
 7325SOL    HW233438   3.598   1.223  10.591 -0.4682  2.4952 -0.4270
 7326SOL     OW33439   3.444   3.863  16.463  0.4227 -0.0931 -0.6525
 7326SOL    HW133440   3.427   3.810  16.541 -2.0208  1.9391  0.2190
 7326SOL    HW233441   3.534   3.835  16.450  0.5339 -0.4599  0.9339
 7327SOL     OW33442   1.453   3.740   6.437 -0.5785 -0.5399 -0.1299
 7327SOL    HW133443   1.474   3.676   6.506 -1.2467 -0.8220 -0.1956
 7327SOL    HW233444   1.531   3.739   6.381 -0.6279 -1.3716 -0.1825
 7328SOL     OW33445   2.839   1.764   0.383 -0.2519  0.0840  0.2330
 7328SOL    HW133446   2.772   1.782   0.315 -0.4813  0.1775  0.4830
 7328SOL    HW233447   2.922   1.779   0.337 -0.3475 -0.8435 -0.2515
 7329SOL     OW33448   1.603   0.894   3.132 -0.3692  0.4399 -0.3611
 7329SOL    HW133449   1.533   0.959   3.143 -1.4668 -0.6873 -0.6356
 7329SOL    HW233450   1.586   0.860   3.044  1.3513 -0.9858 -0.1307
 7330SOL     OW33451   2.003   2.887   7.367  0.2252 -0.1903  0.3122
 7330SOL    HW133452   1.927   2.890   7.309 -0.0165 -0.5675  0.6053
 7330SOL    HW233453   1.955   2.888   7.450 -0.2846 -1.7553  0.0388
 7331SOL     OW33454   0.675   2.732  15.913 -0.4229 -0.4702 -0.3887
 7331SOL    HW133455   0.686   2.826  15.899 -1.2937 -0.2091  0.6819
 7331SOL    HW233456   0.767   2.722  15.939 -0.0580  1.1961 -1.0229
 7332SOL     OW33457   1.729   2.215   2.393 -0.2624  0.1526  0.8919
 7332SOL    HW133458   1.811   2.235   2.439  1.1598 -0.5803 -1.2934
 7332SOL    HW233459   1.742   2.260   2.310 -0.4943  1.8754  1.7939
 7333SOL     OW33460   2.678   0.061   2.323  0.0107 -0.1683 -0.4515
 7333SOL    HW133461   2.746   0.009   2.367 -1.0553  0.9727  2.5854
 7333SOL    HW233462   2.732   0.121   2.271  1.3876 -1.1984 -0.2160
 7334SOL     OW33463   0.758   4.550   7.493 -1.2048 -0.0059 -0.6100
 7334SOL    HW133464   0.814   4.472   7.492 -1.5780 -0.2995  1.3317
 7334SOL    HW233465   0.773   4.585   7.581 -0.3637  1.4979 -1.3542
 7335SOL     OW33466   2.501   4.559   4.291  0.2097 -0.8677 -0.4274
 7335SOL    HW133467   2.421   4.609   4.277  1.6218  1.2886 -0.6898
 7335SOL    HW233468   2.556   4.582   4.216  0.1063  2.0669  0.4059
 7336SOL     OW33469   2.619   2.283   6.443  0.5603 -0.4948 -0.4322
 7336SOL    HW133470   2.528   2.295   6.469  0.1994 -1.9839 -1.0253
 7336SOL    HW233471   2.660   2.326   6.518  1.1978  0.8447 -1.5462
 7337SOL     OW33472   1.784   3.465   1.423 -0.6972  0.3081 -0.1354
 7337SOL    HW133473   1.826   3.384   1.395  0.0096 -0.2460  2.5321
 7337SOL    HW233474   1.788   3.451   1.518  1.0861  1.8267  0.0321
 7338SOL     OW33475   2.535   1.727   3.709 -0.4632 -0.4243 -0.7724
 7338SOL    HW133476   2.508   1.669   3.780 -1.4911 -1.1942 -1.7916
 7338SOL    HW233477   2.590   1.789   3.757 -0.9836 -1.4611  1.1485
 7339SOL     OW33478   3.863   0.936  10.730 -0.4546  0.2585  0.0832
 7339SOL    HW133479   3.948   0.926  10.773  0.1471 -0.1897 -1.2253
 7339SOL    HW233480   3.810   0.922  10.809  0.8534  0.8621  1.0770
 7340SOL     OW33481   3.136   3.939   2.842  0.6190  0.2257 -0.0697
 7340SOL    HW133482   3.167   3.901   2.924  0.9610  0.1193 -0.2495
 7340SOL    HW233483   3.041   3.935   2.848  0.6642 -0.7889 -0.0680
 7341SOL     OW33484   0.497   0.484   5.857  0.2420 -0.2115  0.2635
 7341SOL    HW133485   0.429   0.534   5.812  1.2023  0.1293 -0.7755
 7341SOL    HW233486   0.480   0.508   5.948  2.1876 -1.9666  1.0766
 7342SOL     OW33487   1.954   2.796   9.370  0.3708  0.0277 -0.3586
 7342SOL    HW133488   1.977   2.881   9.407  1.6920 -0.3474 -0.3102
 7342SOL    HW233489   2.035   2.758   9.405 -0.7366 -0.8100  1.2726
 7343SOL     OW33490   1.566   4.462   3.395 -0.1702  0.2280 -0.8820
 7343SOL    HW133491   1.515   4.381   3.395 -0.5987  0.4903  0.8786
 7343SOL    HW233492   1.550   4.489   3.304  0.2881 -0.6687 -1.2292
 7344SOL     OW33493   2.078   1.048   5.649  0.7885 -0.0539 -0.4610
 7344SOL    HW133494   2.021   0.976   5.675 -0.0157  0.3678 -1.0759
 7344SOL    HW233495   2.150   1.001   5.606  1.1789  0.9585 -0.9260
 7345SOL     OW33496   1.769   1.277   2.027  0.4054  0.0042 -0.2190
 7345SOL    HW133497   1.760   1.202   2.086  0.1011 -1.2128 -1.8176
 7345SOL    HW233498   1.829   1.330   2.080  1.1599 -1.8850  0.8259
 7346SOL     OW33499   2.251   4.143   8.881 -0.5246 -0.1916  0.4503
 7346SOL    HW133500   2.158   4.159   8.893 -0.6001 -0.5711  0.3581
 7346SOL    HW233501   2.243   4.079   8.810 -0.0436 -0.3226  0.5117
 7347SOL     OW33502   0.906   2.121   5.582  0.1769 -0.2250 -0.0767
 7347SOL    HW133503   0.961   2.197   5.603  0.0438 -0.4054  0.9410
 7347SOL    HW233504   0.829   2.162   5.544  1.5682  1.7050 -0.8060
 7348SOL     OW33505   1.071   3.849   7.000  0.2846  0.4452 -0.0438
 7348SOL    HW133506   1.163   3.866   7.017  0.4318 -0.6377  0.2693
 7348SOL    HW233507   1.037   3.887   7.081 -0.1284  2.2902 -1.0825
 7349SOL     OW33508   0.860   0.323   8.639 -0.2550 -0.3128 -0.0140
 7349SOL    HW133509   0.954   0.342   8.642  0.1260 -2.1379 -1.0264
 7349SOL    HW233510   0.843   0.330   8.545  2.7882 -1.9602 -0.7091
 7350SOL     OW33511   2.732   0.452   2.355  0.1386 -0.3462 -0.2191
 7350SOL    HW133512   2.761   0.371   2.313  0.2112  0.1521 -1.1218
 7350SOL    HW233513   2.753   0.520   2.290 -1.5007 -1.3437 -1.7962
 7351SOL     OW33514   2.647   2.105   3.147  0.1278 -0.4222  0.4224
 7351SOL    HW133515   2.735   2.137   3.126 -0.2226  0.4144  0.2043
 7351SOL    HW233516   2.603   2.105   3.061 -0.5124  1.2412  0.7459
 7352SOL     OW33517   0.246   2.992   0.526  0.3240 -0.3136 -0.0021
 7352SOL    HW133518   0.242   2.985   0.430  1.3565  0.0928 -0.0716
 7352SOL    HW233519   0.168   3.047   0.536 -0.3261 -0.8969 -1.7188
 7353SOL     OW33520   3.797   0.101   7.907 -0.0332 -0.1590 -0.1453
 7353SOL    HW133521   3.761   0.165   7.968 -1.3118  1.1454 -2.2846
 7353SOL    HW233522   3.728   0.049   7.865  0.0440 -0.0847 -0.3645
 7354SOL     OW33523   2.309   1.336   3.967  0.3412 -0.1961 -0.0935
 7354SOL    HW133524   2.346   1.284   4.039 -1.9798 -2.2847 -0.4423
 7354SOL    HW233525   2.226   1.292   3.950  0.0509 -1.1231  3.5607
 7355SOL     OW33526   0.121   4.393   6.997  0.2013 -0.0085  0.1098
 7355SOL    HW133527   0.195   4.364   6.943 -0.4696 -3.2019  0.8873
 7355SOL    HW233528   0.125   4.331   7.069  1.3592 -0.5961 -0.4636
 7356SOL     OW33529   4.013   1.592   1.905  0.0195 -0.2658 -0.1316
 7356SOL    HW133530   4.017   1.497   1.889  1.3170 -0.2232 -0.0692
 7356SOL    HW233531   4.086   1.604   1.967  0.3461 -2.9258  0.0373
 7357SOL     OW33532   1.155   2.454   8.721 -0.2462  0.3922 -0.1223
 7357SOL    HW133533   1.130   2.453   8.814 -2.0837 -0.7657 -0.6273
 7357SOL    HW233534   1.246   2.427   8.730 -1.0425 -1.5131  2.2515
 7358SOL     OW33535   4.561   0.302   4.143  0.3928  0.1279  0.1155
 7358SOL    HW133536   4.638   0.249   4.124  2.1629  1.7708  2.8627
 7358SOL    HW233537   4.499   0.275   4.075 -0.2631  2.0703 -0.0480
 7359SOL     OW33538   4.302   1.043   9.014 -0.1323 -0.1184  0.0269
 7359SOL    HW133539   4.234   1.071   8.952 -0.1083  1.6880  0.8254
 7359SOL    HW233540   4.296   1.111   9.080  0.9800 -0.9608  0.9890
 7360SOL     OW33541   1.733   3.061  12.236 -0.1120 -0.2847  0.2813
 7360SOL    HW133542   1.709   2.969  12.239 -0.4670 -0.1850  0.5211
 7360SOL    HW233543   1.823   3.046  12.208  0.6031  0.7889  2.0115
 7361SOL     OW33544   4.374   2.643   6.876  0.4129 -0.1889  0.3059
 7361SOL    HW133545   4.428   2.722   6.868  0.2446 -0.0618  0.4329
 7361SOL    HW233546   4.403   2.621   6.964  1.7817  0.3703 -0.0055
 7362SOL     OW33547   3.273   3.998  15.112  0.1548 -0.3985  0.0878
 7362SOL    HW133548   3.334   4.003  15.186  1.4162 -2.1229 -0.8240
 7362SOL    HW233549   3.188   4.014  15.154 -0.0627 -3.2357  0.7214
 7363SOL     OW33550   4.088   3.454  13.819 -0.0591 -0.3930 -0.1239
 7363SOL    HW133551   4.043   3.370  13.827  1.6204 -1.7900 -5.3838
 7363SOL    HW233552   4.040   3.488  13.743  1.3909 -2.1247 -1.8038
 7364SOL     OW33553   0.430   3.141   7.068 -0.0722  0.0255 -0.4483
 7364SOL    HW133554   0.417   3.080   6.995  0.0553 -0.8005  0.2239
 7364SOL    HW233555   0.483   3.091   7.129  0.0397  1.7395  0.8484
 7365SOL     OW33556   3.323   2.527   7.189  0.2474  0.0285  0.1230
 7365SOL    HW133557   3.371   2.533   7.272 -1.9596  2.0998  1.2679
 7365SOL    HW233558   3.240   2.554   7.228 -0.3617 -1.4328 -0.1652
 7366SOL     OW33559   4.230   3.637   5.433  0.5219 -0.6489  0.4387
 7366SOL    HW133560   4.249   3.573   5.502  0.8970 -2.3709 -1.2386
 7366SOL    HW233561   4.196   3.580   5.364 -1.8918  0.1496  0.9496
 7367SOL     OW33562   0.813   0.940   5.407 -0.0256  0.0381 -0.1515
 7367SOL    HW133563   0.826   0.854   5.366 -0.9233  0.3265 -1.0515
 7367SOL    HW233564   0.814   0.994   5.328  2.7532 -0.1884 -0.2435
 7368SOL     OW33565   3.312   4.111   7.012  0.1833 -0.0008  0.4156
 7368SOL    HW133566   3.276   4.082   6.928 -0.8032 -0.0215  0.8410
 7368SOL    HW233567   3.255   4.071   7.078 -0.9089  2.3478  0.8894
 7369SOL     OW33568   0.722   1.677   1.890 -0.1461 -0.1934  0.4005
 7369SOL    HW133569   0.687   1.645   1.973 -0.2294 -0.2970  0.3258
 7369SOL    HW233570   0.803   1.626   1.890  0.4563  0.7648  1.4800
 7370SOL     OW33571   2.505   1.808  11.515  0.1800  0.2459 -0.0084
 7370SOL    HW133572   2.510   1.874  11.584 -0.0780  1.7606 -1.4420
 7370SOL    HW233573   2.583   1.838  11.470 -0.6364  1.8137 -0.3684
 7371SOL     OW33574   0.947   3.006   4.159  0.1237  0.1551 -0.4306
 7371SOL    HW133575   0.879   2.939   4.150 -0.3588  0.5676  0.1852
 7371SOL    HW233576   0.937   3.059   4.079 -0.5820 -0.2563 -0.6140
 7372SOL     OW33577   1.471   1.564   4.957  0.3827 -0.4984 -0.1743
 7372SOL    HW133578   1.404   1.501   4.981  0.3033 -0.3742 -0.0689
 7372SOL    HW233579   1.467   1.620   5.034  0.7594  0.3412 -0.7604
 7373SOL     OW33580   3.613   3.721   8.761  0.2396  0.2974  0.1697
 7373SOL    HW133581   3.629   3.812   8.786  1.1915  0.4426 -0.9466
 7373SOL    HW233582   3.527   3.727   8.720  0.2472  0.3337  0.1594
 7374SOL     OW33583   0.972   2.586  14.906  0.1213 -0.1100  0.2284
 7374SOL    HW133584   0.895   2.554  14.858  1.3253 -0.6174 -1.3756
 7374SOL    HW233585   1.045   2.579  14.844  0.3842  1.7607  0.3457
 7375SOL     OW33586   0.189   3.726  15.895 -0.1521 -0.8097  0.9420
 7375SOL    HW133587   0.175   3.790  15.965 -0.7047 -0.4986  0.5503
 7375SOL    HW233588   0.284   3.727  15.892 -0.1224  0.4839  2.1073
 7376SOL     OW33589   3.702   1.674   4.176  0.1154 -0.1408  0.0694
 7376SOL    HW133590   3.737   1.749   4.129 -2.3929  1.2698  0.4518
 7376SOL    HW233591   3.613   1.655   4.147  0.4782  0.4441 -1.3849
 7377SOL     OW33592   2.548   0.384   8.087  0.2024  0.0260 -0.1530
 7377SOL    HW133593   2.520   0.465   8.129 -1.7182 -0.9712  0.5044
 7377SOL    HW233594   2.495   0.314   8.126 -0.9908 -0.1576 -2.0725
 7378SOL     OW33595   1.388   3.422  14.316  0.0250 -0.6593  0.2903
 7378SOL    HW133596   1.401   3.365  14.240 -1.7769  0.9583 -1.2312
 7378SOL    HW233597   1.300   3.411  14.352 -0.9759  1.3737 -1.5303
 7379SOL     OW33598   1.981   3.518  10.016  0.1626 -0.5119 -0.3296
 7379SOL    HW133599   2.016   3.599   9.982 -2.1730  0.8056  0.3599
 7379SOL    HW233600   2.001   3.523  10.110 -1.8868 -0.7279  0.1426
 7380SOL     OW33601   0.707   4.070  12.005  0.0130  0.1082 -0.1371
 7380SOL    HW133602   0.709   4.043  12.097  2.5181  1.0859  0.0952
 7380SOL    HW233603   0.681   4.162  12.004  0.0584  0.1286  2.0864
 7381SOL     OW33604   2.758   0.058   1.715 -0.2392  0.4785 -0.1609
 7381SOL    HW133605   2.782   0.150   1.732  0.6508  0.2026  0.0628
 7381SOL    HW233606   2.842   0.025   1.683 -0.9722 -0.0452 -1.4973
 7382SOL     OW33607   1.241   1.796   5.424  0.7115 -0.0412 -0.0933
 7382SOL    HW133608   1.151   1.799   5.392  0.8975 -0.4903 -0.6542
 7382SOL    HW233609   1.241   1.873   5.481  0.9638  0.4221 -0.7060
 7383SOL     OW33610   0.319   1.653   7.629  0.4407  0.9273  0.0087
 7383SOL    HW133611   0.252   1.620   7.688  0.7387 -0.4886 -0.4327
 7383SOL    HW233612   0.387   1.690   7.685  0.1859  1.7461 -0.2155
 7384SOL     OW33613   1.786   2.725  14.002 -0.7425  0.2636 -0.1362
 7384SOL    HW133614   1.698   2.706  14.034  0.2616 -3.1005  0.5493
 7384SOL    HW233615   1.843   2.704  14.076 -0.8423  0.1776 -0.0844
 7385SOL     OW33616   1.421   0.876   2.053 -0.2456 -0.0070 -0.2633
 7385SOL    HW133617   1.422   0.907   1.963 -0.1199 -0.8223 -0.5446
 7385SOL    HW233618   1.468   0.943   2.103  0.8022 -0.6270 -0.4172
 7386SOL     OW33619   3.826   4.380   8.584 -0.1447 -0.2039  0.1330
 7386SOL    HW133620   3.811   4.435   8.661 -0.5022 -0.4358  0.2309
 7386SOL    HW233621   3.906   4.338   8.614  1.6585  2.0987 -1.4421
 7387SOL     OW33622   3.642   2.073  10.070 -0.1500 -0.0432  0.2798
 7387SOL    HW133623   3.702   2.116  10.130  0.5099  0.4613 -0.7555
 7387SOL    HW233624   3.662   2.122   9.991  1.0356 -0.0231  0.6032
 7388SOL     OW33625   4.488   2.909   2.541 -0.3694 -0.0837  0.2319
 7388SOL    HW133626   4.512   2.821   2.514 -1.7139  0.3647 -2.3443
 7388SOL    HW233627   4.559   2.953   2.493 -0.8171  0.0666 -0.2849
 7389SOL     OW33628   4.354   0.114   9.088  0.9951  0.1103  0.2313
 7389SOL    HW133629   4.333   0.179   9.155 -0.7294 -1.0836  0.8365
 7389SOL    HW233630   4.435   0.073   9.118  0.0498 -1.3518  0.7884
 7390SOL     OW33631   1.603   0.091   1.867 -0.0259 -0.3858 -0.2254
 7390SOL    HW133632   1.598   4.719   1.857 -0.8191 -0.2819 -0.8036
 7390SOL    HW233633   1.674   0.096   1.803  0.1305  2.1393  0.1370
 7391SOL     OW33634   1.052   3.684   7.673  0.6248  0.2233  0.0049
 7391SOL    HW133635   1.142   3.705   7.697  0.3099 -1.3518  2.5790
 7391SOL    HW233636   1.015   3.769   7.649 -0.2193  0.2896  1.5274
 7392SOL     OW33637   0.040   3.179   0.433 -0.2202  0.1817 -0.7200
 7392SOL    HW133638   4.704   3.250   0.409 -0.0331  0.8184  0.6801
 7392SOL    HW233639   0.040   3.140   0.346 -0.9326 -0.5367 -0.4022
 7393SOL     OW33640   3.261   0.519   1.968  0.2228  0.2532 -0.5713
 7393SOL    HW133641   3.342   0.526   1.919 -0.1771 -2.9113 -1.6479
 7393SOL    HW233642   3.287   0.559   2.051 -2.5470 -0.4766  0.6525
 7394SOL     OW33643   0.168   2.859   9.079 -0.2800  0.1659  0.0383
 7394SOL    HW133644   0.252   2.822   9.106 -0.4474 -0.3503 -0.1661
 7394SOL    HW233645   0.172   2.947   9.118  0.5798  0.2941 -0.3302
 7395SOL     OW33646   3.255   3.229   7.617  0.0716  0.1063  0.4144
 7395SOL    HW133647   3.199   3.153   7.627  0.8877  0.0126  4.1315
 7395SOL    HW233648   3.326   3.206   7.677 -1.3659 -2.6974  1.0405
 7396SOL     OW33649   3.827   2.517   0.729 -0.2170 -0.0532 -0.4743
 7396SOL    HW133650   3.797   2.427   0.723 -1.7039  0.5183 -1.7610
 7396SOL    HW233651   3.918   2.506   0.704 -0.0546  0.6739 -0.2263
 7397SOL     OW33652   0.885   4.298   3.493  0.2575  0.0322  0.2760
 7397SOL    HW133653   0.873   4.350   3.573  0.6673  0.0873  0.3053
 7397SOL    HW233654   0.910   4.361   3.425 -0.0960  0.6686  0.7389
 7398SOL     OW33655   4.666   2.901   0.455  0.2688 -0.7153  0.1378
 7398SOL    HW133656   4.617   2.906   0.538  0.7164 -1.2600  0.4310
 7398SOL    HW233657   4.619   2.946   0.385 -1.7860  0.2857  2.1286
 7399SOL     OW33658   4.031   1.094   3.679  0.6590  0.2877 -0.0520
 7399SOL    HW133659   4.028   1.080   3.774 -1.6239 -0.0921 -0.1831
 7399SOL    HW233660   4.111   1.144   3.667 -0.0096  1.2401 -0.5286
 7400SOL     OW33661   3.910   1.897   2.641 -0.0631  0.6886 -0.1009
 7400SOL    HW133662   3.906   1.886   2.546  0.1298  1.6091 -0.2142
 7400SOL    HW233663   3.817   1.888   2.659  0.4725 -2.2529  1.2537
 7401SOL     OW33664   0.418   2.151   2.889  0.9901 -0.1143  0.2855
 7401SOL    HW133665   0.369   2.233   2.882  1.0698  0.1429  2.7264
 7401SOL    HW233666   0.374   2.095   2.952  2.5993  0.1159  1.6027
 7402SOL     OW33667   3.719   2.697  12.822  0.4453  0.2237  0.3154
 7402SOL    HW133668   3.703   2.675  12.914  1.7570  3.1852  1.2228
 7402SOL    HW233669   3.742   2.789  12.825 -0.5089  0.4842 -0.4134
 7403SOL     OW33670   1.061   0.694  16.587 -0.0826 -0.2780  0.4105
 7403SOL    HW133671   1.104   0.624  16.538 -0.4185 -1.9839  2.5639
 7403SOL    HW233672   0.972   0.657  16.585 -0.4722  0.6932 -0.2837
 7404SOL     OW33673   0.505   1.897   5.848  0.4283  0.7087 -0.1950
 7404SOL    HW133674   0.545   1.893   5.761 -0.0180  0.1700 -0.3734
 7404SOL    HW233675   0.567   1.877   5.919  0.0364 -1.0443 -0.3519
 7405SOL     OW33676   0.548   0.315   8.352  0.2071  0.3590 -0.0499
 7405SOL    HW133677   0.542   0.233   8.400 -1.0082  0.2809 -0.3228
 7405SOL    HW233678   0.580   0.291   8.265  2.3992  4.4622 -0.3716
 7406SOL     OW33679   2.198   2.680   6.531 -0.4632  0.2736 -0.4865
 7406SOL    HW133680   2.233   2.746   6.590  0.4932 -1.3766  0.7914
 7406SOL    HW233681   2.199   2.743   6.459 -1.6720  3.4522  2.2763
 7407SOL     OW33682   0.474   0.652   3.863 -0.4150  0.3922  0.1581
 7407SOL    HW133683   0.477   0.680   3.955 -1.4858 -1.3522  0.7351
 7407SOL    HW233684   0.479   0.556   3.873 -1.2225  0.4459  1.1212
 7408SOL     OW33685   4.083   0.121   7.872 -0.5341  0.3699  0.1457
 7408SOL    HW133686   3.993   0.150   7.885 -0.6131  0.0314  0.3850
 7408SOL    HW233687   4.093   0.106   7.778 -1.6367  0.2362  0.0497
 7409SOL     OW33688   4.108   1.087   1.310  0.3452 -0.1756 -0.4379
 7409SOL    HW133689   4.056   1.151   1.260  1.9296  1.1739 -0.3386
 7409SOL    HW233690   4.054   1.065   1.386  2.7146 -0.7328  1.0619
 7410SOL     OW33691   0.025   3.511  15.461 -0.4024  0.1986  0.5112
 7410SOL    HW133692   0.019   3.532  15.554  1.4371  0.7649  0.5162
 7410SOL    HW233693   4.658   3.480  15.455 -0.2398 -0.0226 -0.8793
 7411SOL     OW33694   2.254   2.105   2.223  0.0102  0.0712  0.5559
 7411SOL    HW133695   2.241   2.161   2.300  0.2060 -1.5925  1.7834
 7411SOL    HW233696   2.181   2.141   2.172  0.0531  1.7443  1.6518
 7412SOL     OW33697   1.776   1.717  14.503  0.5002  0.1597  0.5025
 7412SOL    HW133698   1.830   1.645  14.468  0.7905  0.3676  0.5281
 7412SOL    HW233699   1.730   1.739  14.422  0.5210 -1.0092  0.1733
 7413SOL     OW33700   3.829   0.000  12.604  0.7224 -0.1543 -0.3148
 7413SOL    HW133701   3.751   4.668  12.616 -1.0142  2.3399 -0.0076
 7413SOL    HW233702   3.840   0.022  12.697 -1.7982 -0.8240  0.1705
 7414SOL     OW33703   2.772   3.796   6.600  0.1556 -0.0351  0.1019
 7414SOL    HW133704   2.842   3.829   6.544 -1.6480 -0.5853 -2.5026
 7414SOL    HW233705   2.822   3.744   6.663  3.1541  1.5846 -0.9778
 7415SOL     OW33706   3.224   0.474  12.162 -0.1481  0.7942 -0.1786
 7415SOL    HW133707   3.224   0.545  12.226 -1.8897  2.1014 -1.6245
 7415SOL    HW233708   3.314   0.444  12.174 -0.9105 -1.7860 -0.9727
 7416SOL     OW33709   3.407   3.432   5.676  0.1800 -0.2748  1.2668
 7416SOL    HW133710   3.406   3.337   5.665  0.6020  0.0416 -1.5074
 7416SOL    HW233711   3.423   3.462   5.586 -2.8870 -0.7041  0.5605
 7417SOL     OW33712   1.573   2.478   7.898 -0.2668 -0.0590  0.1136
 7417SOL    HW133713   1.522   2.532   7.838  0.5410 -1.2919 -1.6690
 7417SOL    HW233714   1.500   2.424   7.927 -1.5716  0.9268 -1.3599
 7418SOL     OW33715   1.358   4.403   6.871 -0.1584  0.4487  0.2077
 7418SOL    HW133716   1.317   4.440   6.950  0.8290  0.3114  0.7872
 7418SOL    HW233717   1.414   4.474   6.841 -0.1277  0.2980 -0.0862
 7419SOL     OW33718   1.002   1.527   6.574 -0.6011 -0.4913 -0.5502
 7419SOL    HW133719   1.060   1.454   6.598  1.8674  1.2056 -1.3641
 7419SOL    HW233720   1.073   1.587   6.550 -0.6191 -0.5870 -0.8453
 7420SOL     OW33721   3.087   2.706   7.226 -0.0686  0.9537 -0.0649
 7420SOL    HW133722   3.013   2.764   7.240  0.0780  0.6624  1.9035
 7420SOL    HW233723   3.146   2.777   7.201  0.7526  0.9461  1.8309
 7421SOL     OW33724   3.066   2.140   5.716  0.2104  0.2153 -0.5286
 7421SOL    HW133725   3.120   2.071   5.754 -0.0748  0.8799  1.1007
 7421SOL    HW233726   3.015   2.093   5.651 -1.4023  0.3127  0.6611
 7422SOL     OW33727   3.086   0.051   3.713  0.3350  0.6031 -0.1780
 7422SOL    HW133728   3.166   0.004   3.737 -0.4737 -0.1405  1.0596
 7422SOL    HW233729   3.019   4.718   3.754  0.1070  0.5523 -0.6142
 7423SOL     OW33730   1.798   0.924   3.579 -0.0740  0.5611 -0.1367
 7423SOL    HW133731   1.820   0.898   3.490  1.0132  0.1663  0.2493
 7423SOL    HW233732   1.736   0.992   3.553 -2.2041 -2.1908 -2.2725
 7424SOL     OW33733   0.776   3.918  11.786  0.1128  0.1587 -0.0835
 7424SOL    HW133734   0.730   3.976  11.846  1.3136  2.2170 -1.1375
 7424SOL    HW233735   0.852   3.901  11.842 -0.1141  0.1932  0.2369
 7425SOL     OW33736   0.867   3.696   4.851 -0.7991 -0.0271 -0.2508
 7425SOL    HW133737   0.793   3.756   4.857 -0.6633  0.3081 -1.8231
 7425SOL    HW233738   0.942   3.756   4.856  0.4361 -1.7212  1.4106
 7426SOL     OW33739   1.796   4.239   1.994  0.1436  0.1914  0.7004
 7426SOL    HW133740   1.853   4.308   1.961 -0.0199  0.0333  0.0962
 7426SOL    HW233741   1.862   4.179   2.029 -0.1499 -1.3148 -1.3327
 7427SOL     OW33742   2.854   3.813  10.383 -0.2945 -0.7305  0.2953
 7427SOL    HW133743   2.883   3.724  10.363  0.7576  0.0476 -1.6562
 7427SOL    HW233744   2.862   3.856  10.298 -1.2284 -1.5147 -0.1891
 7428SOL     OW33745   0.255   3.714   3.451  0.5225  0.4909 -0.1791
 7428SOL    HW133746   0.221   3.675   3.371 -0.1398  0.7414 -0.0245
 7428SOL    HW233747   0.176   3.719   3.505  0.9920 -1.5295  0.6966
 7429SOL     OW33748   3.971   0.855  16.777  0.6185  0.4889 -0.0599
 7429SOL    HW133749   3.879   0.849  16.802  0.6295  0.2615 -0.0772
 7429SOL    HW233750   3.988   0.926  16.840  0.1590 -0.5980  1.2919
 7430SOL     OW33751   2.840   1.453   2.457 -0.4812  0.2473 -0.4178
 7430SOL    HW133752   2.843   1.501   2.374 -2.2437  0.5737 -0.2888
 7430SOL    HW233753   2.825   1.525   2.518 -0.8774 -0.4109  0.2637
 7431SOL     OW33754   0.935   1.729   7.115  0.3141 -0.9008  0.5027
 7431SOL    HW133755   0.873   1.704   7.183 -0.5245 -1.5594 -0.5208
 7431SOL    HW233756   1.014   1.703   7.162  0.4407 -1.0307  0.2185
 7432SOL     OW33757   4.314   3.148  15.851  0.3388  0.2396  0.0027
 7432SOL    HW133758   4.369   3.225  15.866 -0.1097  0.7097 -0.7906
 7432SOL    HW233759   4.365   3.081  15.896  0.4555 -0.7472 -1.6131
 7433SOL     OW33760   4.142   4.640  16.154  0.0532 -0.1903 -0.2745
 7433SOL    HW133761   4.181   0.003  16.172  2.4969 -0.8547 -2.3967
 7433SOL    HW233762   4.106   4.618  16.240 -0.8741  1.9886 -0.0870
 7434SOL     OW33763   2.562   0.409  10.447  0.0137 -0.2494 -0.5354
 7434SOL    HW133764   2.535   0.334  10.500  0.9362  0.1424  0.4774
 7434SOL    HW233765   2.655   0.418  10.468 -0.1902  1.4378 -0.4029
 7435SOL     OW33766   4.453   3.903   7.604 -0.7808  0.3598  0.0632
 7435SOL    HW133767   4.449   3.915   7.699  2.0364 -1.8690  0.4438
 7435SOL    HW233768   4.366   3.872   7.580 -0.9729 -0.0251  1.2863
 7436SOL     OW33769   4.579   4.418   2.518  0.0381 -0.4122 -0.3636
 7436SOL    HW133770   4.666   4.438   2.483  0.5848  1.0582  1.8183
 7436SOL    HW233771   4.548   4.350   2.458  3.2447 -2.0029 -0.2254
 7437SOL     OW33772   2.987   3.972   5.378  0.2555 -0.4004 -0.5185
 7437SOL    HW133773   3.006   3.949   5.469 -1.2588  0.0534 -0.1037
 7437SOL    HW233774   3.065   3.936   5.336  0.0603 -1.6547  0.1837
 7438SOL     OW33775   0.661   0.599   4.550 -0.0254 -0.0180 -0.3201
 7438SOL    HW133776   0.724   0.659   4.509  0.8764  0.5554  1.8976
 7438SOL    HW233777   0.678   0.629   4.639 -1.1895  0.0812 -0.1268
 7439SOL     OW33778   0.238   0.416   8.649 -0.0507 -0.5698 -0.0411
 7439SOL    HW133779   0.199   0.381   8.569  1.4307 -0.1379 -0.9478
 7439SOL    HW233780   0.192   0.497   8.673 -0.9783 -1.5533  1.4634
 7440SOL     OW33781   1.823   1.489   4.781 -0.0746 -0.5168 -0.3208
 7440SOL    HW133782   1.842   1.439   4.861  0.3215  1.7383  0.9803
 7440SOL    HW233783   1.855   1.578   4.796 -0.0114 -0.6235  0.1809
 7441SOL     OW33784   1.720   3.012   9.108  0.1378 -0.3260  0.2694
 7441SOL    HW133785   1.774   3.082   9.146 -1.7998  0.1423  2.1252
 7441SOL    HW233786   1.686   2.966   9.184  0.8238  0.2233  0.9118
 7442SOL     OW33787   0.134   2.082   9.585 -0.6548  0.2052  0.3978
 7442SOL    HW133788   0.091   2.042   9.660 -1.7149  0.1040 -0.2603
 7442SOL    HW233789   0.226   2.067   9.608 -1.0696 -0.7875  1.3582
 7443SOL     OW33790   4.635   3.718   7.499  0.1328 -0.0436  0.4994
 7443SOL    HW133791   4.562   3.775   7.525  0.3590  0.7618 -0.6381
 7443SOL    HW233792   4.677   3.696   7.582 -0.9306  1.4912  1.4510
 7444SOL     OW33793   4.256   1.888   2.819  0.1662  0.3314  0.2506
 7444SOL    HW133794   4.305   1.944   2.880 -1.5957 -1.1514  3.0100
 7444SOL    HW233795   4.174   1.934   2.833 -0.4249 -1.0104  1.1680
 7445SOL     OW33796   4.206   1.193   7.382  0.5129 -0.3739  0.1473
 7445SOL    HW133797   4.164   1.148   7.455 -0.3531 -0.4044 -0.3795
 7445SOL    HW233798   4.138   1.232   7.328  0.3318 -1.0283 -0.0963
 7446SOL     OW33799   2.387   3.593   2.264 -0.7786  0.5680  0.0976
 7446SOL    HW133800   2.321   3.562   2.203 -0.5691  0.0904  0.1087
 7446SOL    HW233801   2.356   3.559   2.348 -1.1048  0.7998  0.0678
 7447SOL     OW33802   1.004   2.919   6.428 -0.7003  0.3479  0.5012
 7447SOL    HW133803   1.086   2.949   6.387 -0.7604  2.1136  1.6745
 7447SOL    HW233804   1.030   2.945   6.517 -2.3118  0.4309  0.9406
 7448SOL     OW33805   0.382   3.071  12.438 -0.0033  0.2520  0.0987
 7448SOL    HW133806   0.415   3.009  12.373 -0.8359  0.1227 -0.1939
 7448SOL    HW233807   0.289   3.084  12.420  0.3028  0.0458 -1.6213
 7449SOL     OW33808   1.650   4.000   7.425  0.1328 -0.1960  0.7394
 7449SOL    HW133809   1.666   3.991   7.332 -0.4264  1.2023  0.5105
 7449SOL    HW233810   1.642   4.096   7.431 -2.0365 -0.3659  0.4417
 7450SOL     OW33811   2.068   0.370   8.825 -0.5204 -0.1655  0.3896
 7450SOL    HW133812   2.043   0.278   8.817  3.1946 -1.1433 -0.1541
 7450SOL    HW233813   2.127   0.378   8.899  2.0942  0.2882 -1.7162
 7451SOL     OW33814   2.359   1.546   3.104 -0.0832 -0.3414  0.1589
 7451SOL    HW133815   2.384   1.609   3.037 -0.1036 -1.3134 -0.7546
 7451SOL    HW233816   2.442   1.515   3.141  0.5892 -1.3194 -2.1729
 7452SOL     OW33817   2.464   2.725   1.922 -0.3210 -0.0428 -0.0562
 7452SOL    HW133818   2.395   2.716   1.988  1.7542  1.5598  2.3425
 7452SOL    HW233819   2.408   2.764   1.855 -0.1656 -1.2266 -0.8668
 7453SOL     OW33820   0.070   3.646   7.704 -0.7407  0.1562 -0.1437
 7453SOL    HW133821   0.159   3.669   7.675 -1.0800 -0.9786 -2.1138
 7453SOL    HW233822   0.087   3.551   7.706  1.6222  0.5440 -1.2346
 7454SOL     OW33823   1.701   4.411   7.023  0.0657 -0.3196 -0.3891
 7454SOL    HW133824   1.664   4.453   7.101 -2.3900 -2.7453 -0.2552
 7454SOL    HW233825   1.614   4.407   6.982 -0.6022 -0.8872  1.0566
 7455SOL     OW33826   2.612   1.987  11.678 -0.7908 -0.1882  0.0844
 7455SOL    HW133827   2.685   2.047  11.660 -0.7923 -0.1098  0.3445
 7455SOL    HW233828   2.655   1.918  11.729  0.0509  0.0295 -0.3190
 7456SOL     OW33829   1.549   0.690   7.032 -0.4593  0.0068 -0.5550
 7456SOL    HW133830   1.642   0.709   7.040  0.0057 -1.7887 -1.5981
 7456SOL    HW233831   1.514   0.681   7.120 -0.7614  0.1515 -0.6608
 7457SOL     OW33832   0.954   0.843   6.669  0.1261  0.1077 -0.4102
 7457SOL    HW133833   1.040   0.877   6.645  0.2231 -0.1829 -0.4770
 7457SOL    HW233834   0.931   0.923   6.717  0.6486  0.2924 -0.4675
 7458SOL     OW33835   1.884   3.005   6.074  0.9692 -0.5412 -0.5232
 7458SOL    HW133836   1.836   2.996   6.156 -0.8318  0.5354 -1.4500
 7458SOL    HW233837   1.866   2.916   6.042  0.0799 -1.2227  1.9045
 7459SOL     OW33838   0.956   1.806   3.520 -0.5844 -0.8811 -0.4114
 7459SOL    HW133839   0.926   1.876   3.577  0.5487  0.8972 -2.0164
 7459SOL    HW233840   1.033   1.848   3.482 -0.5399 -1.3761 -0.8697
 7460SOL     OW33841   3.613   3.311  10.731 -0.5119 -0.0077 -0.1664
 7460SOL    HW133842   3.650   3.238  10.779 -1.0932 -0.5197 -0.4899
 7460SOL    HW233843   3.575   3.271  10.653  0.4412  2.4706 -1.8986
 7461SOL     OW33844   1.168   3.815   3.443  0.1051 -0.5641 -0.2501
 7461SOL    HW133845   1.247   3.855   3.406 -0.6984  1.5728  0.3553
 7461SOL    HW233846   1.107   3.888   3.430  1.2818  0.4474 -0.0988
 7462SOL     OW33847   4.215   2.225   9.018 -0.2295  0.5240  0.0209
 7462SOL    HW133848   4.159   2.152   9.046  1.0897 -0.4718  0.0288
 7462SOL    HW233849   4.227   2.259   9.107  2.0996  2.3910 -1.0153
 7463SOL     OW33850   1.127   0.632   2.260 -0.7511 -0.6158 -0.0129
 7463SOL    HW133851   1.180   0.563   2.299 -1.1466  0.9730  3.3090
 7463SOL    HW233852   1.095   0.677   2.338  2.3365  0.2506  0.7678
 7464SOL     OW33853   0.790   2.685  17.298 -0.1987 -0.1794 -0.3235
 7464SOL    HW133854   0.862   2.743  17.324 -0.3354  0.3459 -1.1318
 7464SOL    HW233855   0.709   2.731  17.318 -0.1908 -0.3905  0.1858
 7465SOL     OW33856   2.542   3.627   0.985 -0.1744  0.0509  0.0767
 7465SOL    HW133857   2.470   3.578   1.025 -1.0364 -0.2528 -1.8697
 7465SOL    HW233858   2.543   3.706   1.039  0.0913  0.9400 -1.2492
 7466SOL     OW33859   3.465   2.680   2.272  0.2197 -0.4349  0.4013
 7466SOL    HW133860   3.421   2.595   2.272  0.2401 -0.4429  1.0253
 7466SOL    HW233861   3.554   2.651   2.249  0.8168  0.6526  1.3398
 7467SOL     OW33862   0.613   1.218  16.446 -0.0117  0.3278  0.8903
 7467SOL    HW133863   0.655   1.180  16.369 -1.0215 -0.8542  0.9065
 7467SOL    HW233864   0.533   1.165  16.446  0.6222 -0.6249  1.2174
 7468SOL     OW33865   0.613   0.610   3.501  0.1930 -0.0620  0.0514
 7468SOL    HW133866   0.685   0.628   3.441 -1.0555  1.9683 -0.8200
 7468SOL    HW233867   0.606   0.693   3.547 -0.8248  0.9149 -1.8867
 7469SOL     OW33868   4.212   1.337   9.995 -0.0623 -0.3441  0.0037
 7469SOL    HW133869   4.264   1.257  10.005 -0.2809 -0.5453 -0.4939
 7469SOL    HW233870   4.168   1.336  10.080  0.6686 -3.1987  0.3514
 7470SOL     OW33871   4.314   0.509   4.240  0.0636 -0.3231 -1.0106
 7470SOL    HW133872   4.277   0.592   4.213 -1.6886 -0.9314 -0.4769
 7470SOL    HW233873   4.281   0.441   4.181 -0.1436 -0.6995 -0.4625
 7471SOL     OW33874   3.929   3.663   5.602  0.2496 -0.0203  1.2189
 7471SOL    HW133875   3.929   3.705   5.516 -1.0889  0.8691  1.6478
 7471SOL    HW233876   3.872   3.586   5.602 -0.5054  0.5254 -1.3660
 7472SOL     OW33877   0.283   3.429   8.196 -0.5440 -0.0717  0.0029
 7472SOL    HW133878   0.344   3.374   8.245 -1.6297  0.3307  1.7861
 7472SOL    HW233879   0.224   3.356   8.179 -0.3109 -0.1851 -0.3425
 7473SOL     OW33880   4.273   4.350   1.826 -0.1231  0.4088 -0.8402
 7473SOL    HW133881   4.352   4.321   1.872 -1.0293 -0.0313  0.4258
 7473SOL    HW233882   4.242   4.263   1.799  0.3839  0.5152 -1.7860
 7474SOL     OW33883   0.711   2.327   7.124 -0.2499 -0.1320 -0.9480
 7474SOL    HW133884   0.783   2.340   7.062  1.0141  0.9128  0.7355
 7474SOL    HW233885   0.643   2.298   7.064 -0.5316  1.2740 -1.3144
 7475SOL     OW33886   0.255   3.566   5.277  0.0627 -0.0751  0.0845
 7475SOL    HW133887   0.300   3.540   5.358  3.0903  3.6304 -0.4118
 7475SOL    HW233888   0.170   3.524   5.293  0.0391 -0.5366 -1.2667
 7476SOL     OW33889   4.434   3.371  11.253  0.0523 -0.0349  0.0968
 7476SOL    HW133890   4.487   3.436  11.207  1.2657 -1.8534 -1.0537
 7476SOL    HW233891   4.485   3.292  11.233  1.4462  0.3251  2.2477
 7477SOL     OW33892   1.322   3.786   6.068 -0.4316 -0.5241 -0.1091
 7477SOL    HW133893   1.360   3.699   6.078  0.7437  0.0462  0.3425
 7477SOL    HW233894   1.240   3.771   6.114  0.2128  0.8273  1.4959
 7478SOL     OW33895   4.488   3.825   6.776  0.5194 -0.5783  0.7348
 7478SOL    HW133896   4.518   3.908   6.738  0.2683 -0.0376  1.7118
 7478SOL    HW233897   4.555   3.817   6.844  2.7844  0.1645 -1.3781
 7479SOL     OW33898   1.969   3.611   9.287  0.1775  0.4474  0.2251
 7479SOL    HW133899   1.988   3.701   9.314 -1.4414  0.5656  1.0098
 7479SOL    HW233900   1.962   3.607   9.192  2.0780 -1.4051  0.1773
 7480SOL     OW33901   1.210   4.564   6.670 -0.0670  0.2573  0.0280
 7480SOL    HW133902   1.269   4.629   6.632 -0.7877  0.4515 -0.7519
 7480SOL    HW233903   1.271   4.496   6.700  0.0741  0.5184  0.3378
 7481SOL     OW33904   1.847   3.998   8.124 -0.8196  0.5781 -1.0483
 7481SOL    HW133905   1.867   4.089   8.146 -2.3835  0.3351  1.4130
 7481SOL    HW233906   1.759   3.994   8.160  0.3110 -0.7338  1.6112
 7482SOL     OW33907   3.349   1.174   2.866  0.0518  0.1096  0.0402
 7482SOL    HW133908   3.393   1.111   2.809 -0.3437  0.1238 -0.2805
 7482SOL    HW233909   3.338   1.117   2.942 -1.6347 -1.0077 -1.0671
 7483SOL     OW33910   2.513   4.184   2.458  0.1774  0.0151  0.1013
 7483SOL    HW133911   2.513   4.135   2.375  3.2085  1.5335 -0.8087
 7483SOL    HW233912   2.602   4.217   2.444 -0.1729  0.4429 -1.1516
 7484SOL     OW33913   0.350   1.413   5.733  0.7333  0.5398 -0.0316
 7484SOL    HW133914   0.348   1.505   5.761 -0.4922  0.3842  0.3776
 7484SOL    HW233915   0.440   1.397   5.761  0.9843  0.3556 -0.9241
 7485SOL     OW33916   1.884   3.741   2.239 -0.0109  0.1552  0.1935
 7485SOL    HW133917   1.932   3.813   2.279  0.7459 -1.3570  2.0557
 7485SOL    HW233918   1.899   3.672   2.304 -0.3390  2.4343  2.7011
 7486SOL     OW33919   2.008   2.459   9.250 -0.4011 -0.2493 -0.3180
 7486SOL    HW133920   1.961   2.462   9.333  1.0304  1.1472  0.4368
 7486SOL    HW233921   1.935   2.493   9.198 -2.2744  0.5864  2.8784
 7487SOL     OW33922   0.237   1.290  16.604 -0.0650  0.2635  0.7954
 7487SOL    HW133923   0.152   1.281  16.648  0.1349  3.0127  1.7905
 7487SOL    HW233924   0.247   1.198  16.581  1.3944  1.0471 -1.6376
 7488SOL     OW33925   1.512   4.262   7.398  0.0832  0.1773 -0.1074
 7488SOL    HW133926   1.531   4.356   7.394  0.6874 -0.1055 -3.6003
 7488SOL    HW233927   1.448   4.254   7.328 -2.2444 -0.2093  2.0875
 7489SOL     OW33928   1.032   3.490   7.876  0.3062 -0.0457 -0.3676
 7489SOL    HW133929   1.034   3.543   7.797  0.2849 -0.3170 -0.5479
 7489SOL    HW233930   1.108   3.530   7.920 -0.7262  1.5534 -0.0408
 7490SOL     OW33931   0.457   2.333  11.030 -0.0873 -0.4795 -0.5166
 7490SOL    HW133932   0.395   2.261  11.015  1.6372 -2.0986  0.0531
 7490SOL    HW233933   0.433   2.361  11.119 -0.9045 -0.4691 -0.7374
 7491SOL     OW33934   1.774   1.770  16.045  0.0952 -0.0610  0.2124
 7491SOL    HW133935   1.737   1.740  15.962  1.3476  2.4835 -1.2522
 7491SOL    HW233936   1.790   1.684  16.085  1.4851  0.1631  0.1360
 7492SOL     OW33937   4.682   0.314   7.420  0.0691 -0.4221  0.3131
 7492SOL    HW133938   0.011   0.277   7.492  2.5100  0.0488 -1.1860
 7492SOL    HW233939   4.676   0.237   7.363 -0.2882  0.4327 -0.7828
 7493SOL     OW33940   4.455   2.846   1.048  1.0895  0.4581  0.4565
 7493SOL    HW133941   4.484   2.934   1.028  0.0899  1.0669  1.6493
 7493SOL    HW233942   4.364   2.841   1.017  0.9048 -1.2402  1.2181
 7494SOL     OW33943   2.710   3.522   3.369 -0.2810  0.0882 -0.1570
 7494SOL    HW133944   2.730   3.484   3.454 -0.8695  0.6254  0.2233
 7494SOL    HW233945   2.662   3.453   3.322  1.8815  1.3455 -4.1502
 7495SOL     OW33946   4.448   4.081   4.817  0.3209 -0.1135 -0.1515
 7495SOL    HW133947   4.540   4.084   4.840 -0.0599 -2.3921  1.7067
 7495SOL    HW233948   4.422   3.989   4.807  1.8266 -0.7458  1.8035
 7496SOL     OW33949   3.448   3.988   3.770 -0.2670  0.0778  0.3924
 7496SOL    HW133950   3.424   3.914   3.825 -2.0320  0.6531  0.3753
 7496SOL    HW233951   3.542   3.994   3.792 -0.6540  1.7930  1.5910
 7497SOL     OW33952   4.413   2.852   7.441  0.2930  0.0217 -0.1830
 7497SOL    HW133953   4.508   2.852   7.427 -0.0612  0.9154 -2.4615
 7497SOL    HW233954   4.405   2.758   7.458  1.7776 -0.4374 -2.0681
 7498SOL     OW33955   1.981   3.096   8.200  0.2769  0.1262 -0.0007
 7498SOL    HW133956   2.039   3.104   8.276 -0.8364 -0.6996  0.9373
 7498SOL    HW233957   1.916   3.032   8.229 -0.2049 -0.0504 -1.4900
 7499SOL     OW33958   4.612   1.911   0.815 -0.0524 -0.0270 -0.4502
 7499SOL    HW133959   4.598   1.819   0.792 -0.0891  0.4319 -2.2402
 7499SOL    HW233960   4.564   1.962   0.750 -0.9572  0.5702  0.6714
 7500SOL     OW33961   2.659   3.584   2.035  0.3945  0.7023 -0.2672
 7500SOL    HW133962   2.712   3.593   1.956 -1.4287 -2.2545 -1.8059
 7500SOL    HW233963   2.726   3.571   2.102 -0.3983 -0.9792  0.2107
 7501SOL     OW33964   2.136   2.332   8.822  0.3694  0.1454 -0.0752
 7501SOL    HW133965   2.194   2.260   8.799  1.3565  0.4107  1.6160
 7501SOL    HW233966   2.102   2.288   8.899  4.3555 -0.8925  1.0559
 7502SOL     OW33967   2.225   2.274   3.975  0.2721  0.0107  0.0206
 7502SOL    HW133968   2.219   2.183   3.947  1.3358  0.0370 -0.2975
 7502SOL    HW233969   2.261   2.274   4.064 -1.4383 -2.3267  0.7352
 7503SOL     OW33970   0.010   3.983   0.846  0.4246 -0.5940  0.1492
 7503SOL    HW133971   0.062   3.908   0.873  0.2173 -1.0198 -0.6593
 7503SOL    HW233972   0.014   4.034   0.927 -1.3135 -0.1798 -0.0284
 7504SOL     OW33973   4.252   0.274   2.933  0.6314  0.0725 -0.1921
 7504SOL    HW133974   4.207   0.252   2.851  1.4101  0.3039 -0.6878
 7504SOL    HW233975   4.225   0.203   2.991 -0.3073  0.1234 -0.5729
 7505SOL     OW33976   3.913   2.073  15.834  0.5900  0.0759  0.0158
 7505SOL    HW133977   3.931   1.992  15.786  0.0591  1.3210 -2.3082
 7505SOL    HW233978   3.818   2.069  15.820  0.8087  0.4797 -1.5898
 7506SOL     OW33979   1.594   3.421  14.507  0.1300  0.0786  0.1035
 7506SOL    HW133980   1.542   3.355  14.553 -0.8639 -0.2097 -1.4019
 7506SOL    HW233981   1.535   3.437  14.433  0.9280 -1.1335 -0.8065
 7507SOL     OW33982   2.396   2.826  11.351  0.3751 -0.1470 -0.7650
 7507SOL    HW133983   2.448   2.845  11.429 -0.3524 -2.1814  0.2216
 7507SOL    HW233984   2.468   2.819  11.289  0.4604 -0.8618 -0.5862
 7508SOL     OW33985   0.405   2.720  10.508 -0.0431  0.4509 -0.4093
 7508SOL    HW133986   0.353   2.743  10.431 -1.8535  2.9143  1.5225
 7508SOL    HW233987   0.458   2.800  10.507 -0.1034  0.5186  0.7859
 7509SOL     OW33988   1.400   1.716   5.224  0.0046  0.3951  0.3659
 7509SOL    HW133989   1.492   1.709   5.251 -0.3646 -2.7101  0.8442
 7509SOL    HW233990   1.354   1.749   5.300  0.8922  1.2100  0.5453
 7510SOL     OW33991   2.608   0.112   2.595 -0.1485 -0.2800  0.6392
 7510SOL    HW133992   2.585   0.202   2.574 -0.0241 -0.2630  0.5738
 7510SOL    HW233993   2.616   0.077   2.507 -1.8702 -2.1319  1.2407
 7511SOL     OW33994   4.527   4.198   6.458 -0.2004  0.5049 -0.9584
 7511SOL    HW133995   4.605   4.222   6.408  0.1445  0.2751 -0.5364
 7511SOL    HW233996   4.463   4.268   6.444  0.9441  1.5870 -0.7963
 7512SOL     OW33997   4.481   3.282   3.185  0.2169 -0.0907  0.3072
 7512SOL    HW133998   4.523   3.225   3.249 -0.8265 -0.2879  0.8173
 7512SOL    HW233999   4.393   3.245   3.185  1.7420 -3.6262 -1.0053
 7513SOL     OW34000   1.896   2.803   1.213 -0.2066  0.7258  0.1762
 7513SOL    HW134001   1.919   2.751   1.291 -0.0981  1.5730  0.7092
 7513SOL    HW234002   1.805   2.810   1.244 -1.2657 -2.9660 -2.1567
 7514SOL     OW34003   3.100   0.988   6.511  0.1317 -0.2456 -0.2481
 7514SOL    HW134004   3.091   0.959   6.420 -4.1729 -0.4605  0.2790
 7514SOL    HW234005   3.163   1.059   6.500  0.1259 -0.3531 -0.9446
 7515SOL     OW34006   0.573   3.234   6.544  0.3622  0.1182 -0.2564
 7515SOL    HW134007   0.562   3.179   6.621 -2.1192  1.3467  0.2894
 7515SOL    HW234008   0.648   3.188   6.508  0.5250 -0.3007  0.6141
 7516SOL     OW34009   3.630   1.167  13.224 -0.5064  0.1666  0.2347
 7516SOL    HW134010   3.576   1.132  13.295  0.3552 -3.2808 -0.8096
 7516SOL    HW234011   3.699   1.212  13.273  0.5841  1.3609 -2.4205
 7517SOL     OW34012   3.293   3.649  11.988  0.7067 -0.7234  0.3185
 7517SOL    HW134013   3.245   3.686  12.062  2.5481  1.2715  0.5105
 7517SOL    HW234014   3.376   3.622  12.026  0.1132  0.5564  2.5257
 7518SOL     OW34015   0.024   2.908   8.404  0.6103 -0.0352 -0.1854
 7518SOL    HW134016   4.702   2.888   8.322 -1.2726  0.3230  0.7574
 7518SOL    HW234017   4.688   2.860   8.463  0.0702 -0.1196 -0.7954
 7519SOL     OW34018   2.944   0.361  13.909  0.1299  0.1235  0.5298
 7519SOL    HW134019   2.945   0.440  13.855 -0.6254 -1.0798 -1.2353
 7519SOL    HW234020   3.004   0.298  13.869 -1.9760 -0.4902 -1.6588
 7520SOL     OW34021   0.873   2.165   1.185 -0.3394  0.2023  0.5404
 7520SOL    HW134022   0.780   2.155   1.166 -0.0436 -1.2701 -0.0857
 7520SOL    HW234023   0.919   2.149   1.102 -1.0903 -1.3645  0.4154
 7521SOL     OW34024   4.410   1.342   2.250 -0.4051 -0.1156 -0.7393
 7521SOL    HW134025   4.369   1.424   2.276 -0.8599 -0.3438 -0.7489
 7521SOL    HW234026   4.363   1.320   2.170 -0.6077  1.5439 -1.0759
 7522SOL     OW34027   4.060   0.214  16.032 -0.3313 -0.4855 -0.8499
 7522SOL    HW134028   4.040   0.201  15.939  1.3803 -1.3669 -1.0902
 7522SOL    HW234029   4.046   0.309  16.037  3.4218 -0.0812  1.4613
 7523SOL     OW34030   0.813   3.133   5.026 -0.1408 -0.5360  0.3805
 7523SOL    HW134031   0.789   3.123   5.118  2.9076  1.5406  1.3624
 7523SOL    HW234032   0.840   3.224   5.029 -0.2764 -0.4113 -1.9632
 7524SOL     OW34033   0.134   2.429   5.735 -0.0407 -0.9967 -0.2666
 7524SOL    HW134034   0.088   2.359   5.689 -1.1065 -0.7835  0.4474
 7524SOL    HW234035   0.220   2.392   5.753  0.7990  1.8430  1.4354
 7525SOL     OW34036   3.589   0.324   3.613  0.0792  0.2293  0.2145
 7525SOL    HW134037   3.674   0.358   3.583 -0.0654  1.2340  0.9625
 7525SOL    HW234038   3.558   0.287   3.530 -1.9958  2.4538 -0.0166
 7526SOL     OW34039   1.941   2.470   7.220  0.0402 -0.0671  0.0991
 7526SOL    HW134040   1.995   2.543   7.252  0.6262 -1.1648  1.6106
 7526SOL    HW234041   1.996   2.396   7.195  0.4787  0.0593  0.6763
 7527SOL     OW34042   3.505   1.135   5.255  0.2849 -0.2588 -0.1837
 7527SOL    HW134043   3.511   1.215   5.307  0.0228 -0.4108  0.0803
 7527SOL    HW234044   3.594   1.142   5.221  0.7206 -3.0513  0.4108
 7528SOL     OW34045   3.526   2.289   8.895 -0.5359  0.3520 -0.1350
 7528SOL    HW134046   3.618   2.289   8.868 -0.3627  1.3730  0.4459
 7528SOL    HW234047   3.514   2.378   8.926 -0.3366  0.2771  0.1588
 7529SOL     OW34048   4.162   1.503   9.129 -0.3540  0.3031  0.9985
 7529SOL    HW134049   4.203   1.567   9.188 -0.9145  1.8906 -0.3538
 7529SOL    HW234050   4.077   1.547   9.122 -0.2023  0.6474  1.2814
 7530SOL     OW34051   1.655   2.284   6.890 -0.2163  0.1641 -0.0206
 7530SOL    HW134052   1.610   2.217   6.839 -0.0278  0.0894 -0.0849
 7530SOL    HW234053   1.747   2.263   6.882  0.1950  1.9384  0.0294
 7531SOL     OW34054   3.466   1.522   4.452 -0.3136 -0.5590 -0.1032
 7531SOL    HW134055   3.471   1.427   4.441  0.7938 -0.4985 -0.1398
 7531SOL    HW234056   3.497   1.555   4.368  1.2505  1.7705  1.3787
 7532SOL     OW34057   4.294   0.910   7.355  0.2669 -0.4683  0.4664
 7532SOL    HW134058   4.302   1.004   7.338 -1.2235 -0.5729 -0.7872
 7532SOL    HW234059   4.374   0.900   7.407  0.8053  0.1184 -0.2572
 7533SOL     OW34060   2.349   0.064   0.424  0.0342 -0.3730 -0.2822
 7533SOL    HW134061   2.348   0.122   0.347  1.0668  3.1276  2.3090
 7533SOL    HW234062   2.351   4.699   0.387  0.8503 -0.4294 -0.1055
 7534SOL     OW34063   0.970   3.593  11.896  0.0241  0.3969  0.0784
 7534SOL    HW134064   0.958   3.621  11.987  1.5978  1.8738 -0.1745
 7534SOL    HW234065   0.879   3.567  11.881  1.2152 -3.8283  0.0129
 7535SOL     OW34066   0.187   0.271   1.465  0.5253 -0.2561  0.4242
 7535SOL    HW134067   0.094   0.263   1.443  0.4767  1.5433  0.0095
 7535SOL    HW234068   0.235   0.276   1.382  0.8078  0.7351  0.6458
 7536SOL     OW34069   0.544   3.395  13.149  0.2707 -0.3119  0.2080
 7536SOL    HW134070   0.506   3.382  13.236 -1.5005 -1.5080 -0.7595
 7536SOL    HW234071   0.460   3.411  13.107  1.2958  0.4632 -1.5444
 7537SOL     OW34072   4.548   2.996   3.630  0.6061 -0.0689  0.4194
 7537SOL    HW134073   4.567   2.959   3.717  1.3328  0.3301  0.4323
 7537SOL    HW234074   4.527   2.918   3.578 -0.1083  0.4976 -0.1318
 7538SOL     OW34075   4.664   1.707   7.080  0.0179 -0.3299  0.8018
 7538SOL    HW134076   4.586   1.692   7.027 -0.7051  0.7807  1.5573
 7538SOL    HW234077   4.708   1.623   7.069  0.9109 -0.0743  2.5415
 7539SOL     OW34078   2.548   2.612   6.915  0.4092  0.5547 -0.3246
 7539SOL    HW134079   2.520   2.520   6.917  0.6216  0.4868 -0.4998
 7539SOL    HW234080   2.469   2.658   6.943  1.1541  0.1938  2.3201
 7540SOL     OW34081   4.711   1.318   6.612  0.1080 -0.4488  0.2975
 7540SOL    HW134082   4.618   1.321   6.635 -0.1746 -2.0248 -0.6282
 7540SOL    HW234083   4.707   1.352   6.523  0.9400 -3.6395 -0.9625
 7541SOL     OW34084   3.315   3.568   2.379 -0.2510  0.2534 -0.3339
 7541SOL    HW134085   3.295   3.517   2.300  0.0431  0.2301 -0.3932
 7541SOL    HW234086   3.225   3.597   2.396  0.2579  2.6733 -1.7914
 7542SOL     OW34087   2.987   4.530  13.756  0.6677 -0.3050  0.3367
 7542SOL    HW134088   2.897   4.498  13.755  1.6023 -2.9117  0.5246
 7542SOL    HW234089   3.019   4.523  13.846 -0.8780 -0.0484  0.8961
 7543SOL     OW34090   3.722   2.264  12.667  0.2424 -0.1211  0.0197
 7543SOL    HW134091   3.719   2.359  12.666 -0.4631 -0.1562 -1.0507
 7543SOL    HW234092   3.649   2.253  12.729 -0.7854  2.8244 -0.6992
 7544SOL     OW34093   0.805   2.801   3.982  0.4268 -0.5520  0.5851
 7544SOL    HW134094   0.870   2.788   3.913  1.0054  1.6513  0.7298
 7544SOL    HW234095   0.791   2.895   3.982 -1.5393 -0.8542  1.1047
 7545SOL     OW34096   2.961   0.159   8.146 -0.1766  0.5632 -0.2120
 7545SOL    HW134097   2.890   0.109   8.107  0.7920 -1.1831  0.2409
 7545SOL    HW234098   2.910   0.239   8.160  0.5154  0.7068  1.5364
 7546SOL     OW34099   0.075   2.811  14.001  0.1361 -0.1750  0.2509
 7546SOL    HW134100   0.162   2.779  14.025  0.8482  0.6573 -1.2294
 7546SOL    HW234101   0.093   2.841  13.912 -1.3192  1.4020  0.4920
 7547SOL     OW34102   0.417   4.499   8.063 -0.0013 -0.0937  0.0271
 7547SOL    HW134103   0.377   4.444   8.131 -0.2624 -0.5059 -0.4609
 7547SOL    HW234104   0.501   4.454   8.062 -0.8960 -1.8057  0.9393
 7548SOL     OW34105   3.764   3.181   5.563  0.2767  0.0065 -0.7003
 7548SOL    HW134106   3.819   3.141   5.496  2.7176  2.8618 -0.3794
 7548SOL    HW234107   3.793   3.141   5.645 -1.0422 -1.4987 -0.9733
 7549SOL     OW34108   1.643   1.841  14.280  0.1582 -0.1308  0.1699
 7549SOL    HW134109   1.587   1.763  14.272  0.0171  0.1895 -1.8822
 7549SOL    HW234110   1.579   1.909  14.261  1.0284  1.0413  1.4767
 7550SOL     OW34111   3.550   2.266  12.292  0.1032  0.3142 -0.2382
 7550SOL    HW134112   3.629   2.212  12.287 -0.8666 -1.3017  1.8020
 7550SOL    HW234113   3.519   2.249  12.381  0.0918  0.9760 -0.1121
 7551SOL     OW34114   1.251   2.114   8.275 -0.5126 -0.6236 -0.2923
 7551SOL    HW134115   1.276   2.206   8.263 -1.7737  0.1687  3.0077
 7551SOL    HW234116   1.258   2.072   8.189  0.1307 -0.1344 -0.4798
 7552SOL     OW34117   1.598   0.125  17.418 -0.4644 -0.0270 -0.1910
 7552SOL    HW134118   1.588   0.207  17.368 -0.6777  1.5626  2.4956
 7552SOL    HW234119   1.685   0.146  17.452  0.2918  0.3300 -2.2940
 7553SOL     OW34120   2.068   0.778   7.522 -0.0982 -0.1946 -0.4000
 7553SOL    HW134121   2.159   0.768   7.495 -0.5474 -1.6715 -1.3656
 7553SOL    HW234122   2.074   0.766   7.617 -0.1651  0.9345 -0.2562
 7554SOL     OW34123   4.075   0.681   6.981  0.2624 -0.0746 -0.2547
 7554SOL    HW134124   4.139   0.751   6.970 -1.5354  1.3944 -1.4907
 7554SOL    HW234125   4.097   0.659   7.071  0.4745 -1.0753 -0.5596
 7555SOL     OW34126   2.282   1.153   2.325  0.0856  0.0189  0.4479
 7555SOL    HW134127   2.267   1.070   2.280 -0.3855 -0.3695  1.3253
 7555SOL    HW234128   2.201   1.194   2.294  0.6197  0.3728 -0.4672
 7556SOL     OW34129   0.060   0.591   9.092 -0.4056  0.3845 -0.9101
 7556SOL    HW134130   0.128   0.626   9.035 -0.6147  1.1016 -0.7189
 7556SOL    HW234131   4.710   0.594   9.031  0.4466  2.0537 -1.8598
 7557SOL     OW34132   1.925   1.729   6.060 -0.2583  0.3524 -0.4723
 7557SOL    HW134133   1.858   1.720   5.992  2.5474  0.3269 -3.2149
 7557SOL    HW234134   1.980   1.793   6.015  1.0390 -0.2884  0.2035
 7558SOL     OW34135   0.850   2.830  11.115 -0.7776  0.0618  0.1188
 7558SOL    HW134136   0.795   2.756  11.141  1.0667 -1.4558 -0.2663
 7558SOL    HW234137   0.841   2.890  11.189 -1.0961 -1.2813  1.1709
 7559SOL     OW34138   3.200   4.193   2.445 -0.1975 -0.7286  0.5789
 7559SOL    HW134139   3.269   4.231   2.499  0.1655 -2.3224  1.2325
 7559SOL    HW234140   3.211   4.241   2.362  0.0205 -0.1362  0.9495
 7560SOL     OW34141   3.437   1.897   3.782 -0.3310 -0.5418 -0.4768
 7560SOL    HW134142   3.508   1.836   3.797  0.5264  0.0603 -2.0368
 7560SOL    HW234143   3.448   1.903   3.687 -0.8534 -3.1036 -0.7011
 7561SOL     OW34144   3.334   3.952   8.491 -0.5851  0.3616 -0.2635
 7561SOL    HW134145   3.298   4.034   8.526 -1.4814 -0.5149  0.8767
 7561SOL    HW234146   3.412   3.984   8.445  0.7398 -0.0600  1.6978
 7562SOL     OW34147   0.203   2.059   8.779  0.1108 -0.0361 -0.1923
 7562SOL    HW134148   0.242   2.064   8.866  1.6659 -1.9370 -0.7713
 7562SOL    HW234149   0.265   2.007   8.728 -1.4676 -2.3298  0.2408
 7563SOL     OW34150   0.563   1.448  13.474  1.0151 -0.1166  0.4234
 7563SOL    HW134151   0.513   1.452  13.556 -1.0725 -0.8682 -0.8075
 7563SOL    HW234152   0.647   1.442  13.518  1.7965  1.0959 -0.9102
 7564SOL     OW34153   1.643   4.518   1.830  0.7008 -0.1493  0.0667
 7564SOL    HW134154   1.720   4.471   1.863  1.9284  1.2937 -0.7306
 7564SOL    HW234155   1.575   4.471   1.878  2.4657  0.0927  2.8267
 7565SOL     OW34156   1.338   4.358   8.489 -0.4171  0.2999  0.4304
 7565SOL    HW134157   1.311   4.447   8.464  0.7114  0.2036 -1.1370
 7565SOL    HW234158   1.268   4.342   8.552 -0.9579 -0.8915 -0.4712
 7566SOL     OW34159   0.226   3.856   4.156  0.4982 -0.4774  0.0470
 7566SOL    HW134160   0.218   3.832   4.063 -0.5320  2.0958 -0.5270
 7566SOL    HW234161   0.160   3.802   4.201  0.5277  0.8413  1.6426
 7567SOL     OW34162   3.296   0.871   9.489 -0.2357 -0.2104 -0.3658
 7567SOL    HW134163   3.230   0.933   9.459 -0.5761 -1.6059 -2.5124
 7567SOL    HW234164   3.353   0.924   9.544 -0.5061  0.7580 -1.0230
 7568SOL     OW34165   4.220   2.746   2.398 -0.1038 -0.0994  0.1460
 7568SOL    HW134166   4.181   2.730   2.312 -1.0590 -1.9859  0.9335
 7568SOL    HW234167   4.307   2.707   2.396  0.7250  1.7044  1.2514
 7569SOL     OW34168   3.197   2.698   9.324 -0.5289  0.2986  0.3471
 7569SOL    HW134169   3.178   2.739   9.408 -3.0452 -0.7124  0.2675
 7569SOL    HW234170   3.204   2.604   9.340  0.8136  0.5861  1.4594
 7570SOL     OW34171   3.997   0.694   8.458  0.8233 -0.0069 -0.3177
 7570SOL    HW134172   3.972   0.691   8.550 -0.6206 -0.4358 -0.7346
 7570SOL    HW234173   3.916   0.661   8.420 -0.1575  3.5530 -1.3458
 7571SOL     OW34174   2.460   1.207   3.745  0.1142 -0.0590  0.2537
 7571SOL    HW134175   2.441   1.244   3.831  0.1068 -1.7932  1.0004
 7571SOL    HW234176   2.477   1.274   3.678  0.5651 -0.6936 -0.2733
 7572SOL     OW34177   4.427   1.296   4.437 -0.3106  0.0521  0.0862
 7572SOL    HW134178   4.336   1.305   4.411 -0.2955 -1.4123 -0.4516
 7572SOL    HW234179   4.427   1.301   4.533 -1.0938  1.9860 -0.0193
 7573SOL     OW34180   4.457   4.223  16.027 -0.2195 -0.4031 -0.3206
 7573SOL    HW134181   4.400   4.278  16.080  1.0937  0.5256  0.1237
 7573SOL    HW234182   4.535   4.278  16.027 -0.7994  0.4144 -0.1349
 7574SOL     OW34183   3.422   1.799  14.678 -0.0498  0.3544  0.2478
 7574SOL    HW134184   3.396   1.800  14.586 -0.2702  1.1342  0.3146
 7574SOL    HW234185   3.505   1.753  14.672  0.1756  0.5429  1.7615
 7575SOL     OW34186   0.388   0.827   1.685 -0.4228  0.0700  0.0451
 7575SOL    HW134187   0.361   0.782   1.765 -0.5402  1.6961  0.9333
 7575SOL    HW234188   0.474   0.793   1.660 -1.1981 -1.2745 -0.7858
 7576SOL     OW34189   2.791   0.029   3.617  0.0114  0.3991  0.1602
 7576SOL    HW134190   2.736   0.089   3.668 -0.0149  0.9349 -0.4879
 7576SOL    HW234191   2.861   0.090   3.595  0.2647  0.3417  0.8289
 7577SOL     OW34192   3.662   3.131   6.882  0.4200  0.2123 -0.1741
 7577SOL    HW134193   3.578   3.088   6.871  0.0022  1.2092 -0.9001
 7577SOL    HW234194   3.721   3.067   6.922  1.7890  0.7293 -1.3559
 7578SOL     OW34195   1.220   0.209  11.038 -0.1045 -0.3619  0.4983
 7578SOL    HW134196   1.301   0.227  10.991  0.6014  0.5071  2.0371
 7578SOL    HW234197   1.191   0.123  11.008 -2.2875  0.1263  1.2076
 7579SOL     OW34198   4.717   0.510  15.917 -0.2663 -0.5473 -0.1015
 7579SOL    HW134199   4.652   0.512  15.847 -1.8252  0.6456  1.3716
 7579SOL    HW234200   4.669   0.566  15.979 -1.6027 -1.3712 -0.3894
 7580SOL     OW34201   1.281   0.609   3.909 -0.2328  0.0623 -0.1263
 7580SOL    HW134202   1.360   0.581   3.863  1.2835  1.7644  1.4353
 7580SOL    HW234203   1.312   0.697   3.929 -0.3037 -0.1122  0.7585
 7581SOL     OW34204   1.672   4.143  14.174  0.4484 -0.0364  0.2266
 7581SOL    HW134205   1.636   4.056  14.191  0.9411 -0.5618 -1.4129
 7581SOL    HW234206   1.592   4.191  14.154  0.0150 -1.2396 -0.8712
 7582SOL     OW34207   2.964   4.354   0.895 -0.0903  0.2715 -0.4814
 7582SOL    HW134208   2.888   4.342   0.953  0.5814  2.7476  0.9289
 7582SOL    HW234209   3.033   4.306   0.941 -0.2957  0.9632  0.5376
 7583SOL     OW34210   1.562   3.648   7.776  0.2630 -0.6047  0.3690
 7583SOL    HW134211   1.615   3.583   7.730 -0.4489  1.5448 -3.5647
 7583SOL    HW234212   1.635   3.688   7.823  0.4593 -0.1172 -0.3322
 7584SOL     OW34213   0.533   4.349   6.382  0.3222 -0.6126 -0.3165
 7584SOL    HW134214   0.477   4.273   6.370 -1.2411  0.3276  0.9434
 7584SOL    HW234215   0.473   4.405   6.332  1.5332  0.1010 -0.9664
 7585SOL     OW34216   1.293   1.466   5.135  0.1350 -0.5847 -0.5982
 7585SOL    HW134217   1.210   1.507   5.158  1.5569  3.4209 -2.5657
 7585SOL    HW234218   1.341   1.476   5.217  1.6729 -1.3053 -1.4093
 7586SOL     OW34219   4.563   4.409  14.171 -0.4206  0.2311 -0.4469
 7586SOL    HW134220   4.526   4.494  14.192  1.8243  1.0711  0.1600
 7586SOL    HW234221   4.653   4.439  14.183 -0.9376  1.9255 -0.8093
 7587SOL     OW34222   0.318   4.688  16.504 -0.7096  0.5739  0.0292
 7587SOL    HW134223   0.289   0.035  16.446  3.9159  0.4838 -2.4521
 7587SOL    HW234224   0.396   0.009  16.538  0.7404 -0.8189 -1.5129
 7588SOL     OW34225   0.199   0.956   9.593 -0.6018 -0.4114  0.0260
 7588SOL    HW134226   0.264   0.899   9.635 -1.5287 -1.4507  0.0532
 7588SOL    HW234227   0.256   1.007   9.535 -1.4941 -1.4442 -1.7737
 7589SOL     OW34228   0.717   4.436   8.907  0.5463  0.4941  0.8564
 7589SOL    HW134229   0.783   4.384   8.952  0.5985  0.5257  0.8161
 7589SOL    HW234230   0.647   4.373   8.890  2.0070 -0.7435 -0.6317
 7590SOL     OW34231   1.232   2.395  14.965  0.3144  0.1808  0.0588
 7590SOL    HW134232   1.271   2.424  14.883  1.1340 -0.7320  0.1202
 7590SOL    HW234233   1.204   2.309  14.934  0.9039  0.2491 -0.6399
 7591SOL     OW34234   0.064   0.887   2.756 -1.0407 -0.3136 -0.0716
 7591SOL    HW134235   4.722   0.817   2.743 -0.1389 -1.2724  0.5990
 7591SOL    HW234236   0.105   0.854   2.836 -1.1961  1.7579  0.8478
 7592SOL     OW34237   3.813   0.702   3.987  0.1032 -0.7674 -0.3408
 7592SOL    HW134238   3.811   0.768   3.918 -2.5677  0.6673  1.1151
 7592SOL    HW234239   3.761   0.749   4.051 -1.1366 -0.4892 -1.5691
 7593SOL     OW34240   2.610   2.145  14.682 -0.0443 -0.5054  0.1402
 7593SOL    HW134241   2.706   2.139  14.684 -0.1796 -2.7641  0.2215
 7593SOL    HW234242   2.588   2.123  14.591 -0.3544  1.0420 -0.1532
 7594SOL     OW34243   0.018   3.061   2.430 -0.7691 -0.3532 -0.0881
 7594SOL    HW134244   0.062   3.045   2.513 -0.3717  1.9456  0.1295
 7594SOL    HW234245   0.054   3.145   2.401  1.2180 -0.8511  0.9606
 7595SOL     OW34246   0.575   0.318   7.553 -0.3413 -0.7801  0.0230
 7595SOL    HW134247   0.485   0.320   7.522 -0.0190  4.0096 -0.5768
 7595SOL    HW234248   0.560   0.343   7.644 -3.2068 -1.9803 -0.1121
 7596SOL     OW34249   2.069   0.471   4.684 -0.3304 -0.1124 -0.1355
 7596SOL    HW134250   2.060   0.420   4.604 -1.4397  1.1858 -0.8266
 7596SOL    HW234251   2.061   0.399   4.746  1.2849 -0.7046 -0.6316
 7597SOL     OW34252   0.366   3.541   5.507 -0.4767  1.2150  0.2443
 7597SOL    HW134253   0.448   3.587   5.488 -0.0062 -0.0986 -0.8607
 7597SOL    HW234254   0.348   3.575   5.595  2.2670  0.5001  1.0706
 7598SOL     OW34255   1.818   3.531   4.077 -0.0784  0.1081  0.1025
 7598SOL    HW134256   1.870   3.486   4.010  0.0366  0.4595 -0.0469
 7598SOL    HW234257   1.796   3.608   4.025 -0.7907 -0.6869 -0.7697
 7599SOL     OW34258   4.636   0.164   6.939 -0.3999  0.1100 -0.2765
 7599SOL    HW134259   4.676   0.115   6.868 -1.2493 -0.0799 -0.6272
 7599SOL    HW234260   4.541   0.153   6.935 -0.3759 -0.2034  0.0446
 7600SOL     OW34261   0.676   0.618   7.641  0.4807  0.2041 -0.3529
 7600SOL    HW134262   0.583   0.624   7.665  0.4080  0.4412 -0.6962
 7600SOL    HW234263   0.709   0.563   7.712 -0.2513 -0.2542 -0.3664
 7601SOL     OW34264   4.569   1.039   7.070  0.0857  0.8162 -0.2971
 7601SOL    HW134265   4.652   1.070   7.033  0.3572  0.2939 -0.1207
 7601SOL    HW234266   4.523   1.123   7.067 -0.6213  0.4556  0.3943
 7602SOL     OW34267   3.255   1.342   7.662  0.4910 -0.4307  0.3131
 7602SOL    HW134268   3.163   1.363   7.650  0.4519  0.0640  1.4756
 7602SOL    HW234269   3.275   1.396   7.739 -1.0121  0.7313 -0.1065
 7603SOL     OW34270   0.481   3.910   6.252  0.3738  0.5664 -0.1536
 7603SOL    HW134271   0.558   3.966   6.248 -1.1573  2.7399  1.1326
 7603SOL    HW234272   0.519   3.837   6.301  0.2935  0.7026  0.1142
 7604SOL     OW34273   0.564   2.546  11.420 -0.7629  0.1188 -0.4348
 7604SOL    HW134274   0.481   2.594  11.426  0.5810  2.4892 -0.3892
 7604SOL    HW234275   0.607   2.590  11.347  1.1923 -0.4539  0.3751
 7605SOL     OW34276   0.837   1.542   5.865  0.4319 -0.6729  0.4367
 7605SOL    HW134277   0.901   1.505   5.926  0.2258 -0.1502  0.9719
 7605SOL    HW234278   0.870   1.504   5.784  1.1108  1.6393 -0.3676
 7606SOL     OW34279   3.990   2.281   9.634 -0.0226 -0.1006  0.5597
 7606SOL    HW134280   4.081   2.252   9.635  0.9524  2.9448 -1.6252
 7606SOL    HW234281   3.996   2.376   9.639 -1.2042 -0.0101  0.4052
 7607SOL     OW34282   4.683   4.530  16.991 -0.1789  0.1756 -0.2871
 7607SOL    HW134283   4.706   4.516  16.899  1.0511 -0.6336  0.1316
 7607SOL    HW234284   0.006   4.457  17.033 -0.5272  1.0941  1.6906
 7608SOL     OW34285   2.693   2.979   5.789  0.2853  1.0420  0.1783
 7608SOL    HW134286   2.685   2.884   5.785  0.6211  0.9808  0.8648
 7608SOL    HW234287   2.600   3.002   5.785 -0.4655 -1.3344  3.2684
 7609SOL     OW34288   2.299   1.640   9.036 -0.1065 -0.1323 -0.3934
 7609SOL    HW134289   2.301   1.650   9.131 -0.2072 -0.5487 -0.3455
 7609SOL    HW234290   2.208   1.617   9.022 -0.6749  2.0033 -0.1991
 7610SOL     OW34291   0.834   1.944   2.059 -0.0528  0.1879  0.7576
 7610SOL    HW134292   0.812   1.971   1.970 -2.5456 -0.1920  1.2630
 7610SOL    HW234293   0.766   1.878   2.073 -1.8687  2.1543  1.2621
 7611SOL     OW34294   1.339   0.014   5.328  0.3884 -0.9992  0.5509
 7611SOL    HW134295   1.425   4.711   5.361 -0.1728 -2.1901  1.0735
 7611SOL    HW234296   1.368   0.080   5.264  2.8078 -1.9574  0.6821
 7612SOL     OW34297   0.937   2.068  14.691  0.3649 -0.2280 -0.0184
 7612SOL    HW134298   1.002   2.008  14.727  0.9235  0.7317  0.5790
 7612SOL    HW234299   0.923   2.007  14.619  1.4442  2.6609 -2.6678
 7613SOL     OW34300   1.370   4.451   4.194  0.1962 -0.2432  0.1311
 7613SOL    HW134301   1.464   4.457   4.175 -0.4184 -3.0447 -3.6945
 7613SOL    HW234302   1.337   4.392   4.127  2.6592 -1.2204 -0.2417
 7614SOL     OW34303   2.339   1.644   8.368 -0.0277  0.2023  0.2135
 7614SOL    HW134304   2.281   1.720   8.360 -0.3865 -0.0130  0.7542
 7614SOL    HW234305   2.343   1.627   8.462  1.2316  0.3668  0.1782
 7615SOL     OW34306   2.830   3.051   6.014 -0.2863 -0.3086 -0.3383
 7615SOL    HW134307   2.776   3.094   5.949  1.9713  1.4571 -1.0234
 7615SOL    HW234308   2.803   2.959   6.008 -1.2601 -0.0999  0.9014
 7616SOL     OW34309   3.029   0.191  13.592  0.6036 -0.7222 -0.1219
 7616SOL    HW134310   3.103   0.173  13.535  1.1654  0.9308  0.0894
 7616SOL    HW234311   2.986   0.265  13.548  0.5958  0.2138  1.4944
 7617SOL     OW34312   4.021   0.163   2.811 -0.2579  0.1666  0.4066
 7617SOL    HW134313   3.960   0.092   2.832 -1.7534  1.0641 -0.8825
 7617SOL    HW234314   3.968   0.243   2.819 -1.1733 -0.3016 -1.0532
 7618SOL     OW34315   3.391   1.056   7.373  0.7104  0.3243  0.1274
 7618SOL    HW134316   3.399   1.079   7.466  2.1402 -1.1418  0.3732
 7618SOL    HW234317   3.419   1.138   7.334  0.1614 -0.8342 -2.7263
 7619SOL     OW34318   3.076   2.199   4.306 -0.0236  0.0861 -0.4516
 7619SOL    HW134319   3.046   2.210   4.216 -0.6828 -1.0242 -0.3693
 7619SOL    HW234320   3.164   2.161   4.299  0.1206  0.4072 -0.4036
 7620SOL     OW34321   1.076   1.955   2.526 -0.8550  0.1857 -0.5181
 7620SOL    HW134322   1.120   1.903   2.459 -0.5296 -0.1290 -0.0589
 7620SOL    HW234323   0.989   1.978   2.494 -0.6374 -0.5811 -1.6776
 7621SOL     OW34324   2.702   1.091   1.855 -0.0533 -0.1155 -0.0123
 7621SOL    HW134325   2.652   1.089   1.936 -0.4236  0.2545 -0.2292
 7621SOL    HW234326   2.784   1.048   1.879  0.2072  0.7077  0.5638
 7622SOL     OW34327   4.389   1.807  12.730 -0.1078 -0.0380  0.1296
 7622SOL    HW134328   4.464   1.748  12.727  1.1139  1.6029 -1.3675
 7622SOL    HW234329   4.400   1.855  12.812 -1.0671  1.5849 -0.6916
 7623SOL     OW34330   3.436   1.533  10.581 -0.1266  0.4299  0.4419
 7623SOL    HW134331   3.343   1.510  10.576 -0.1902  0.7507  0.1449
 7623SOL    HW234332   3.428   1.625  10.604  0.4236  1.2467 -2.5728
 7624SOL     OW34333   4.552   2.627   6.319  0.2385 -0.9107  0.1654
 7624SOL    HW134334   4.505   2.633   6.402 -0.6077  0.2689 -0.4096
 7624SOL    HW234335   4.522   2.710   6.282  1.8592 -0.8192 -0.9416
 7625SOL     OW34336   1.667   4.296   6.690 -0.4367 -0.5767  0.1600
 7625SOL    HW134337   1.699   4.263   6.606  0.1862  0.1542  0.1035
 7625SOL    HW234338   1.730   4.270   6.757 -0.1982 -1.2505 -0.3175
 7626SOL     OW34339   2.200   4.125   5.678  0.3145  0.0503  0.5382
 7626SOL    HW134340   2.202   4.091   5.767  0.3846  2.4883  1.4336
 7626SOL    HW234341   2.292   4.120   5.653 -1.0724 -3.3902 -3.9487
 7627SOL     OW34342   2.773   2.579   5.242 -0.2613 -0.8566 -0.2506
 7627SOL    HW134343   2.768   2.640   5.316 -0.7297  0.1896 -1.1477
 7627SOL    HW234344   2.698   2.527   5.272  0.6438  0.1975  3.8185
 7628SOL     OW34345   0.522   0.508   1.602 -0.5709  0.1111 -0.4575
 7628SOL    HW134346   0.595   0.465   1.646 -0.1863 -1.6522 -2.8286
 7628SOL    HW234347   0.553   0.598   1.589 -0.7059  0.4666  1.7195
 7629SOL     OW34348   1.923   3.154   3.210 -0.0739  0.2312 -0.3092
 7629SOL    HW134349   1.842   3.103   3.209 -0.9140  1.5025  1.7519
 7629SOL    HW234350   1.896   3.232   3.259  0.2174 -0.0297  0.2737
 7630SOL     OW34351   1.826   2.258  16.453  0.1696  0.3906  0.6629
 7630SOL    HW134352   1.872   2.285  16.532  0.5174  1.2569  0.1771
 7630SOL    HW234353   1.746   2.310  16.453 -0.0872  0.0121 -1.2935
 7631SOL     OW34354   1.464   0.925   2.413  0.5483 -0.5250  0.0047
 7631SOL    HW134355   1.463   0.975   2.332 -1.9531  0.5711  0.7076
 7631SOL    HW234356   1.468   0.998   2.474  1.8087 -0.4743 -0.1483
 7632SOL     OW34357   4.412   1.151  10.524  0.5117 -0.3600 -0.0388
 7632SOL    HW134358   4.476   1.122  10.459  0.8866  2.0209 -0.7195
 7632SOL    HW234359   4.404   1.246  10.518 -0.1456 -0.3155  1.6371
 7633SOL     OW34360   3.553   2.543   8.816  0.1203  0.6249 -0.5709
 7633SOL    HW134361   3.625   2.534   8.753 -0.5868  0.5995 -1.3602
 7633SOL    HW234362   3.587   2.595   8.889 -0.4873  0.9612 -0.5351
 7634SOL     OW34363   3.391   0.556   6.322 -0.2651 -0.2864  0.5087
 7634SOL    HW134364   3.298   0.560   6.297 -0.1160 -2.0289 -0.2503
 7634SOL    HW234365   3.397   0.643   6.362 -2.0793 -0.0069  0.1742
 7635SOL     OW34366   2.679   0.623   0.930  0.1056  0.0843  0.1623
 7635SOL    HW134367   2.618   0.604   1.002 -0.0673  1.2089  0.3087
 7635SOL    HW234368   2.684   0.718   0.920  1.4633 -0.3500 -3.0771
 7636SOL     OW34369   0.541   2.122  12.276  0.1155  0.0174 -0.1492
 7636SOL    HW134370   0.541   2.182  12.201  0.0696 -0.5344 -0.5947
 7636SOL    HW234371   0.479   2.055  12.247  0.7699 -0.0456 -1.4067
 7637SOL     OW34372   2.315   1.638   5.025  0.8774 -0.5396  0.1054
 7637SOL    HW134373   2.269   1.664   5.105  1.4877 -1.4538  0.7543
 7637SOL    HW234374   2.245   1.624   4.961 -0.5697  0.6017  1.4296
 7638SOL     OW34375   2.768   4.077   4.818 -0.3390 -0.3309 -0.0427
 7638SOL    HW134376   2.759   4.017   4.892 -0.7618  0.4867  0.5627
 7638SOL    HW234377   2.841   4.129   4.849 -0.0602 -0.8569  0.1794
 7639SOL     OW34378   1.223   2.516   3.186 -0.5684 -0.1628 -0.1557
 7639SOL    HW134379   1.262   2.581   3.127  0.9297  0.5139  1.6055
 7639SOL    HW234380   1.234   2.554   3.272  1.7413  1.4572 -1.1765
 7640SOL     OW34381   3.083   4.519  14.021 -0.1150 -0.4253 -0.7125
 7640SOL    HW134382   3.168   4.561  14.010 -0.5788  0.8170  0.3759
 7640SOL    HW234383   3.027   4.587  14.058 -0.6933 -2.1220  1.4771
 7641SOL     OW34384   1.251   3.864  11.792  0.2971 -0.3657  0.8246
 7641SOL    HW134385   1.334   3.817  11.804  0.8777  0.4498  0.0144
 7641SOL    HW234386   1.218   3.812  11.719  1.4237  0.7677 -0.5061
 7642SOL     OW34387   3.140   1.818   3.688  0.2022  0.2956  0.1455
 7642SOL    HW134388   3.160   1.832   3.595 -0.3660  0.8650  0.1130
 7642SOL    HW234389   3.226   1.791   3.722  0.5630  1.3282  0.0516
 7643SOL     OW34390   2.929   2.139  14.428 -0.1161  0.3526 -0.3974
 7643SOL    HW134391   2.920   2.134  14.523  0.0346 -3.0558 -0.5871
 7643SOL    HW234392   2.841   2.122  14.396  0.4959  1.1757 -2.4739
 7644SOL     OW34393   0.145   1.848   7.949  0.3575  0.4331  0.7623
 7644SOL    HW134394   0.124   1.778   7.887  2.4662  0.0639  0.4608
 7644SOL    HW234395   0.063   1.872   7.991  0.6134  0.6558  1.1343
 7645SOL     OW34396   2.373   3.929   2.796  1.1627  0.7597  0.2739
 7645SOL    HW134397   2.422   3.979   2.731  0.9750  1.9818  1.0730
 7645SOL    HW234398   2.428   3.855   2.821 -0.8034 -1.0229 -0.6458
 7646SOL     OW34399   4.520   2.000   4.758 -0.0065 -0.1263 -0.0029
 7646SOL    HW134400   4.468   1.936   4.709  0.6917 -0.5027 -0.2539
 7646SOL    HW234401   4.569   1.944   4.818 -0.0309 -1.0444 -0.8351
 7647SOL     OW34402   3.867   3.608   0.440  0.8072  0.2624 -0.1808
 7647SOL    HW134403   3.840   3.630   0.351 -0.6874  0.0724  0.2284
 7647SOL    HW234404   3.892   3.695   0.470  0.4183  0.5182 -0.6012
 7648SOL     OW34405   3.245   2.570   5.172  0.4747 -0.1419  0.3875
 7648SOL    HW134406   3.185   2.496   5.165 -0.2397  0.6820 -2.4077
 7648SOL    HW234407   3.239   2.601   5.082 -0.6619  0.5523  0.6953
 7649SOL     OW34408   0.626   2.161   2.384  0.3015 -0.3173 -0.6382
 7649SOL    HW134409   0.549   2.217   2.375 -0.7149 -1.1028  3.0975
 7649SOL    HW234410   0.675   2.180   2.304 -0.0329  2.3865 -0.2040
 7650SOL     OW34411   0.889   2.077   9.450 -0.4571 -0.3392 -0.5075
 7650SOL    HW134412   0.832   2.010   9.488 -2.3463  1.4783 -0.0977
 7650SOL    HW234413   0.825   2.143   9.425 -2.6990 -1.3319  2.5075
 7651SOL     OW34414   0.679   4.256   3.746  0.1795 -0.5783 -0.4112
 7651SOL    HW134415   0.599   4.214   3.714  0.6159 -2.1805  0.6604
 7651SOL    HW234416   0.641   4.332   3.791  0.0529 -0.7200 -0.2779
 7652SOL     OW34417   1.167   1.331   6.711 -0.1044 -0.1331  0.6050
 7652SOL    HW134418   1.162   1.378   6.794 -0.6482  0.0984  0.4454
 7652SOL    HW234419   1.121   1.251   6.737  0.4031 -0.3460  0.8317
 7653SOL     OW34420   2.901   3.200   7.440  0.2372  0.5240  0.3237
 7653SOL    HW134421   2.822   3.236   7.400  0.0589 -0.3119 -0.0916
 7653SOL    HW234422   2.971   3.204   7.375 -0.0824 -1.2737 -0.1382
 7654SOL     OW34423   1.959   2.730   5.502 -0.7274  0.0458  0.2052
 7654SOL    HW134424   1.919   2.651   5.539  3.0652 -2.3060 -0.6770
 7654SOL    HW234425   1.888   2.771   5.453 -0.4860  0.7868  0.4777
 7655SOL     OW34426   1.350   2.343   6.367  0.3731 -0.0628  0.1559
 7655SOL    HW134427   1.284   2.285   6.329 -0.7802 -0.7714  3.2212
 7655SOL    HW234428   1.308   2.360   6.451 -0.9229 -2.0385 -0.0999
 7656SOL     OW34429   1.125   3.079   3.220 -0.3665  0.2800  0.2497
 7656SOL    HW134430   1.149   3.143   3.154 -0.0327  0.6543  0.7367
 7656SOL    HW234431   1.199   3.093   3.279 -1.0111 -0.3234  1.2111
 7657SOL     OW34432   1.597   3.062   3.913 -0.5439  0.0281  0.5518
 7657SOL    HW134433   1.591   2.971   3.882  1.0035  0.5804 -1.3289
 7657SOL    HW234434   1.538   3.061   3.988 -2.0724 -1.7377 -0.6604
 7658SOL     OW34435   2.128   1.353   3.400 -0.4127  0.3196 -0.4645
 7658SOL    HW134436   2.156   1.318   3.315  2.7064  3.4145 -0.6900
 7658SOL    HW234437   2.146   1.446   3.385  0.4610  0.1172 -0.6335
 7659SOL     OW34438   0.334   0.270  12.789  0.3509 -0.5126  0.6668
 7659SOL    HW134439   0.249   0.240  12.822  1.7668 -1.9049  3.0835
 7659SOL    HW234440   0.380   0.288  12.871  0.9231 -0.4548  0.3345
 7660SOL     OW34441   1.181   4.553   3.818 -0.0857  0.0164  0.2751
 7660SOL    HW134442   1.166   4.601   3.900 -3.5396 -1.2525  0.4012
 7660SOL    HW234443   1.275   4.564   3.803 -0.4860  2.4709 -0.3200
 7661SOL     OW34444   3.553   0.417   4.811 -0.3035 -0.4789  0.6844
 7661SOL    HW134445   3.580   0.368   4.888  0.2825 -0.9318  0.1883
 7661SOL    HW234446   3.600   0.499   4.829 -0.1077 -0.1659 -1.2074
 7662SOL     OW34447   2.628   4.571   1.813  0.1675 -0.4235 -0.3473
 7662SOL    HW134448   2.711   4.610   1.787  0.9772 -1.7016  0.2967
 7662SOL    HW234449   2.564   4.642   1.821  1.7226  0.9997 -0.5517
 7663SOL     OW34450   1.199   2.337   4.182 -0.1611  0.6246  0.5190
 7663SOL    HW134451   1.235   2.350   4.094 -1.8354 -0.1667 -0.2761
 7663SOL    HW234452   1.120   2.286   4.165  0.6345 -0.0581 -1.2039
 7664SOL     OW34453   3.511   3.844   1.624 -0.1193  0.4080  0.4399
 7664SOL    HW134454   3.604   3.825   1.637 -0.5831 -1.8638  0.4949
 7664SOL    HW234455   3.478   3.757   1.602  1.1671 -0.6480  2.7044
 7665SOL     OW34456   1.097   4.315   7.941 -0.2784 -0.3736 -0.4068
 7665SOL    HW134457   1.169   4.265   7.903  0.0063 -0.2589 -0.0132
 7665SOL    HW234458   1.082   4.381   7.872 -0.7119  0.9484  0.9535
 7666SOL     OW34459   4.371   2.015   6.435  0.8988  0.3366 -0.1116
 7666SOL    HW134460   4.446   2.019   6.494 -1.5825 -2.8582  3.1849
 7666SOL    HW234461   4.398   1.981   6.349  0.1291  0.3647 -0.3632
 7667SOL     OW34462   2.154   3.037   0.704 -0.7873 -0.0792  0.5737
 7667SOL    HW134463   2.226   2.980   0.676 -0.8697  0.5118 -0.8383
 7667SOL    HW234464   2.172   3.125   0.670 -1.2982  0.8732  2.7616
 7668SOL     OW34465   4.572   1.708   5.749 -0.4452  0.3117  0.9147
 7668SOL    HW134466   4.665   1.710   5.725 -0.7899  0.7770 -0.3889
 7668SOL    HW234467   4.537   1.633   5.701 -1.8928  0.2085  2.1261
 7669SOL     OW34468   0.327   2.647   1.942 -0.3906  0.4817 -0.1892
 7669SOL    HW134469   0.326   2.722   2.001 -1.2098 -0.1553  0.6030
 7669SOL    HW234470   0.249   2.665   1.889 -0.0856  0.6415 -0.5840
 7670SOL     OW34471   1.327   3.182   3.391  0.8266  0.6755  0.1376
 7670SOL    HW134472   1.346   3.130   3.469  0.6979  0.7282  0.2034
 7670SOL    HW234473   1.293   3.262   3.432 -0.4063 -0.4840  1.3478
 7671SOL     OW34474   3.303   1.567   8.828  0.1619  0.4607 -0.0590
 7671SOL    HW134475   3.248   1.545   8.903  2.0547  1.8528  1.7460
 7671SOL    HW234476   3.334   1.478   8.811 -0.4693 -0.0650  1.4886
 7672SOL     OW34477   4.007   1.037   0.602  0.2776 -0.5236 -0.1746
 7672SOL    HW134478   4.020   1.127   0.570  1.0706 -1.1657 -1.6355
 7672SOL    HW234479   3.999   0.987   0.521 -0.1908 -1.8738  0.7091
 7673SOL     OW34480   1.519   2.147   3.814  0.5526  0.2647  0.0125
 7673SOL    HW134481   1.442   2.107   3.855 -0.6039  1.1859 -1.2649
 7673SOL    HW234482   1.568   2.190   3.883  0.8227  0.1521 -0.1078
 7674SOL     OW34483   3.626   0.507   3.907 -0.2548 -0.6196  0.2937
 7674SOL    HW134484   3.695   0.562   3.943 -0.3935  0.1530 -0.6261
 7674SOL    HW234485   3.552   0.567   3.908 -0.0114 -0.3333  1.2860
 7675SOL     OW34486   3.312   2.190  13.568  0.3697  0.2231 -0.2983
 7675SOL    HW134487   3.366   2.112  13.562  0.2840  0.1900 -0.6272
 7675SOL    HW234488   3.244   2.161  13.629  0.7209 -1.8541 -0.8964
 7676SOL     OW34489   2.850   3.248   2.084  0.0245 -0.2034 -0.5340
 7676SOL    HW134490   2.904   3.327   2.073  0.5624 -0.7568 -1.8546
 7676SOL    HW234491   2.813   3.242   1.996 -0.3640 -1.9989 -0.2494
 7677SOL     OW34492   0.101   2.570   1.497  0.1236 -0.0393  1.0883
 7677SOL    HW134493   0.124   2.621   1.420  2.9489  0.3710  2.1999
 7677SOL    HW234494   0.177   2.511   1.501  1.3792  1.3829 -1.9319
 7678SOL     OW34495   3.829   4.625  15.205  0.8677  0.7926  0.8630
 7678SOL    HW134496   3.882   4.614  15.127 -1.3480 -1.8503 -0.2855
 7678SOL    HW234497   3.756   4.567  15.183  2.6718 -0.4961 -1.6648
 7679SOL     OW34498   3.983   4.262  14.225  0.4275  0.2263  0.7218
 7679SOL    HW134499   3.890   4.282  14.233  0.4226  0.0284  1.1726
 7679SOL    HW234500   4.017   4.286  14.311  0.5852  2.1823  0.1136
 7680SOL     OW34501   3.026   4.344   6.652  0.0554  0.3117 -0.7125
 7680SOL    HW134502   2.982   4.260   6.670 -0.4441  0.8916  0.7997
 7680SOL    HW234503   3.061   4.351   6.741  1.1662  0.1385 -1.1386
 7681SOL     OW34504   2.328   2.499  10.266 -0.3105 -0.2596 -0.3577
 7681SOL    HW134505   2.312   2.546  10.348 -0.3440  0.3359 -0.7047
 7681SOL    HW234506   2.264   2.549  10.215  1.1413  0.9077 -1.0482
 7682SOL     OW34507   1.504   0.066   2.454  0.1799  0.0377 -0.4393
 7682SOL    HW134508   1.410   0.047   2.455  0.5350 -1.7455 -0.3696
 7682SOL    HW234509   1.509   0.121   2.376 -4.3596  0.5109 -0.4040
 7683SOL     OW34510   2.086   3.034  13.586  0.9781 -0.4922  0.2165
 7683SOL    HW134511   2.175   3.011  13.560  1.1074 -0.3293  0.5124
 7683SOL    HW234512   2.051   3.075  13.507  0.1573 -1.1621  0.2302
 7684SOL     OW34513   3.560   2.165  10.446  0.1303 -0.4479 -0.2185
 7684SOL    HW134514   3.655   2.171  10.456 -0.0298 -1.2639  1.7904
 7684SOL    HW234515   3.554   2.089  10.388  0.6738 -0.4236 -0.3122
 7685SOL     OW34516   3.784   3.337   0.242  0.6270 -0.4217 -0.4403
 7685SOL    HW134517   3.872   3.331   0.281 -0.3812 -0.6671  1.8159
 7685SOL    HW234518   3.757   3.245   0.243 -2.0652  0.3805  0.6924
 7686SOL     OW34519   0.095   1.958   5.894  0.5688  0.3533 -0.0207
 7686SOL    HW134520   0.021   2.018   5.897 -2.8310 -3.9009 -0.2049
 7686SOL    HW234521   0.077   1.897   5.823 -1.1147  0.4448  0.3343
 7687SOL     OW34522   0.368   1.038  15.104 -0.5187  0.0685  0.2246
 7687SOL    HW134523   0.368   1.097  15.029 -0.7781  1.6063  1.4412
 7687SOL    HW234524   0.438   1.075  15.158  0.6494 -0.2274 -1.0976
 7688SOL     OW34525   0.040   3.370   5.260 -0.1547 -0.7038  0.1392
 7688SOL    HW134526   4.674   3.404   5.249  0.8812  2.0426  0.2550
 7688SOL    HW234527   0.035   3.279   5.230 -1.7141 -0.5255 -0.1390
 7689SOL     OW34528   0.252   2.024  15.029 -0.3968  0.3934  0.1665
 7689SOL    HW134529   0.174   1.987  14.987  0.6088 -0.3926 -0.9929
 7689SOL    HW234530   0.324   1.988  14.978 -0.2902  1.1658 -0.2317
 7690SOL     OW34531   3.607   3.750   7.563  0.1813  0.2155 -0.2290
 7690SOL    HW134532   3.526   3.779   7.520 -0.6095  1.5222  2.1737
 7690SOL    HW234533   3.677   3.777   7.503  0.8685 -2.5003 -0.6553
 7691SOL     OW34534   4.229   3.146   3.205  0.7174 -0.6858 -0.0399
 7691SOL    HW134535   4.168   3.076   3.228  2.1302 -2.0221 -0.3917
 7691SOL    HW234536   4.218   3.188   3.291 -1.0917  0.6541 -0.9464
 7692SOL     OW34537   3.048   1.949   6.991 -0.2920  0.0453  0.4929
 7692SOL    HW134538   3.048   2.044   7.003 -1.1484  0.1117 -0.0705
 7692SOL    HW234539   3.035   1.926   7.083  0.8386 -1.1292  0.3572
 7693SOL     OW34540   1.309   0.052   6.485  0.7000  0.0899  0.0989
 7693SOL    HW134541   1.250   4.722   6.432  1.7040 -1.0954  0.1876
 7693SOL    HW234542   1.258   0.094   6.555  1.4097  0.0275  0.6527
 7694SOL     OW34543   0.096   3.924   1.371  0.1522  0.3658  0.0040
 7694SOL    HW134544   0.054   3.877   1.299  0.0697 -0.4156  0.5593
 7694SOL    HW234545   0.133   3.853   1.423  0.1443 -0.7063 -1.4385
 7695SOL     OW34546   2.649   0.056   0.010 -0.2926 -0.0988  0.0462
 7695SOL    HW134547   2.726   0.005  17.680  1.7601  2.5929  0.9381
 7695SOL    HW234548   2.657   0.125  17.638  1.7331 -0.3933 -0.0222
 7696SOL     OW34549   1.060   0.282   9.087 -0.2196  0.0871 -0.0595
 7696SOL    HW134550   1.022   0.204   9.127 -1.0366  1.6323  2.1491
 7696SOL    HW234551   1.004   0.292   9.010  0.6445 -2.1633 -0.9957
 7697SOL     OW34552   3.011   1.606   4.554  0.2139  0.1593  0.0465
 7697SOL    HW134553   2.961   1.570   4.628 -1.0575 -0.2404 -1.0061
 7697SOL    HW234554   3.097   1.611   4.596  0.0804  0.4950  0.2872
 7698SOL     OW34555   1.939   1.030   6.077 -0.0715 -0.0454  0.3042
 7698SOL    HW134556   2.026   0.991   6.087 -0.5913 -0.8498  1.7451
 7698SOL    HW234557   1.885   0.952   6.066  0.2458 -0.4190  1.3607
 7699SOL     OW34558   2.479   1.161   7.999  0.1194  0.6713  0.8283
 7699SOL    HW134559   2.570   1.141   7.976  0.2996  1.3990  0.9111
 7699SOL    HW234560   2.490   1.253   8.022  3.4729  0.3872  0.3490
 7700SOL     OW34561   0.368   3.500   3.045 -0.4120 -0.2479  0.5273
 7700SOL    HW134562   0.301   3.520   2.980 -0.0138  1.6276  0.7141
 7700SOL    HW234563   0.349   3.413   3.082  1.0891 -1.3317 -1.2519
 7701SOL     OW34564   1.611   1.073   7.266 -0.2292  0.2072 -0.0468
 7701SOL    HW134565   1.665   1.152   7.269 -3.6715  2.5311  0.3386
 7701SOL    HW234566   1.535   1.098   7.213  1.1324  0.6246 -1.7965
 7702SOL     OW34567   4.651   0.270  16.099 -0.0860 -0.2469 -0.2417
 7702SOL    HW134568   4.639   0.303  16.188  0.2909  0.3074 -0.3987
 7702SOL    HW234569   4.660   0.348  16.045 -1.8599  0.4151  0.4357
 7703SOL     OW34570   3.129   3.518   5.946  0.3126 -0.1272  0.1472
 7703SOL    HW134571   3.111   3.452   5.879  0.2355 -0.4549  0.4920
 7703SOL    HW234572   3.094   3.597   5.906  0.1182 -0.9768 -1.3819
 7704SOL     OW34573   0.395   4.131  10.906 -0.1487  0.4445 -0.7154
 7704SOL    HW134574   0.380   4.194  10.976 -0.2886 -2.0526  1.4861
 7704SOL    HW234575   0.420   4.053  10.956  2.0091  0.4402 -1.7913
 7705SOL     OW34576   3.126   4.312   6.954 -0.3570 -0.6441  0.2240
 7705SOL    HW134577   3.047   4.289   7.002 -0.0326 -1.1265  0.5338
 7705SOL    HW234578   3.200   4.270   6.998  1.4160  3.2627  0.9640
 7706SOL     OW34579   2.880   4.337  11.146 -0.1524 -0.1614  0.5711
 7706SOL    HW134580   2.808   4.312  11.088 -0.0145  0.4499  0.1348
 7706SOL    HW234581   2.892   4.269  11.212  1.5500  0.5792  1.0227
 7707SOL     OW34582   1.758   2.677  11.340 -0.5749 -0.2166  0.4706
 7707SOL    HW134583   1.819   2.751  11.352  0.0531 -0.7700  0.7203
 7707SOL    HW234584   1.745   2.643  11.429 -0.9505 -2.1514 -0.3207
 7708SOL     OW34585   3.170   0.207   5.327 -0.5387 -0.3455 -0.3311
 7708SOL    HW134586   3.123   0.145   5.272  0.5005 -0.6057 -0.9249
 7708SOL    HW234587   3.126   0.194   5.411 -2.1858 -0.4430 -1.2240
 7709SOL     OW34588   2.661   2.992  11.155 -0.2785  0.2766  0.0914
 7709SOL    HW134589   2.634   3.035  11.236  1.1768  1.3023  0.0203
 7709SOL    HW234590   2.588   3.012  11.096 -0.7755 -0.1490  0.5675
 7710SOL     OW34591   3.806   0.396   1.743 -0.0542 -0.4134  0.3760
 7710SOL    HW134592   3.786   0.304   1.729 -1.5061 -0.1675  0.8455
 7710SOL    HW234593   3.802   0.384   1.837 -0.2041 -0.6766  0.3358
 7711SOL     OW34594   0.164   4.711   2.831 -0.2165 -0.8179  0.7187
 7711SOL    HW134595   0.201   4.634   2.788 -2.9091 -2.5138  1.3911
 7711SOL    HW234596   0.162   4.679   2.921  1.4727  1.1661  1.4561
 7712SOL     OW34597   0.569   3.071   5.823 -0.4046 -0.2536  0.4046
 7712SOL    HW134598   0.661   3.076   5.848 -0.0348  0.9064 -1.2455
 7712SOL    HW234599   0.563   3.116   5.739 -1.9197 -0.4951  0.3775
 7713SOL     OW34600   4.239   1.738  13.512 -0.0350 -0.1869 -0.2465
 7713SOL    HW134601   4.219   1.650  13.546 -0.3935  0.2779  0.7455
 7713SOL    HW234602   4.241   1.787  13.594 -1.3098 -0.8809  0.2138
 7714SOL     OW34603   4.025   0.430   3.199 -0.0579  0.0945 -0.2725
 7714SOL    HW134604   4.091   0.409   3.265  0.0676  1.8136  0.1428
 7714SOL    HW234605   3.984   0.509   3.234 -2.1404 -1.0391 -0.1982
 7715SOL     OW34606   3.176   2.931  17.629  0.2436 -0.1573 -0.2961
 7715SOL    HW134607   3.137   3.010  17.591  1.1862  1.4936  2.1941
 7715SOL    HW234608   3.127   2.866  17.578  0.3861 -0.5024  0.0109
 7716SOL     OW34609   2.158   2.654   4.099  0.2751 -0.3580  0.5151
 7716SOL    HW134610   2.247   2.622   4.113  0.1653 -0.9350 -0.1002
 7716SOL    HW234611   2.162   2.722   4.032 -1.0427  1.1689  1.9777
 7717SOL     OW34612   0.562   2.441   1.676 -0.1170 -0.2570 -0.6930
 7717SOL    HW134613   0.547   2.366   1.733  2.9566 -0.1117  0.2786
 7717SOL    HW234614   0.549   2.512   1.738 -0.1939  0.5331 -1.6015
 7718SOL     OW34615   4.353   0.981   9.310  0.2585  0.4644 -0.5869
 7718SOL    HW134616   4.357   1.021   9.398  0.8033  0.2334 -0.5079
 7718SOL    HW234617   4.361   1.059   9.255  1.0416  0.7365 -0.0926
 7719SOL     OW34618   1.994   3.454   3.854 -0.2309 -0.1911 -0.1370
 7719SOL    HW134619   2.023   3.386   3.793 -0.9182 -0.1909 -0.4572
 7719SOL    HW234620   2.012   3.537   3.811  2.6600  0.0558  1.5713
 7720SOL     OW34621   4.010   1.174   9.106 -0.5628  0.6154  0.2851
 7720SOL    HW134622   4.071   1.207   9.172 -2.6797  0.3093  2.4059
 7720SOL    HW234623   3.948   1.247   9.104  0.0858  1.1682  0.2767
 7721SOL     OW34624   1.779   0.332   5.503 -0.5699  0.0774 -0.0075
 7721SOL    HW134625   1.744   0.336   5.414  1.2491 -0.8555 -0.7611
 7721SOL    HW234626   1.855   0.389   5.490  0.5731 -1.0803  1.6559
 7722SOL     OW34627   2.090   2.687   6.128  0.3748  0.7347  0.2707
 7722SOL    HW134628   2.067   2.600   6.162  0.8468  0.8551  0.8995
 7722SOL    HW234629   2.041   2.686   6.046  1.9838 -0.5901 -0.6714
 7723SOL     OW34630   1.464   4.557  16.601  0.1284 -0.2344  0.1234
 7723SOL    HW134631   1.538   4.547  16.541  0.0697 -5.1234  0.8673
 7723SOL    HW234632   1.413   4.627  16.559 -0.6360  0.6532  2.5688
 7724SOL     OW34633   1.915   1.857  14.698  0.0765  0.1309  0.2916
 7724SOL    HW134634   1.868   1.825  14.621  0.8743  0.5057 -0.3548
 7724SOL    HW234635   1.950   1.775  14.734  0.2956  0.5280  0.9776
 7725SOL     OW34636   0.872   1.193  13.441  0.1185  0.0012  0.2182
 7725SOL    HW134637   0.934   1.175  13.370  0.3179  0.5601  0.2504
 7725SOL    HW234638   0.830   1.107  13.442 -1.1853  0.6694  1.6188
 7726SOL     OW34639   3.473   4.600   7.243  0.0324 -0.2890 -0.5863
 7726SOL    HW134640   3.539   4.669   7.245  2.5259 -2.7111 -0.6919
 7726SOL    HW234641   3.395   4.654   7.259 -0.5812 -1.6979  1.1986
 7727SOL     OW34642   4.632   0.234   3.376 -0.4787  0.2249  0.2080
 7727SOL    HW134643   4.703   0.294   3.396  0.1567 -0.0659 -1.1725
 7727SOL    HW234644   4.678   0.151   3.389  0.2064  0.5163 -0.4000
 7728SOL     OW34645   1.264   0.833  10.194 -0.4251  0.1083 -0.3290
 7728SOL    HW134646   1.355   0.857  10.174 -0.7798 -0.9432 -3.2841
 7728SOL    HW234647   1.211   0.911  10.176 -1.3148 -0.8754 -1.9519
 7729SOL     OW34648   3.411   3.973   2.581  0.7023 -0.2680  0.1869
 7729SOL    HW134649   3.378   4.017   2.659  0.1171  1.2594 -0.9235
 7729SOL    HW234650   3.441   3.891   2.621  0.5826 -0.7486 -0.7248
 7730SOL     OW34651   0.064   1.870   1.311 -0.7551  0.1706 -0.2552
 7730SOL    HW134652   0.088   1.862   1.403 -2.3986  0.6979  0.2025
 7730SOL    HW234653   0.079   1.776   1.298 -1.9875 -0.3126  1.9627
 7731SOL     OW34654   1.477   2.626  10.383  0.3743  0.1112  0.7309
 7731SOL    HW134655   1.411   2.565  10.416  0.7349  0.4475  2.1064
 7731SOL    HW234656   1.459   2.620  10.290 -1.4135 -1.7638  1.2132
 7732SOL     OW34657   4.373   0.574   2.350 -0.2199  0.3370 -0.0073
 7732SOL    HW134658   4.399   0.569   2.258 -0.1435  1.8579 -0.0696
 7732SOL    HW234659   4.436   0.639   2.382 -0.6212 -0.7762  3.1246
 7733SOL     OW34660   2.923   3.911   7.084 -0.6681 -0.1145 -0.2970
 7733SOL    HW134661   2.862   3.842   7.109 -1.2130  0.3396 -0.3731
 7733SOL    HW234662   3.002   3.872   7.121  0.3237 -0.9202 -3.2245
 7734SOL     OW34663   4.460   2.832   4.702 -0.4469  0.1337  0.3606
 7734SOL    HW134664   4.438   2.739   4.714  3.4674 -1.0171 -1.3844
 7734SOL    HW234665   4.486   2.842   4.611  1.4431  1.2399  1.0311
 7735SOL     OW34666   0.021   3.718   7.248 -0.0904 -0.7025 -0.0421
 7735SOL    HW134667   0.099   3.674   7.282  0.1967 -1.1005 -1.2193
 7735SOL    HW234668   4.687   3.719   7.325 -2.5140  0.9840 -1.8742
 7736SOL     OW34669   4.182   4.490   5.118  0.0274  0.0768 -0.6281
 7736SOL    HW134670   4.206   4.570   5.071 -2.1440  0.4251 -1.1478
 7736SOL    HW234671   4.258   4.459   5.167 -0.6540 -1.6295 -0.6753
 7737SOL     OW34672   2.035   2.928   8.626 -0.4203 -0.0550 -0.1988
 7737SOL    HW134673   2.059   2.987   8.555 -1.3641  0.0144 -0.4575
 7737SOL    HW234674   2.096   2.958   8.693 -1.5557 -0.3130  0.9691
 7738SOL     OW34675   2.789   2.684  13.504  0.1074  0.2281  0.0490
 7738SOL    HW134676   2.760   2.597  13.529  2.2268 -1.1190 -2.1420
 7738SOL    HW234677   2.882   2.662  13.499 -0.4942 -1.9742 -1.3849
 7739SOL     OW34678   3.760   2.725  14.338  0.4761 -0.3145 -0.2957
 7739SOL    HW134679   3.848   2.761  14.344  1.0418 -2.1510  2.7134
 7739SOL    HW234680   3.741   2.705  14.429 -1.2882  0.5605 -0.4784
 7740SOL     OW34681   3.708   4.494   7.589 -0.2148  0.3061 -0.6167
 7740SOL    HW134682   3.758   4.553   7.531  0.1831  1.4969  0.9285
 7740SOL    HW234683   3.655   4.559   7.634 -0.0319 -1.1115  1.6115
 7741SOL     OW34684   4.684   2.137  16.821 -0.7485  0.2490  0.1666
 7741SOL    HW134685   4.646   2.168  16.903  0.2992  0.0350  0.7288
 7741SOL    HW234686   0.008   2.215  16.792  0.2089 -0.7637 -1.0007
 7742SOL     OW34687   0.712   2.917  13.310 -0.3456  0.2860  0.4099
 7742SOL    HW134688   0.681   2.923  13.400  1.2380  3.8519  0.7073
 7742SOL    HW234689   0.672   2.994  13.270  0.5673  0.8226  0.5217
 7743SOL     OW34690   2.961   3.349  16.704 -0.7756  0.5058 -0.0910
 7743SOL    HW134691   2.989   3.391  16.785 -1.1099  2.1093 -0.8190
 7743SOL    HW234692   2.998   3.412  16.643 -1.8510  0.1251 -1.1442
 7744SOL     OW34693   3.173   0.833   3.638  0.2122 -0.8656  0.0934
 7744SOL    HW134694   3.125   0.875   3.709  0.1199 -1.6251  0.4840
 7744SOL    HW234695   3.169   0.739   3.656  0.8053 -1.1506 -1.2742
 7745SOL     OW34696   0.536   0.230  10.412 -0.3125 -0.3527 -0.0241
 7745SOL    HW134697   0.582   0.263  10.490  1.1370 -3.2720  0.3487
 7745SOL    HW234698   0.510   0.144  10.443  1.8141 -1.2621 -0.7567
 7746SOL     OW34699   2.417   0.658   3.302 -0.6082 -0.9491 -0.5620
 7746SOL    HW134700   2.505   0.629   3.280 -0.2095  0.5214 -0.8657
 7746SOL    HW234701   2.359   0.585   3.278  0.0801 -1.8768  0.5350
 7747SOL     OW34702   2.995   3.751  16.085  0.2811  0.0589 -0.2119
 7747SOL    HW134703   3.030   3.668  16.117  0.1509  0.4844  1.0332
 7747SOL    HW234704   2.905   3.729  16.061 -0.0986  0.0014  1.3264
 7748SOL     OW34705   0.132   0.214  12.506  0.8803 -0.0461 -0.3954
 7748SOL    HW134706   0.070   0.177  12.569  1.7206 -1.7494 -0.5516
 7748SOL    HW234707   0.166   0.130  12.474 -0.1088 -0.6100  0.0284
 7749SOL     OW34708   1.168   3.846   6.436 -0.0310  0.0938  0.2497
 7749SOL    HW134709   1.231   3.918   6.435  1.5653 -1.3264 -1.9784
 7749SOL    HW234710   1.223   3.770   6.457 -1.4367 -0.6482  1.2512
 7750SOL     OW34711   3.172   0.702   1.771  0.9206  0.1789 -0.1686
 7750SOL    HW134712   3.243   0.702   1.706 -1.0950  0.5330 -2.3738
 7750SOL    HW234713   3.203   0.646   1.842 -0.6776  1.2204  1.3459
 7751SOL     OW34714   3.116   0.379  11.232  0.5710 -0.4358 -0.7521
 7751SOL    HW134715   3.191   0.345  11.280  0.2574 -1.1808 -0.7883
 7751SOL    HW234716   3.160   0.445  11.178 -0.4491  1.6144  0.9124
 7752SOL     OW34717   3.154   4.233  10.182  0.7455  0.4599 -0.4869
 7752SOL    HW134718   3.106   4.260  10.103  0.2116  0.0811 -0.2897
 7752SOL    HW234719   3.155   4.139  10.162  1.3423  0.1657  0.9956
 7753SOL     OW34720   3.814   2.257   8.782  0.4422  0.2312 -0.7026
 7753SOL    HW134721   3.807   2.348   8.752  0.5341  0.3056 -0.4989
 7753SOL    HW234722   3.778   2.217   8.702  0.6505 -1.3867  0.0229
 7754SOL     OW34723   0.200   0.395  16.732  0.1825 -0.7709  0.0843
 7754SOL    HW134724   0.142   0.321  16.746  2.4683 -2.3414  1.2979
 7754SOL    HW234725   0.276   0.359  16.686  0.6741  2.3263 -1.5569
 7755SOL     OW34726   2.553   2.770  11.814  0.3176  0.3818  0.0199
 7755SOL    HW134727   2.621   2.711  11.846  0.4160 -0.3007 -1.4164
 7755SOL    HW234728   2.570   2.849  11.864 -0.0238  0.3337  0.2114
 7756SOL     OW34729   2.503   0.872   8.622  0.0172  0.0451 -0.3710
 7756SOL    HW134730   2.425   0.925   8.605  0.1813  0.4385  0.1000
 7756SOL    HW234731   2.462   0.790   8.649 -0.7886  1.0182  1.3671
 7757SOL     OW34732   2.422   2.906   8.581  0.3281  0.3768  0.6883
 7757SOL    HW134733   2.458   2.966   8.515 -1.1231  0.1303 -0.3113
 7757SOL    HW234734   2.485   2.917   8.653 -0.5809 -1.9408  1.8209
 7758SOL     OW34735   3.156   3.179   1.666 -0.0591 -0.4765  0.5371
 7758SOL    HW134736   3.115   3.265   1.664  1.0336  0.0199 -0.7365
 7758SOL    HW234737   3.093   3.117   1.629 -0.5862  0.9093 -0.8428
 7759SOL     OW34738   3.543   3.028   1.941  0.0431  0.1621  0.3279
 7759SOL    HW134739   3.608   3.072   1.886 -2.2420  0.3237 -2.1916
 7759SOL    HW234740   3.551   3.084   2.019 -1.6680  0.0437  0.5839
 7760SOL     OW34741   0.006   3.700   2.176 -0.5711 -0.1968  0.2647
 7760SOL    HW134742   0.049   3.754   2.110  0.7679 -0.2970  1.0647
 7760SOL    HW234743   0.018   3.610   2.144 -0.4062  0.6146 -1.9846
 7761SOL     OW34744   1.069   2.178  15.037  0.3898 -0.2790  0.1205
 7761SOL    HW134745   1.137   2.130  14.990  1.1451  1.7264 -0.8411
 7761SOL    HW234746   0.989   2.154  14.991  0.2762  1.0854 -0.3991
 7762SOL     OW34747   0.874   0.641  17.493 -0.5023 -0.0418 -0.2676
 7762SOL    HW134748   0.954   0.692  17.506  0.6526 -1.7473 -0.6962
 7762SOL    HW234749   0.906   0.557  17.527  0.5191  1.0870  1.6055
 7763SOL     OW34750   2.689   1.205  11.189  0.9231 -0.0319 -0.3463
 7763SOL    HW134751   2.597   1.185  11.170  1.5018 -3.4962  0.4597
 7763SOL    HW234752   2.725   1.118  11.171 -2.2449 -1.3073 -0.4809
 7764SOL     OW34753   3.980   1.950  12.592 -0.1046 -0.2566 -0.1317
 7764SOL    HW134754   4.005   1.907  12.674 -2.0335  1.3789  1.3152
 7764SOL    HW234755   4.043   1.914  12.530 -1.5471 -2.4086 -0.3358
 7765SOL     OW34756   3.664   2.965  15.633  0.1281  0.5268 -0.3795
 7765SOL    HW134757   3.710   2.968  15.717 -0.4642  1.7155 -0.0894
 7765SOL    HW234758   3.730   2.922  15.578 -0.4745 -0.9335  0.0545
 7766SOL     OW34759   2.422   2.973   6.195 -0.3947 -0.8044 -0.2375
 7766SOL    HW134760   2.499   2.927   6.161 -0.4112 -0.3744 -0.8491
 7766SOL    HW234761   2.389   3.014   6.115  0.3381  1.7603  0.7747
 7767SOL     OW34762   0.667   0.398  15.469  0.6373  0.2627  0.8769
 7767SOL    HW134763   0.614   0.429  15.541 -0.4858  0.8581 -0.2058
 7767SOL    HW234764   0.753   0.435  15.489 -0.0446  1.5038  1.5069
 7768SOL     OW34765   4.535   2.883   6.925 -0.3405  0.1979 -0.2689
 7768SOL    HW134766   4.570   2.940   6.994 -0.5552  1.1977 -0.9956
 7768SOL    HW234767   4.441   2.892   6.937 -0.2593  1.1345 -0.3553
 7769SOL     OW34768   2.858   0.259   4.793  0.2950 -0.0915 -0.1141
 7769SOL    HW134769   2.831   0.350   4.783  0.4416 -0.3489 -2.7129
 7769SOL    HW234770   2.877   0.252   4.887  1.6339 -2.7964 -0.5969
 7770SOL     OW34771   3.443   1.483  17.606  0.1166  0.2988  0.6517
 7770SOL    HW134772   3.417   1.566  17.647  0.0833 -0.0370  1.3086
 7770SOL    HW234773   3.362   1.464  17.559 -0.6243  0.5880  1.8329
 7771SOL     OW34774   2.343   2.345   9.186 -0.2818  0.0882  0.4035
 7771SOL    HW134775   2.253   2.333   9.156 -0.7433  0.8758  1.4627
 7771SOL    HW234776   2.395   2.334   9.107 -2.0531  0.3641 -0.7985
 7772SOL     OW34777   2.319   1.064   1.671 -0.0590 -0.0340  0.0557
 7772SOL    HW134778   2.227   1.064   1.642 -0.3042  0.3831  0.8283
 7772SOL    HW234779   2.326   0.971   1.649 -2.5504 -0.3419  0.4791
 7773SOL     OW34780   2.945   2.762   5.818  0.2858  0.7512  0.2278
 7773SOL    HW134781   2.855   2.731   5.806  0.0259  1.6838 -0.2346
 7773SOL    HW234782   2.986   2.684   5.855 -0.4757 -0.1868 -0.9124
 7774SOL     OW34783   4.641   2.586  12.034  1.5461 -0.3661  0.1200
 7774SOL    HW134784   4.601   2.569  12.120 -0.3312 -0.8561 -0.8559
 7774SOL    HW234785   4.571   2.560  11.975 -0.0735 -0.0262  1.8730
 7775SOL     OW34786   2.353   0.798   1.594  0.1028  0.1733 -0.3821
 7775SOL    HW134787   2.347   0.715   1.642 -0.3315  0.7450  0.5598
 7775SOL    HW234788   2.428   0.787   1.535  0.7374 -1.1717  0.6626
 7776SOL     OW34789   3.456   1.007  11.884 -0.2424 -0.1149 -0.2355
 7776SOL    HW134790   3.548   0.983  11.872  0.2416  2.3944 -1.4626
 7776SOL    HW234791   3.430   0.946  11.953  2.7288 -0.7845  0.2895
 7777SOL     OW34792   1.260   1.392   6.378  0.0448 -0.3151  0.6295
 7777SOL    HW134793   1.241   1.317   6.435 -1.3482 -1.5952 -1.5290
 7777SOL    HW234794   1.266   1.366   6.286  1.5104 -0.5133  0.7725
 7778SOL     OW34795   3.730   2.775  14.660 -0.2416 -0.6429 -0.7806
 7778SOL    HW134796   3.697   2.862  14.683  0.9634 -0.2293 -0.5910
 7778SOL    HW234797   3.705   2.737  14.744 -0.4930  1.3794  0.0670
 7779SOL     OW34798   0.784   3.092   3.926 -0.6839  0.4696 -0.1655
 7779SOL    HW134799   0.716   3.107   3.861  0.8783 -0.6866 -2.0488
 7779SOL    HW234800   0.787   3.184   3.949 -2.6456  0.5161 -0.1259
 7780SOL     OW34801   0.949   2.035   0.963  0.5953  0.2003 -0.3680
 7780SOL    HW134802   1.004   2.085   0.904  2.3936 -0.8249  0.4189
 7780SOL    HW234803   0.881   2.008   0.902  0.0333  0.1835  0.2623
 7781SOL     OW34804   2.135   0.164   6.759  0.2072 -0.0324  0.0903
 7781SOL    HW134805   2.145   0.239   6.817  2.0751 -0.1975  0.0028
 7781SOL    HW234806   2.221   0.122   6.753  0.1771 -0.5764  3.1264
 7782SOL     OW34807   4.049   3.020   8.801  0.3552  0.2968 -0.1045
 7782SOL    HW134808   4.005   2.975   8.873 -0.4766 -0.6669 -1.2218
 7782SOL    HW234809   3.985   3.089   8.786 -0.5447 -0.4536  0.3012
 7783SOL     OW34810   2.475   4.596   2.329  0.1273 -0.0317 -0.4454
 7783SOL    HW134811   2.548   4.654   2.306  0.3748 -1.2154 -2.6499
 7783SOL    HW234812   2.397   4.650   2.342  0.0330  0.3411 -2.4662
 7784SOL     OW34813   2.708   4.149  15.676  0.1111  0.2692 -0.1520
 7784SOL    HW134814   2.614   4.163  15.686 -0.1858 -0.5472 -1.8424
 7784SOL    HW234815   2.718   4.145  15.581  1.3262  0.7185 -0.0467
 7785SOL     OW34816   3.612   1.928   4.701 -0.2436 -0.0310 -0.2218
 7785SOL    HW134817   3.644   1.844   4.733 -0.5700  0.4115  1.2806
 7785SOL    HW234818   3.680   1.948   4.637  0.6806  1.3799  1.2066
 7786SOL     OW34819   2.226   3.414  11.338  0.1495 -0.3477  0.0915
 7786SOL    HW134820   2.304   3.415  11.282  0.3207  0.5313  0.3527
 7786SOL    HW234821   2.214   3.505  11.362  0.0199  0.5614 -3.4280
 7787SOL     OW34822   2.065   2.483   1.509  0.6359  0.2081 -0.2663
 7787SOL    HW134823   2.058   2.521   1.421 -0.5217 -1.6999 -0.9928
 7787SOL    HW234824   2.049   2.564   1.559  0.7956  0.4266 -0.5694
 7788SOL     OW34825   1.756   1.961   8.027  0.1320 -0.2262  0.3075
 7788SOL    HW134826   1.784   1.915   7.948 -0.1866  2.1495 -1.1860
 7788SOL    HW234827   1.825   1.954   8.093 -0.4847  0.1185  0.9868
 7789SOL     OW34828   3.051   2.830   3.733 -0.0773 -0.2335  0.8571
 7789SOL    HW134829   2.974   2.887   3.743  0.3996  0.3283  1.3142
 7789SOL    HW234830   3.087   2.866   3.652 -0.8335  0.1995  0.7161
 7790SOL     OW34831   2.925   1.945   2.174  0.6262  0.4392  0.2029
 7790SOL    HW134832   2.861   2.014   2.154  0.0142  0.0117  0.6821
 7790SOL    HW234833   2.936   1.946   2.269  0.4412  0.6483  0.2210
 7791SOL     OW34834   1.325   2.132   2.465 -1.0129  0.0586  0.5960
 7791SOL    HW134835   1.291   2.121   2.554 -0.4045  1.6089  1.0195
 7791SOL    HW234836   1.266   2.072   2.420  0.9382 -0.0791 -1.7386
 7792SOL     OW34837   0.948   1.605   6.828 -0.2529 -0.2102  0.2827
 7792SOL    HW134838   0.857   1.575   6.834 -0.6898  1.4055  1.8013
 7792SOL    HW234839   0.964   1.584   6.736 -2.7787 -1.6633  0.1765
 7793SOL     OW34840   0.798   1.920   4.963 -0.5468  0.3575  0.0711
 7793SOL    HW134841   0.759   1.833   4.952  1.6150 -0.3703 -2.0476
 7793SOL    HW234842   0.863   1.917   4.893 -2.5710 -1.9750 -1.6965
 7794SOL     OW34843   3.122   3.729   7.194 -0.2396  0.6121 -0.2597
 7794SOL    HW134844   3.156   3.646   7.227  3.1221  2.3980  0.7824
 7794SOL    HW234845   3.185   3.751   7.126 -1.1587 -0.7395 -1.5586
 7795SOL     OW34846   1.797   0.317   8.660 -0.1628 -0.0350  0.7040
 7795SOL    HW134847   1.785   0.224   8.679 -1.5311  0.2175  1.1297
 7795SOL    HW234848   1.712   0.353   8.688 -0.5054  0.6550 -1.2273
 7796SOL     OW34849   1.779   0.584   3.237  0.1132 -0.4523  0.0637
 7796SOL    HW134850   1.727   0.638   3.296 -0.2277  1.5319 -2.0242
 7796SOL    HW234851   1.715   0.514   3.223  1.3651 -2.1025  2.6332
 7797SOL     OW34852   1.339   1.499   2.678 -0.0622 -0.3893  0.3542
 7797SOL    HW134853   1.325   1.592   2.695 -0.3198 -0.6255  1.4839
 7797SOL    HW234854   1.293   1.494   2.595 -0.2374 -1.0814  0.4954
 7798SOL     OW34855   3.698   2.642   7.167  0.2449 -0.6584 -0.1861
 7798SOL    HW134856   3.683   2.549   7.182 -0.1422 -0.6376 -0.4548
 7798SOL    HW234857   3.758   2.668   7.238 -1.9391  0.2365  1.3409
 7799SOL     OW34858   3.064   0.173   5.579 -0.1470 -0.4670  0.7234
 7799SOL    HW134859   3.045   0.260   5.614 -1.0289  0.2001 -1.4294
 7799SOL    HW234860   2.984   0.129   5.607 -0.6476 -0.8298 -1.2898
 7800SOL     OW34861   1.496   2.679   1.838  0.2824 -0.3716  0.1846
 7800SOL    HW134862   1.444   2.619   1.785  0.2898 -0.3167  0.1148
 7800SOL    HW234863   1.434   2.717   1.900 -2.7498 -4.7911 -0.1596
 7801SOL     OW34864   4.500   3.000   9.488  0.0321  0.3703 -0.0115
 7801SOL    HW134865   4.570   3.055   9.451 -0.3630 -0.0384 -1.3770
 7801SOL    HW234866   4.433   2.982   9.421  1.1971 -1.1588 -0.7647
 7802SOL     OW34867   0.524   1.281  16.675 -0.1011  0.1645 -0.3798
 7802SOL    HW134868   0.568   1.253  16.595 -2.2623 -1.6956 -0.9249
 7802SOL    HW234869   0.593   1.316  16.731 -1.8735  1.3429  1.0651
 7803SOL     OW34870   2.647   1.957   8.822  0.1717  0.0032  0.0472
 7803SOL    HW134871   2.719   1.922   8.770 -1.5376 -0.4235 -2.0545
 7803SOL    HW234872   2.635   2.050   8.800 -0.5374  0.2907  1.6282
 7804SOL     OW34873   1.580   0.613  17.122 -0.3610 -0.1226  0.3447
 7804SOL    HW134874   1.636   0.560  17.066 -0.6688 -2.3904  2.2020
 7804SOL    HW234875   1.501   0.625  17.068 -0.8412  0.3567  1.1540
 7805SOL     OW34876   2.307   0.120  12.438  1.1125  0.5312 -0.3076
 7805SOL    HW134877   2.219   0.159  12.438  1.4480  1.2954 -0.4403
 7805SOL    HW234878   2.313   0.068  12.518 -0.1298  0.9528  0.0682
 7806SOL     OW34879   4.159   1.030   6.567 -0.0619 -0.1675  0.4859
 7806SOL    HW134880   4.125   1.040   6.655  1.2426  0.7027  0.8916
 7806SOL    HW234881   4.255   1.029   6.575 -0.0250  0.1827  0.1281
 7807SOL     OW34882   0.921   4.691   6.632 -0.0299  0.2459  0.1368
 7807SOL    HW134883   0.826   4.691   6.620  0.0673 -0.9945 -0.6601
 7807SOL    HW234884   0.935   4.598   6.651  0.9283  0.3625 -0.0014
 7808SOL     OW34885   2.070   0.761  14.085  0.6676  0.5270 -0.0098
 7808SOL    HW134886   2.054   0.682  14.137  1.8688 -0.2409 -0.8141
 7808SOL    HW234887   2.045   0.837  14.137 -1.3142 -0.7950  0.9897
 7809SOL     OW34888   2.797   3.361   5.995 -0.2590 -0.2941  0.3037
 7809SOL    HW134889   2.857   3.334   5.926  1.1282  0.2353  1.3064
 7809SOL    HW234890   2.820   3.454   6.006 -0.6055  0.2645 -3.6187
 7810SOL     OW34891   1.432   4.225   8.224 -0.0328  0.2108  0.3280
 7810SOL    HW134892   1.385   4.269   8.296  1.5039 -0.6339  1.8432
 7810SOL    HW234893   1.518   4.267   8.233 -0.0779  0.2544  0.5693
 7811SOL     OW34894   3.617   4.501  12.542  0.3733  0.0253 -0.0175
 7811SOL    HW134895   3.696   4.492  12.489 -0.3338 -1.0538 -0.8777
 7811SOL    HW234896   3.607   4.409  12.565  1.8365  0.4183  2.1585
 7812SOL     OW34897   3.883   0.849   7.902  0.1457 -0.4792  0.1416
 7812SOL    HW134898   3.962   0.807   7.935 -0.2513 -1.3353 -0.0140
 7812SOL    HW234899   3.882   0.937   7.942 -0.1687 -0.1430 -0.6015
 7813SOL     OW34900   0.465   3.949   3.646  0.0056 -0.7697 -0.0459
 7813SOL    HW134901   0.375   3.929   3.623 -0.0534 -0.8245  0.2294
 7813SOL    HW234902   0.510   3.871   3.613 -1.4484 -1.1073 -1.1992
 7814SOL     OW34903   1.848   1.893   8.675 -0.6603 -0.2993  0.1337
 7814SOL    HW134904   1.826   1.974   8.721  1.1268  0.4918 -0.3889
 7814SOL    HW234905   1.943   1.904   8.669 -0.6117 -0.8521 -0.1109
 7815SOL     OW34906   3.038   0.379   7.951 -0.5636 -0.2752  0.0013
 7815SOL    HW134907   3.066   0.297   7.991 -0.0218  0.1207  0.4211
 7815SOL    HW234908   2.955   0.389   7.999 -0.7677 -1.5532 -0.0822
 7816SOL     OW34909   2.792   2.442   8.385 -0.0060 -0.5171 -0.5405
 7816SOL    HW134910   2.861   2.444   8.452 -0.5342  0.9866 -0.0420
 7816SOL    HW234911   2.771   2.535   8.381  0.8947 -0.3430 -1.0631
 7817SOL     OW34912   3.281   3.106   8.880  0.2251  0.0042 -0.1339
 7817SOL    HW134913   3.187   3.107   8.896  0.3486  1.8820  0.4763
 7817SOL    HW234914   3.296   3.037   8.815 -0.7215  0.4587 -0.8399
 7818SOL     OW34915   2.499   2.478   2.830 -0.8399 -0.0422 -0.6355
 7818SOL    HW134916   2.516   2.396   2.877 -2.2512  0.7029  1.1914
 7818SOL    HW234917   2.524   2.543   2.896 -1.5127  0.7250 -1.1364
 7819SOL     OW34918   3.470   1.695   7.351  0.9225 -0.4439 -0.4781
 7819SOL    HW134919   3.534   1.756   7.386  0.1617 -1.6753  3.0966
 7819SOL    HW234920   3.398   1.744   7.311 -0.3480 -1.4033  0.5956
 7820SOL     OW34921   2.376   0.012   6.800  0.1755 -0.5223  0.0384
 7820SOL    HW134922   2.343   4.687   6.877 -0.8688  1.4998  0.8541
 7820SOL    HW234923   2.454   4.680   6.789 -0.9874 -2.3354  0.7738
 7821SOL     OW34924   2.317   0.938  10.252  0.0096  0.7572  0.2663
 7821SOL    HW134925   2.305   0.880  10.327  1.0391  0.5453  0.2588
 7821SOL    HW234926   2.411   0.937  10.235 -0.6097 -1.6230 -2.9355
 7822SOL     OW34927   3.956   4.403   6.925 -0.1063  0.2201 -0.7878
 7822SOL    HW134928   3.903   4.331   6.959  1.2733 -1.0364 -1.2774
 7822SOL    HW234929   3.898   4.470   6.960  1.4438 -0.5265  3.1918
 7823SOL     OW34930   4.507   3.265  10.945 -0.6599 -0.3586 -0.5908
 7823SOL    HW134931   4.535   3.225  11.027 -0.4292 -0.1559 -0.5720
 7823SOL    HW234932   4.582   3.324  10.936 -0.9063 -0.0019 -0.3407
 7824SOL     OW34933   3.437   2.244   2.123  0.4742  0.0056 -0.3719
 7824SOL    HW134934   3.404   2.319   2.172  1.3368  0.4703 -0.5067
 7824SOL    HW234935   3.360   2.221   2.072 -0.7949  2.7060  0.3293
 7825SOL     OW34936   4.257   0.876   8.778  0.0024 -0.2457  0.2751
 7825SOL    HW134937   4.312   0.937   8.730 -1.3504  0.6633 -0.0946
 7825SOL    HW234938   4.171   0.910   8.756  0.5165  1.0840  0.3496
 7826SOL     OW34939   2.798   4.492   7.528 -0.2446  0.2503  0.3811
 7826SOL    HW134940   2.883   4.535   7.516  0.2642 -1.1902 -1.2313
 7826SOL    HW234941   2.784   4.485   7.622  1.6210  1.7337  0.7721
 7827SOL     OW34942   1.185   4.639  14.642  0.7908  0.1168  0.0562
 7827SOL    HW134943   1.277   4.663  14.655  1.2311 -0.4385 -2.1596
 7827SOL    HW234944   1.189   4.564  14.582 -0.1672  0.2439 -0.1597
 7828SOL     OW34945   1.498   1.903   7.910  0.2167 -0.4903 -0.2871
 7828SOL    HW134946   1.488   1.997   7.894  1.1593 -0.4365 -0.5620
 7828SOL    HW234947   1.570   1.912   7.973  0.8606  1.3216 -1.2817
 7829SOL     OW34948   0.010   3.832  17.141  0.3475 -0.1342 -0.4039
 7829SOL    HW134949   4.690   3.889  17.076 -0.3864 -1.2691 -0.9245
 7829SOL    HW234950   4.682   3.752  17.129 -0.7929  0.1898  2.3224
 7830SOL     OW34951   4.530   2.836   8.535 -0.2735  0.4075  0.0731
 7830SOL    HW134952   4.558   2.745   8.537  0.1879  0.5863  2.1354
 7830SOL    HW234953   4.444   2.827   8.575 -1.1979  0.7030 -1.8790
 7831SOL     OW34954   2.515   4.364   1.666  0.9537 -0.0709 -0.0409
 7831SOL    HW134955   2.577   4.426   1.705  0.1149  0.8057 -0.0904
 7831SOL    HW234956   2.443   4.423   1.644  0.9947 -0.6957 -1.8556
 7832SOL     OW34957   1.385   3.096   0.514  0.3329  0.2138 -0.0346
 7832SOL    HW134958   1.417   3.144   0.590  1.9490 -0.8960 -0.0235
 7832SOL    HW234959   1.451   3.027   0.509  1.2929  1.2037 -0.9037
 7833SOL     OW34960   3.295   0.573   5.804  0.0202  0.0561 -0.6937
 7833SOL    HW134961   3.303   0.605   5.714  0.9532  0.4889 -0.4647
 7833SOL    HW234962   3.303   0.479   5.787  1.9575  0.4148 -1.7444
 7834SOL     OW34963   2.284   1.895  12.976 -0.6165 -0.3779  0.3033
 7834SOL    HW134964   2.309   1.986  12.956 -0.3745 -0.1017  1.8717
 7834SOL    HW234965   2.197   1.892  12.935 -1.4320 -2.3439  2.1553
 7835SOL     OW34966   4.356   3.691   1.968 -0.1228 -0.1648  0.2381
 7835SOL    HW134967   4.287   3.757   1.962  1.6929  1.9045  1.9552
 7835SOL    HW234968   4.383   3.705   2.059 -0.0352 -1.8935  0.4874
 7836SOL     OW34969   2.999   4.205   7.354 -0.2542 -0.5543 -0.3737
 7836SOL    HW134970   3.055   4.282   7.362  1.8395 -1.8583 -2.5337
 7836SOL    HW234971   2.966   4.181   7.440  2.5737 -0.5136  0.7148
 7837SOL     OW34972   1.273   0.628  12.152  0.5284 -0.3217 -0.1912
 7837SOL    HW134973   1.238   0.695  12.210  1.4168 -0.5035  0.5469
 7837SOL    HW234974   1.233   0.553  12.198  1.5580 -0.2063  0.8828
 7838SOL     OW34975   0.218   2.239   0.323 -0.1238 -0.2136  0.2998
 7838SOL    HW134976   0.147   2.194   0.369 -0.8003 -0.9453 -1.4607
 7838SOL    HW234977   0.189   2.233   0.232  0.6339  0.5612  0.0093
 7839SOL     OW34978   2.973   2.733   6.553  0.2802  0.2322  0.5681
 7839SOL    HW134979   3.008   2.653   6.513  0.6027 -0.1598  1.6321
 7839SOL    HW234980   2.968   2.689   6.638  0.1655  0.5936  0.7461
 7840SOL     OW34981   4.061   4.336   2.494  0.3896 -0.1471  0.1641
 7840SOL    HW134982   4.116   4.261   2.470 -2.7464 -1.9733 -1.1746
 7840SOL    HW234983   4.104   4.399   2.436 -0.6033 -0.1016 -0.5146
 7841SOL     OW34984   2.825   2.718   3.159 -0.6272  0.1261 -0.5461
 7841SOL    HW134985   2.844   2.795   3.212 -2.2642  0.6013 -0.6374
 7841SOL    HW234986   2.842   2.652   3.226 -1.4754 -0.5745 -1.0156
 7842SOL     OW34987   3.979   3.997   5.454 -0.0631 -0.5577 -0.0015
 7842SOL    HW134988   4.021   4.016   5.370  0.3357  0.5685  0.4644
 7842SOL    HW234989   3.889   4.007   5.422  0.4012 -2.4999 -1.9962
 7843SOL     OW34990   0.779   2.286  17.471  0.4499 -0.6030 -0.3208
 7843SOL    HW134991   0.729   2.209  17.444 -1.1015 -0.5835  2.5274
 7843SOL    HW234992   0.854   2.277  17.412  0.3038 -0.0908 -0.5887
 7844SOL     OW34993   0.752   4.316   1.329  0.0606  0.3344 -0.0411
 7844SOL    HW134994   0.674   4.367   1.307 -1.3679 -1.3644  1.1102
 7844SOL    HW234995   0.813   4.349   1.263  0.9227 -1.5138 -0.1706
 7845SOL     OW34996   2.380   4.474   5.545  0.6245  0.6592 -0.6944
 7845SOL    HW134997   2.287   4.491   5.532  0.2605 -1.1648 -0.6044
 7845SOL    HW234998   2.396   4.400   5.486  0.9584 -0.1702  0.4361
 7846SOL     OW34999   2.283   2.464  16.220 -0.6145 -0.4344 -0.0092
 7846SOL    HW135000   2.281   2.374  16.190  0.5024  0.0069 -1.4084
 7846SOL    HW235001   2.304   2.445  16.312  2.1024  0.7486 -0.3699
 7847SOL     OW35002   2.778   1.399  16.892  0.6436 -0.4678  0.9247
 7847SOL    HW135003   2.782   1.405  16.988  0.9979 -0.1709  0.8947
 7847SOL    HW235004   2.775   1.305  16.877  0.1079  0.0581 -2.2538
 7848SOL     OW35005   4.510   3.464   1.386 -0.0770 -0.7000  0.2466
 7848SOL    HW135006   4.523   3.402   1.457 -1.3552  0.7208  1.7277
 7848SOL    HW235007   4.414   3.470   1.391 -0.1216  0.7872 -2.2650
 7849SOL     OW35008   2.721   3.125   7.062 -0.6079  0.2955 -0.2259
 7849SOL    HW135009   2.761   3.043   7.092  0.9705  2.0691  2.4815
 7849SOL    HW235010   2.784   3.186   7.101  0.2559  1.2000 -3.0119
 7850SOL     OW35011   0.050   1.317   5.926  0.3843 -0.1607 -0.0225
 7850SOL    HW135012   0.055   1.410   5.908  0.8243 -0.4233 -1.2603
 7850SOL    HW235013   0.044   1.284   5.836 -2.2261  1.3398 -0.3990
 7851SOL     OW35014   4.068   1.562   5.489  0.4886  0.4885  0.1914
 7851SOL    HW135015   4.150   1.607   5.470 -0.4534  2.2606  0.3608
 7851SOL    HW235016   4.042   1.552   5.397 -2.0503  1.2894  0.8171
 7852SOL     OW35017   3.815   0.107   1.704  0.3439 -0.3978 -0.0254
 7852SOL    HW135018   3.879   0.053   1.657 -1.4835 -0.5389 -2.3510
 7852SOL    HW235019   3.863   0.116   1.786 -2.4848  0.3078  1.5311
 7853SOL     OW35020   1.946   1.906  16.479  0.3055 -0.4584  0.3074
 7853SOL    HW135021   1.982   1.899  16.391 -1.0684  2.1525 -0.4695
 7853SOL    HW235022   1.949   1.819  16.518  2.7821  0.2666  1.7127
 7854SOL     OW35023   2.789   1.604   8.422 -0.1701 -0.5268  0.4384
 7854SOL    HW135024   2.726   1.604   8.494 -0.7467  1.5567 -0.0697
 7854SOL    HW235025   2.731   1.592   8.347  0.1269 -0.8379  0.2596
 7855SOL     OW35026   2.567   2.217   0.904 -0.1044  0.3673  0.2806
 7855SOL    HW135027   2.547   2.124   0.911  0.1769  0.2816 -0.0199
 7855SOL    HW235028   2.642   2.199   0.847 -1.2705 -2.2027 -0.4139
 7856SOL     OW35029   3.061   0.043   4.156  0.6376  0.2258  0.4029
 7856SOL    HW135030   2.979   4.720   4.137  0.6800 -0.1511  1.1602
 7856SOL    HW235031   3.118   4.698   4.192 -0.6445 -1.0830 -0.0412
 7857SOL     OW35032   1.607   2.930   0.473  0.0640 -0.1068  0.2707
 7857SOL    HW135033   1.584   2.838   0.468 -0.7327  0.1646 -0.9711
 7857SOL    HW235034   1.677   2.934   0.407 -1.2899  0.8980 -1.0959
 7858SOL     OW35035   3.806   4.326   5.845 -0.3243 -0.2488  0.7988
 7858SOL    HW135036   3.792   4.318   5.940  1.1845 -1.7995  0.8800
 7858SOL    HW235037   3.741   4.391   5.818  1.3619  0.9789 -0.2550
 7859SOL     OW35038   1.609   1.529   9.261  0.3796  0.2506 -0.0303
 7859SOL    HW135039   1.595   1.567   9.348  1.0923  0.1381  0.1279
 7859SOL    HW235040   1.522   1.507   9.227  0.2201  1.8432 -0.6631
 7860SOL     OW35041   3.030   1.988   4.572  0.3658  0.5104 -0.3308
 7860SOL    HW135042   3.029   2.060   4.509 -0.4043  0.1244 -0.7590
 7860SOL    HW235043   3.088   1.931   4.523 -1.5466 -1.7857  0.0782
 7861SOL     OW35044   1.803   1.092   1.505  0.1622  0.3429 -0.1881
 7861SOL    HW135045   1.794   1.132   1.591  2.1643  2.4850 -0.9935
 7861SOL    HW235046   1.780   1.000   1.521  2.1554  0.3785  2.8982
 7862SOL     OW35047   3.956   3.840   2.417 -0.0454  0.4016 -0.1042
 7862SOL    HW135048   3.993   3.770   2.364  0.7087  1.9321 -1.6182
 7862SOL    HW235049   4.000   3.919   2.385 -1.4055  0.2130 -2.4004
 7863SOL     OW35050   3.698   3.070  14.589  0.1712 -0.3309  0.0408
 7863SOL    HW135051   3.625   3.097  14.645  1.1663  0.1539  1.0912
 7863SOL    HW235052   3.652   3.069  14.505 -2.4861  2.7109  1.4602
 7864SOL     OW35053   3.600   2.082   0.533 -0.6324 -0.5344 -0.3305
 7864SOL    HW135054   3.523   2.033   0.564 -2.2119  0.8467 -2.0740
 7864SOL    HW235055   3.616   2.036   0.451  0.1424  0.5541 -0.7861
 7865SOL     OW35056   3.699   4.457   2.459 -0.3021  0.7477  0.3161
 7865SOL    HW135057   3.792   4.459   2.433 -0.7202 -2.6064 -1.4519
 7865SOL    HW235058   3.683   4.552   2.461  3.9581  1.4821  0.4012
 7866SOL     OW35059   0.647   4.229   8.592 -0.3189  0.7593 -0.3085
 7866SOL    HW135060   0.581   4.243   8.660 -0.2036 -1.5880  0.2699
 7866SOL    HW235061   0.607   4.161   8.537 -0.7558 -0.1992  1.1968
 7867SOL     OW35062   3.031   4.069   3.435  0.1613 -0.6177  0.0125
 7867SOL    HW135063   3.122   4.093   3.454 -0.1409 -0.0692  0.8059
 7867SOL    HW235064   3.036   3.974   3.435  0.2590 -0.6171  0.7092
 7868SOL     OW35065   3.612   1.255  14.818 -0.1943  0.5417  0.1613
 7868SOL    HW135066   3.598   1.299  14.902 -2.9399  2.4694 -1.2991
 7868SOL    HW235067   3.533   1.262  14.764  0.7714 -1.7634 -1.5663
 7869SOL     OW35068   1.401   1.938   8.982 -0.2333  0.3143 -0.1874
 7869SOL    HW135069   1.307   1.933   8.966 -0.5479  0.2694  1.6953
 7869SOL    HW235070   1.417   1.850   9.017  0.7577  0.9488  0.9732
 7870SOL     OW35071   3.926   1.169   9.813  0.1093 -0.1931 -0.8826
 7870SOL    HW135072   3.895   1.158   9.902 -1.6539 -0.0154 -1.4837
 7870SOL    HW235073   3.879   1.247   9.783 -0.3612  0.4192  1.5103
 7871SOL     OW35074   3.243   1.638   5.398 -0.3502 -0.5011 -0.0063
 7871SOL    HW135075   3.173   1.666   5.456 -0.4017  0.7427 -0.6517
 7871SOL    HW235076   3.316   1.698   5.419  0.0438 -1.3032  0.9101
 7872SOL     OW35077   1.125   2.615   5.745 -0.3448  0.1750 -0.3258
 7872SOL    HW135078   1.159   2.696   5.784 -0.7931  0.5169 -0.6636
 7872SOL    HW235079   1.135   2.561   5.824  0.8957  0.8758  0.0011
 7873SOL     OW35080   0.869   3.443   7.396  0.5394  0.0211  0.3894
 7873SOL    HW135081   0.950   3.451   7.345  0.3356  0.2283  0.0942
 7873SOL    HW235082   0.814   3.446   7.317  2.3305 -0.4008 -0.8704
 7874SOL     OW35083   2.329   2.476   4.669  0.0311  0.5450 -0.7076
 7874SOL    HW135084   2.262   2.533   4.705 -0.2025  0.9013 -1.6976
 7874SOL    HW235085   2.351   2.420   4.744  2.2348 -1.1100 -2.5564
 7875SOL     OW35086   1.473   4.290   9.458  0.2646 -0.4040 -0.2134
 7875SOL    HW135087   1.498   4.263   9.547 -4.1844 -1.1026  0.8279
 7875SOL    HW235088   1.440   4.205   9.428 -0.2149 -0.0148 -0.7811
 7876SOL     OW35089   4.029   4.282   3.422 -0.3117 -0.1714  0.2974
 7876SOL    HW135090   3.970   4.231   3.367 -2.5820  1.6899  1.0312
 7876SOL    HW235091   4.080   4.321   3.351  0.0224  0.0999  0.6850
 7877SOL     OW35092   2.323   2.125   9.397 -0.1246 -0.2512 -0.3935
 7877SOL    HW135093   2.306   2.208   9.353 -0.1798  1.7373  3.3407
 7877SOL    HW235094   2.411   2.116   9.361  0.2268 -0.7643  0.5822
 7878SOL     OW35095   0.182   4.231   8.980 -0.1022 -0.1685  0.1293
 7878SOL    HW135096   0.196   4.160   9.042 -0.7892 -0.5011 -0.0933
 7878SOL    HW235097   0.231   4.299   9.025 -0.4792  0.1283  0.0985
 7879SOL     OW35098   2.106   2.629   7.408  0.6629 -0.0279 -0.2502
 7879SOL    HW135099   2.198   2.627   7.381  0.7655  1.4042 -0.0370
 7879SOL    HW235100   2.080   2.719   7.387  1.9037  0.1883 -0.8586
 7880SOL     OW35101   1.425   3.897  15.691  0.2964  0.3518 -0.3770
 7880SOL    HW135102   1.347   3.848  15.717 -0.2850  0.6261 -1.5747
 7880SOL    HW235103   1.459   3.841  15.621 -1.9156 -3.2088  1.4286
 7881SOL     OW35104   2.280   3.223  13.715 -0.0615 -0.0902  0.0983
 7881SOL    HW135105   2.243   3.310  13.729  0.0937 -0.1992  1.1878
 7881SOL    HW235106   2.201   3.170  13.715  0.0209 -0.2071 -2.6349
 7882SOL     OW35107   0.949   4.588   2.904 -0.2120  0.1124 -0.2845
 7882SOL    HW135108   1.014   4.542   2.957 -0.3487  0.1846 -0.0543
 7882SOL    HW235109   0.929   4.529   2.831  0.5724  0.7724 -1.0349
 7883SOL     OW35110   3.139   1.271   6.566  0.3579 -0.1012 -0.2416
 7883SOL    HW135111   3.121   1.365   6.563  2.9701  0.4275  0.8483
 7883SOL    HW235112   3.182   1.262   6.651 -1.5447  1.1699  0.8543
 7884SOL     OW35113   1.519   0.146   8.886  0.6833  0.0170  0.2041
 7884SOL    HW135114   1.444   0.091   8.864  0.3202 -0.4362  2.6521
 7884SOL    HW235115   1.588   0.100   8.839 -1.9740 -1.1531 -2.6007
 7885SOL     OW35116   3.543   2.362   8.530 -0.4272 -0.1621 -1.1086
 7885SOL    HW135117   3.516   2.436   8.476 -0.1334  1.6436  1.2240
 7885SOL    HW235118   3.615   2.330   8.475  1.5809  1.6470  0.4826
 7886SOL     OW35119   1.023   0.725  13.831 -0.2115  0.1858 -0.3510
 7886SOL    HW135120   0.990   0.753  13.917  0.1883 -0.7835  0.1205
 7886SOL    HW235121   1.091   0.792  13.830  0.4476 -0.5365 -2.6223
 7887SOL     OW35122   3.229   4.565   3.017  0.3384  0.6088  0.1048
 7887SOL    HW135123   3.214   4.537   3.107  2.0226  1.8177  0.7713
 7887SOL    HW235124   3.159   4.525   2.966 -1.3763  1.8126  1.5077
 7888SOL     OW35125   3.606   2.960   2.641  0.1842  0.3989  0.2828
 7888SOL    HW135126   3.544   2.902   2.686 -1.2563  0.0094 -2.2342
 7888SOL    HW235127   3.577   2.952   2.551  1.6400 -3.3661  0.1325
 7889SOL     OW35128   3.820   4.676   7.424  0.2159  0.0407 -0.2094
 7889SOL    HW135129   3.779   4.716   7.347  0.0311  2.3391  1.0657
 7889SOL    HW235130   3.831   0.033   7.476  1.3850  0.1980 -0.6760
 7890SOL     OW35131   4.047   2.000   3.198  0.4454 -0.7613 -0.0364
 7890SOL    HW135132   3.990   1.924   3.188  0.0014 -0.4471  0.1043
 7890SOL    HW235133   4.095   1.992   3.116  1.1689 -2.2742  0.5385
 7891SOL     OW35134   0.253   3.411   2.106  0.0986  0.2645  0.4883
 7891SOL    HW135135   0.320   3.434   2.041  0.3189 -0.2888  0.5176
 7891SOL    HW235136   0.180   3.469   2.087 -0.3417 -0.3403  0.3104
 7892SOL     OW35137   0.983   3.143  13.422  0.3177 -0.3818  0.1793
 7892SOL    HW135138   0.919   3.209  13.396  1.1554 -0.6406 -2.6467
 7892SOL    HW235139   1.059   3.196  13.398  0.1364  0.4316  1.4225
 7893SOL     OW35140   3.928   3.733   4.485 -0.4052 -0.3870 -0.3452
 7893SOL    HW135141   3.914   3.684   4.567  1.7158 -2.0036 -0.9673
 7893SOL    HW235142   3.905   3.818   4.522  1.1445 -0.1079 -0.0412
 7894SOL     OW35143   2.463   4.241   4.829 -0.3154 -0.1162 -0.1846
 7894SOL    HW135144   2.524   4.213   4.896 -1.6584 -1.2917  0.5501
 7894SOL    HW235145   2.389   4.186   4.856  0.4832 -1.6592 -1.1944
 7895SOL     OW35146   0.085   1.815  12.385 -0.0529 -0.2982  0.2522
 7895SOL    HW135147   0.139   1.807  12.463  1.7555  0.0852 -0.9548
 7895SOL    HW235148   0.037   1.894  12.411  0.5486 -0.8311  3.0358
 7896SOL     OW35149   4.632   0.618   6.507  0.4975 -0.2538  0.3493
 7896SOL    HW135150   4.594   0.594   6.591 -0.4036 -0.7648 -0.2111
 7896SOL    HW235151   4.569   0.678   6.467 -0.1614 -0.0192  1.7483
 7897SOL     OW35152   0.613   0.876   5.056 -0.3955  0.1034 -0.0509
 7897SOL    HW135153   0.521   0.888   5.082 -0.2253 -0.0439  0.6109
 7897SOL    HW235154   0.643   0.966   5.042  1.1884 -0.5357 -0.7540
 7898SOL     OW35155   4.184   3.360   6.559  0.0894  0.3209  0.1942
 7898SOL    HW135156   4.214   3.340   6.648 -1.2630  1.0645  0.8270
 7898SOL    HW235157   4.140   3.445   6.568 -0.0845  0.1609  0.9093
 7899SOL     OW35158   1.838   1.400  12.497 -0.0979  0.2045 -0.2180
 7899SOL    HW135159   1.871   1.360  12.417  2.1979  1.9341 -0.1390
 7899SOL    HW235160   1.905   1.372  12.559 -1.6492 -1.8551  0.5513
 7900SOL     OW35161   2.907   1.193   4.463 -0.0494 -0.9834  0.3501
 7900SOL    HW135162   2.865   1.253   4.402 -0.9956  1.7593  3.6762
 7900SOL    HW235163   3.001   1.192   4.442  0.2260 -0.8786  1.5538
 7901SOL     OW35164   1.113   2.553   5.071  0.0781  0.1847 -0.0448
 7901SOL    HW135165   1.084   2.475   5.117 -0.4619  0.5360  0.2090
 7901SOL    HW235166   1.187   2.529   5.014 -0.1277 -1.6862  0.4923
 7902SOL     OW35167   0.634   1.832   4.277  0.3841  0.1076  0.2408
 7902SOL    HW135168   0.582   1.753   4.292 -1.3937  0.9565 -1.5707
 7902SOL    HW235169   0.576   1.908   4.270 -0.0315 -0.4062 -1.9559
 7903SOL     OW35170   1.970   0.327   4.248 -0.2630  0.1247  0.6217
 7903SOL    HW135171   1.911   0.252   4.256 -0.4324  0.2205  0.2619
 7903SOL    HW235172   2.048   0.284   4.212 -0.3941  0.1618  0.2923
 7904SOL     OW35173   0.847   1.816   1.179 -0.0034 -0.0297  0.8192
 7904SOL    HW135174   0.837   1.858   1.265 -1.9171 -2.7973  1.9437
 7904SOL    HW235175   0.837   1.891   1.121  2.0173 -0.2720  0.1634
 7905SOL     OW35176   4.713   0.650   8.320 -0.1371 -0.0782 -0.0929
 7905SOL    HW135177   4.710   0.738   8.281  0.1113  0.5224  1.2198
 7905SOL    HW235178   4.672   0.661   8.406  1.0214 -0.3488  0.4853
 7906SOL     OW35179   0.299   0.013   3.254 -0.0224  0.4843 -0.2851
 7906SOL    HW135180   0.332   0.092   3.211 -1.7963  1.4146  0.0921
 7906SOL    HW235181   0.271   4.679   3.183  0.5265 -0.1090 -0.0302
 7907SOL     OW35182   3.660   2.068   4.003  0.1789 -0.5310 -0.2564
 7907SOL    HW135183   3.615   2.153   4.004  0.4802 -0.3752  0.0835
 7907SOL    HW235184   3.603   2.006   3.958 -2.0298 -0.9208  3.0763
 7908SOL     OW35185   2.667   2.295   1.710 -0.8276 -0.4727 -0.4891
 7908SOL    HW135186   2.755   2.324   1.686 -1.0841  0.7195  0.0208
 7908SOL    HW235187   2.642   2.371   1.762 -0.5496 -0.5503 -0.2437
 7909SOL     OW35188   1.373   1.313   8.854  0.3078  0.1750 -0.3983
 7909SOL    HW135189   1.376   1.299   8.949  0.1745 -2.3946 -0.7538
 7909SOL    HW235190   1.458   1.284   8.821  0.4406 -1.4922  1.4101
 7910SOL     OW35191   1.515   2.629   8.448  0.0783  0.5020 -0.1996
 7910SOL    HW135192   1.434   2.604   8.404  1.4020  0.1707 -2.4408
 7910SOL    HW235193   1.582   2.638   8.380  0.3368  0.2700  0.0215
 7911SOL     OW35194   1.179   3.366   0.365  0.3760  0.3640 -0.5581
 7911SOL    HW135195   1.120   3.326   0.301 -1.0596 -0.1497  1.0718
 7911SOL    HW235196   1.208   3.303   0.432  2.1992  1.1368 -0.6340
 7912SOL     OW35197   1.857   4.232   9.265  0.7386 -0.0753 -0.0999
 7912SOL    HW135198   1.943   4.196   9.287  0.8324  1.0881  1.4442
 7912SOL    HW235199   1.854   4.291   9.340  1.9395 -1.0746  0.7522
 7913SOL     OW35200   1.942   2.060   2.723  0.0729  0.0702  0.8586
 7913SOL    HW135201   1.986   1.983   2.686  0.1764  0.3264  0.4398
 7913SOL    HW235202   1.853   2.037   2.696  0.5343 -1.1658  0.3741
 7914SOL     OW35203   4.647   2.365  13.032  0.1121  0.1183  0.2086
 7914SOL    HW135204   4.691   2.292  13.075 -1.1787 -0.7254  0.1088
 7914SOL    HW235205   4.575   2.328  12.981 -0.2616 -0.0929  0.8781
 7915SOL     OW35206   4.370   1.910   3.300 -0.2692 -0.1886 -0.1127
 7915SOL    HW135207   4.309   1.959   3.354  0.3927  1.6741 -1.0741
 7915SOL    HW235208   4.358   1.827   3.346  1.2311 -0.2879  0.0839
 7916SOL     OW35209   0.527   0.963  13.066  0.1728 -0.0055 -0.0218
 7916SOL    HW135210   0.440   0.998  13.084  0.6180  0.1836  1.7702
 7916SOL    HW235211   0.584   1.020  13.118  1.5947 -1.0703 -0.4207
 7917SOL     OW35212   2.577   2.218   1.165  0.5909  0.2148  0.3182
 7917SOL    HW135213   2.584   2.237   1.071  1.2878  0.5664  0.4385
 7917SOL    HW235214   2.628   2.278   1.220  0.2937  0.3111  0.4866
 7918SOL     OW35215   4.345   4.438   4.264 -0.2663  0.1098 -0.1967
 7918SOL    HW135216   4.396   4.401   4.192  0.8571  1.6328 -0.1803
 7918SOL    HW235217   4.376   4.372   4.326 -1.5850 -0.3630 -0.0472
 7919SOL     OW35218   3.164   3.818   3.395 -0.0521  0.2128  0.8243
 7919SOL    HW135219   3.172   3.730   3.433 -0.5662 -0.1159  0.1728
 7919SOL    HW235220   3.223   3.865   3.455 -0.1507  0.7934  0.4612
 7920SOL     OW35221   1.347   0.766  11.742 -0.3868 -0.4796  0.0586
 7920SOL    HW135222   1.397   0.753  11.662  2.1568  0.8979  1.4226
 7920SOL    HW235223   1.306   0.851  11.724  1.5086  0.4575  0.2624
 7921SOL     OW35224   3.904   2.900  15.424  0.4899 -0.0387  0.3150
 7921SOL    HW135225   3.983   2.877  15.473  0.6055  0.3333  0.3040
 7921SOL    HW235226   3.916   2.839  15.352 -0.2409  0.9277 -0.6150
 7922SOL     OW35227   1.339   0.209  16.834 -0.2892 -0.0109 -0.0693
 7922SOL    HW135228   1.276   0.137  16.827  0.8317 -1.0251  0.2718
 7922SOL    HW235229   1.299   0.272  16.775  1.8282  1.4250  0.0528
 7923SOL     OW35230   0.174   1.378  10.059  0.3144 -0.2351 -0.3721
 7923SOL    HW135231   0.174   1.295  10.012 -0.3284 -0.6467  0.3567
 7923SOL    HW235232   0.092   1.382  10.108  0.4680 -2.4887  0.0671
 7924SOL     OW35233   4.573   2.033   1.796 -0.0352 -0.0906 -0.4416
 7924SOL    HW135234   4.555   1.941   1.776  0.1637 -0.5554  1.5310
 7924SOL    HW235235   4.569   2.071   1.708 -0.7868 -0.4394 -0.5641
 7925SOL     OW35236   3.961   1.083   3.964 -0.6930  0.1537 -0.0441
 7925SOL    HW135237   4.017   1.007   3.981 -1.7150 -0.5951 -0.0383
 7925SOL    HW235238   3.951   1.105   4.057  1.9181  0.4425  0.1681
 7926SOL     OW35239   1.402   4.166   2.543  0.3295 -0.0752 -0.0789
 7926SOL    HW135240   1.472   4.230   2.540 -0.1950  0.5654  1.3032
 7926SOL    HW235241   1.332   4.215   2.587 -1.2704  0.1615 -2.8785
 7927SOL     OW35242   2.821   0.182  15.791  1.1275 -0.2624 -0.1612
 7927SOL    HW135243   2.854   0.268  15.765  1.8527 -0.3713  0.4128
 7927SOL    HW235244   2.901   0.129  15.786  1.6189  0.5158 -0.6645
 7928SOL     OW35245   3.290   0.820   5.906 -0.6387  0.4161 -0.7041
 7928SOL    HW135246   3.332   0.826   5.820 -2.4657  1.2021 -1.5545
 7928SOL    HW235247   3.276   0.726   5.912  0.4546  0.3443  0.8471
 7929SOL     OW35248   3.102   3.815   4.236  0.1849  0.2025 -0.0127
 7929SOL    HW135249   3.083   3.796   4.144  2.1742 -1.4544 -0.0794
 7929SOL    HW235250   3.193   3.786   4.233  0.5391  1.3697 -0.6472
 7930SOL     OW35251   0.180   0.627   3.980  0.2641 -1.2099  0.0062
 7930SOL    HW135252   0.257   0.570   3.976  0.6763 -0.7145  0.8541
 7930SOL    HW235253   0.173   0.638   4.075 -2.1373 -0.4183 -0.2474
 7931SOL     OW35254   3.648   3.408  16.280 -0.1043 -0.1776  0.1387
 7931SOL    HW135255   3.680   3.387  16.192 -0.0109  2.1838 -0.3919
 7931SOL    HW235256   3.590   3.483  16.270  0.0877 -0.0626 -0.1154
 7932SOL     OW35257   0.723   0.080   6.423 -0.1229 -0.2497  0.0507
 7932SOL    HW135258   0.641   0.093   6.471  1.2812  0.0124  2.3596
 7932SOL    HW235259   0.735   4.708   6.426  0.6373 -0.0700  2.5471
 7933SOL     OW35260   0.413   1.657   3.670  0.3154  0.5003  0.1005
 7933SOL    HW135261   0.392   1.631   3.759  0.5960  0.5623  0.1837
 7933SOL    HW235262   0.451   1.577   3.634 -1.5556  0.2038 -1.2215
 7934SOL     OW35263   4.069   3.018   2.322  0.5958 -0.1623 -0.0136
 7934SOL    HW135264   4.094   3.082   2.389 -2.2317  2.1051 -1.1000
 7934SOL    HW235265   4.139   2.955   2.334  1.3943  0.7560  0.1841
 7935SOL     OW35266   2.314   4.329  13.626  1.2159 -0.1005  0.2069
 7935SOL    HW135267   2.303   4.371  13.712 -1.4875  1.2638 -0.8256
 7935SOL    HW235268   2.408   4.346  13.615  1.1052 -0.9495 -2.0179
 7936SOL     OW35269   1.489   3.682   4.366  0.1313  0.3319 -0.1641
 7936SOL    HW135270   1.569   3.635   4.344  1.0420  0.9815  1.7753
 7936SOL    HW235271   1.443   3.608   4.408 -0.0900  0.4002 -0.2837
 7937SOL     OW35272   3.290   0.866  14.546 -0.0131  0.1453  0.3579
 7937SOL    HW135273   3.275   0.821  14.463  0.1908  0.3279  0.2226
 7937SOL    HW235274   3.226   0.824  14.604  1.6423 -2.2571  0.4442
 7938SOL     OW35275   3.110   4.144   9.218  0.0037 -0.4137 -0.2852
 7938SOL    HW135276   3.084   4.224   9.263 -1.4410 -1.3894  0.5974
 7938SOL    HW235277   3.064   4.165   9.137  0.2998  1.5770  0.0787
 7939SOL     OW35278   0.469   1.928   0.090  0.4761  0.3385  0.0165
 7939SOL    HW135279   0.541   1.866   0.104 -2.3725 -2.4245  2.4070
 7939SOL    HW235280   0.497   2.000   0.148  1.3570  0.5903 -0.7287
 7940SOL     OW35281   3.895   3.465  17.124 -0.2300 -0.0175  0.1924
 7940SOL    HW135282   3.982   3.430  17.146 -0.0408  1.1514  1.2793
 7940SOL    HW235283   3.851   3.386  17.094  1.3169  0.5986 -3.6835
 7941SOL     OW35284   3.176   4.528   4.264 -0.1236  0.3608  0.2359
 7941SOL    HW135285   3.134   4.454   4.220 -1.3993 -0.2747  2.4750
 7941SOL    HW235286   3.261   4.488   4.281  0.3194  1.8339  1.4767
 7942SOL     OW35287   2.824   2.878   7.141 -0.1693 -0.1615  0.3037
 7942SOL    HW135288   2.809   2.784   7.130 -0.3751 -0.3968  2.6587
 7942SOL    HW235289   2.772   2.898   7.219  0.5414 -0.4036  0.8383
 7943SOL     OW35290   0.094   1.075   5.283  0.5419 -0.1339  0.0692
 7943SOL    HW135291   0.021   1.093   5.223  2.0808 -0.9279 -2.0416
 7943SOL    HW235292   0.049   1.056   5.365 -0.5254 -0.7797 -0.6510
 7944SOL     OW35293   3.472   4.077  17.238  0.5100 -0.2179 -0.7542
 7944SOL    HW135294   3.520   4.095  17.320  1.6368 -1.0079 -1.2381
 7944SOL    HW235295   3.385   4.066  17.275  1.6721  0.1493  2.1707
 7945SOL     OW35296   0.218   2.130   9.061  0.2940 -0.0771 -0.2083
 7945SOL    HW135297   0.161   2.081   9.121  1.2512  0.1641  0.9066
 7945SOL    HW235298   0.300   2.083   9.078  0.1599 -0.7393 -1.4163
 7946SOL     OW35299   4.531   4.091   3.709 -0.4129  0.2012  0.1668
 7946SOL    HW135300   4.531   4.182   3.679  0.3054  0.2340  0.2599
 7946SOL    HW235301   4.608   4.088   3.766  0.0946  0.0576 -0.5261
 7947SOL     OW35302   1.872   3.921   5.711  0.3011 -0.2320  0.2474
 7947SOL    HW135303   1.834   3.937   5.797 -0.2372  0.6765 -0.1516
 7947SOL    HW235304   1.818   3.977   5.655 -1.4085 -1.0923  1.0489
 7948SOL     OW35305   1.159   2.712   1.295 -0.1344 -0.0242 -0.5836
 7948SOL    HW135306   1.193   2.627   1.266 -0.5362 -0.0549 -0.9536
 7948SOL    HW235307   1.234   2.772   1.287 -0.7002  0.5996 -1.2312
 7949SOL     OW35308   1.738   2.956   4.261 -0.4072 -0.1783 -0.2194
 7949SOL    HW135309   1.700   2.972   4.347 -0.0814 -0.6906  0.0240
 7949SOL    HW235310   1.817   3.011   4.262  1.0452 -2.2562  1.1070
 7950SOL     OW35311   0.662   2.667   4.173  0.4248  0.8222  0.1475
 7950SOL    HW135312   0.721   2.715   4.114 -0.1568  0.3742 -0.8052
 7950SOL    HW235313   0.714   2.671   4.253  1.2816  1.5085 -0.4393
 7951SOL     OW35314   0.621   1.941   0.952 -0.2453  0.1796 -0.8127
 7951SOL    HW135315   0.563   1.866   0.947  0.4409 -0.5101  1.6831
 7951SOL    HW235316   0.670   1.931   0.871  1.0200  2.1458 -0.3132
 7952SOL     OW35317   1.684   0.265   0.510 -0.1657 -0.2610 -0.2252
 7952SOL    HW135318   1.660   0.347   0.554  1.0260 -0.0962  0.1297
 7952SOL    HW235319   1.629   0.202   0.556  1.3861 -0.6521  1.0963
 7953SOL     OW35320   3.461   2.229   2.483 -0.9685  0.4780  0.3178
 7953SOL    HW135321   3.523   2.294   2.451 -1.7897  1.3302  0.4589
 7953SOL    HW235322   3.393   2.286   2.518  0.3416  1.5507  1.1042
 7954SOL     OW35323   1.014   2.154  11.594  0.0203 -0.7997 -0.9743
 7954SOL    HW135324   0.987   2.066  11.568  0.3115 -0.8366 -1.1405
 7954SOL    HW235325   0.943   2.209  11.560  0.0414  0.3831  0.8946
 7955SOL     OW35326   4.666   2.806   9.243 -0.0804  0.4033 -0.3586
 7955SOL    HW135327   0.030   2.825   9.208 -0.2820  2.2632  0.1225
 7955SOL    HW235328   4.654   2.731   9.185  2.2078 -1.1978  1.2280
 7956SOL     OW35329   0.981   1.721   3.173  0.0297  0.7531 -0.2241
 7956SOL    HW135330   1.073   1.739   3.195  0.5176 -0.2791 -1.4044
 7956SOL    HW235331   0.992   1.693   3.082  1.4998 -2.8992  1.0664
 7957SOL     OW35332   1.888   1.812   7.822 -0.2391  0.2173  0.1278
 7957SOL    HW135333   1.896   1.773   7.735 -0.4831 -0.5599  0.4510
 7957SOL    HW235334   1.919   1.737   7.873  1.1424 -0.5120 -1.7625
 7958SOL     OW35335   0.318   1.885   8.154  0.6052  0.0903 -0.2742
 7958SOL    HW135336   0.261   1.893   8.231  0.7999  3.5304 -0.4725
 7958SOL    HW235337   0.260   1.854   8.084  0.4266 -2.3904  0.9736
 7959SOL     OW35338   4.161   4.040   6.299  0.3252  0.3110 -0.2979
 7959SOL    HW135339   4.205   4.051   6.384 -1.0405  0.4203  0.3984
 7959SOL    HW235340   4.157   3.945   6.292 -0.5527  0.3429 -0.2066
 7960SOL     OW35341   0.976   1.251   3.010  0.5463 -0.5885  0.3548
 7960SOL    HW135342   0.962   1.157   3.010 -0.8608 -0.3843  0.7258
 7960SOL    HW235343   1.043   1.274   3.074 -0.7952  0.4138  1.4099
 7961SOL     OW35344   3.758   3.175   8.405  0.2999 -0.4454  0.0858
 7961SOL    HW135345   3.702   3.250   8.387 -0.3864 -1.9291 -3.8310
 7961SOL    HW235346   3.820   3.198   8.336 -0.8955 -3.3337 -1.9605
 7962SOL     OW35347   2.348   0.501  15.599  0.6524 -0.1309 -0.5577
 7962SOL    HW135348   2.431   0.507  15.551  1.5363 -1.1804  0.8478
 7962SOL    HW235349   2.302   0.554  15.533 -1.0022 -0.4021  0.3783
 7963SOL     OW35350   4.101   0.164   3.354  0.0987 -0.0193  0.1547
 7963SOL    HW135351   4.116   0.095   3.418  4.0253 -1.0707 -1.9354
 7963SOL    HW235352   4.016   0.140   3.317  0.2287  0.6091 -0.5777
 7964SOL     OW35353   1.149   0.289   2.701  0.2179  0.2596 -0.7773
 7964SOL    HW135354   1.095   0.232   2.756  0.3263 -1.2736 -2.2690
 7964SOL    HW235355   1.096   0.368   2.714  0.9057  0.1661  2.6888
 7965SOL     OW35356   1.539   1.225   5.508  0.0548 -0.2511 -0.1448
 7965SOL    HW135357   1.578   1.264   5.586  0.9641  2.1659 -1.8046
 7965SOL    HW235358   1.573   1.135   5.513 -0.3447 -0.4977 -1.9633
 7966SOL     OW35359   4.505   0.349   2.413 -0.5032  0.7188 -0.0648
 7966SOL    HW135360   4.576   0.404   2.446 -0.8789  1.5719 -0.6710
 7966SOL    HW235361   4.445   0.418   2.385 -1.2199  0.1836  0.1455
 7967SOL     OW35362   1.478   1.205   2.429  0.2376 -0.3906  0.6265
 7967SOL    HW135363   1.457   1.296   2.407  0.2506 -0.4351  0.4237
 7967SOL    HW235364   1.544   1.210   2.498 -0.7000 -0.4197  1.5157
 7968SOL     OW35365   0.663   3.165   3.692  0.9509  0.0071  0.4394
 7968SOL    HW135366   0.634   3.093   3.636  0.1902  0.4283  0.2889
 7968SOL    HW235367   0.755   3.174   3.665  1.1337 -0.2908  0.9768
 7969SOL     OW35368   4.487   1.973   6.203  0.2126 -0.4117 -0.5404
 7969SOL    HW135369   4.548   2.045   6.186 -1.4152  1.4634  1.5963
 7969SOL    HW235370   4.525   1.904   6.149 -1.1223  0.5008 -2.6347
 7970SOL     OW35371   3.637   2.871   4.162  0.2872  0.0866 -0.4699
 7970SOL    HW135372   3.616   2.905   4.076 -0.4303 -1.7116 -0.9998
 7970SOL    HW235373   3.599   2.944   4.211  1.0693 -1.7312  2.8397
 7971SOL     OW35374   3.399   2.698   0.115 -0.5256  0.2723 -0.0536
 7971SOL    HW135375   3.446   2.662   0.040 -1.2598 -2.8928  1.0017
 7971SOL    HW235376   3.469   2.709   0.178 -1.3520  1.4203  0.6497
 7972SOL     OW35377   4.267   1.743  13.801 -0.2496  0.2165 -0.0411
 7972SOL    HW135378   4.180   1.745  13.842  0.0232  0.7622  0.5185
 7972SOL    HW235379   4.298   1.829  13.831 -0.3252  0.0214  0.6083
 7973SOL     OW35380   2.491   4.374   7.191 -0.2792  0.0576 -0.1942
 7973SOL    HW135381   2.492   4.351   7.284 -0.4577 -2.4563 -0.8256
 7973SOL    HW235382   2.529   4.462   7.194 -0.8514  0.3181 -0.5602
 7974SOL     OW35383   0.564   4.385   3.434  0.3501  0.0409 -0.3067
 7974SOL    HW135384   0.658   4.371   3.443  0.0545 -1.7029  0.2119
 7974SOL    HW235385   0.533   4.340   3.513  0.5523 -1.1689 -0.9155
 7975SOL     OW35386   2.655   3.172  15.636 -0.1327 -0.0678 -0.0381
 7975SOL    HW135387   2.676   3.253  15.590  0.3062 -0.8159 -1.1411
 7975SOL    HW235388   2.586   3.191  15.700  0.1119  0.2535  0.1316
 7976SOL     OW35389   2.019   1.864  16.236  0.0494  0.0617 -0.2250
 7976SOL    HW135390   2.066   1.794  16.191 -1.9226 -2.8376  2.2863
 7976SOL    HW235391   1.935   1.857  16.190  0.0780 -2.2363  0.0712
 7977SOL     OW35392   4.144   0.069   0.708 -0.4208  0.4694 -0.0023
 7977SOL    HW135393   4.147   0.163   0.725  0.4494  0.5035 -0.3270
 7977SOL    HW235394   4.238   0.050   0.710 -0.1441  1.8137  0.0441
 7978SOL     OW35395   1.477   1.620  16.208  0.1669  0.0970  0.6670
 7978SOL    HW135396   1.552   1.584  16.161  0.7146 -0.0604  1.6788
 7978SOL    HW235397   1.458   1.553  16.274 -1.4587 -0.3430 -0.2309
 7979SOL     OW35398   4.362   4.602   2.561  0.3308  0.1129 -0.5322
 7979SOL    HW135399   4.305   4.545   2.612  1.2281 -0.6704 -0.3948
 7979SOL    HW235400   4.431   4.538   2.540  0.9179 -0.2447  2.5202
 7980SOL     OW35401   4.540   2.989   7.777  0.1059 -0.5150  0.3218
 7980SOL    HW135402   4.581   2.911   7.739 -0.4402  1.6042 -4.6906
 7980SOL    HW235403   4.447   2.966   7.765  0.1794 -0.9028  0.4841
 7981SOL     OW35404   3.643   0.842   2.357 -0.1194  0.1719  0.0054
 7981SOL    HW135405   3.644   0.801   2.443 -0.1762  0.1929  0.0162
 7981SOL    HW235406   3.679   0.773   2.301 -0.2568 -0.5922  0.8577
 7982SOL     OW35407   2.504   1.684   7.835  0.0950  0.4778 -0.2205
 7982SOL    HW135408   2.501   1.675   7.930 -0.0905 -0.3871 -0.3109
 7982SOL    HW235409   2.422   1.730   7.816 -0.1692 -0.2733 -0.8939
 7983SOL     OW35410   0.235   3.362  12.872 -0.0387  0.1159 -0.0873
 7983SOL    HW135411   0.264   3.435  12.927 -0.9234  0.1450  0.3564
 7983SOL    HW235412   0.297   3.346  12.801 -1.1806  0.6896 -1.2164
 7984SOL     OW35413   2.558   3.906  10.851  0.0891 -0.3238 -0.2845
 7984SOL    HW135414   2.651   3.927  10.841 -0.4034  0.7377 -2.6035
 7984SOL    HW235415   2.537   3.865  10.768 -2.7919 -4.5075  2.4935
 7985SOL     OW35416   3.360   3.742   8.660  0.1442  0.5304 -0.4713
 7985SOL    HW135417   3.321   3.779   8.740  0.9295  0.5041 -0.0773
 7985SOL    HW235418   3.337   3.814   8.601 -2.3205  0.1608  0.0259
 7986SOL     OW35419   3.949   0.769   1.645  0.5323 -0.1758 -0.2775
 7986SOL    HW135420   4.028   0.717   1.653  0.5332  0.3639  3.2058
 7986SOL    HW235421   3.885   0.702   1.620 -1.2939  1.1031  0.9977
 7987SOL     OW35422   0.933   3.028  12.386  0.2211  0.4585  0.2475
 7987SOL    HW135423   0.906   2.987  12.469 -2.7813 -1.1403 -1.5249
 7987SOL    HW235424   0.850   3.039  12.341  0.8330 -1.6997 -1.3742
 7988SOL     OW35425   4.478   4.179   3.346 -0.4319  0.0113  0.3527
 7988SOL    HW135426   4.425   4.256   3.331 -0.9266  0.1213  2.7395
 7988SOL    HW235427   4.570   4.200   3.328 -1.6728  2.6214 -2.8570
 7989SOL     OW35428   1.169   1.754   9.525 -0.1653 -0.1036  0.5269
 7989SOL    HW135429   1.251   1.752   9.573 -0.1330  1.6599  0.5270
 7989SOL    HW235430   1.139   1.663   9.535  1.2932 -0.5654  0.6735
 7990SOL     OW35431   3.352   2.440   5.609 -0.4581 -0.5122 -0.9688
 7990SOL    HW135432   3.277   2.448   5.550 -1.4478 -2.1847  0.0595
 7990SOL    HW235433   3.356   2.523   5.658 -2.4055 -0.6100 -0.6518
 7991SOL     OW35434   3.622   4.154   6.409 -0.5137  0.5216 -0.1909
 7991SOL    HW135435   3.702   4.202   6.386  0.1253 -0.9028 -0.9816
 7991SOL    HW235436   3.607   4.100   6.331  0.6401 -0.4041  0.2219
 7992SOL     OW35437   2.401   3.372   4.306 -0.4051 -0.4797 -0.0592
 7992SOL    HW135438   2.369   3.311   4.372 -1.6866  1.4501  1.1078
 7992SOL    HW235439   2.480   3.403   4.350  0.8093 -1.8995 -1.2478
 7993SOL     OW35440   0.719   1.034   9.459  0.2750  0.9694  0.3589
 7993SOL    HW135441   0.666   0.959   9.486  2.0991 -0.6822 -0.6357
 7993SOL    HW235442   0.779   0.992   9.398  0.8626  2.6161 -0.2194
 7994SOL     OW35443   1.562   0.081   4.363  0.6254  0.2044  0.3057
 7994SOL    HW135444   1.569   0.077   4.268 -0.3653  0.5132  0.2139
 7994SOL    HW235445   1.579   4.714   4.393  0.3098 -0.1500 -0.5610
 7995SOL     OW35446   1.492   1.514   0.499  0.3256 -0.0871 -0.0536
 7995SOL    HW135447   1.514   1.428   0.536 -0.2848 -0.2142  0.0128
 7995SOL    HW235448   1.505   1.568   0.577 -1.6983 -1.2589  1.1220
 7996SOL     OW35449   0.541   3.604   9.180 -0.0407  0.0060  0.3667
 7996SOL    HW135450   0.600   3.677   9.202 -0.0393 -0.1494  0.8883
 7996SOL    HW235451   0.540   3.560   9.265 -3.1691 -0.9119 -0.1749
 7997SOL     OW35452   3.290   1.163   3.716 -0.0549  0.2678  0.2045
 7997SOL    HW135453   3.198   1.141   3.734  0.8520 -1.2113  3.0491
 7997SOL    HW235454   3.284   1.170   3.621 -1.2190  0.6229  0.2992
 7998SOL     OW35455   0.466   2.846   9.296  0.0494 -0.7250 -0.0148
 7998SOL    HW135456   0.442   2.763   9.340  1.5479  0.0210  2.1947
 7998SOL    HW235457   0.561   2.840   9.289  0.1288 -1.4235  1.5839
 7999SOL     OW35458   0.634   2.347   6.476  0.2857 -0.0584  0.1484
 7999SOL    HW135459   0.658   2.412   6.542 -1.5659  0.4161  0.3699
 7999SOL    HW235460   0.651   2.399   6.398  0.0944  1.3917  1.0729
 8000SOL     OW35461   1.204   2.382   2.501 -0.6715  0.0241  0.0302
 8000SOL    HW135462   1.250   2.299   2.513 -2.3032 -1.1425 -1.6273
 8000SOL    HW235463   1.138   2.354   2.437  0.6623 -4.0704  0.4198
 8001SOL     OW35464   2.583   3.351  10.254 -0.2536 -0.3546 -0.1638
 8001SOL    HW135465   2.571   3.330  10.162 -1.4894  1.9498 -0.5219
 8001SOL    HW235466   2.665   3.309  10.278 -1.3213 -1.4628  1.6598
 8002SOL     OW35467   2.665   1.220  15.697  0.2345  0.2771  0.5783
 8002SOL    HW135468   2.650   1.206  15.604  3.3139 -0.4472  0.1909
 8002SOL    HW235469   2.668   1.136  15.743  2.3550 -0.5879 -1.1402
 8003SOL     OW35470   1.810   4.198   2.373  0.1879  0.3182  0.3555
 8003SOL    HW135471   1.842   4.278   2.332  0.0897 -0.1039 -0.5642
 8003SOL    HW235472   1.807   4.141   2.296 -1.9078 -0.2975  0.8761
 8004SOL     OW35473   1.629   4.325  17.617  0.4252  0.2923 -0.2823
 8004SOL    HW135474   1.677   4.402  17.649 -1.9970  1.7831 -0.2161
 8004SOL    HW235475   1.578   4.357  17.543  0.0071 -0.6439 -0.3902
 8005SOL     OW35476   0.785   0.202   4.233 -0.0114 -0.4020 -0.2045
 8005SOL    HW135477   0.797   0.230   4.324 -2.9776 -1.7735  0.6303
 8005SOL    HW235478   0.745   0.119   4.258  1.8460 -1.2758 -0.1372
 8006SOL     OW35479   2.093   2.646   0.062 -0.3045  0.3357  0.3627
 8006SOL    HW135480   2.051   2.671   0.144 -1.6810 -1.8611  0.3353
 8006SOL    HW235481   2.079   2.728   0.015  2.7617  0.8296  0.3286
 8007SOL     OW35482   4.608   3.553   4.174  0.4584  0.1971  0.1820
 8007SOL    HW135483   4.554   3.514   4.243  1.4775 -1.8030 -0.1631
 8007SOL    HW235484   4.578   3.501   4.099 -0.4091  1.6767 -0.4986
 8008SOL     OW35485   3.482   3.758  14.857  0.4181 -0.1365 -0.2915
 8008SOL    HW135486   3.416   3.712  14.909  0.5131  0.3767  0.2775
 8008SOL    HW235487   3.523   3.687  14.807  3.3800  1.7084 -0.4509
 8009SOL     OW35488   4.567   2.789   5.246 -0.0781 -0.2798 -0.1771
 8009SOL    HW135489   4.649   2.838   5.253  0.3123 -0.8351 -0.8295
 8009SOL    HW235490   4.533   2.794   5.336 -2.6813  3.6446 -1.3995
 8010SOL     OW35491   4.308   0.304   5.834 -0.2595  0.3474  0.1448
 8010SOL    HW135492   4.369   0.377   5.822 -0.1500 -0.3219 -3.5011
 8010SOL    HW235493   4.363   0.228   5.816  1.9022  1.5409  1.7724
 8011SOL     OW35494   3.966   3.978  11.335  0.2138 -0.3260  0.9686
 8011SOL    HW135495   3.986   3.890  11.304  1.2766 -0.4395  1.9585
 8011SOL    HW235496   4.056   4.011  11.337  0.6615 -1.3415 -2.5173
 8012SOL     OW35497   0.816   0.088   3.939 -0.0273 -0.2637  0.0033
 8012SOL    HW135498   0.903   0.122   3.919  0.1178  0.5912  2.0569
 8012SOL    HW235499   0.807   0.124   4.027 -3.7847  3.0178 -1.7191
 8013SOL     OW35500   1.336   1.725   8.044 -0.3715 -0.4090  0.7483
 8013SOL    HW135501   1.408   1.669   8.071  1.1495  1.2217  0.0855
 8013SOL    HW235502   1.387   1.770   7.977 -3.4762  1.2613 -0.4666
 8014SOL     OW35503   1.504   2.633   2.540 -0.1913  0.3078 -0.1346
 8014SOL    HW135504   1.490   2.538   2.549  1.5960 -0.0216 -0.9199
 8014SOL    HW235505   1.593   2.645   2.573  0.1124  1.9646 -1.5889
 8015SOL     OW35506   2.174   4.327   8.547  0.0471 -0.0184  0.2093
 8015SOL    HW135507   2.084   4.315   8.517  0.8494 -1.0442 -1.7984
 8015SOL    HW235508   2.228   4.269   8.493  1.2604 -0.6945  2.1502
 8016SOL     OW35509   3.204   1.563   1.006  0.2348  0.1554 -0.5583
 8016SOL    HW135510   3.193   1.658   1.004 -0.0713  0.1093 -0.9187
 8016SOL    HW235511   3.180   1.550   1.098 -0.9946  2.2658 -0.6000
 8017SOL     OW35512   0.576   3.185   2.102 -0.3926 -0.3681  0.8444
 8017SOL    HW135513   0.619   3.154   2.182  0.7579 -0.5603  0.1478
 8017SOL    HW235514   0.658   3.203   2.057 -0.8909 -2.6060 -0.9603
 8018SOL     OW35515   2.287   0.035  10.953  0.2101 -0.3296  0.2640
 8018SOL    HW135516   2.378   0.007  10.965  0.7441  0.8235 -1.0387
 8018SOL    HW235517   2.256   4.687  10.896 -0.4416  1.9488 -2.2009
 8019SOL     OW35518   3.780   4.596  14.830 -0.2013  0.0542  0.1316
 8019SOL    HW135519   3.861   4.574  14.875 -0.0080 -1.5203 -0.9882
 8019SOL    HW235520   3.760   4.687  14.851 -0.1821  0.4207 -1.4279
 8020SOL     OW35521   3.115   0.198   4.657 -0.0392  0.2323 -0.0425
 8020SOL    HW135522   3.038   0.221   4.709  0.8856  1.4484  0.8056
 8020SOL    HW235523   3.086   0.119   4.613  1.0548  0.4256 -1.1124
 8021SOL     OW35524   1.720   4.058   6.440  0.0834 -0.2956 -0.1133
 8021SOL    HW135525   1.722   4.056   6.344 -0.4840 -0.6164 -0.1245
 8021SOL    HW235526   1.812   4.056   6.464  0.0817 -0.7113 -0.1412
 8022SOL     OW35527   2.413   2.278   4.838 -0.5998 -0.3867  0.0442
 8022SOL    HW135528   2.432   2.185   4.847  0.6089 -0.0477  0.9966
 8022SOL    HW235529   2.494   2.306   4.882 -0.3673  0.2032 -0.7591
 8023SOL     OW35530   0.775   2.555  17.526 -0.2266 -0.2430  0.0729
 8023SOL    HW135531   0.770   2.464  17.496 -2.0111  0.1885 -0.9647
 8023SOL    HW235532   0.789   2.607  17.447 -1.6363 -0.8351 -0.5860
 8024SOL     OW35533   4.465   0.431   4.441 -0.1196  0.3981 -0.1975
 8024SOL    HW135534   4.389   0.442   4.384  0.0409 -0.9472 -0.6652
 8024SOL    HW235535   4.532   0.462   4.379  0.4092  1.2244  0.7726
 8025SOL     OW35536   3.905   3.433   9.587  0.0922 -0.4150 -0.0188
 8025SOL    HW135537   3.824   3.423   9.638  0.0459  0.8002  0.1462
 8025SOL    HW235538   3.874   3.421   9.498  1.0394 -0.1372 -0.3837
 8026SOL     OW35539   3.902   4.667   8.744  0.4691 -0.5597  0.6869
 8026SOL    HW135540   3.823   4.707   8.709 -1.0034 -1.1747  3.3151
 8026SOL    HW235541   3.903   4.687   8.838  1.6637  0.9378  0.3563
 8027SOL     OW35542   3.061   1.976   8.562 -0.0838  0.5432  0.4238
 8027SOL    HW135543   3.033   1.887   8.584  1.0668  0.2685  0.8029
 8027SOL    HW235544   2.977   2.022   8.556  0.1185  0.8102 -0.3874
 8028SOL     OW35545   3.953   3.693   3.989  0.3708 -0.6460  0.3184
 8028SOL    HW135546   3.985   3.651   3.909  1.4848 -1.7691  1.3472
 8028SOL    HW235547   4.009   3.770   3.995  2.0604 -1.7810 -1.0148
 8029SOL     OW35548   3.533   0.196   6.356  0.4444  0.2180  0.3855
 8029SOL    HW135549   3.467   0.239   6.410 -0.3654 -0.9590  0.3461
 8029SOL    HW235550   3.523   0.250   6.277 -1.8596 -0.3728  0.2580
 8030SOL     OW35551   0.943   0.406   8.080 -0.0126 -0.1887 -0.9465
 8030SOL    HW135552   1.019   0.426   8.026  1.3022 -4.7637 -0.7871
 8030SOL    HW235553   0.908   0.333   8.029 -1.6337 -0.7923  1.0414
 8031SOL     OW35554   4.704   2.504   3.712 -0.0188  0.0644  0.5744
 8031SOL    HW135555   0.032   2.520   3.632 -0.4314  1.3389  0.5554
 8031SOL    HW235556   4.624   2.556   3.700  0.7136  1.0796  0.1586
 8032SOL     OW35557   3.313   4.005   1.823 -0.6631 -0.3376 -0.6000
 8032SOL    HW135558   3.234   3.954   1.844 -0.6549  0.2908  0.8973
 8032SOL    HW235559   3.343   4.025   1.911 -1.4789  1.9030 -0.8252
 8033SOL     OW35560   3.793   2.695  15.800 -0.1044 -0.0662 -0.0811
 8033SOL    HW135561   3.888   2.686  15.794 -0.1755 -0.5099 -0.5261
 8033SOL    HW235562   3.793   2.781  15.842  0.0492 -1.0677  1.9746
 8034SOL     OW35563   1.941   1.407   5.029 -0.3596  0.3160  0.2863
 8034SOL    HW135564   1.916   1.415   5.121 -1.1013  0.2560  0.0872
 8034SOL    HW235565   1.985   1.322   5.023 -3.2167 -0.8823 -3.7503
 8035SOL     OW35566   0.325   2.674  11.452 -0.3153 -0.2657 -0.0844
 8035SOL    HW135567   0.253   2.612  11.459  0.2935 -1.1683 -1.9246
 8035SOL    HW235568   0.294   2.742  11.513 -1.3983 -0.6084 -0.2636
 8036SOL     OW35569   0.280   4.418  16.542  0.3184  0.3236  0.4723
 8036SOL    HW135570   0.312   4.428  16.632 -1.9428 -0.8938  1.4302
 8036SOL    HW235571   0.286   4.510  16.516  1.4511 -0.0907 -0.6956
 8037SOL     OW35572   4.332   3.629   6.853  0.8100  0.0843 -0.1682
 8037SOL    HW135573   4.247   3.669   6.872  0.9072  0.5117 -0.6193
 8037SOL    HW235574   4.386   3.703   6.825  1.3813  0.3095  1.5463
 8038SOL     OW35575   2.570   0.347   7.237  0.0284 -0.0594 -0.4042
 8038SOL    HW135576   2.483   0.327   7.271  0.3024  1.5094  1.2365
 8038SOL    HW235577   2.588   0.410   7.306 -0.0722 -2.3313  1.6808
 8039SOL     OW35578   1.687   4.502   6.145 -0.2151 -0.8080  0.2434
 8039SOL    HW135579   1.647   4.588   6.133 -2.2912 -1.2975  3.7354
 8039SOL    HW235580   1.777   4.511   6.177 -1.1185 -1.8251  3.0037
 8040SOL     OW35581   3.376   3.156   5.649 -0.0001  0.0978 -0.1554
 8040SOL    HW135582   3.415   3.074   5.618 -0.7852  0.1748 -1.3466
 8040SOL    HW235583   3.320   3.183   5.576 -1.7014  0.0085  1.1007
 8041SOL     OW35584   2.787   0.186  15.470 -0.3931  0.2902  0.8822
 8041SOL    HW135585   2.786   0.250  15.541  4.8244  0.2184  0.9934
 8041SOL    HW235586   2.693   0.172  15.460 -0.5221  2.0286 -0.2542
 8042SOL     OW35587   2.678   0.370  13.446 -0.3467 -0.2216 -0.0809
 8042SOL    HW135588   2.697   0.460  13.472  1.6497 -0.4248 -0.8187
 8042SOL    HW235589   2.645   0.334  13.528  0.3475  1.4102  0.9166
 8043SOL     OW35590   3.584   2.603   6.098 -1.2165  0.3140 -0.1683
 8043SOL    HW135591   3.550   2.571   6.181 -0.9212  2.0555  0.6377
 8043SOL    HW235592   3.571   2.532   6.036 -0.6473 -0.0322  0.1088
 8044SOL     OW35593   2.300   4.021   0.876  0.1271  0.3115  0.2048
 8044SOL    HW135594   2.377   4.053   0.923 -0.1745  0.4552  0.6064
 8044SOL    HW235595   2.230   4.083   0.896 -1.0018 -0.5020 -1.2593
 8045SOL     OW35596   3.241   3.422  13.955  0.0396 -0.4793 -0.2576
 8045SOL    HW135597   3.167   3.450  13.901 -2.0227 -1.3440  2.1244
 8045SOL    HW235598   3.203   3.448  14.038  0.4859 -2.3420  0.5389
 8046SOL     OW35599   0.828   1.482   9.338  0.7558  0.1157 -0.5579
 8046SOL    HW135600   0.786   1.398   9.319 -0.7617  1.1591 -1.7731
 8046SOL    HW235601   0.773   1.546   9.293  0.0294  0.0758  0.2762
 8047SOL     OW35602   2.204   3.695   4.479 -0.2742 -0.0516 -0.3618
 8047SOL    HW135603   2.148   3.773   4.486 -1.3522 -1.1626  3.4796
 8047SOL    HW235604   2.143   3.643   4.426  1.1331 -0.7388 -1.3051
 8048SOL     OW35605   0.766   2.699   2.020  0.5446 -0.1440  0.2627
 8048SOL    HW135606   0.765   2.727   2.111 -2.8352  3.9752 -1.0380
 8048SOL    HW235607   0.842   2.750   1.992  1.3111 -2.0723 -1.2299
 8049SOL     OW35608   3.244   0.247   1.774  0.2783  0.3191  0.0238
 8049SOL    HW135609   3.310   0.246   1.843  1.9762 -1.0740 -1.6080
 8049SOL    HW235610   3.269   0.327   1.727  1.0160  0.5492  0.8054
 8050SOL     OW35611   1.387   2.132  10.255 -0.3754  0.2171  0.1253
 8050SOL    HW135612   1.364   2.214  10.298  1.5018  1.0310 -0.4554
 8050SOL    HW235613   1.297   2.112  10.230  0.0341  0.8164 -1.7869
 8051SOL     OW35614   4.697   1.538   2.034 -0.4257 -0.1829 -0.0059
 8051SOL    HW135615   4.720   1.545   2.127 -0.6677  0.4752  0.0083
 8051SOL    HW235616   4.622   1.479   2.037 -0.0319 -0.6762 -0.0273
 8052SOL     OW35617   4.032   2.280   3.202 -0.2354  0.0495 -0.6910
 8052SOL    HW135618   3.944   2.307   3.174 -0.2314  0.2361 -0.5217
 8052SOL    HW235619   4.035   2.185   3.212 -0.8437 -0.0775 -1.7010
 8053SOL     OW35620   1.000   4.540  15.640  0.0779 -0.0763  0.1063
 8053SOL    HW135621   1.056   4.489  15.698  0.8195 -1.3560 -1.7374
 8053SOL    HW235622   1.061   4.574  15.574  2.6964 -0.9951  2.0817
 8054SOL     OW35623   0.332   3.083   9.283  0.3449 -0.9534  0.3155
 8054SOL    HW135624   0.394   3.013   9.302  0.7013 -1.0999 -1.4058
 8054SOL    HW235625   0.353   3.093   9.190 -1.1391  0.4287  0.1185
 8055SOL     OW35626   1.346   2.944   1.279 -0.0887  0.2959  0.1473
 8055SOL    HW135627   1.323   2.958   1.187  1.6955  1.2850 -0.1429
 8055SOL    HW235628   1.390   3.028   1.290 -0.4430  0.2382  1.9723
 8056SOL     OW35629   1.551   4.641   4.868 -0.2034  0.5851 -0.2511
 8056SOL    HW135630   1.617   4.708   4.883  0.1337  0.3090 -0.4864
 8056SOL    HW235631   1.572   4.598   4.785 -0.3098  0.7508 -0.3634
 8057SOL     OW35632   4.494   2.671   2.411 -0.5354  0.5455  0.3122
 8057SOL    HW135633   4.469   2.640   2.324  1.8933 -0.0735 -0.1693
 8057SOL    HW235634   4.589   2.664   2.422 -0.5090 -0.0069 -0.2523
 8058SOL     OW35635   3.896   1.559  10.303 -0.2227  0.1404  0.4267
 8058SOL    HW135636   3.835   1.573  10.376  1.5366  0.5975  1.7960
 8058SOL    HW235637   3.967   1.507  10.340  0.7387  0.2300 -1.3315
 8059SOL     OW35638   4.568   0.807   7.241  0.1140  0.0024 -0.3137
 8059SOL    HW135639   4.565   0.737   7.175  1.5672  0.5850 -1.0074
 8059SOL    HW235640   4.560   0.877   7.176 -0.6253 -0.2509 -0.4949
 8060SOL     OW35641   3.852   3.599   4.717  0.4469 -0.1416  0.2051
 8060SOL    HW135642   3.821   3.514   4.748  0.3268 -0.3040 -0.3575
 8060SOL    HW235643   3.771   3.642   4.743 -0.2277  0.1906 -2.3893
 8061SOL     OW35644   3.622   0.126   4.599  0.0947  0.5136  0.1647
 8061SOL    HW135645   3.536   0.166   4.595  1.2418  2.7773 -1.6345
 8061SOL    HW235646   3.677   0.196   4.565 -0.0178 -0.3545 -1.8173
 8062SOL     OW35647   1.474   3.640  16.999  0.2002  0.6885  0.3724
 8062SOL    HW135648   1.485   3.553  17.036 -0.2382  0.0681 -0.9394
 8062SOL    HW235649   1.392   3.626  16.952  1.0771  1.8088 -1.4992
 8063SOL     OW35650   1.003   4.025  17.012 -0.0573 -0.4144 -0.1392
 8063SOL    HW135651   1.074   3.977  16.968  0.5335  1.1677 -0.9149
 8063SOL    HW235652   0.977   4.080  16.938 -1.4503 -1.0168 -0.1043
 8064SOL     OW35653   1.546   1.944  10.520 -0.2185 -0.5443 -0.2607
 8064SOL    HW135654   1.464   1.910  10.557 -0.6936  2.7302  1.6904
 8064SOL    HW235655   1.537   2.039  10.513  0.2671 -0.4301  0.5999
 8065SOL     OW35656   0.582   2.428   4.068 -0.1860 -0.4590  0.6347
 8065SOL    HW135657   0.618   2.375   4.139  0.7631 -3.6598 -2.1645
 8065SOL    HW235658   0.610   2.516   4.092 -0.7356 -0.4725  1.3123
 8066SOL     OW35659   2.823   3.019  12.289 -0.1583 -0.4823 -0.5650
 8066SOL    HW135660   2.746   3.076  12.290 -0.1508 -0.5456  2.1509
 8066SOL    HW235661   2.863   3.050  12.207  3.3282  1.6562  1.9511
 8067SOL     OW35662   0.992   2.426  13.969  0.3434 -0.5367  0.1316
 8067SOL    HW135663   0.910   2.453  14.010  0.8660  1.0700  0.0941
 8067SOL    HW235664   1.000   2.341  14.014  0.1053 -1.7701 -2.1359
 8068SOL     OW35665   0.829   2.354   6.045 -0.5373 -0.3685  0.2420
 8068SOL    HW135666   0.903   2.413   6.036  0.1872 -1.4156 -0.6195
 8068SOL    HW235667   0.786   2.394   6.121 -1.1823 -0.1036 -0.2612
 8069SOL     OW35668   2.171   4.175   2.367 -0.2917  0.8211 -0.1590
 8069SOL    HW135669   2.253   4.226   2.371 -0.0822  0.3647  1.5493
 8069SOL    HW235670   2.128   4.231   2.303 -0.3120 -1.7328 -2.3638
 8070SOL     OW35671   4.540   2.672   9.476  0.0547  0.8515 -0.3343
 8070SOL    HW135672   4.561   2.752   9.429 -1.0628  0.5178 -1.3905
 8070SOL    HW235673   4.530   2.709   9.564 -0.1200 -0.2279  0.1123
 8071SOL     OW35674   1.890   0.354  14.299 -0.1792 -0.2539  0.1396
 8071SOL    HW135675   1.802   0.385  14.279  0.1486  1.1290  0.8692
 8071SOL    HW235676   1.887   0.334  14.392 -1.3269 -2.2892 -0.3410
 8072SOL     OW35677   1.794   0.897  12.691 -0.5794 -0.0750  0.2039
 8072SOL    HW135678   1.727   0.845  12.646 -1.0541  2.0840 -1.5857
 8072SOL    HW235679   1.804   0.964  12.624  0.7624 -1.0622 -0.5869
 8073SOL     OW35680   4.274   1.495   1.527  0.0156 -0.5119 -0.4495
 8073SOL    HW135681   4.196   1.551   1.524  0.2993 -0.0514  0.7286
 8073SOL    HW235682   4.237   1.409   1.546  1.4923 -1.7793 -3.3703
 8074SOL     OW35683   3.127   1.118   4.172  0.0647 -0.3205 -0.9044
 8074SOL    HW135684   3.102   1.210   4.179  2.1342  0.2939 -1.6221
 8074SOL    HW235685   3.051   1.069   4.141 -0.4127 -0.5508  0.6154
 8075SOL     OW35686   1.245   3.042   2.919  0.0626  0.3904  0.2235
 8075SOL    HW135687   1.157   3.007   2.935 -0.1693  0.9370  0.1200
 8075SOL    HW235688   1.208   3.129   2.908 -1.3005 -0.5111 -2.3883
 8076SOL     OW35689   2.331   1.323   7.675  0.3646  0.0604  0.4917
 8076SOL    HW135690   2.414   1.279   7.694  0.6135  0.2708 -0.1029
 8076SOL    HW235691   2.341   1.317   7.580  2.7456 -1.5190  0.8531
 8077SOL     OW35692   1.574   1.975  13.294  0.1743  1.1581  0.5042
 8077SOL    HW135693   1.493   2.013  13.328  0.5453  1.9787  0.4644
 8077SOL    HW235694   1.539   1.958  13.206 -0.4017  0.6031  0.8396
 8078SOL     OW35695   1.624   1.450   3.283  0.5438 -0.4411  0.5623
 8078SOL    HW135696   1.596   1.504   3.356  0.7804  1.1955 -0.5715
 8078SOL    HW235697   1.714   1.479   3.268 -0.1291 -0.6237 -3.6590
 8079SOL     OW35698   1.498   1.704   0.681  0.5834  0.0455 -1.1023
 8079SOL    HW135699   1.550   1.778   0.712  2.1233 -1.9162  1.0790
 8079SOL    HW235700   1.474   1.668   0.767 -2.5306  1.9084 -1.1792
 8080SOL     OW35701   2.804   3.014  11.689  0.4944 -0.0895 -0.3333
 8080SOL    HW135702   2.893   3.032  11.658  0.1978  0.1976 -1.0049
 8080SOL    HW235703   2.760   3.097  11.672 -3.4883 -2.2970 -0.7319
 8081SOL     OW35704   3.588   0.380   2.567  0.2774  0.3281 -0.1474
 8081SOL    HW135705   3.503   0.336   2.576  1.1416 -1.2909  0.1421
 8081SOL    HW235706   3.636   0.337   2.637 -0.3825 -1.0439 -0.5316
 8082SOL     OW35707   2.591   0.496   7.488  0.1649  0.4428 -0.4278
 8082SOL    HW135708   2.594   0.525   7.579 -2.8143 -0.4511 -0.0145
 8082SOL    HW235709   2.635   0.569   7.447 -0.8267  1.5634  0.5061
 8083SOL     OW35710   0.446   3.629  11.346 -0.2209 -0.4078 -0.7460
 8083SOL    HW135711   0.453   3.619  11.441 -1.5810 -0.2209 -0.6298
 8083SOL    HW235712   0.464   3.535  11.340  0.1705 -0.2553 -1.8142
 8084SOL     OW35713   0.364   0.930   2.547 -0.3798 -0.0439 -0.1392
 8084SOL    HW135714   0.452   0.962   2.568 -1.1484  0.7370  1.8638
 8084SOL    HW235715   0.375   0.835   2.554 -0.4813 -0.1458 -1.3009
 8085SOL     OW35716   1.533   1.906  10.222 -0.2623  0.3195 -0.3842
 8085SOL    HW135717   1.480   1.845  10.170  0.2605  0.2068 -0.7760
 8085SOL    HW235718   1.477   1.981  10.241  0.2580  0.4861  0.4805
 8086SOL     OW35719   4.550   1.820  10.759  0.2134  0.1141  0.2361
 8086SOL    HW135720   4.645   1.810  10.757  0.0322 -1.1995 -1.6037
 8086SOL    HW235721   4.523   1.749  10.700 -0.3162  2.0117 -1.8404
 8087SOL     OW35722   3.984   2.769   9.783  0.0127  0.0594  0.0972
 8087SOL    HW135723   4.020   2.772   9.872  2.3367 -1.2538 -0.7736
 8087SOL    HW235724   4.057   2.804   9.731 -0.8329 -1.1480 -1.9213
 8088SOL     OW35725   1.261   2.280  11.528  0.2301 -0.4328  0.1248
 8088SOL    HW135726   1.175   2.256  11.563  0.4862 -1.6617 -0.1093
 8088SOL    HW235727   1.256   2.375  11.518  1.2610 -0.4501 -0.5680
 8089SOL     OW35728   4.418   3.512   2.410  0.0714 -0.2022 -0.0418
 8089SOL    HW135729   4.498   3.461   2.397  0.0339 -0.3909  0.5070
 8089SOL    HW235730   4.356   3.448   2.443  0.8494 -1.6390 -1.3270
 8090SOL     OW35731   4.019   3.517   5.278  0.3737 -0.7127 -0.1119
 8090SOL    HW135732   4.028   3.429   5.315 -0.6460 -2.5323 -4.2697
 8090SOL    HW235733   3.924   3.502   5.272 -0.4338  2.7304  3.6946
 8091SOL     OW35734   4.711   2.789  17.208  0.7456 -0.3185  0.2266
 8091SOL    HW135735   4.646   2.831  17.264 -0.4285 -0.1981 -1.2115
 8091SOL    HW235736   0.043   2.762  17.281  0.3792 -1.0315  0.2389
 8092SOL     OW35737   4.206   0.776   6.229 -0.5759  0.0393 -1.0345
 8092SOL    HW135738   4.129   0.753   6.177 -0.8229  1.7628 -1.4372
 8092SOL    HW235739   4.180   0.748   6.316 -2.0050  1.8551 -0.8704
 8093SOL     OW35740   4.671   0.459  16.591  0.4118  0.6111  0.2780
 8093SOL    HW135741   0.028   0.476  16.641  0.8584  1.9581 -0.9033
 8093SOL    HW235742   4.608   0.433  16.658 -0.6481  1.4384 -0.4180
 8094SOL     OW35743   0.118   3.416   8.462 -0.1050 -0.0116 -0.2194
 8094SOL    HW135744   0.187   3.364   8.504  1.0997  0.7467 -1.2783
 8094SOL    HW235745   0.068   3.353   8.410  0.5249 -0.2300 -0.5528
 8095SOL     OW35746   4.583   3.314  10.197 -0.3119  0.1938 -1.0208
 8095SOL    HW135747   4.493   3.296  10.170 -0.7461  0.9058 -0.0464
 8095SOL    HW235748   4.567   3.407  10.214  2.0531  0.5017 -0.4610
 8096SOL     OW35749   2.925   0.537  11.328  0.0921  0.7131 -0.4698
 8096SOL    HW135750   2.978   0.475  11.278  0.9491  0.8808  0.2410
 8096SOL    HW235751   2.882   0.571  11.249 -2.2487 -0.1904  0.3953
 8097SOL     OW35752   1.885   2.206   3.272 -0.0014  0.4962  0.1024
 8097SOL    HW135753   1.917   2.295   3.260  0.5025  0.2040 -0.7222
 8097SOL    HW235754   1.827   2.191   3.196 -2.8291 -1.6940  2.6858
 8098SOL     OW35755   1.627   4.036   3.519 -0.1070  0.4476  0.1951
 8098SOL    HW135756   1.714   4.001   3.506  0.5981  1.9711  0.7685
 8098SOL    HW235757   1.597   3.968   3.579 -0.1060 -1.0023 -1.4676
 8099SOL     OW35758   3.482   3.313   9.991 -0.3132 -0.8631  0.5106
 8099SOL    HW135759   3.486   3.296   9.897  2.0286  0.2601  0.4164
 8099SOL    HW235760   3.441   3.235  10.029  0.7893 -2.2922 -1.2189
 8100SOL     OW35761   1.758   0.683   7.625 -0.0543 -0.1093 -0.3172
 8100SOL    HW135762   1.772   0.599   7.670 -1.5181 -0.6405 -0.8660
 8100SOL    HW235763   1.680   0.719   7.667 -0.0802  0.2421 -0.6695
 8101SOL     OW35764   2.057   1.928   2.496 -0.0054  0.2089 -0.4325
 8101SOL    HW135765   2.137   1.885   2.465  0.2803  0.7694 -0.4887
 8101SOL    HW235766   2.026   1.978   2.421  1.0010 -0.7027 -1.4464
 8102SOL     OW35767   3.893   3.104   5.810  0.7173  0.4955  0.5666
 8102SOL    HW135768   3.896   3.096   5.905  1.5349  3.5775  0.7783
 8102SOL    HW235769   3.847   3.023   5.786  0.2185  0.5893  1.2294
 8103SOL     OW35770   2.506   4.149   1.034  0.4042  0.6526  0.1534
 8103SOL    HW135771   2.582   4.206   1.044 -0.2147  1.5863 -0.4390
 8103SOL    HW235772   2.437   4.216   1.037  1.5764  1.8331  0.5061
 8104SOL     OW35773   3.273   0.517   1.574  0.5297  0.2083 -0.0798
 8104SOL    HW135774   3.363   0.490   1.594  0.4032 -0.6172 -0.5973
 8104SOL    HW235775   3.278   0.552   1.485 -0.1148 -0.3783 -0.3532
 8105SOL     OW35776   1.463   3.972  13.282  0.2604 -0.4638 -0.1286
 8105SOL    HW135777   1.481   3.981  13.375 -2.4361  0.3653  0.2892
 8105SOL    HW235778   1.368   3.980  13.283  0.0337 -3.1251 -0.3308
 8106SOL     OW35779   0.033   3.737   6.203 -0.1654  0.4541  0.2626
 8106SOL    HW135780   0.056   3.829   6.188  2.4562 -0.5818 -1.9827
 8106SOL    HW235781   0.119   3.701   6.182  0.1284  0.3612  1.6075
 8107SOL     OW35782   1.151   3.365   8.274 -0.2415  0.0845 -0.3526
 8107SOL    HW135783   1.140   3.334   8.363 -0.3450  2.5706  0.5167
 8107SOL    HW235784   1.217   3.307   8.236  0.6236  1.6956 -1.3489
 8108SOL     OW35785   3.246   2.920   5.898  0.3424  0.3903  0.0133
 8108SOL    HW135786   3.307   2.994   5.898 -0.4063  1.0124 -2.8074
 8108SOL    HW235787   3.200   2.926   5.982  0.4399 -1.7460  0.2173
 8109SOL     OW35788   3.789   0.427   5.211 -0.2357  0.8351 -0.1715
 8109SOL    HW135789   3.707   0.465   5.243  0.3192  1.8051  0.0632
 8109SOL    HW235790   3.848   0.423   5.286 -0.9158 -1.8229  0.2415
 8110SOL     OW35791   3.014   3.279   0.943  0.7445  0.4032  0.4960
 8110SOL    HW135792   3.011   3.345   0.874  0.2843  2.9860  2.9937
 8110SOL    HW235793   3.104   3.248   0.932  0.7202  0.9442 -1.2376
 8111SOL     OW35794   0.012   3.761  14.574 -0.2088  0.2385 -0.3334
 8111SOL    HW135795   4.699   3.680  14.539  0.7998 -0.3157 -0.0812
 8111SOL    HW235796   4.655   3.813  14.586 -0.1730 -0.1660  1.6246
 8112SOL     OW35797   2.276   1.189  13.448 -0.2887 -0.2522 -0.4217
 8112SOL    HW135798   2.226   1.271  13.449 -2.4260 -1.6012  0.7254
 8112SOL    HW235799   2.225   1.148  13.378 -0.6644  0.4492 -0.5591
 8113SOL     OW35800   1.863   2.338  11.551  0.0588  0.7201 -0.0049
 8113SOL    HW135801   1.796   2.404  11.567 -0.3001  0.8242 -1.9847
 8113SOL    HW235802   1.827   2.272  11.610  0.3964 -0.7685 -1.4687
 8114SOL     OW35803   2.412   4.128   7.985 -0.1050  0.6169  0.2527
 8114SOL    HW135804   2.373   4.099   8.067 -0.4324  0.4194  0.0312
 8114SOL    HW235805   2.502   4.139   8.014 -0.3593 -0.9237  1.5929
 8115SOL     OW35806   2.884   4.125   6.645 -0.1004 -0.0230  0.1783
 8115SOL    HW135807   2.795   4.113   6.610 -0.9681 -1.7046  2.9723
 8115SOL    HW235808   2.881   4.088   6.733  2.0607  0.2393  0.3691
 8116SOL     OW35809   1.493   2.902  10.188  0.2175 -0.8428  0.1032
 8116SOL    HW135810   1.553   2.975  10.174 -0.6810 -0.3873 -1.3791
 8116SOL    HW235811   1.536   2.867  10.265  0.0575 -0.0516  0.5494
 8117SOL     OW35812   0.127   2.515   2.124 -0.3663  0.2862 -0.3414
 8117SOL    HW135813   0.193   2.478   2.065  0.0037 -0.7725  0.7380
 8117SOL    HW235814   0.099   2.596   2.080 -0.0235  0.5200 -0.1311
 8118SOL     OW35815   1.075   0.282  13.269  0.0977 -0.4270  0.2395
 8118SOL    HW135816   0.995   0.235  13.248  0.2864 -0.7117  0.1559
 8118SOL    HW235817   1.134   0.274  13.193 -0.5198 -0.4755 -0.2336
 8119SOL     OW35818   4.486   3.826  16.008  0.1610  0.2411  0.4380
 8119SOL    HW135819   4.525   3.759  16.065 -0.4427  1.3533  2.1792
 8119SOL    HW235820   4.526   3.901  16.053 -0.1385  0.4615  0.3338
 8120SOL     OW35821   3.203   2.561   3.501  0.1467  0.0009  0.1091
 8120SOL    HW135822   3.275   2.563   3.438  1.7163  1.4503  1.9585
 8120SOL    HW235823   3.246   2.519   3.576  0.5022 -1.7270 -1.0734
 8121SOL     OW35824   2.695   3.498   6.870 -0.3570 -0.4431 -0.4834
 8121SOL    HW135825   2.620   3.456   6.829 -0.2609 -0.4830 -0.6207
 8121SOL    HW235826   2.760   3.498   6.799  0.5341  1.3835  0.3400
 8122SOL     OW35827   2.881   0.327   8.779 -0.6980 -1.1160  0.0869
 8122SOL    HW135828   2.930   0.261   8.828 -0.4086  0.0399  1.3715
 8122SOL    HW235829   2.932   0.332   8.699 -0.8728  1.4625  0.1495
 8123SOL     OW35830   4.055   0.037   6.797  0.0657  0.5788  0.2717
 8123SOL    HW135831   4.134   0.072   6.838 -1.2100  0.9703  2.4113
 8123SOL    HW235832   4.076   0.062   6.707 -1.3789  2.8282  0.5439
 8124SOL     OW35833   2.009   0.444   8.531 -0.1878  1.0677  0.4505
 8124SOL    HW135834   1.942   0.420   8.595  1.9438 -0.0372  2.2543
 8124SOL    HW235835   2.067   0.502   8.580 -0.4773  0.9905  0.8916
 8125SOL     OW35836   3.660   4.038   4.763  0.0663  0.0849  0.0773
 8125SOL    HW135837   3.710   4.057   4.842 -0.3178 -0.7072  0.5177
 8125SOL    HW235838   3.721   4.068   4.696  1.1462 -0.4537  0.8146
 8126SOL     OW35839   1.494   0.579  11.869 -0.0115  0.2141 -0.0060
 8126SOL    HW135840   1.445   0.648  11.824  1.6219  1.3852 -0.0048
 8126SOL    HW235841   1.493   0.507  11.806  0.4033 -0.9197  1.2717
 8127SOL     OW35842   3.067   2.153  15.245 -0.1250 -0.4199  0.3198
 8127SOL    HW135843   3.050   2.244  15.269  1.1946  0.3777 -1.7878
 8127SOL    HW235844   3.142   2.162  15.187 -0.6193  2.4307  0.1472
 8128SOL     OW35845   4.584   0.983  15.867 -0.5692 -0.1279 -0.2599
 8128SOL    HW135846   4.497   0.952  15.843 -0.9899  2.0559 -1.5092
 8128SOL    HW235847   4.615   1.003  15.779 -1.6027 -2.6319 -1.1828
 8129SOL     OW35848   4.123   2.804   6.243  0.2663 -0.3165  0.0100
 8129SOL    HW135849   4.094   2.721   6.205  0.0098 -1.5321  2.8172
 8129SOL    HW235850   4.060   2.868   6.210  0.3738  0.4560  1.3078
 8130SOL     OW35851   3.256   1.963   8.774  0.1741  0.0837 -0.3142
 8130SOL    HW135852   3.316   2.025   8.733  0.5381  0.7026  1.1531
 8130SOL    HW235853   3.197   1.950   8.699 -0.4210  0.6211  0.0543
 8131SOL     OW35854   4.060   2.974  16.223 -0.3399 -0.1655  0.1212
 8131SOL    HW135855   4.082   3.056  16.268  1.9504 -1.7908  2.0026
 8131SOL    HW235856   4.065   2.908  16.293 -0.3041 -0.5713 -0.2661
 8132SOL     OW35857   2.856   2.883   6.849  0.6272 -0.3343 -0.0805
 8132SOL    HW135858   2.833   2.801   6.805  0.4191 -0.1220 -0.3681
 8132SOL    HW235859   2.836   2.873   6.942 -3.1991  0.5504 -0.7753
 8133SOL     OW35860   0.693   3.629   2.603 -0.4755 -0.1406 -0.0979
 8133SOL    HW135861   0.639   3.598   2.676 -1.3935 -0.2910 -0.8386
 8133SOL    HW235862   0.696   3.558   2.539 -2.5154 -0.5881  0.3055
 8134SOL     OW35863   3.172   1.640   6.468  0.7917 -0.0585 -0.0419
 8134SOL    HW135864   3.192   1.665   6.378  0.0253 -1.5021 -0.6091
 8134SOL    HW235865   3.193   1.718   6.519 -1.2429  0.3352  0.1894
 8135SOL     OW35866   3.756   3.493   9.811  0.2473 -0.2198 -0.1692
 8135SOL    HW135867   3.815   3.544   9.866  1.2257  1.7363 -3.0360
 8135SOL    HW235868   3.711   3.569   9.774 -0.1043 -1.4806 -2.3349
 8136SOL     OW35869   0.872   4.180  13.187  0.0782  0.2880  0.3005
 8136SOL    HW135870   0.835   4.147  13.269  0.0656  0.1785  0.2500
 8136SOL    HW235871   0.967   4.172  13.200 -0.0459 -0.2781  0.8595
 8137SOL     OW35872   1.328   1.579   9.823 -0.5575 -0.0240  0.3960
 8137SOL    HW135873   1.370   1.505   9.780 -0.8840 -0.6024  1.0793
 8137SOL    HW235874   1.337   1.639   9.749  2.6058 -1.1043 -0.0754
 8138SOL     OW35875   1.526   1.469   2.359  0.4841  0.4944  0.1768
 8138SOL    HW135876   1.507   1.478   2.265 -1.2661  0.2814  0.5130
 8138SOL    HW235877   1.494   1.558   2.376 -2.6176 -0.8734  1.3190
 8139SOL     OW35878   2.393   2.111   5.858 -0.0446 -0.6709  0.1116
 8139SOL    HW135879   2.416   2.163   5.935  0.0035  0.8032 -0.8942
 8139SOL    HW235880   2.402   2.025   5.900  2.1142 -1.8998 -2.9013
 8140SOL     OW35881   4.576   3.165   7.394  0.0911  0.2859  0.2209
 8140SOL    HW135882   4.640   3.100   7.423 -1.6901 -0.9101  1.4533
 8140SOL    HW235883   4.621   3.246   7.419  0.5150  0.2262 -0.3557
 8141SOL     OW35884   4.325   3.072   2.129  0.1332 -0.2068 -0.0505
 8141SOL    HW135885   4.299   3.083   2.038 -0.1478  0.6085  0.1235
 8141SOL    HW235886   4.285   3.150   2.170 -0.9938 -1.4205  1.1693
 8142SOL     OW35887   0.002   3.657  12.048  0.6401 -0.1426  0.4623
 8142SOL    HW135888   4.695   3.735  12.093  0.4457  1.3775 -2.3180
 8142SOL    HW235889   0.089   3.679  12.015  0.4137 -1.9308 -1.3208
 8143SOL     OW35890   1.563   1.443   6.797  0.1116 -0.3526 -0.2682
 8143SOL    HW135891   1.533   1.471   6.710 -0.6294 -1.5674 -0.4037
 8143SOL    HW235892   1.517   1.509   6.848 -2.0230 -0.9435 -1.4513
 8144SOL     OW35893   1.707   4.427   9.422  0.3116  0.0453 -0.0834
 8144SOL    HW135894   1.618   4.391   9.432 -0.0820  0.8935 -0.5299
 8144SOL    HW235895   1.737   4.418   9.512  0.7147  0.8709 -0.1311
 8145SOL     OW35896   3.377   3.463   7.472 -0.3813 -0.1437  0.7611
 8145SOL    HW135897   3.469   3.438   7.466 -0.5101 -1.0457  2.7216
 8145SOL    HW235898   3.347   3.391   7.526  1.1973  0.1657  2.0451
 8146SOL     OW35899   0.341   3.723   9.843 -0.3446 -0.2675 -0.1665
 8146SOL    HW135900   0.294   3.742   9.924  1.5475  0.6057  0.7127
 8146SOL    HW235901   0.336   3.812   9.806 -1.8100 -0.6607 -0.9456
 8147SOL     OW35902   1.654   3.645   2.889 -0.7093  0.9206 -0.5679
 8147SOL    HW135903   1.674   3.604   2.973 -0.2460  2.0283 -0.1329
 8147SOL    HW235904   1.572   3.608   2.856 -0.8696  1.4414 -0.7430
 8148SOL     OW35905   2.213   4.348   6.829  0.2124  0.1080 -0.3806
 8148SOL    HW135906   2.232   4.433   6.868 -0.1848 -0.6594  1.4980
 8148SOL    HW235907   2.177   4.307   6.908 -0.5491 -0.5547 -1.0659
 8149SOL     OW35908   2.358   3.087  11.588  0.2436 -0.1180  0.2738
 8149SOL    HW135909   2.434   3.034  11.613  0.5344  0.5491  0.7869
 8149SOL    HW235910   2.285   3.034  11.620 -2.2966  3.7746  0.9647
 8150SOL     OW35911   2.209   0.319   0.584  0.1237  0.3841  0.5505
 8150SOL    HW135912   2.213   0.228   0.554  0.9944  0.7016 -0.3172
 8150SOL    HW235913   2.188   0.317   0.677 -1.0646 -3.2909  0.2073
 8151SOL     OW35914   4.596   2.717   7.686  0.5026  0.2389 -0.8062
 8151SOL    HW135915   4.506   2.704   7.718  1.2742 -0.5068  1.0370
 8151SOL    HW235916   4.605   2.628   7.651  1.5517  0.7575 -1.8465
 8152SOL     OW35917   3.202   3.611   7.654  0.0656 -0.3604  0.3077
 8152SOL    HW135918   3.256   3.636   7.729 -1.0842  1.2436  0.5830
 8152SOL    HW235919   3.266   3.582   7.588  0.8799  1.5387  0.2708
 8153SOL     OW35920   1.325   4.288   5.927 -0.2154  0.1725  0.4434
 8153SOL    HW135921   1.328   4.352   5.856 -1.1205 -1.8407 -1.4365
 8153SOL    HW235922   1.246   4.240   5.900 -0.6304  1.0206  0.1330
 8154SOL     OW35923   0.345   1.008   3.969 -0.4414 -0.8593  0.1675
 8154SOL    HW135924   0.353   0.969   4.056 -0.1741  1.3813  1.1292
 8154SOL    HW235925   0.437   1.020   3.947 -1.0681  1.8184 -1.0456
 8155SOL     OW35926   3.262   4.515   0.452 -0.6880  0.1497 -0.0112
 8155SOL    HW135927   3.193   4.457   0.484  0.6526 -2.8896 -2.6763
 8155SOL    HW235928   3.321   4.501   0.525 -0.4479  0.7284 -0.0940
 8156SOL     OW35929   1.251   3.399   2.004 -0.4104 -0.4100 -0.4968
 8156SOL    HW135930   1.309   3.473   1.989 -0.5710  0.0447  1.1603
 8156SOL    HW235931   1.309   3.327   1.980 -1.1360 -1.2915  0.3780
 8157SOL     OW35932   0.638   3.015   9.913 -0.8967 -0.0371  0.5745
 8157SOL    HW135933   0.719   3.049   9.951 -1.5198  0.1649  1.7273
 8157SOL    HW235934   0.628   3.075   9.839 -0.7960 -0.5582  0.1395
 8158SOL     OW35935   2.589   3.343  12.058  0.1119 -0.3736 -0.1381
 8158SOL    HW135936   2.591   3.287  12.135 -1.2927 -1.7097 -1.0552
 8158SOL    HW235937   2.662   3.302  12.013 -0.9737 -1.6671 -0.7439
 8159SOL     OW35938   2.354   1.919   8.523 -0.1106  0.5467  0.1702
 8159SOL    HW135939   2.448   1.905   8.534  0.1636 -0.3165 -3.0819
 8159SOL    HW235940   2.359   1.988   8.457  0.9813  0.3105 -0.0026
 8160SOL     OW35941   1.390   4.503   2.825 -0.3294  0.3815  0.0386
 8160SOL    HW135942   1.459   4.467   2.880 -0.7208 -0.4728 -0.0186
 8160SOL    HW235943   1.396   4.596   2.843 -1.0785  0.3656  0.3911
 8161SOL     OW35944   4.434   1.354   6.303 -0.5560 -0.4313 -0.0223
 8161SOL    HW135945   4.431   1.260   6.282 -0.4673 -0.5138  0.3320
 8161SOL    HW235946   4.523   1.356   6.338 -1.0486 -1.2931  1.2896
 8162SOL     OW35947   0.051   3.726   4.303 -0.6110  0.3134  0.1378
 8162SOL    HW135948   4.700   3.760   4.354  0.2142  0.2804  1.3503
 8162SOL    HW235949   4.722   3.666   4.249  0.4739  0.9639 -1.6378
 8163SOL     OW35950   3.283   4.166   3.097  0.0010  0.1875 -0.1257
 8163SOL    HW135951   3.342   4.207   3.160 -1.7198  1.1225  0.8582
 8163SOL    HW235952   3.197   4.176   3.138 -0.6865  1.6109 -1.9112
 8164SOL     OW35953   0.080   1.609   1.301  0.5340  0.1369 -1.0761
 8164SOL    HW135954   0.038   1.525   1.315 -0.6043  0.5982 -1.7751
 8164SOL    HW235955   0.153   1.606   1.363 -1.1424  1.0785  0.9662
 8165SOL     OW35956   1.011   0.362   7.133 -0.6972  0.1644  0.2668
 8165SOL    HW135957   1.093   0.411   7.140 -1.1835  1.3861 -2.1546
 8165SOL    HW235958   0.968   0.428   7.078 -1.8173 -2.3511 -1.9053
 8166SOL     OW35959   0.315   3.684  15.297 -0.8140 -0.1415 -0.7221
 8166SOL    HW135960   0.307   3.757  15.236 -1.0358  0.4831  0.0551
 8166SOL    HW235961   0.409   3.683  15.314 -0.4815 -0.9440 -2.5680
 8167SOL     OW35962   1.606   0.140   4.065  0.6267  0.3828  0.3691
 8167SOL    HW135963   1.677   0.082   4.037  0.0311  0.3686 -1.0791
 8167SOL    HW235964   1.532   0.104   4.016 -0.6558  0.3016  2.3596
 8168SOL     OW35965   4.579   4.563   2.760  0.6998 -0.2730  0.2688
 8168SOL    HW135966   4.561   4.531   2.672 -0.0911  1.5790 -0.2461
 8168SOL    HW235967   4.612   4.651   2.741  1.2706  0.1502  3.1889
 8169SOL     OW35968   2.867   4.601   4.075  0.1998  0.4233  0.4495
 8169SOL    HW135969   2.822   4.518   4.091 -1.4908  1.3048  0.2562
 8169SOL    HW235970   2.789   4.651   4.050 -0.5325 -1.2081 -0.5517
 8170SOL     OW35971   2.284   1.114   2.854 -0.1329  0.3888  0.0234
 8170SOL    HW135972   2.231   1.056   2.800  2.0274 -1.2623 -0.3430
 8170SOL    HW235973   2.330   1.156   2.780 -0.6742 -0.6098 -0.8849
 8171SOL     OW35974   3.816   0.668  15.379 -0.6917 -0.0180 -0.5883
 8171SOL    HW135975   3.825   0.636  15.289 -1.5381  0.0197 -0.6862
 8171SOL    HW235976   3.741   0.726  15.368 -1.8459 -1.3336  0.3628
 8172SOL     OW35977   3.511   1.094   9.051  0.0865  0.1706  0.2042
 8172SOL    HW135978   3.536   1.003   9.068 -2.7991 -0.9578 -1.5461
 8172SOL    HW235979   3.546   1.098   8.962 -3.0678  0.2380 -1.0106
 8173SOL     OW35980   0.231   0.071   7.278 -0.3045 -0.3831  0.0206
 8173SOL    HW135981   0.269   0.003   7.222 -1.8691 -1.0416 -0.2496
 8173SOL    HW235982   0.141   0.059   7.248 -0.1172 -1.1486 -0.2539
 8174SOL     OW35983   3.940   3.479   8.501  0.3495 -0.0396 -0.3514
 8174SOL    HW135984   3.852   3.489   8.537  1.0231  0.8845  1.0782
 8174SOL    HW235985   3.984   3.445   8.579 -2.4739 -1.5924  0.5413
 8175SOL     OW35986   0.554   0.396   4.819  0.7427 -0.0413 -0.0849
 8175SOL    HW135987   0.597   0.473   4.855  0.0382  1.6071 -2.7302
 8175SOL    HW235988   0.635   0.356   4.788  0.0997  0.3665 -2.3283
 8176SOL     OW35989   1.097   3.804   4.552  0.1733  0.1299 -0.2852
 8176SOL    HW135990   1.181   3.834   4.586 -0.8494  1.5004  1.0209
 8176SOL    HW235991   1.054   3.883   4.520 -0.9442 -0.8021 -1.0936
 8177SOL     OW35992   0.305   3.962   6.003 -0.9545  0.3739  0.0574
 8177SOL    HW135993   0.344   4.034   5.954 -1.9412  0.8178 -0.0737
 8177SOL    HW235994   0.372   3.964   6.071 -1.5746  0.1787  0.6836
 8178SOL     OW35995   0.327   3.429   5.055  0.3657 -0.3449 -0.6515
 8178SOL    HW135996   0.279   3.493   5.107 -2.7707 -2.5255 -0.9216
 8178SOL    HW235997   0.272   3.412   4.978  0.0792 -0.8505 -0.3340
 8179SOL     OW35998   3.806   1.426  10.704  0.7806  0.3416  0.0170
 8179SOL    HW135999   3.762   1.378  10.774 -1.8085  3.2742  0.3775
 8179SOL    HW236000   3.866   1.354  10.683 -0.1486 -0.5653  0.4372
 8180SOL     OW36001   1.012   1.651  14.146  0.2157 -0.3958 -0.0356
 8180SOL    HW136002   0.966   1.617  14.069  3.6240  0.2387 -2.3703
 8180SOL    HW236003   1.086   1.690  14.100  0.5399 -0.5720  0.3361
 8181SOL     OW36004   0.470   0.393   3.960 -0.5956  0.1215 -0.4012
 8181SOL    HW136005   0.465   0.393   4.055  1.5799  1.4865 -0.2743
 8181SOL    HW236006   0.439   0.305   3.942  0.6070 -0.7438  1.7662
 8182SOL     OW36007   1.862   0.716   7.356 -0.5267  0.2920  0.5065
 8182SOL    HW136008   1.813   0.715   7.439  0.5765 -1.4552  1.1435
 8182SOL    HW236009   1.947   0.743   7.390 -0.0585 -2.5464  1.6104
 8183SOL     OW36010   0.676   1.164   7.112 -0.4029 -0.5802  0.2311
 8183SOL    HW136011   0.643   1.077   7.136  0.7988 -1.1160 -0.0714
 8183SOL    HW236012   0.595   1.213   7.100 -0.8036 -1.7100 -1.5884
 8184SOL     OW36013   4.488   1.538  17.439  0.3463  0.2173 -0.6329
 8184SOL    HW136014   4.421   1.586  17.391 -2.3515 -1.6998  1.1963
 8184SOL    HW236015   4.503   1.469  17.373  2.4923 -0.3059  0.4269
 8185SOL     OW36016   1.201   3.202   1.577  0.2269 -0.0084  0.0951
 8185SOL    HW136017   1.296   3.198   1.586  0.1647 -0.2651  0.6087
 8185SOL    HW236018   1.177   3.110   1.571  1.7884 -0.2088 -3.4423
 8186SOL     OW36019   3.257   1.692   4.685 -0.4590 -0.1498  0.0026
 8186SOL    HW136020   3.270   1.777   4.726  1.3069  0.5607 -2.0470
 8186SOL    HW236021   3.333   1.637   4.707 -0.8490 -0.3935  0.7360
 8187SOL     OW36022   2.958   3.501   5.498 -0.4844  0.0836 -0.1171
 8187SOL    HW136023   2.886   3.563   5.508  0.4037  1.0008  0.6068
 8187SOL    HW236024   2.906   3.421   5.498 -0.8792  0.3397  0.2746
 8188SOL     OW36025   0.627   3.457   6.698 -0.1183 -0.0937 -0.5133
 8188SOL    HW136026   0.631   3.381   6.641 -1.4791  0.1140 -0.8821
 8188SOL    HW236027   0.619   3.531   6.637  1.0883  1.9970  1.8563
 8189SOL     OW36028   0.809   4.467   9.391 -0.4880 -0.2616  0.4444
 8189SOL    HW136029   0.892   4.504   9.422 -0.0270  0.5090 -1.7149
 8189SOL    HW236030   0.755   4.545   9.407 -0.4253 -0.2229  0.4703
 8190SOL     OW36031   2.578   1.544   5.820 -0.1453 -0.1109 -0.1133
 8190SOL    HW136032   2.610   1.506   5.902 -1.1068 -0.8389 -0.0714
 8190SOL    HW236033   2.500   1.489   5.816 -0.3483  0.0717  1.3036
 8191SOL     OW36034   2.830   4.092   2.959 -0.6369  0.4297 -0.1067
 8191SOL    HW136035   2.797   4.161   2.900 -0.5409  0.1620 -0.4703
 8191SOL    HW236036   2.832   4.009   2.912  1.8882  0.6854 -0.4410
 8192SOL     OW36037   3.065   3.045   3.991 -0.0967 -0.2604  0.3802
 8192SOL    HW136038   3.079   2.975   3.928  1.8601  1.4018 -1.0061
 8192SOL    HW236039   2.979   3.011   4.016 -0.0044  0.1659  1.2767
 8193SOL     OW36040   1.405   0.906  17.243  0.0440 -0.4460 -0.1146
 8193SOL    HW136041   1.494   0.879  17.265 -0.5192  0.3464  3.0698
 8193SOL    HW236042   1.411   0.939  17.154  0.7772 -0.7748 -0.1907
 8194SOL     OW36043   3.640   0.921   7.325 -0.1244 -0.6373 -0.0632
 8194SOL    HW136044   3.675   0.991   7.379  1.1924 -0.1305 -1.5662
 8194SOL    HW236045   3.544   0.918   7.328 -0.1993 -0.0161 -1.3544
 8195SOL     OW36046   3.723   4.450   4.834  0.0055 -0.5703 -0.2542
 8195SOL    HW136047   3.679   4.504   4.769 -0.0489 -1.8858 -1.2996
 8195SOL    HW236048   3.746   4.516   4.900  2.8258 -1.8477  0.0407
 8196SOL     OW36049   2.602   3.790   0.161 -0.0767  0.2620 -0.0294
 8196SOL    HW136050   2.565   3.722   0.104 -0.8218  0.4088  0.2876
 8196SOL    HW236051   2.696   3.773   0.152  0.0463  1.7230 -1.7315
 8197SOL     OW36052   2.336   1.027   5.890  0.0578  0.2035 -0.2860
 8197SOL    HW136053   2.315   1.040   5.983  1.2030  1.3561 -0.1816
 8197SOL    HW236054   2.351   0.934   5.875  0.7968  0.3684 -0.5592
 8198SOL     OW36055   1.639   3.825   8.852 -0.4913  0.1277 -0.2696
 8198SOL    HW136056   1.584   3.766   8.904 -0.7516 -1.6852 -2.5916
 8198SOL    HW236057   1.631   3.778   8.769  0.4041  0.6862 -0.6625
 8199SOL     OW36058   4.106   1.532   7.060  0.4346  0.3436 -0.0901
 8199SOL    HW136059   4.051   1.581   6.998  1.7289  2.2402  0.2700
 8199SOL    HW236060   4.182   1.589   7.068 -0.1197  1.1694 -0.7170
 8200SOL     OW36061   4.683   3.100   7.977 -0.7233 -0.2949 -0.4457
 8200SOL    HW136062   4.716   3.162   7.912  0.5275 -0.4873  0.0026
 8200SOL    HW236063   4.613   3.064   7.923 -2.7882  3.6650 -0.3918
 8201SOL     OW36064   0.287   0.641  17.467  0.0780 -0.1763 -0.3324
 8201SOL    HW136065   0.337   0.723  17.474 -1.2697  0.3892  2.5443
 8201SOL    HW236066   0.268   0.630  17.560  3.0912  0.6698  0.3935
 8202SOL     OW36067   1.512   3.554   8.362  0.0204 -0.2079  0.5779
 8202SOL    HW136068   1.585   3.589   8.311  0.4974 -0.6386  0.9683
 8202SOL    HW236069   1.434   3.582   8.314 -0.5903 -1.1696  1.0004
 8203SOL     OW36070   3.472   2.087   7.446  0.0934 -0.1136 -0.0357
 8203SOL    HW136071   3.417   2.165   7.442 -0.9350 -0.7893  0.9134
 8203SOL    HW236072   3.546   2.103   7.387 -0.0308  0.0722 -0.1399
 8204SOL     OW36073   2.768   1.469  14.333  0.3243 -0.2736 -0.3426
 8204SOL    HW136074   2.676   1.456  14.354  1.3253 -2.4730  2.6212
 8204SOL    HW236075   2.802   1.452  14.421 -0.3632 -0.7827 -0.1795
 8205SOL     OW36076   2.944   3.448   3.955 -0.6204  0.1499 -0.3184
 8205SOL    HW136077   3.039   3.450   3.966 -0.4470 -0.9701 -1.7079
 8205SOL    HW236078   2.917   3.401   4.034 -0.1589 -0.3840 -0.4788
 8206SOL     OW36079   0.909   3.160   1.904  0.4337 -0.7346 -0.7835
 8206SOL    HW136080   0.904   3.201   1.818 -0.4186  0.4651 -0.1683
 8206SOL    HW236081   0.948   3.223   1.965  1.5848 -0.9462 -1.3028
 8207SOL     OW36082   1.417   0.933  14.578 -0.0188 -0.1767  0.2199
 8207SOL    HW136083   1.377   0.846  14.572  3.8309 -1.7850 -1.8239
 8207SOL    HW236084   1.461   0.937  14.663  0.6326 -0.4450 -0.1051
 8208SOL     OW36085   1.595   3.450   5.310 -0.4290  0.2691 -0.9524
 8208SOL    HW136086   1.689   3.460   5.327 -0.3043 -0.7531 -1.0374
 8208SOL    HW236087   1.607   3.474   5.218  0.5636  2.3734 -0.2591
 8209SOL     OW36088   0.951   0.068   7.718 -0.0430 -0.0715  0.2494
 8209SOL    HW136089   0.927   0.078   7.626 -0.1564  2.2815  0.5431
 8209SOL    HW236090   0.886   0.002   7.742 -0.5681 -0.0510 -1.0897
 8210SOL     OW36091   0.425   3.229   8.317  0.1937  0.7976  0.0147
 8210SOL    HW136092   0.426   3.139   8.284 -0.9657  2.0240 -3.2874
 8210SOL    HW236093   0.521   3.237   8.317  0.3633 -1.3119 -2.4474
 8211SOL     OW36094   1.333   0.849   4.287  0.3309  0.6622 -0.5677
 8211SOL    HW136095   1.268   0.791   4.248  0.8978 -1.0683  1.0584
 8211SOL    HW236096   1.302   0.868   4.375 -0.4812  0.0314 -0.7254
 8212SOL     OW36097   1.045   1.710  13.805  0.6077 -0.0777  0.6163
 8212SOL    HW136098   1.004   1.770  13.867 -1.5448 -0.8744 -0.0560
 8212SOL    HW236099   1.073   1.758  13.727  0.2377  0.5661  0.8822
 8213SOL     OW36100   2.007   1.214   1.372  0.5334  0.0528 -0.2446
 8213SOL    HW136101   1.939   1.150   1.393 -1.3178  1.4177 -2.0292
 8213SOL    HW236102   2.043   1.242   1.456  0.4065  0.4424 -0.3206
 8214SOL     OW36103   2.152   4.042   2.737 -0.1106  0.0252  0.4229
 8214SOL    HW136104   2.224   4.001   2.785 -1.7610 -1.5996  1.5275
 8214SOL    HW236105   2.077   3.985   2.753 -1.1726  1.9010  2.2168
 8215SOL     OW36106   0.339   0.547   3.376 -0.2114  0.0110 -0.7182
 8215SOL    HW136107   0.425   0.547   3.419 -1.0910  0.2561  1.0230
 8215SOL    HW236108   0.378   0.526   3.291  1.1175  0.9888 -0.3546
 8216SOL     OW36109   4.657   1.377   9.618  0.1612  0.4347  0.1332
 8216SOL    HW136110   0.017   1.350   9.580  2.1441  1.9092  3.4191
 8216SOL    HW236111   4.675   1.470   9.634 -0.7054  0.1838  2.6950
 8217SOL     OW36112   4.663   1.219   2.172 -0.4423 -0.0364  0.0411
 8217SOL    HW136113   4.592   1.255   2.224  1.3120 -0.2965  2.6084
 8217SOL    HW236114   0.015   1.258   2.219 -0.4669 -0.2627  0.2637
 8218SOL     OW36115   2.520   4.306  17.666  0.0500  0.3117 -0.2493
 8218SOL    HW136116   2.449   4.277   0.031  0.7473  0.7163  0.8014
 8218SOL    HW236117   2.576   4.228  17.665 -1.1669 -0.5716  0.7221
 8219SOL     OW36118   2.631   2.991  11.979 -0.3603  0.1569 -0.7594
 8219SOL    HW136119   2.564   3.007  12.045  1.3090 -0.8491  1.2176
 8219SOL    HW236120   2.672   3.075  11.960 -2.8242  1.3242 -0.8108
 8220SOL     OW36121   2.126   1.716   6.916 -0.7310 -0.5429 -0.6930
 8220SOL    HW136122   2.079   1.641   6.880  0.5967 -1.4398 -0.5570
 8220SOL    HW236123   2.130   1.772   6.839 -0.5545 -0.7904 -0.8670
 8221SOL     OW36124   0.367   0.781   6.277 -0.4107 -0.5111  0.0573
 8221SOL    HW136125   0.301   0.722   6.314 -0.3501 -1.3683 -1.2032
 8221SOL    HW236126   0.394   0.824   6.358 -2.8080  0.0930  0.5137
 8222SOL     OW36127   2.555   3.083   6.819  0.1028 -0.0648 -0.0777
 8222SOL    HW136128   2.629   3.077   6.759  0.0491 -1.0914 -0.0423
 8222SOL    HW236129   2.597   3.126   6.894  2.9039 -4.8999  1.1590
 8223SOL     OW36130   4.554   0.744   5.877  0.3784 -0.1845  0.6564
 8223SOL    HW136131   4.459   0.743   5.867  0.6784 -0.4634 -2.1891
 8223SOL    HW236132   4.561   0.774   5.967 -1.6934  3.4690 -0.4114
 8224SOL     OW36133   3.696   2.428   2.810 -0.1055  0.1109 -0.4425
 8224SOL    HW136134   3.751   2.373   2.754  1.6141  0.1191  1.2235
 8224SOL    HW236135   3.681   2.500   2.749 -0.4470  0.0135 -0.4761
 8225SOL     OW36136   4.545   3.623  16.188 -0.5155  0.1825  0.5622
 8225SOL    HW136137   4.484   3.584  16.252  1.1712 -1.3527  1.2282
 8225SOL    HW236138   4.634   3.614  16.222 -0.0472  1.7181 -0.2701
 8226SOL     OW36139   1.092   4.219   9.236  0.6976  0.5903  0.3796
 8226SOL    HW136140   1.184   4.222   9.208  0.2157  1.9884 -1.0649
 8226SOL    HW236141   1.089   4.294   9.295  0.0197  0.6583  0.2620
 8227SOL     OW36142   4.333   2.694   7.730 -0.7316  0.0700  0.2100
 8227SOL    HW136143   4.294   2.716   7.645  0.9637  2.1742 -0.0282
 8227SOL    HW236144   4.281   2.753   7.784 -2.2668 -2.8283  1.9119
 8228SOL     OW36145   0.527   0.195   5.119 -0.0083  0.2405 -0.6236
 8228SOL    HW136146   0.479   0.197   5.036 -1.6492 -0.8864  0.3161
 8228SOL    HW236147   0.556   0.286   5.130 -0.0643  0.2722 -0.7369
 8229SOL     OW36148   0.098   4.606  16.171 -0.2114  0.3763  0.2444
 8229SOL    HW136149   0.029   4.603  16.237 -0.6654 -0.0002 -0.2432
 8229SOL    HW236150   0.093   4.697  16.141  1.2386 -0.5775 -2.8293
 8230SOL     OW36151   2.115   2.022   0.527 -0.0707  0.0176  0.2737
 8230SOL    HW136152   2.146   1.998   0.615  1.8899 -1.9300 -0.9240
 8230SOL    HW236153   2.197   2.001   0.482  0.5828  0.0753  1.4260
 8231SOL     OW36154   2.135   4.175  14.583  0.1404  0.1995 -0.1413
 8231SOL    HW136155   2.145   4.080  14.569 -1.3644 -0.1162  0.8206
 8231SOL    HW236156   2.152   4.218  14.499 -2.8863  1.1559 -0.2878
 8232SOL     OW36157   1.698   2.832   7.076 -0.4607  0.5846  0.0274
 8232SOL    HW136158   1.709   2.841   7.171 -4.0093 -1.2169  0.5903
 8232SOL    HW236159   1.790   2.847   7.054 -1.0806  2.0168 -1.5870
 8233SOL     OW36160   2.134   4.554   4.036 -0.1187 -0.5881 -0.0631
 8233SOL    HW136161   2.053   4.524   3.995  0.7972  0.6769 -2.7322
 8233SOL    HW236162   2.147   4.499   4.114  1.9260  1.0328  0.7242
 8234SOL     OW36163   2.120   0.191   4.049 -0.0406  0.0916 -0.7521
 8234SOL    HW136164   2.142   0.222   3.961 -0.0625  0.6643 -0.5562
 8234SOL    HW236165   2.035   0.151   4.028 -1.4239  2.2647  0.6241
 8235SOL     OW36166   1.276   2.550  11.428 -0.3490 -0.1178 -0.0582
 8235SOL    HW136167   1.348   2.511  11.379  0.7623  1.0308  0.6472
 8235SOL    HW236168   1.319   2.606  11.493  0.2080 -2.2699  1.4203
 8236SOL     OW36169   3.770   3.704  11.261 -0.1543  0.3063 -0.4824
 8236SOL    HW136170   3.805   3.681  11.175  0.8527 -0.1565  0.0453
 8236SOL    HW236171   3.848   3.732  11.309 -0.0163  0.3876 -0.7534
 8237SOL     OW36172   3.255   3.501   7.238  0.0828  0.5182  0.0725
 8237SOL    HW136173   3.325   3.494   7.303 -1.2000 -0.4568  1.3242
 8237SOL    HW236174   3.186   3.454   7.285  1.2638  0.0499  1.3326
 8238SOL     OW36175   0.516   0.459   8.019 -0.4555 -0.4167  0.4180
 8238SOL    HW136176   0.444   0.395   8.021 -1.3279  0.5505 -0.4336
 8238SOL    HW236177   0.470   0.543   8.018  1.1614  0.4749  0.8605
 8239SOL     OW36178   2.045   1.479  14.561  0.5849  0.1732  0.8186
 8239SOL    HW136179   2.002   1.520  14.486  0.0948  0.1319  1.0798
 8239SOL    HW236180   1.990   1.484  14.639 -1.0667  1.8221 -0.4553
 8240SOL     OW36181   0.846   2.525  15.339  0.4945 -0.2677  0.2847
 8240SOL    HW136182   0.902   2.478  15.278 -0.9261 -1.2400 -0.2799
 8240SOL    HW236183   0.815   2.602  15.290  0.4635  0.4907  1.4957
 8241SOL     OW36184   4.339   0.678   8.455 -0.1940  0.3985  0.3563
 8241SOL    HW136185   4.333   0.691   8.360 -0.2908 -1.1485  0.1567
 8241SOL    HW236186   4.253   0.697   8.492 -1.0145  1.5214 -2.0920
 8242SOL     OW36187   2.909   2.025  11.637 -0.1475  0.1812  0.3003
 8242SOL    HW136188   2.914   2.109  11.684 -1.6479 -0.3742  1.4499
 8242SOL    HW236189   2.948   2.046  11.552 -1.0766  0.4229 -0.0663
 8243SOL     OW36190   2.667   1.875   2.399 -0.0187 -0.0715  0.0179
 8243SOL    HW136191   2.591   1.920   2.437 -0.6342 -1.4865  0.4518
 8243SOL    HW236192   2.647   1.856   2.308 -0.7797  1.6174 -0.1651
 8244SOL     OW36193   3.680   1.973   3.505 -0.0177  0.4393 -0.0747
 8244SOL    HW136194   3.674   1.988   3.410  0.3698  2.8250  0.2870
 8244SOL    HW236195   3.754   1.914   3.519  0.8743  1.9408  1.4215
 8245SOL     OW36196   0.279   0.851   9.881  0.2084  0.0758  0.0001
 8245SOL    HW136197   0.320   0.817   9.801  0.4261  1.3797 -0.4581
 8245SOL    HW236198   0.196   0.885   9.846  0.1174 -1.0374 -0.8460
 8246SOL     OW36199   0.313   3.823   2.458 -0.6531 -0.2085 -0.5985
 8246SOL    HW136200   0.367   3.835   2.380 -1.2601  0.5773 -0.8881
 8246SOL    HW236201   0.293   3.730   2.449 -1.0196  0.0192 -2.0519
 8247SOL     OW36202   2.703   0.175   5.916  0.2409  0.4873  0.0951
 8247SOL    HW136203   2.771   0.241   5.928  1.6447 -0.5167 -2.2430
 8247SOL    HW236204   2.656   0.231   5.853  0.6854  0.2598 -0.4412
 8248SOL     OW36205   2.757   1.589   3.093 -0.0442 -0.2867  0.0088
 8248SOL    HW136206   2.717   1.571   3.008 -1.0051 -0.1727  0.4319
 8248SOL    HW236207   2.830   1.528   3.085  0.1040  0.2702 -2.5273
 8249SOL     OW36208   1.610   0.865   4.279 -0.1783  0.4651 -0.3914
 8249SOL    HW136209   1.520   0.839   4.297  0.0404  0.1754  0.2816
 8249SOL    HW236210   1.640   0.884   4.368  0.5277 -1.5381 -0.1986
 8250SOL     OW36211   2.507   0.704   3.794  0.2387  0.2389 -0.0423
 8250SOL    HW136212   2.518   0.794   3.822  1.0939 -0.3954  1.6419
 8250SOL    HW236213   2.461   0.719   3.711  1.4683  0.3596 -0.6891
 8251SOL     OW36214   0.988   3.953   7.234 -0.4928 -0.1294 -0.0674
 8251SOL    HW136215   1.048   3.982   7.304 -1.0156  0.6716  0.0486
 8251SOL    HW236216   0.925   4.025   7.227  0.3285  0.7357  1.3718
 8252SOL     OW36217   1.321   3.406   6.397 -0.1550  0.2144  0.1823
 8252SOL    HW136218   1.354   3.479   6.345 -3.2630  1.3035 -0.2722
 8252SOL    HW236219   1.352   3.424   6.486 -0.0323 -2.1817  0.6217
 8253SOL     OW36220   2.639   1.875   3.286 -0.3748  0.1364 -0.2041
 8253SOL    HW136221   2.732   1.886   3.308 -0.3172 -0.8833  0.0818
 8253SOL    HW236222   2.637   1.935   3.212 -0.5752  0.7237  0.2694
 8254SOL     OW36223   3.705   3.466   7.496 -0.2292 -0.0180  0.0982
 8254SOL    HW136224   3.683   3.543   7.443  1.1292  0.3752  0.1185
 8254SOL    HW236225   3.797   3.491   7.501 -0.6441  2.0549 -2.9837
 8255SOL     OW36226   2.054   4.165   5.413  0.1934  0.3882  0.7137
 8255SOL    HW136227   2.111   4.172   5.490  0.9189  0.9955  0.1304
 8255SOL    HW236228   1.971   4.203   5.443 -0.7574  0.6734 -2.2852
 8256SOL     OW36229   1.521   0.554  12.148 -0.4479  0.2058 -0.3747
 8256SOL    HW136230   1.541   0.577  12.057  2.0832  1.0007  0.3857
 8256SOL    HW236231   1.430   0.584  12.155 -0.2882  0.0459  2.2983
 8257SOL     OW36232   3.424   1.613   2.248  0.0929  0.0962 -0.3299
 8257SOL    HW136233   3.419   1.521   2.272 -0.4702 -0.3774 -2.2193
 8257SOL    HW236234   3.359   1.616   2.177 -1.5209 -2.6712  1.0512
 8258SOL     OW36235   4.241   2.458   2.137  0.0514 -0.3958  0.2822
 8258SOL    HW136236   4.281   2.543   2.155 -1.3776 -0.1518  2.3172
 8258SOL    HW236237   4.277   2.436   2.052  1.5326  2.9921  0.0644
 8259SOL     OW36238   4.371   0.240  14.878 -0.2000  0.4938 -0.0924
 8259SOL    HW136239   4.430   0.263  14.949 -1.2092  1.3895  0.4644
 8259SOL    HW236240   4.290   0.243  14.930  0.0710  0.7433  0.3122
 8260SOL     OW36241   2.344   4.576   7.520  0.2815  0.1512 -0.3067
 8260SOL    HW136242   2.422   4.579   7.574  1.1839 -0.2413 -1.5742
 8260SOL    HW236243   2.377   4.609   7.436 -0.5243  0.6953 -0.4115
 8261SOL     OW36244   4.146   4.072   4.021 -0.7859 -0.6505 -0.0506
 8261SOL    HW136245   4.193   4.151   3.996 -2.4510  0.8601  1.6250
 8261SOL    HW236246   4.219   4.024   4.061 -1.4033 -0.6527  1.0750
 8262SOL     OW36247   2.473   0.011   7.349  0.3938 -0.8185 -0.7521
 8262SOL    HW136248   2.474   0.106   7.361  0.0361 -0.7445 -1.2753
 8262SOL    HW236249   2.566   4.714   7.340  0.7546  0.8551 -0.8107
 8263SOL     OW36250   3.174   4.026   6.338 -0.2266 -0.3434 -0.0046
 8263SOL    HW136251   3.175   4.083   6.261 -0.2123 -0.3442 -0.0049
 8263SOL    HW236252   3.169   4.094   6.404  1.8562 -1.1180  0.9457
 8264SOL     OW36253   1.183   3.957  12.168 -0.7200 -0.3152  0.3274
 8264SOL    HW136254   1.100   3.965  12.215 -0.8647 -0.4977  0.1032
 8264SOL    HW236255   1.223   3.876  12.200  1.3261 -0.2636 -2.0401
 8265SOL     OW36256   1.872   3.261  15.771  0.7066  0.5026  0.8787
 8265SOL    HW136257   1.859   3.337  15.714 -2.1677  0.9049  2.0877
 8265SOL    HW236258   1.899   3.188  15.714 -0.8940  1.5513 -1.2401
 8266SOL     OW36259   3.921   1.831   2.095  0.5226 -0.3217  0.5626
 8266SOL    HW136260   3.887   1.898   2.036 -1.6770 -0.3759  1.7599
 8266SOL    HW236261   3.890   1.752   2.049  4.1629 -2.1722  1.3145
 8267SOL     OW36262   2.286   0.144  11.198  0.0713 -0.0628 -0.1864
 8267SOL    HW136263   2.288   0.059  11.244 -2.7137  1.1397  2.1413
 8267SOL    HW236264   2.284   0.111  11.108  0.5142  1.3221 -0.6957
 8268SOL     OW36265   0.004   4.332  15.961 -0.3296 -0.6488  0.3852
 8268SOL    HW136266   0.085   4.325  16.013 -0.0987  0.3735  0.1624
 8268SOL    HW236267   4.705   4.421  15.987  0.9925  0.1832 -1.3193
 8269SOL     OW36268   3.974   1.038   1.543 -1.0382 -1.0988  0.4046
 8269SOL    HW136269   3.972   0.943   1.553 -0.9891 -1.1036  0.3691
 8269SOL    HW236270   3.883   1.060   1.562 -0.8571 -1.5181  1.7208
 8270SOL     OW36271   3.014   1.384   6.916  0.4981  0.2436 -0.0374
 8270SOL    HW136272   2.966   1.442   6.857 -0.3651 -1.5906 -1.1104
 8270SOL    HW236273   2.945   1.339   6.964 -0.7879  1.0068 -1.1776
 8271SOL     OW36274   4.574   1.976   8.160 -0.3861  0.1446  0.0665
 8271SOL    HW136275   4.583   2.051   8.102 -0.8115 -0.5536 -0.9016
 8271SOL    HW236276   4.537   1.913   8.098 -1.3316 -0.7012  1.4864
 8272SOL     OW36277   3.465   2.402   4.478  0.1117  0.1257  0.5793
 8272SOL    HW136278   3.519   2.324   4.465 -0.3073 -0.0078 -0.3326
 8272SOL    HW236279   3.530   2.470   4.459  1.3400 -1.6941 -1.7034
 8273SOL     OW36280   2.689   4.599   8.507 -0.5310 -0.0369  0.1012
 8273SOL    HW136281   2.626   4.659   8.468 -0.4043  0.0312  0.0018
 8273SOL    HW236282   2.676   4.512   8.471 -0.7983  0.7368 -1.6699
 8274SOL     OW36283   4.415   3.089  11.481  0.0595  0.2885 -0.4896
 8274SOL    HW136284   4.505   3.117  11.464  0.2367 -1.1830 -2.0031
 8274SOL    HW236285   4.394   3.046  11.399  0.0250 -1.1985  0.2894
 8275SOL     OW36286   0.693   3.740   6.299  0.2174  0.4574 -0.3707
 8275SOL    HW136287   0.723   3.743   6.208  0.5055 -2.4267 -0.3952
 8275SOL    HW236288   0.769   3.782   6.339 -0.5068 -0.2187  1.7095
 8276SOL     OW36289   2.668   4.282   3.829  0.2114 -0.0529 -0.0796
 8276SOL    HW136290   2.677   4.217   3.760 -1.0921  0.8200 -1.0630
 8276SOL    HW236291   2.734   4.346   3.802 -0.3482  0.9946  1.0278
 8277SOL     OW36292   2.040   4.445   2.465 -0.0573 -0.3567  0.0530
 8277SOL    HW136293   2.110   4.505   2.443  1.1944 -1.6825  0.4070
 8277SOL    HW236294   2.076   4.395   2.538 -0.3708  1.8738  1.7292
 8278SOL     OW36295   3.670   3.055  11.308  0.3361  0.3003 -0.4340
 8278SOL    HW136296   3.760   3.088  11.315  0.1889  1.1610 -2.5856
 8278SOL    HW236297   3.627   3.134  11.277 -0.6895  0.3405  1.1145
 8279SOL     OW36298   0.902   4.577   4.290  0.0273  0.9875  0.2186
 8279SOL    HW136299   0.815   4.616   4.283 -1.2157 -1.5034  1.5291
 8279SOL    HW236300   0.879   4.487   4.264 -0.2854  0.6769  1.5718
 8280SOL     OW36301   0.343   2.156   6.531 -0.2582  0.0715  0.0756
 8280SOL    HW136302   0.341   2.138   6.437 -0.9262 -0.2170  0.1498
 8280SOL    HW236303   0.423   2.208   6.534  1.0788 -1.8981 -1.3360
 8281SOL     OW36304   0.558   2.872   5.480  0.0824  0.2505  0.4723
 8281SOL    HW136305   0.530   2.959   5.511  0.8927  0.6971 -0.0541
 8281SOL    HW236306   0.481   2.838   5.434 -0.0366  2.0628 -0.6840
 8282SOL     OW36307   0.889   4.536   5.263  0.1007  0.3708  0.3630
 8282SOL    HW136308   0.878   4.626   5.234  2.5927  0.4184 -0.4408
 8282SOL    HW236309   0.978   4.531   5.228  0.5577 -0.0395  1.5821
 8283SOL     OW36310   0.923   0.583  11.802 -0.0869 -0.4852  0.0175
 8283SOL    HW136311   0.876   0.614  11.879  0.8023 -1.9974  1.1643
 8283SOL    HW236312   1.012   0.614  11.816 -0.1349  1.0727 -3.1142
 8284SOL     OW36313   0.569   1.967   5.250  0.2540 -0.2314 -0.3459
 8284SOL    HW136314   0.504   1.981   5.181  0.3973  1.5377 -0.1252
 8284SOL    HW236315   0.651   1.978   5.202  0.5912 -0.1574  0.2455
 8285SOL     OW36316   1.250   1.980   3.886  0.1861  0.3029 -0.0144
 8285SOL    HW136317   1.162   1.984   3.923 -0.1835 -0.0407 -0.8563
 8285SOL    HW236318   1.248   1.888   3.860  0.4998  0.4716 -0.6406
 8286SOL     OW36319   0.448   4.378   4.891  0.1495 -0.4215  0.5181
 8286SOL    HW136320   0.461   4.385   4.985  0.8767 -1.7740  0.5159
 8286SOL    HW236321   0.448   4.470   4.866  0.5673 -0.5618  0.0028
 8287SOL     OW36322   2.412   4.505   4.709  0.2485  0.3407 -0.0958
 8287SOL    HW136323   2.475   4.524   4.640  2.5704 -2.6546  1.1799
 8287SOL    HW236324   2.417   4.413   4.735 -0.9891 -0.0162 -1.1173
 8288SOL     OW36325   2.279   2.037   7.714 -0.0050  0.5732  0.2546
 8288SOL    HW136326   2.294   1.966   7.777  0.7901  0.7633  0.2794
 8288SOL    HW236327   2.189   2.023   7.684  0.4643 -0.2284 -0.7842
 8289SOL     OW36328   4.532   3.388   1.108  0.3367 -0.0910 -0.0880
 8289SOL    HW136329   4.531   3.426   1.196  0.1496 -1.3063  0.4345
 8289SOL    HW236330   4.516   3.472   1.066  1.6078 -0.0518 -0.4977
 8290SOL     OW36331   4.546   0.907   8.775 -0.2277 -0.4306 -0.0493
 8290SOL    HW136332   4.459   0.874   8.796  0.4259 -0.7039  2.2268
 8290SOL    HW236333   4.559   0.958   8.855 -1.4255  1.1471 -0.8694
 8291SOL     OW36334   2.377   3.389   5.039 -0.1585  0.5899  0.1154
 8291SOL    HW136335   2.300   3.402   4.983 -0.4336  1.4353  0.6834
 8291SOL    HW236336   2.387   3.294   5.032 -0.0534  0.6396 -0.4050
 8292SOL     OW36337   1.144   4.187   2.783  0.0350  0.0827 -0.0454
 8292SOL    HW136338   1.050   4.178   2.799  0.1303  1.3246  1.1694
 8292SOL    HW236339   1.156   4.270   2.737 -2.0448 -0.3434 -1.3236
 8293SOL     OW36340   1.077   2.973   6.682 -0.2934 -0.1216 -0.5309
 8293SOL    HW136341   1.159   2.952   6.727 -1.0344  2.5081  2.0302
 8293SOL    HW236342   1.033   3.029   6.746  2.8567  2.0532 -0.2756
 8294SOL     OW36343   1.730   2.792   5.112 -0.0799  0.2910  0.1869
 8294SOL    HW136344   1.778   2.710   5.127 -0.9149  0.0862  1.7756
 8294SOL    HW236345   1.796   2.838   5.060 -1.0091 -0.9970 -2.1184
 8295SOL     OW36346   2.403   2.615   3.567  0.3749  0.2072 -0.1157
 8295SOL    HW136347   2.380   2.568   3.647 -0.6113 -0.7901 -0.9843
 8295SOL    HW236348   2.349   2.576   3.499 -2.4950  3.1480  0.5001
 8296SOL     OW36349   2.066   3.235   3.722  0.2171  0.3604 -0.1085
 8296SOL    HW136350   2.107   3.148   3.722  0.1414  0.3237 -1.3664
 8296SOL    HW236351   2.107   3.281   3.649 -1.3273  1.2833 -0.3950
 8297SOL     OW36352   0.811   1.266   6.759  0.9781 -0.5340 -0.3088
 8297SOL    HW136353   0.846   1.238   6.675 -1.2002  0.7311 -1.6268
 8297SOL    HW236354   0.848   1.193   6.809  1.5111  0.3290  0.5410
 8298SOL     OW36355   3.914   3.536   6.396 -0.0146  0.3671 -0.3002
 8298SOL    HW136356   3.926   3.441   6.389 -3.2123  0.0747 -2.0303
 8298SOL    HW236357   3.986   3.580   6.353 -0.6551 -0.3013 -2.0605
 8299SOL     OW36358   2.804   4.045   3.611 -0.0739 -0.8337  0.6062
 8299SOL    HW136359   2.860   4.109   3.567 -1.8862 -0.0672 -0.6213
 8299SOL    HW236360   2.782   3.984   3.540  0.5111  0.9100 -1.0706
 8300SOL     OW36361   1.017   0.390   3.309 -0.0572  0.1468  0.1293
 8300SOL    HW136362   0.935   0.435   3.290  0.0123  0.0600 -0.3575
 8300SOL    HW236363   1.017   0.357   3.400  0.3883  1.1618  0.4913
 8301SOL     OW36364   3.162   4.653  10.279 -0.0740 -0.0514  0.7061
 8301SOL    HW136365   3.140   4.680  10.190 -1.2754  3.2308  1.9909
 8301SOL    HW236366   3.228   4.586  10.261 -1.0138 -1.5026  2.6719
 8302SOL     OW36367   2.704   1.229   8.301 -0.3164 -0.5088 -0.2206
 8302SOL    HW136368   2.750   1.206   8.382 -0.2377 -0.1236 -0.1566
 8302SOL    HW236369   2.702   1.142   8.263 -0.1990 -1.0979  1.1322
 8303SOL     OW36370   0.424   0.365   4.241 -0.1067 -0.5717 -0.7105
 8303SOL    HW136371   0.409   0.422   4.316 -0.9679 -1.3370 -0.2932
 8303SOL    HW236372   0.493   0.313   4.282  0.8396 -2.6140 -4.8437
 8304SOL     OW36373   2.620   0.776   1.541  0.0844 -0.4680 -0.0225
 8304SOL    HW136374   2.680   0.800   1.611 -0.8589  0.2512  0.5424
 8304SOL    HW236375   2.657   0.692   1.513 -2.1000 -0.7661 -2.0224
 8305SOL     OW36376   1.399   1.016   6.311  0.4205  0.2888  0.0061
 8305SOL    HW136377   1.480   1.044   6.354 -0.2588  0.1980  1.3367
 8305SOL    HW236378   1.418   1.035   6.219 -0.7327  1.8937  0.1212
 8306SOL     OW36379   1.458   2.577   3.753 -0.3830 -0.3085 -0.0491
 8306SOL    HW136380   1.505   2.523   3.689 -1.0175 -0.6959 -0.1907
 8306SOL    HW236381   1.433   2.514   3.820  0.2430  0.5056  0.9474
 8307SOL     OW36382   3.717   3.561   8.980  0.0174  0.5214 -0.0629
 8307SOL    HW136383   3.691   3.631   8.920 -0.8889 -0.6658 -1.0773
 8307SOL    HW236384   3.792   3.607   9.018  1.8478 -2.1789 -0.4190
 8308SOL     OW36385   2.279   4.311   1.050  0.1382  0.1372 -0.9777
 8308SOL    HW136386   2.275   4.310   1.146 -0.0189  1.0883 -0.9680
 8308SOL    HW236387   2.240   4.398   1.040  0.8084  0.3213 -2.0306
 8309SOL     OW36388   4.312   3.108   8.856 -0.0922  0.4718  0.6227
 8309SOL    HW136389   4.355   3.060   8.927 -0.5666 -1.3641 -0.3502
 8309SOL    HW236390   4.236   3.050   8.856  0.2926 -0.0237  0.0170
 8310SOL     OW36391   1.906   2.431   4.884 -0.0840 -0.6861  0.8153
 8310SOL    HW136392   1.813   2.454   4.878  0.1071 -0.3900 -0.9769
 8310SOL    HW236393   1.907   2.346   4.840  0.5484 -0.3181  0.1092
 8311SOL     OW36394   4.102   1.603   7.416  0.4037  0.5516  0.3915
 8311SOL    HW136395   4.012   1.634   7.425  0.9467  1.6821  1.9822
 8311SOL    HW236396   4.129   1.584   7.327  3.5868 -1.4193  1.7803
 8312SOL     OW36397   4.601   3.147   8.857  0.7691 -0.2060  0.3810
 8312SOL    HW136398   4.575   3.064   8.817 -3.0117 -0.0521  2.4665
 8312SOL    HW236399   4.516   3.179   8.890  1.5416  1.9840  0.2223
 8313SOL     OW36400   4.202   0.663  13.517  0.5294  0.1242 -0.0362
 8313SOL    HW136401   4.112   0.696  13.510 -0.1406 -1.8749 -0.6715
 8313SOL    HW236402   4.202   0.640  13.610 -1.5901  1.2710  0.2544
 8314SOL     OW36403   2.130   4.435   9.070 -0.4151  0.4023  0.0153
 8314SOL    HW136404   2.168   4.455   8.984 -1.3313  0.1408 -0.4460
 8314SOL    HW236405   2.055   4.381   9.047  1.7213 -3.9102  3.3347
 8315SOL     OW36406   2.472   3.506   1.706  0.0775  0.1189 -0.1269
 8315SOL    HW136407   2.416   3.489   1.781 -1.3065  2.0343 -0.7230
 8315SOL    HW236408   2.491   3.418   1.672 -2.6922 -0.9041  0.9686
 8316SOL     OW36409   4.056   1.849   8.167  0.4816  0.2553 -0.1856
 8316SOL    HW136410   4.113   1.921   8.196 -1.9641  2.6482 -1.3173
 8316SOL    HW236411   4.122   1.780   8.163  2.6053  2.4919 -4.3212
 8317SOL     OW36412   1.803   0.122   3.704  0.1067  0.2817 -0.4314
 8317SOL    HW136413   1.725   0.173   3.728  1.5636  2.3297 -0.0637
 8317SOL    HW236414   1.765   0.076   3.630 -2.8677 -0.0355  1.3023
 8318SOL     OW36415   4.159   3.390   4.136  0.2028 -0.1650 -0.2173
 8318SOL    HW136416   4.221   3.317   4.128 -0.7439 -0.6695 -2.7386
 8318SOL    HW236417   4.106   3.354   4.207 -1.4866  3.3543  0.2923
 8319SOL     OW36418   1.917   0.424   7.424 -0.1043  0.1056  0.0613
 8319SOL    HW136419   1.950   0.429   7.514  0.5573 -0.1683 -0.1632
 8319SOL    HW236420   1.961   0.500   7.386 -0.5378 -0.1225 -0.8922
 8320SOL     OW36421   4.439   3.724  15.777  0.1737  0.4357  0.0085
 8320SOL    HW136422   4.389   3.805  15.762 -0.6643  0.5342  3.2801
 8320SOL    HW236423   4.479   3.756  15.857  4.0608 -1.6521 -1.1072
 8321SOL     OW36424   0.283   0.009   5.550 -0.6051 -0.4041  0.0801
 8321SOL    HW136425   0.353   4.681   5.509  0.1984  0.2334  0.6676
 8321SOL    HW236426   0.222   0.037   5.482 -0.1623  2.1257  0.7105
 8322SOL     OW36427   0.134   1.567  12.734  0.2589 -0.5431 -0.1474
 8322SOL    HW136428   0.160   1.497  12.794 -0.8192 -2.6633 -2.1564
 8322SOL    HW236429   0.179   1.540  12.654  1.7697 -0.2259  0.5990
 8323SOL     OW36430   3.207   0.089   2.744  0.0720 -0.4197 -0.4811
 8323SOL    HW136431   3.116   0.093   2.713 -0.9505  3.8113  3.1134
 8323SOL    HW236432   3.195   0.127   2.831 -0.1602 -0.3090 -0.5616
 8324SOL     OW36433   2.478   0.752   2.055 -0.2558 -0.6103  0.7114
 8324SOL    HW136434   2.443   0.829   2.010  2.1060  0.4916  0.7084
 8324SOL    HW236435   2.443   0.766   2.143  0.4391 -1.4730  1.1285
 8325SOL     OW36436   4.714   4.573   7.485 -0.4157  0.0731 -0.1185
 8325SOL    HW136437   0.079   4.584   7.449 -0.7020  1.3942 -0.4124
 8325SOL    HW236438   4.695   4.485   7.453 -2.0129 -0.1987  1.5736
 8326SOL     OW36439   3.994   4.352   3.033  1.0438 -0.4040 -0.2031
 8326SOL    HW136440   3.995   4.341   2.938  0.6692 -0.6639 -0.1788
 8326SOL    HW236441   3.926   4.419   3.030 -0.1687 -1.6932 -1.5895
 8327SOL     OW36442   2.996   0.081  15.391 -0.5268  0.2673 -0.7959
 8327SOL    HW136443   2.914   0.122  15.420 -0.4606 -1.6472  2.0473
 8327SOL    HW236444   2.968   0.047  15.306 -1.7218  1.6675 -0.9631
 8328SOL     OW36445   1.671   3.015   3.199  0.3291 -0.0310 -0.4143
 8328SOL    HW136446   1.679   2.957   3.274  4.2713  2.5464  1.1769
 8328SOL    HW236447   1.592   2.976   3.163 -2.0199  2.6468  1.8518
 8329SOL     OW36448   1.419   1.363   9.681 -0.1684  0.2009  0.2292
 8329SOL    HW136449   1.399   1.271   9.668  0.7277  0.0996 -0.4573
 8329SOL    HW236450   1.506   1.353   9.719  0.8165 -2.0336 -2.6286
 8330SOL     OW36451   2.904   3.034   9.700  0.2470 -0.2241 -0.0992
 8330SOL    HW136452   2.951   3.101   9.751  0.8048  1.3939 -2.7555
 8330SOL    HW236453   2.850   3.005   9.773  0.1132  1.0283  0.2951
 8331SOL     OW36454   3.797   2.252  10.202 -0.1621  0.8380  0.1033
 8331SOL    HW136455   3.789   2.247  10.297 -0.1433  1.5451  0.1413
 8331SOL    HW236456   3.865   2.319  10.199  0.8924 -0.2370  0.1305
 8332SOL     OW36457   1.208   3.879   0.900  0.2730  0.0703  0.1920
 8332SOL    HW136458   1.135   3.860   0.959 -1.1986  0.4121 -1.5135
 8332SOL    HW236459   1.163   3.896   0.817 -0.0473  2.5343  0.8640
 8333SOL     OW36460   4.067   4.469   7.438 -0.0256 -0.8239 -0.4593
 8333SOL    HW136461   4.000   4.410   7.472 -1.3633  0.8372 -0.1754
 8333SOL    HW236462   4.082   4.428   7.353 -2.0235 -2.1618 -0.1688
 8334SOL     OW36463   0.999   3.248  14.581 -0.8854  0.2878 -0.1178
 8334SOL    HW136464   1.050   3.198  14.644 -1.7098  1.3961  1.4084
 8334SOL    HW236465   0.917   3.263  14.627 -0.3902 -0.5324  1.0110
 8335SOL     OW36466   1.746   0.377   4.808 -0.1764 -0.5734  0.1835
 8335SOL    HW136467   1.711   0.386   4.720 -2.4996  0.3644  1.2026
 8335SOL    HW236468   1.781   0.466   4.819  1.0094 -0.9431 -0.5409
 8336SOL     OW36469   4.373   3.633   5.114  0.1131  0.1747  0.5775
 8336SOL    HW136470   4.420   3.565   5.162 -0.3314 -1.0575 -0.7211
 8336SOL    HW236471   4.318   3.586   5.051  0.4057  0.6112  0.0033
 8337SOL     OW36472   1.602   1.121  15.438 -0.2573  0.2872  0.1966
 8337SOL    HW136473   1.637   1.131  15.527  3.1612 -0.3222 -1.0853
 8337SOL    HW236474   1.534   1.055  15.445 -1.8776  2.1481  2.1771
 8338SOL     OW36475   2.593   3.955   5.542  0.1215 -0.3686 -0.4863
 8338SOL    HW136476   2.580   3.975   5.635 -0.7172 -0.5250 -0.5746
 8338SOL    HW236477   2.532   3.884   5.524 -0.9752  0.7389 -1.1565
 8339SOL     OW36478   0.445   2.893   1.330  0.2818 -0.4749 -0.0684
 8339SOL    HW136479   0.375   2.948   1.364  0.8347  0.4279 -0.3981
 8339SOL    HW236480   0.421   2.880   1.238 -0.3137  0.9548 -0.1207
 8340SOL     OW36481   2.896   2.585   8.946 -0.6618  0.1057  0.4425
 8340SOL    HW136482   2.852   2.670   8.948  0.8924  0.9061  1.7271
 8340SOL    HW236483   2.830   2.523   8.977 -0.3008 -1.1512 -1.3247
 8341SOL     OW36484   2.215   4.200   3.988 -0.8467 -1.1189  0.0444
 8341SOL    HW136485   2.189   4.216   4.078  1.3864  1.0159  0.2932
 8341SOL    HW236486   2.153   4.133   3.958  0.5079 -1.9144 -1.0033
 8342SOL     OW36487   0.840   1.387   7.881 -0.2035 -0.1531  0.5782
 8342SOL    HW136488   0.759   1.437   7.871  1.1135  1.5023 -1.8629
 8342SOL    HW236489   0.835   1.375   7.976 -2.2631  1.0278  0.6348
 8343SOL     OW36490   3.375   4.602   0.773  0.9762  0.0237  0.3197
 8343SOL    HW136491   3.323   4.560   0.841  0.8590 -0.0802  0.1675
 8343SOL    HW236492   3.325   4.677   0.741  0.9115 -1.0795 -2.2330
 8344SOL     OW36493   2.872   0.893   4.772  0.2747 -0.3101 -1.1228
 8344SOL    HW136494   2.960   0.913   4.803  0.3370 -0.5061 -1.1755
 8344SOL    HW236495   2.834   0.835   4.838 -0.9063  1.4276 -0.2645
 8345SOL     OW36496   4.358   3.800   9.693  0.6287  0.4410  0.2462
 8345SOL    HW136497   4.422   3.866   9.666 -1.8633  2.2119 -1.3698
 8345SOL    HW236498   4.386   3.716   9.659  0.6352  0.9144 -0.9252
 8346SOL     OW36499   1.133   4.356   8.665  0.5511 -0.3020  0.3122
 8346SOL    HW136500   1.047   4.340   8.626  0.7054 -1.2369  0.3547
 8346SOL    HW236501   1.100   4.394   8.746 -3.1327  1.4379 -2.0093
 8347SOL     OW36502   1.128   2.694  17.081 -0.0449 -0.0905 -0.3199
 8347SOL    HW136503   1.154   2.658  16.996  1.9206  0.6177 -0.0315
 8347SOL    HW236504   1.035   2.702  17.062 -0.5602 -0.2588  2.1558
 8348SOL     OW36505   4.611   4.388   6.752  0.1597 -0.1931 -0.2613
 8348SOL    HW136506   4.624   4.455   6.685  2.8009  1.0478  1.4720
 8348SOL    HW236507   4.702   4.366   6.772 -0.2972 -0.7646  1.1752
 8349SOL     OW36508   1.339   2.659   6.665 -0.9084  0.4638  0.0046
 8349SOL    HW136509   1.394   2.622   6.595 -2.2911 -0.5378 -0.5460
 8349SOL    HW236510   1.404   2.650   6.735 -0.8855 -0.1712 -0.0999
 8350SOL     OW36511   2.666   4.307   7.762 -0.0224  0.5455 -0.2962
 8350SOL    HW136512   2.582   4.351   7.772 -0.0234  0.0660  1.9918
 8350SOL    HW236513   2.663   4.261   7.847  0.6590 -0.1893 -0.6643
 8351SOL     OW36514   2.649   3.287   6.436  0.7397  0.8687 -0.0252
 8351SOL    HW136515   2.669   3.193   6.435 -0.0181  0.7182 -0.7136
 8351SOL    HW236516   2.648   3.306   6.342 -0.3096  1.1267  0.0472
 8352SOL     OW36517   2.977   0.801   5.066 -0.1571 -0.6128 -0.3266
 8352SOL    HW136518   2.938   0.876   5.110 -1.6253 -1.2285 -0.5970
 8352SOL    HW236519   2.897   0.757   5.039 -1.3355  0.7524  0.9401
 8353SOL     OW36520   0.604   2.320   9.417  0.4282 -0.3102  0.0552
 8353SOL    HW136521   0.651   2.349   9.495  0.6508 -0.2245 -0.1113
 8353SOL    HW236522   0.681   2.317   9.360 -0.7170 -0.2115 -1.4756
 8354SOL     OW36523   2.134   2.164   5.437  0.1737  0.4030  1.0682
 8354SOL    HW136524   2.071   2.099   5.406 -0.4379  1.4716  0.0355
 8354SOL    HW236525   2.211   2.109   5.452 -0.1714  0.0793  1.6511
 8355SOL     OW36526   0.735   2.214   2.640 -0.1484 -0.8613 -0.4364
 8355SOL    HW136527   0.701   2.228   2.552  1.7644 -2.0374 -1.3667
 8355SOL    HW236528   0.666   2.162   2.682 -2.9401  1.3427 -2.4216
 8356SOL     OW36529   3.406   4.442   2.461 -0.0848 -0.1886 -0.0822
 8356SOL    HW136530   3.387   4.492   2.382  0.2099 -0.9486 -0.6319
 8356SOL    HW236531   3.494   4.473   2.484 -0.3553 -0.8283  1.8464
 8357SOL     OW36532   1.359   3.735  12.192  0.2448  0.4375  0.1499
 8357SOL    HW136533   1.358   3.702  12.282 -0.0545 -1.8047 -0.6635
 8357SOL    HW236534   1.294   3.673  12.157  0.1948 -1.1318  3.0522
 8358SOL     OW36535   1.871   4.141   6.194  0.1166 -0.0242 -0.3885
 8358SOL    HW136536   1.857   4.228   6.232 -0.5357 -0.9500  1.4502
 8358SOL    HW236537   1.919   4.162   6.113 -0.2082  0.4245 -0.4627
 8359SOL     OW36538   0.359   3.752   2.714 -0.2114 -0.6179 -0.0326
 8359SOL    HW136539   0.439   3.700   2.726  1.3339  1.8854  0.6189
 8359SOL    HW236540   0.362   3.780   2.622  0.7913  0.0968  0.2105
 8360SOL     OW36541   3.317   2.643   2.937 -0.0686 -0.2492  0.0776
 8360SOL    HW136542   3.357   2.562   2.904  0.2580  0.9590 -2.4492
 8360SOL    HW236543   3.235   2.614   2.979  0.4278 -1.1272  0.4426
 8361SOL     OW36544   4.368   2.139   9.440 -0.3043 -0.1719  0.4144
 8361SOL    HW136545   4.351   2.093   9.523  0.7602 -0.1634  0.6379
 8361SOL    HW236546   4.460   2.163   9.453 -0.1528 -0.7768  0.4399
 8362SOL     OW36547   4.553   3.382   2.931  0.5018 -0.4075  0.4215
 8362SOL    HW136548   4.504   3.353   3.008 -3.1776  0.9044 -1.4160
 8362SOL    HW236549   4.504   3.460   2.907 -1.4678 -1.5515  0.7426
 8363SOL     OW36550   3.668   2.086   2.168 -0.3694  0.4443  0.1714
 8363SOL    HW136551   3.594   2.131   2.128  0.3671  2.2603  0.8585
 8363SOL    HW236552   3.633   1.999   2.150 -1.3072  1.3076 -2.0877
 8364SOL     OW36553   1.656   1.679  10.615 -0.0961 -0.0550  0.2128
 8364SOL    HW136554   1.740   1.701  10.655  1.3297 -2.2272 -1.6816
 8364SOL    HW236555   1.598   1.675  10.692 -0.9598  1.5043 -0.3426
 8365SOL     OW36556   0.599   1.520   7.804  0.2167  0.2090 -0.2244
 8365SOL    HW136557   0.554   1.436   7.798  0.2168  0.2684 -0.9864
 8365SOL    HW236558   0.530   1.573   7.844 -0.8829 -0.8322 -0.7428
 8366SOL     OW36559   4.475   1.849  15.861  0.1392  0.3905 -0.0026
 8366SOL    HW136560   4.505   1.876  15.948 -0.2464 -1.6653  0.7631
 8366SOL    HW236561   4.438   1.932  15.830  2.3118  1.0585 -0.7741
 8367SOL     OW36562   2.982   0.509   7.256  0.3332 -0.1813  0.3936
 8367SOL    HW136563   2.934   0.510   7.173  0.6247 -1.2710  0.2046
 8367SOL    HW236564   2.968   0.593   7.299  1.7748  0.1108  0.2688
 8368SOL     OW36565   3.363   3.195   7.258  0.0725  0.0970  0.0879
 8368SOL    HW136566   3.433   3.227   7.201 -0.2526  0.3848 -0.1453
 8368SOL    HW236567   3.415   3.138   7.315 -2.7190 -1.6104  0.9336
 8369SOL     OW36568   2.935   3.262   7.132 -0.1674  0.2348 -0.5039
 8369SOL    HW136569   2.969   3.221   7.052  0.8421 -0.1640  0.1243
 8369SOL    HW236570   3.013   3.268   7.187  0.3900  2.1465 -1.5155
 8370SOL     OW36571   0.850   4.254   8.212  0.0755 -0.5429 -0.2789
 8370SOL    HW136572   0.922   4.191   8.208 -0.5255 -1.1946 -0.7561
 8370SOL    HW236573   0.795   4.223   8.140  1.0306  0.2625 -1.3499
 8371SOL     OW36574   0.890   3.122   0.938 -0.7061 -0.2758  0.3459
 8371SOL    HW136575   0.944   3.139   1.015 -1.8406 -0.4837  1.1845
 8371SOL    HW236576   0.817   3.082   0.984 -1.3916  0.2243 -0.3176
 8372SOL     OW36577   0.759   3.044   4.493 -0.9202 -0.0501  0.8444
 8372SOL    HW136578   0.844   3.046   4.538 -0.5244  1.3431  0.0545
 8372SOL    HW236579   0.723   2.990   4.563 -2.5794  1.3444  1.0664
 8373SOL     OW36580   3.518   1.468   9.218  0.3046 -0.2976  0.5836
 8373SOL    HW136581   3.443   1.410   9.225 -0.2433  0.6356  2.3744
 8373SOL    HW236582   3.477   1.554   9.206 -1.4100 -1.3860 -1.3427
 8374SOL     OW36583   2.755   1.218   4.990  0.6228  0.3106 -0.1136
 8374SOL    HW136584   2.813   1.293   4.994  1.7988 -0.5929 -0.1777
 8374SOL    HW236585   2.788   1.173   4.912  0.6455  0.4877 -0.2066
 8375SOL     OW36586   1.694   2.007  16.364  0.1655 -0.3361 -0.3403
 8375SOL    HW136587   1.766   1.967  16.412  1.4272  1.4215 -0.7900
 8375SOL    HW236588   1.698   2.087  16.415  0.2567  0.2780 -1.3206
 8376SOL     OW36589   1.128   1.453  12.185  0.1796 -0.1836  0.4322
 8376SOL    HW136590   1.153   1.467  12.094  2.0771  1.1739  1.1701
 8376SOL    HW236591   1.033   1.444  12.178  0.2858 -0.2158 -1.0956
 8377SOL     OW36592   4.494   2.346   4.416 -0.2236  0.7099 -0.4560
 8377SOL    HW136593   4.426   2.359   4.482 -1.0208 -1.8271 -0.7648
 8377SOL    HW236594   4.451   2.384   4.338 -2.0535  1.3012  0.8377
 8378SOL     OW36595   4.512   3.983   0.282  0.3224 -0.8027  0.5089
 8378SOL    HW136596   4.439   3.951   0.335  1.8972 -1.9636  1.9707
 8378SOL    HW236597   4.461   4.023   0.211 -1.4361 -1.1884  1.5698
 8379SOL     OW36598   2.866   4.618   2.456 -0.5180 -0.2704 -0.0052
 8379SOL    HW136599   2.890   4.608   2.547  0.3916  1.9452 -0.0035
 8379SOL    HW236600   2.952   4.618   2.415 -0.8440 -0.4177 -0.7113
 8380SOL     OW36601   3.640   1.148  16.925  0.1532  0.6495  0.7664
 8380SOL    HW136602   3.638   1.238  16.956  0.9726  1.2529 -0.9220
 8380SOL    HW236603   3.734   1.135  16.913  0.1082  1.3499 -0.3047
 8381SOL     OW36604   3.418   1.152  14.114  0.1776 -0.0102 -0.0656
 8381SOL    HW136605   3.351   1.212  14.083 -0.9667 -1.2109  0.1018
 8381SOL    HW236606   3.373   1.123  14.193  0.2005 -1.4055 -0.5617
 8382SOL     OW36607   1.967   0.781  10.915  0.2246  0.4680  0.1378
 8382SOL    HW136608   1.934   0.704  10.962 -0.0891 -0.0616 -0.9171
 8382SOL    HW236609   1.995   0.832  10.990  0.3214  0.0804  0.3632
 8383SOL     OW36610   1.704   3.899   9.399  0.3745 -0.2804  0.3618
 8383SOL    HW136611   1.791   3.915   9.434 -0.2369 -0.5795  2.0119
 8383SOL    HW236612   1.662   3.843   9.464  0.7315  0.0130  0.8379
 8384SOL     OW36613   0.676   2.544   0.071  0.4030 -0.0775  0.2755
 8384SOL    HW136614   0.733   2.549  17.688  0.6243  0.5077  0.4738
 8384SOL    HW236615   0.677   2.450   0.089 -1.2306 -0.1290  0.1056
 8385SOL     OW36616   1.812   2.567   3.629  0.1910 -0.3036 -0.2571
 8385SOL    HW136617   1.885   2.595   3.574 -0.2021 -1.0579 -1.1578
 8385SOL    HW236618   1.865   2.542   3.704  4.3351  1.4345 -2.6177
 8386SOL     OW36619   1.242   1.288   6.106  0.0460 -0.4306 -0.4726
 8386SOL    HW136620   1.159   1.318   6.068  0.4343  0.4037 -0.6550
 8386SOL    HW236621   1.229   1.194   6.113  0.7945 -0.6095 -1.4961
 8387SOL     OW36622   1.410   0.747   4.728 -0.2117 -0.2997  0.6311
 8387SOL    HW136623   1.466   0.669   4.727 -0.5894 -0.5892  1.6580
 8387SOL    HW236624   1.367   0.740   4.814 -0.1039  1.0664  0.7874
 8388SOL     OW36625   0.415   3.249   5.504 -0.0680  0.8297  0.7533
 8388SOL    HW136626   0.406   3.248   5.408  0.0011  0.3254  0.7524
 8388SOL    HW236627   0.392   3.338   5.528 -3.2068  0.2412 -0.1800
 8389SOL     OW36628   0.647   3.639  16.973  0.0384 -0.1628  0.2755
 8389SOL    HW136629   0.685   3.630  16.886 -1.9265 -1.9479 -0.3861
 8389SOL    HW236630   0.700   3.715  16.997 -1.3111  1.3660 -1.5193
 8390SOL     OW36631   2.761   1.802   9.050  0.3478 -0.2112 -0.1104
 8390SOL    HW136632   2.723   1.827   9.134 -0.8562  0.0931 -0.7436
 8390SOL    HW236633   2.757   1.881   8.996 -1.0331  0.9341  1.6239
 8391SOL     OW36634   3.847   3.826   0.874  0.0129 -0.3051  0.0889
 8391SOL    HW136635   3.894   3.829   0.791 -0.4413 -0.6396 -0.1825
 8391SOL    HW236636   3.807   3.740   0.863 -0.8108  0.0960 -0.0934
 8392SOL     OW36637   4.264   4.117   4.600  0.8625  0.3512 -0.4231
 8392SOL    HW136638   4.321   4.095   4.674 -0.5606  1.8486  1.1159
 8392SOL    HW236639   4.289   4.205   4.570  1.7007  0.6855  1.2665
 8393SOL     OW36640   1.159   1.113   6.468  0.3790 -0.4619  0.1239
 8393SOL    HW136641   1.207   1.032   6.449 -0.4199 -0.9546  0.1614
 8393SOL    HW236642   1.188   1.132   6.557 -0.8750 -0.4203  0.5225
 8394SOL     OW36643   3.766   3.314   4.805  0.5423  0.2356  0.2200
 8394SOL    HW136644   3.671   3.323   4.806  0.4307 -1.2277  2.5611
 8394SOL    HW236645   3.780   3.227   4.768  0.9983  0.4516 -0.1133
 8395SOL     OW36646   3.591   3.306   7.086 -0.4421 -0.1116  0.1190
 8395SOL    HW136647   3.671   3.282   7.135  1.3650  1.7098 -1.9408
 8395SOL    HW236648   3.599   3.245   7.013 -2.6417  0.4822 -0.5995
 8396SOL     OW36649   2.718   1.877   0.127  0.0833 -0.3044 -0.8159
 8396SOL    HW136650   2.632   1.834   0.128  0.2923 -0.6972  0.6073
 8396SOL    HW236651   2.747   1.873   0.036  0.0450 -0.1951 -0.8325
 8397SOL     OW36652   3.311   3.327   4.920  0.3383  0.3735  0.0669
 8397SOL    HW136653   3.236   3.336   4.860  1.5760  3.3251 -1.0391
 8397SOL    HW236654   3.305   3.414   4.959  2.7310 -0.2368  1.7466
 8398SOL     OW36655   1.121   0.587   6.737 -0.6338  0.2633 -0.5028
 8398SOL    HW136656   1.205   0.633   6.730  1.2397 -3.2298 -1.0725
 8398SOL    HW236657   1.062   0.661   6.720  0.6612  1.5838  0.7510
 8399SOL     OW36658   2.629   4.715   4.054 -0.2644  0.3536  0.4624
 8399SOL    HW136659   2.537   4.693   4.039  0.1477 -1.5975  0.8881
 8399SOL    HW236660   2.634   0.071   4.000 -1.0181  0.6396  0.8086
 8400SOL     OW36661   2.530   1.066   4.975 -0.3626  0.4069  0.0188
 8400SOL    HW136662   2.599   1.129   4.994  2.1375 -2.5102  0.6646
 8400SOL    HW236663   2.447   1.106   5.000 -0.1425  0.5730  0.4749
 8401SOL     OW36664   2.870   3.261   4.158 -0.3819 -0.5674 -0.1431
 8401SOL    HW136665   2.925   3.212   4.219 -3.5308 -5.9999 -1.7174
 8401SOL    HW236666   2.842   3.191   4.099  3.8439 -1.5269 -1.0469
 8402SOL     OW36667   3.707   3.342  15.446  0.1596 -0.0550 -0.3011
 8402SOL    HW136668   3.779   3.401  15.425 -0.0751  0.2461 -0.2567
 8402SOL    HW236669   3.654   3.349  15.367 -1.5122 -1.1926  0.7004
 8403SOL     OW36670   2.484   1.945   8.155 -0.0042 -0.0235  1.0496
 8403SOL    HW136671   2.577   1.963   8.170  0.3837 -0.9738 -0.2291
 8403SOL    HW236672   2.450   2.034   8.143  0.8129  0.2997  1.1287
 8404SOL     OW36673   0.191   1.128   7.781 -0.1037 -0.0911 -0.1198
 8404SOL    HW136674   0.115   1.165   7.735 -1.7984 -0.5722  2.3068
 8404SOL    HW236675   0.153   1.057   7.831 -0.6252 -0.5698 -1.1952
 8405SOL     OW36676   0.030   2.669   2.484 -0.2222  0.0946  0.3189
 8405SOL    HW136677   0.106   2.613   2.468 -0.4083  0.1063 -0.5681
 8405SOL    HW236678   0.008   2.640   2.573 -1.5262  1.4689  0.4448
 8406SOL     OW36679   1.075   2.381   7.430  0.6642  0.3354  0.6813
 8406SOL    HW136680   1.010   2.315   7.408  1.4873 -0.1234 -0.3800
 8406SOL    HW236681   1.134   2.389   7.355  0.8082 -0.0511  0.7588
 8407SOL     OW36682   4.607   0.983   7.947  0.0468 -0.3019 -0.4798
 8407SOL    HW136683   4.548   0.956   8.017 -0.4857 -0.3826 -0.9586
 8407SOL    HW236684   4.690   0.937   7.960  0.3561  0.7054  1.1281
 8408SOL     OW36685   1.626   3.720   9.581  0.6732 -0.1028 -0.3319
 8408SOL    HW136686   1.613   3.725   9.675  0.1358  2.4239 -0.5303
 8408SOL    HW236687   1.685   3.646   9.570 -0.2161 -0.8819  0.1304
 8409SOL     OW36688   3.155   2.930   2.755 -0.3786  0.3105  0.0876
 8409SOL    HW136689   3.184   2.902   2.668  2.9670  0.8843  1.0203
 8409SOL    HW236690   3.101   2.852   2.768  0.8846 -0.5387  0.2202
 8410SOL     OW36691   1.255   4.161   4.945  0.2864  0.0601 -0.0987
 8410SOL    HW136692   1.217   4.248   4.961  1.4442  0.7805 -1.1812
 8410SOL    HW236693   1.335   4.187   4.899 -0.3017 -1.5903 -2.0416
 8411SOL     OW36694   1.512   3.900   1.745  0.0125  0.1481 -0.4025
 8411SOL    HW136695   1.416   3.901   1.749  0.1378 -1.8293  2.4598
 8411SOL    HW236696   1.517   3.835   1.674 -0.7684 -1.7535  1.3015
 8412SOL     OW36697   0.772   1.394  13.632  0.6055 -0.0737  0.2564
 8412SOL    HW136698   0.831   1.386  13.707 -1.3514 -1.5541  1.6308
 8412SOL    HW236699   0.813   1.331  13.573 -1.2820  1.0118 -2.1876
 8413SOL     OW36700   2.468   2.693   6.388  0.2498  0.5655 -0.4643
 8413SOL    HW136701   2.437   2.780   6.363 -2.1191  0.4764  2.1692
 8413SOL    HW236702   2.546   2.723   6.434  1.2189  0.4811 -2.0407
 8414SOL     OW36703   1.273   1.106   5.493 -0.1714  0.1674  0.8355
 8414SOL    HW136704   1.270   1.015   5.523 -0.3734 -1.7460 -4.8552
 8414SOL    HW236705   1.359   1.127   5.529  1.2619 -5.2285  0.5483
 8415SOL     OW36706   1.511   2.305   5.548  0.3337 -0.5431 -0.0999
 8415SOL    HW136707   1.489   2.257   5.628 -1.6861  0.2569 -0.1746
 8415SOL    HW236708   1.522   2.233   5.486 -0.3827 -1.2158  0.5646
 8416SOL     OW36709   0.750   0.582  12.027 -0.1693 -0.8987 -0.1519
 8416SOL    HW136710   0.682   0.517  12.009 -1.4377  0.4582 -0.2945
 8416SOL    HW236711   0.697   0.643  12.079  1.6929 -1.5814  2.5144
 8417SOL     OW36712   3.564   2.740   3.839  0.2308 -0.3630  0.1523
 8417SOL    HW136713   3.570   2.644   3.829 -1.7912 -0.3464 -1.2220
 8417SOL    HW236714   3.470   2.745   3.824  0.2029 -2.2032 -0.3699
 8418SOL     OW36715   0.102   3.335   2.366  0.5796 -0.3160 -0.0502
 8418SOL    HW136716   0.135   3.398   2.302 -0.8890 -1.5793 -2.0590
 8418SOL    HW236717   0.116   3.391   2.443 -1.3819  0.3443 -0.1666
 8419SOL     OW36718   1.571   1.598   6.242  0.0545  0.2848  0.2929
 8419SOL    HW136719   1.593   1.515   6.200  0.4384  0.2468  0.5780
 8419SOL    HW236720   1.655   1.641   6.254 -0.1277  0.9891 -0.9653
 8420SOL     OW36721   3.816   2.001   4.535  0.6085  1.1786  0.1615
 8420SOL    HW136722   3.842   2.016   4.444 -1.7654 -0.0882 -0.7307
 8420SOL    HW236723   3.882   1.938   4.561  0.4456 -0.1583 -2.6942
 8421SOL     OW36724   1.311   2.027   4.338  0.2457  0.4657  0.1904
 8421SOL    HW136725   1.347   2.115   4.332  2.4910 -0.5793 -1.5849
 8421SOL    HW236726   1.360   1.984   4.268  0.1715  0.9719 -0.1692
 8422SOL     OW36727   1.252   3.854   3.701  0.2224 -0.1357 -0.2098
 8422SOL    HW136728   1.213   3.856   3.613  2.0474 -2.4369 -1.0690
 8422SOL    HW236729   1.345   3.832   3.692  0.4683  1.6820 -2.1619
 8423SOL     OW36730   1.183   3.418   4.839  0.7112 -0.2314  0.0028
 8423SOL    HW136731   1.145   3.392   4.756 -1.9921  2.3135  0.4388
 8423SOL    HW236732   1.111   3.395   4.898 -0.8648  1.7385 -1.1334
 8424SOL     OW36733   2.628   2.190  12.843 -0.2274 -0.1987  0.2251
 8424SOL    HW136734   2.680   2.142  12.778 -0.6898  0.2175 -0.4563
 8424SOL    HW236735   2.645   2.278  12.809  0.6332 -0.5256 -0.2126
 8425SOL     OW36736   1.429   3.198   1.347  0.5154  0.6847  0.1279
 8425SOL    HW136737   1.437   3.240   1.432  1.5977 -1.0978  0.9122
 8425SOL    HW236738   1.404   3.271   1.290 -1.7259 -0.0247  0.2209
 8426SOL     OW36739   4.149   2.383   7.423  0.2698  0.3418  0.0863
 8426SOL    HW136740   4.091   2.318   7.463  0.6149  0.8921  1.4527
 8426SOL    HW236741   4.234   2.354   7.455 -0.2625 -1.0604  0.2352
 8427SOL     OW36742   2.143   3.480   0.768 -0.0488 -0.4120  0.6265
 8427SOL    HW136743   2.161   3.418   0.839 -1.0401 -0.4842  0.8108
 8427SOL    HW236744   2.108   3.426   0.697 -0.4620  0.0723  0.4578
 8428SOL     OW36745   2.742   0.943   4.174 -0.4804  0.2024  0.7275
 8428SOL    HW136746   2.719   0.948   4.267 -1.2735  0.8296  0.4929
 8428SOL    HW236747   2.703   0.856   4.160  3.2235 -1.3004 -0.2892
 8429SOL     OW36748   3.178   0.828   3.203  0.1512 -0.1495 -0.2426
 8429SOL    HW136749   3.127   0.752   3.232  0.5048 -0.9389 -1.6764
 8429SOL    HW236750   3.255   0.815   3.259  0.4622 -1.9762 -1.1076
 8430SOL     OW36751   2.020   2.855  13.271 -0.5010 -0.2813  0.8538
 8430SOL    HW136752   1.931   2.831  13.296 -0.8889  1.0756  0.7588
 8430SOL    HW236753   2.018   2.945  13.238 -1.2679 -0.0892  1.4406
 8431SOL     OW36754   1.221   1.297   7.226  0.4164 -0.2473 -0.2355
 8431SOL    HW136755   1.159   1.361   7.263  0.7417  0.2439 -0.5433
 8431SOL    HW236756   1.217   1.228   7.292  1.0583  0.9159  1.0113
 8432SOL     OW36757   0.434   2.699   3.421  0.5239  0.6620  0.7870
 8432SOL    HW136758   0.431   2.630   3.487  2.2861 -0.8364 -0.7187
 8432SOL    HW236759   0.502   2.670   3.361 -0.3713 -0.4125  0.2946
 8433SOL     OW36760   1.291   1.765   4.844 -0.1042 -0.0026  0.3545
 8433SOL    HW136761   1.348   1.695   4.875  0.8133  0.2817 -0.7095
 8433SOL    HW236762   1.262   1.806   4.926  0.5553  0.9012  0.1350
 8434SOL     OW36763   0.739   1.046   7.472  0.5471 -0.5217  0.5479
 8434SOL    HW136764   0.773   0.970   7.518 -0.1602 -2.4446 -2.1382
 8434SOL    HW236765   0.820   1.096   7.460  0.6712 -0.4467  1.6736
 8435SOL     OW36766   1.529   0.422   6.696  0.6019 -0.3021 -0.0797
 8435SOL    HW136767   1.494   0.484   6.760 -0.9106 -0.0525 -1.1368
 8435SOL    HW236768   1.447   0.395   6.654  0.8311 -0.7074 -0.2634
 8436SOL     OW36769   3.837   3.895  13.472  0.3335 -0.1021  0.2949
 8436SOL    HW136770   3.787   3.824  13.432 -0.2101 -0.1639  1.0865
 8436SOL    HW236771   3.787   3.975  13.454 -1.1667 -1.4809 -1.6986
 8437SOL     OW36772   3.482   4.418   3.846  0.0994  0.2427 -0.1526
 8437SOL    HW136773   3.447   4.471   3.775  0.8332  1.2524  0.2355
 8437SOL    HW236774   3.575   4.404   3.827  0.2162  1.5380 -0.5210
 8438SOL     OW36775   2.847   2.675   1.157 -0.2723  0.4409  0.5663
 8438SOL    HW136776   2.845   2.615   1.082 -0.8641  0.8005  0.2943
 8438SOL    HW236777   2.804   2.624   1.225 -0.3709  2.0380  1.7052
 8439SOL     OW36778   2.724   1.749  15.808 -0.5298  0.2226  0.2485
 8439SOL    HW136779   2.786   1.677  15.824 -0.4835  0.2235  0.0769
 8439SOL    HW236780   2.780   1.812  15.762 -0.9724 -0.0137 -0.6156
 8440SOL     OW36781   3.002   2.583   8.578  0.3608  0.5814  0.3835
 8440SOL    HW136782   3.061   2.551   8.646  0.9002 -0.1882 -0.4618
 8440SOL    HW236783   3.059   2.580   8.501 -0.3583 -2.1919 -0.0388
 8441SOL     OW36784   1.186   2.939   8.830 -0.8370 -0.4603  0.3451
 8441SOL    HW136785   1.270   2.981   8.848 -1.1974  0.4193 -0.0266
 8441SOL    HW236786   1.130   2.958   8.906  0.2107  0.0321  0.9947
 8442SOL     OW36787   1.259   0.901   3.396  0.2981 -0.5467  0.2559
 8442SOL    HW136788   1.281   0.892   3.488  1.9234 -0.4950 -0.1087
 8442SOL    HW236789   1.215   0.819   3.374 -0.4054 -0.0440 -0.2127
 8443SOL     OW36790   2.728   0.913  14.733  0.1493 -0.7041  0.4986
 8443SOL    HW136791   2.788   0.966  14.680  0.8648 -0.3941  1.6062
 8443SOL    HW236792   2.749   0.822  14.712 -1.0337 -0.9836  0.5530
 8444SOL     OW36793   3.698   4.030   0.243  0.7406  0.2124  0.8987
 8444SOL    HW136794   3.726   4.043   0.333 -0.0609  0.1932  1.1553
 8444SOL    HW236795   3.734   4.108   0.201 -0.1158  0.2340  0.1869
 8445SOL     OW36796   1.575   1.547  14.636 -0.0963  0.0479  0.1488
 8445SOL    HW136797   1.612   1.635  14.640 -0.5798  0.1588  2.0511
 8445SOL    HW236798   1.608   1.517  14.721 -0.5461  1.3030  0.7618
 8446SOL     OW36799   0.388   1.025  16.456 -0.5684 -0.1725  0.3703
 8446SOL    HW136800   0.334   1.059  16.385 -0.8231 -2.5123 -0.5483
 8446SOL    HW236801   0.390   0.934  16.427 -1.7054  0.6567 -2.2746
 8447SOL     OW36802   2.831   2.245   9.000 -0.1141 -0.1382 -0.1220
 8447SOL    HW136803   2.903   2.299   8.967 -1.3053  1.0723 -0.7136
 8447SOL    HW236804   2.852   2.158   8.965  0.3811 -0.3739  0.7529
 8448SOL     OW36805   4.333   2.100  16.161 -0.0821 -0.0149 -0.7075
 8448SOL    HW136806   4.254   2.079  16.112 -1.4871 -0.5932  1.8242
 8448SOL    HW236807   4.336   2.194  16.144 -2.0751  0.1158 -0.3175
 8449SOL     OW36808   4.026   4.343   5.683 -0.3324  0.0347 -0.3811
 8449SOL    HW136809   3.953   4.346   5.744 -0.1352 -0.2270 -0.1322
 8449SOL    HW236810   4.073   4.272   5.726  0.5840  1.1273  0.4271
 8450SOL     OW36811   3.584   2.839   7.761 -0.2262 -0.0504 -0.4964
 8450SOL    HW136812   3.534   2.898   7.819 -0.8932 -0.1912 -0.9221
 8450SOL    HW236813   3.517   2.810   7.698  0.7028 -0.5694 -1.2346
 8451SOL     OW36814   0.235   0.454  16.020 -0.3768  0.0691  0.6088
 8451SOL    HW136815   0.145   0.453  15.988  0.1309 -0.0571 -0.8454
 8451SOL    HW236816   0.255   0.537  15.977 -0.8390  0.2007  0.6491
 8452SOL     OW36817   3.571   0.575   3.084 -0.4420 -0.4025  0.0866
 8452SOL    HW136818   3.656   0.535   3.065  0.3433  1.1154  0.4367
 8452SOL    HW236819   3.505   0.507   3.099  0.4237 -0.9626  1.3322
 8453SOL     OW36820   3.100   3.951  10.423  0.1675 -0.1511 -0.5138
 8453SOL    HW136821   3.009   3.931  10.446  0.4012 -1.1045 -0.4121
 8453SOL    HW236822   3.098   3.958  10.327  0.2324  7.8811  0.0965
 8454SOL     OW36823   4.479   3.634   8.482  0.2581 -0.0588 -0.0975
 8454SOL    HW136824   4.440   3.547   8.481 -0.7644  0.4144 -0.7881
 8454SOL    HW236825   4.408   3.687   8.517  0.7547  1.2620 -1.0812
 8455SOL     OW36826   2.589   1.680   5.101 -0.4822 -0.2080  0.3957
 8455SOL    HW136827   2.553   1.658   5.187 -0.4619 -2.2507 -0.1195
 8455SOL    HW236828   2.516   1.664   5.042 -1.3618  2.6432  0.6982
 8456SOL     OW36829   4.095   1.832  12.831  0.0562 -0.2996  0.4093
 8456SOL    HW136830   4.185   1.799  12.824 -0.3406 -1.2973  0.0846
 8456SOL    HW236831   4.088   1.860  12.922  0.2078  0.3076  0.2357
 8457SOL     OW36832   2.649   4.475   6.052 -0.1128 -0.4446 -0.4008
 8457SOL    HW136833   2.676   4.567   6.054  0.0203 -0.5133  1.0677
 8457SOL    HW236834   2.627   4.469   6.145 -2.2299 -2.4861 -1.0283
 8458SOL     OW36835   2.644   3.106  11.405 -0.3833 -0.2158 -0.1982
 8458SOL    HW136836   2.697   3.176  11.442 -1.3153  0.6002 -0.4230
 8458SOL    HW236837   2.616   3.056  11.482 -1.6242 -1.1792 -1.2644
 8459SOL     OW36838   1.935   0.640   5.128 -0.0958 -0.2595 -0.1894
 8459SOL    HW136839   2.023   0.612   5.102  0.2065 -0.1615  0.7297
 8459SOL    HW236840   1.904   0.703   5.063 -1.0607  0.1283  0.6513
 8460SOL     OW36841   0.987   3.907   7.918 -0.0843  0.1083 -0.2912
 8460SOL    HW136842   0.985   3.965   7.842  0.4715  0.5649  0.0387
 8460SOL    HW236843   1.008   3.969   7.987 -2.9622  1.0256 -0.2710
 8461SOL     OW36844   2.236   4.685  15.889 -0.3612 -0.9179  0.3565
 8461SOL    HW136845   2.319   4.643  15.908  0.6208  1.2130  0.7570
 8461SOL    HW236846   2.211   4.647  15.805  1.2523 -1.8334  0.3032
 8462SOL     OW36847   3.622   1.354   4.109  0.2630 -0.5328 -0.0166
 8462SOL    HW136848   3.623   1.267   4.149  0.0163  0.1961  1.5864
 8462SOL    HW236849   3.528   1.371   4.104  0.4384  0.3302 -0.3463
 8463SOL     OW36850   3.076   0.807   8.018 -0.5641  0.0322  0.0154
 8463SOL    HW136851   3.161   0.849   8.004 -0.3163 -0.3329  0.4385
 8463SOL    HW236852   3.103   0.735   8.074  0.9054  1.4751  1.1783
 8464SOL     OW36853   2.210   1.018   0.535 -0.1236  0.0408 -0.1494
 8464SOL    HW136854   2.280   0.970   0.492  1.6625  2.6092 -0.1209
 8464SOL    HW236855   2.260   1.039   0.615 -0.0664  1.5989 -0.5965
 8465SOL     OW36856   0.054   1.798  10.506 -0.0727  0.1978 -0.1383
 8465SOL    HW136857   0.088   1.877  10.547  1.6837  0.1535 -1.4791
 8465SOL    HW236858   0.035   1.749  10.586 -1.2480 -0.0672 -0.5741
 8466SOL     OW36859   4.220   1.279   3.691 -0.1122  0.1297  0.6060
 8466SOL    HW136860   4.233   1.353   3.632  0.0868 -1.4679 -1.3290
 8466SOL    HW236861   4.303   1.273   3.738 -0.1088  1.6226  0.8011
 8467SOL     OW36862   2.889   0.560   4.685 -0.1216  0.0714  0.2239
 8467SOL    HW136863   2.823   0.623   4.659 -0.1541 -0.4411 -0.9237
 8467SOL    HW236864   2.915   0.510   4.607 -2.7088 -2.2001  0.8219
 8468SOL     OW36865   1.994   2.296   6.391 -0.9873 -0.0118 -0.4948
 8468SOL    HW136866   2.053   2.317   6.463  0.0156 -0.4877 -1.1879
 8468SOL    HW236867   1.909   2.293   6.435 -1.4432 -1.6470 -1.4936
 8469SOL     OW36868   0.306   2.201  10.769 -0.0190  0.2486 -0.3905
 8469SOL    HW136869   0.298   2.293  10.743  2.4767  0.6638  0.3110
 8469SOL    HW236870   0.276   2.202  10.860  0.3240  0.5012 -0.2816
 8470SOL     OW36871   2.194   2.489  16.791 -0.4744 -0.7158 -0.0538
 8470SOL    HW136872   2.187   2.539  16.872 -0.9399 -0.0104 -0.5256
 8470SOL    HW236873   2.286   2.501  16.770 -0.7456  0.0636 -0.8272
 8471SOL     OW36874   3.806   0.365   8.669  0.4998 -0.1267 -0.0533
 8471SOL    HW136875   3.863   0.314   8.612  0.3243  2.3243 -2.4065
 8471SOL    HW236876   3.874   0.391   8.731  0.4924  0.2221 -0.1903
 8472SOL     OW36877   3.641   2.043   7.175 -0.8442 -0.1022  0.4052
 8472SOL    HW136878   3.619   1.952   7.155  0.0679 -0.2731  0.1597
 8472SOL    HW236879   3.722   2.057   7.125 -1.5772 -1.6209 -1.1912
 8473SOL     OW36880   1.151   3.811   2.366 -0.1710 -0.1118 -0.2884
 8473SOL    HW136881   1.138   3.837   2.457 -0.1929 -0.3287 -0.2297
 8473SOL    HW236882   1.063   3.835   2.338 -0.5180 -1.8590 -0.6456
 8474SOL     OW36883   1.451   3.201   8.625 -1.0586  0.4679  0.2215
 8474SOL    HW136884   1.398   3.158   8.692 -1.4532  0.1478 -0.3060
 8474SOL    HW236885   1.494   3.276   8.667 -0.4596  1.1935 -1.6752
 8475SOL     OW36886   1.956   0.141  12.209 -0.3972  0.4476 -0.1144
 8475SOL    HW136887   2.009   0.153  12.129  1.2886 -2.6965  0.5242
 8475SOL    HW236888   1.914   0.225  12.228 -0.8356  0.0992  0.4209
 8476SOL     OW36889   4.597   2.461   3.314 -0.0685  0.5385 -0.1294
 8476SOL    HW136890   4.575   2.531   3.376  0.2846 -0.0265  0.6422
 8476SOL    HW236891   4.662   2.507   3.262 -0.0593  2.1882  1.3652
 8477SOL     OW36892   1.788   0.463   7.150 -0.0341  0.4275  0.1750
 8477SOL    HW136893   1.797   0.550   7.111  0.0480  0.1198 -0.4848
 8477SOL    HW236894   1.784   0.468   7.246 -1.3159  2.4228  0.0158
 8478SOL     OW36895   0.176   2.369   9.294 -0.4791 -0.2762 -0.0311
 8478SOL    HW136896   0.089   2.373   9.253 -0.9104  3.5767  1.2247
 8478SOL    HW236897   0.167   2.439   9.359  0.2483  0.1601 -0.4039
 8479SOL     OW36898   2.533   0.169   7.020  0.1086 -0.3266 -0.0745
 8479SOL    HW136899   2.459   0.190   6.963 -1.5025 -1.2294  1.6746
 8479SOL    HW236900   2.546   0.242   7.081 -0.6035  0.6626 -1.1212
 8480SOL     OW36901   0.120   4.328   4.674 -0.8348  1.2068 -0.4336
 8480SOL    HW136902   0.117   4.365   4.762 -1.0520  1.1283 -0.4102
 8480SOL    HW236903   0.214   4.344   4.662 -1.0779  0.3943 -3.2037
 8481SOL     OW36904   2.378   4.269  10.972  0.5149 -0.0221 -0.1657
 8481SOL    HW136905   2.304   4.330  10.976 -1.6403 -2.5369 -1.7419
 8481SOL    HW236906   2.443   4.305  11.032  0.3027  0.9423 -0.5098
 8482SOL     OW36907   1.763   1.311   7.267  0.1321  0.4255 -0.0148
 8482SOL    HW136908   1.728   1.333   7.181 -1.4590 -2.0017  0.0455
 8482SOL    HW236909   1.845   1.359   7.281 -0.1609  1.0273 -0.3274
 8483SOL     OW36910   3.706   4.103  13.365 -0.2870 -0.1177  0.2276
 8483SOL    HW136911   3.625   4.153  13.374  1.8217  2.1990  5.9842
 8483SOL    HW236912   3.769   4.174  13.352 -2.9582  1.7831 -2.6754
 8484SOL     OW36913   1.724   0.957   9.388 -0.5483 -0.2661 -0.3787
 8484SOL    HW136914   1.750   0.904   9.463 -0.2699  0.9303  0.3616
 8484SOL    HW236915   1.751   1.041   9.425  2.7672 -2.1803  1.4916
 8485SOL     OW36916   0.737   4.131  12.378  0.1871  0.0087 -0.0673
 8485SOL    HW136917   0.792   4.209  12.368 -2.3629  1.8045  0.0920
 8485SOL    HW236918   0.650   4.162  12.401 -0.2650  0.0488 -1.8727
 8486SOL     OW36919   1.686   3.044  11.228  0.0365  0.1917  0.1300
 8486SOL    HW136920   1.640   3.128  11.221 -1.6559 -0.8116 -0.5879
 8486SOL    HW236921   1.779   3.068  11.226  0.5003 -1.5631  0.4010
 8487SOL     OW36922   4.222   3.842   0.968 -0.1006 -0.4681  0.0578
 8487SOL    HW136923   4.244   3.796   0.887  0.9470  0.1772 -0.0200
 8487SOL    HW236924   4.165   3.784   1.018 -1.0962 -1.1335 -1.8421
 8488SOL     OW36925   0.103   2.543  12.996 -0.2964 -0.3048 -0.0157
 8488SOL    HW136926   0.129   2.495  12.917  1.1543 -3.4868  2.3922
 8488SOL    HW236927   0.022   2.495  13.008 -0.3927  0.1263  1.0144
 8489SOL     OW36928   1.222   1.529   4.121  0.3706  0.1675 -0.2954
 8489SOL    HW136929   1.261   1.477   4.051  0.2795  0.0711 -0.2753
 8489SOL    HW236930   1.163   1.581   4.065 -0.1275  1.5096  1.4870
 8490SOL     OW36931   0.926   3.355   0.724 -0.2700 -0.0152  0.0439
 8490SOL    HW136932   0.891   3.407   0.653  1.8435  0.2370 -0.8205
 8490SOL    HW236933   0.874   3.275   0.714 -0.2511  0.0265 -0.3673
 8491SOL     OW36934   1.681   4.123   9.089 -0.5256 -0.6736  0.5419
 8491SOL    HW136935   1.740   4.047   9.083 -1.3117 -1.0306 -2.5161
 8491SOL    HW236936   1.739   4.181   9.138  0.6022 -0.8143 -0.6274
 8492SOL     OW36937   1.174   4.415  10.509 -0.5738  0.0008 -0.9806
 8492SOL    HW136938   1.176   4.442  10.418 -1.5929 -0.2714 -1.0832
 8492SOL    HW236939   1.246   4.466  10.546 -0.7494 -0.4727  0.0317
 8493SOL     OW36940   4.158   1.633   2.315 -0.0134  0.0727  0.3084
 8493SOL    HW136941   4.164   1.648   2.221  0.9366 -1.0032  0.1862
 8493SOL    HW236942   4.249   1.627   2.345 -0.4477 -2.1344  1.2457
 8494SOL     OW36943   0.770   4.303  14.400  0.3132 -0.0230 -0.1592
 8494SOL    HW136944   0.761   4.325  14.307  0.7270 -0.6992 -0.3605
 8494SOL    HW236945   0.783   4.208  14.398  0.6462 -0.0035  1.1870
 8495SOL     OW36946   2.590   3.720  11.411  0.4513  0.2442 -0.2847
 8495SOL    HW136947   2.538   3.731  11.332 -0.9340 -1.0333  0.4509
 8495SOL    HW236948   2.643   3.641  11.401 -0.5351 -0.3219 -1.0048
 8496SOL     OW36949   3.677   3.094  12.708  0.3302 -0.3094  1.1065
 8496SOL    HW136950   3.708   3.051  12.787  0.7382 -1.0358  0.5510
 8496SOL    HW236951   3.733   3.052  12.643  1.4199 -1.2381  2.6536
 8497SOL     OW36952   3.029   3.177   2.417 -0.5903 -0.3249 -0.0067
 8497SOL    HW136953   2.975   3.215   2.348 -0.2075 -0.3663 -0.3345
 8497SOL    HW236954   2.970   3.103   2.432  1.0056 -2.1220 -2.4333
 8498SOL     OW36955   1.488   0.498   4.649  0.4393  0.1119 -0.2775
 8498SOL    HW136956   1.420   0.534   4.592  0.7563  2.1856  0.6438
 8498SOL    HW236957   1.524   0.441   4.581  1.9140  1.4337 -0.6071
 8499SOL     OW36958   2.551   0.835   5.108 -0.2340  0.0804  0.1093
 8499SOL    HW136959   2.558   0.921   5.065 -2.9320  0.6596  0.8170
 8499SOL    HW236960   2.465   0.804   5.079  0.0358  1.6515 -2.3532
 8500SOL     OW36961   1.034   2.812   4.470 -0.3926  0.1224  0.2407
 8500SOL    HW136962   1.090   2.738   4.494 -1.5901 -1.5504 -2.1251
 8500SOL    HW236963   1.075   2.882   4.520  0.3341 -1.1953  1.5199
 8501SOL     OW36964   3.891   0.421   6.138 -0.1598  0.9630  0.2907
 8501SOL    HW136965   3.895   0.390   6.048 -0.8083 -1.1428  0.9793
 8501SOL    HW236966   3.816   0.479   6.126  0.2816  1.4382 -0.1218
 8502SOL     OW36967   1.682   3.114   5.269  0.2642 -0.3022  0.1005
 8502SOL    HW136968   1.593   3.104   5.237 -0.3206  2.5469  0.8220
 8502SOL    HW236969   1.671   3.118   5.364  2.7690 -1.0465  0.4267
 8503SOL     OW36970   2.331   1.556   4.526  0.5096 -0.5773  0.7135
 8503SOL    HW136971   2.247   1.574   4.483  1.2530  3.6535  1.0887
 8503SOL    HW236972   2.386   1.563   4.448  0.8832  2.0110  1.1993
 8504SOL     OW36973   2.671   1.487  14.750  0.4984  0.8507  0.2605
 8504SOL    HW136974   2.628   1.437  14.681  1.1992 -0.2957  0.6426
 8504SOL    HW236975   2.760   1.483  14.716 -0.1226  0.9676 -1.3676
 8505SOL     OW36976   3.281   2.702   3.814 -0.1721  0.1698 -0.3442
 8505SOL    HW136977   3.275   2.608   3.793 -0.0887  0.8855 -3.5599
 8505SOL    HW236978   3.200   2.733   3.774 -0.1624  0.5672 -0.0469
 8506SOL     OW36979   1.862   4.667   9.686 -0.2246 -0.2946  0.2204
 8506SOL    HW136980   1.827   4.683   9.774  0.0627 -0.9671  0.4572
 8506SOL    HW236981   1.843   4.574   9.680 -0.9481 -0.0714 -0.7720
 8507SOL     OW36982   2.640   1.029   4.695 -0.2171 -0.1789  0.3025
 8507SOL    HW136983   2.725   0.999   4.725  1.3042  1.9499 -1.8841
 8507SOL    HW236984   2.611   1.070   4.777 -0.2329 -2.0273  1.2180
 8508SOL     OW36985   3.426   1.736  13.033 -0.0880  0.2117 -0.3637
 8508SOL    HW136986   3.359   1.679  12.995  0.1441  0.9773 -1.9241
 8508SOL    HW236987   3.367   1.805  13.066  0.2110 -0.3996  1.4457
 8509SOL     OW36988   3.728   3.560   2.892  0.7568 -0.0330  0.8440
 8509SOL    HW136989   3.663   3.562   2.822 -0.2542 -0.4862  1.7757
 8509SOL    HW236990   3.805   3.587   2.841  2.7569 -2.5149  2.5787
 8510SOL     OW36991   1.534   2.573   6.003 -0.3180 -0.0699 -0.3534
 8510SOL    HW136992   1.460   2.584   6.063 -0.7100 -0.4465 -0.7729
 8510SOL    HW236993   1.574   2.504   6.057 -0.7480 -0.5115 -0.6004
 8511SOL     OW36994   1.652   1.985   4.573 -0.3748  0.1534  0.2385
 8511SOL    HW136995   1.652   1.966   4.479  0.0894 -0.3040  0.3324
 8511SOL    HW236996   1.560   2.007   4.588  0.0275  2.5491 -0.6548
 8512SOL     OW36997   0.563   4.187   9.405 -0.2287 -0.2224 -0.5365
 8512SOL    HW136998   0.522   4.147   9.328  0.3661  0.0581 -1.0041
 8512SOL    HW236999   0.557   4.280   9.381 -2.3731 -0.3339 -0.4246
 8513SOL     OW37000   2.999   1.666   7.827  0.4241 -0.2040 -0.5928
 8513SOL    HW137001   2.989   1.750   7.783 -1.7638 -0.8118 -1.2586
 8513SOL    HW237002   2.914   1.622   7.835 -0.6398  1.9742  0.2477
 8514SOL     OW37003   3.595   3.042   8.660 -0.2012 -0.0847 -0.1686
 8514SOL    HW137004   3.564   3.133   8.665  2.1901  0.6340  1.3595
 8514SOL    HW237005   3.645   3.042   8.579 -0.6313  4.5182 -0.4390
 8515SOL     OW37006   2.439   3.635   7.162  0.4431 -0.3438  0.2524
 8515SOL    HW137007   2.398   3.617   7.247  1.2562 -1.6993  0.3573
 8515SOL    HW237008   2.453   3.729   7.157 -0.6813 -0.0467  2.7467
 8516SOL     OW37009   0.085   4.184   3.135  0.4224 -0.4266 -0.6547
 8516SOL    HW137010   0.006   4.236   3.123  0.2604 -0.4202  0.4587
 8516SOL    HW237011   0.138   4.216   3.062  1.9641  1.5339  1.2847
 8517SOL     OW37012   1.955   0.828   9.014  0.2808  0.3489 -0.4912
 8517SOL    HW137013   2.007   0.834   8.934  0.3740  0.5577 -0.4134
 8517SOL    HW237014   2.006   0.882   9.074  0.7668 -0.2656 -0.3464
 8518SOL     OW37015   2.268   0.207   8.621 -0.0508 -0.0996 -0.4371
 8518SOL    HW137016   2.191   0.165   8.660  0.1954 -3.1172 -3.1908
 8518SOL    HW237017   2.297   0.272   8.685 -1.0488 -1.3694  1.3251
 8519SOL     OW37018   1.762   0.222  17.606 -0.2641  0.5643 -0.6889
 8519SOL    HW137019   1.829   0.288  17.590 -1.0173  1.2302 -1.0754
 8519SOL    HW237020   1.742   0.246   0.003 -1.4513 -0.4414 -0.6746
 8520SOL     OW37021   3.285   2.909   6.302 -0.0368  0.1383 -0.0429
 8520SOL    HW137022   3.286   2.826   6.253  2.3466 -0.4842  1.0394
 8520SOL    HW237023   3.257   2.963   6.229 -0.7132 -3.2568 -2.3126
 8521SOL     OW37024   0.019   4.300   2.147  0.1575  0.0126  0.2184
 8521SOL    HW137025   4.661   4.278   2.193 -1.5072  1.6457 -1.9949
 8521SOL    HW237026   0.018   4.232   2.080 -0.3359  1.0130 -0.7870
 8522SOL     OW37027   3.493   3.571  15.179 -0.2375 -0.2959  0.3062
 8522SOL    HW137028   3.417   3.586  15.123  0.1097 -0.6621 -0.2590
 8522SOL    HW237029   3.455   3.523  15.253 -2.1927 -0.0348 -0.5330
 8523SOL     OW37030   1.218   0.280  11.297  0.2254 -0.2119 -0.2481
 8523SOL    HW137031   1.206   0.257  11.205 -0.0612  0.9722 -0.5115
 8523SOL    HW237032   1.129   0.277  11.330 -0.6596 -1.4065 -2.7319
 8524SOL     OW37033   3.307   1.439  13.960  0.0101 -0.0332  0.0411
 8524SOL    HW137034   3.382   1.412  13.906  0.3404 -0.4909  0.7299
 8524SOL    HW237035   3.248   1.485  13.900  0.4349 -0.5762 -0.8046
 8525SOL     OW37036   0.730   0.150   5.980  0.0262  0.2929 -0.1859
 8525SOL    HW137037   0.675   0.170   5.904  0.7938 -1.6761 -1.2653
 8525SOL    HW237038   0.730   0.055   5.996  1.1552  0.7501  2.5582
 8526SOL     OW37039   2.975   2.015  16.369 -0.2075  0.2426  0.4574
 8526SOL    HW137040   3.033   2.087  16.394 -0.2577  0.9954 -1.6187
 8526SOL    HW237041   2.928   2.051  16.294  1.5122  2.7745  0.5791
 8527SOL     OW37042   0.388   1.709   7.384 -0.2383 -0.0649 -0.0703
 8527SOL    HW137043   0.361   1.668   7.467  3.7019  0.2352  1.3554
 8527SOL    HW237044   0.475   1.735   7.413 -0.4059  0.8865 -0.4366
 8528SOL     OW37045   2.749   3.551   4.226  0.2164 -0.3560  0.6545
 8528SOL    HW137046   2.770   3.458   4.217 -1.9018 -0.8622  0.9757
 8528SOL    HW237047   2.707   3.554   4.312 -1.6972  0.9957 -0.3300
 8529SOL     OW37048   4.074   2.798   2.139  0.3992  0.1575 -0.1629
 8529SOL    HW137049   4.064   2.800   2.043  1.1674  0.2745 -0.2478
 8529SOL    HW237050   4.047   2.886   2.162 -3.2997 -1.2049  0.6560
 8530SOL     OW37051   0.882   1.249   4.423 -0.2064 -0.1953 -0.4958
 8530SOL    HW137052   0.955   1.194   4.453  0.5997  1.4632  0.6031
 8530SOL    HW237053   0.886   1.323   4.484 -2.2233  0.7615 -1.5488
 8531SOL     OW37054   4.579   1.739   7.340  0.1612 -0.0827 -0.4278
 8531SOL    HW137055   4.610   1.685   7.266  1.6554  1.3928 -0.8777
 8531SOL    HW237056   4.665   1.747   7.381 -0.0414 -0.2721  0.0391
 8532SOL     OW37057   2.628   1.243   5.299  0.4460 -0.2575 -0.5180
 8532SOL    HW137058   2.589   1.274   5.218  0.1008  0.8260  0.0620
 8532SOL    HW237059   2.714   1.284   5.294  0.7882 -0.8829  0.0897
 8533SOL     OW37060   1.074   1.462   9.203  0.8938  0.0194  0.5673
 8533SOL    HW137061   1.008   1.522   9.166  2.8070 -0.0968 -3.0091
 8533SOL    HW237062   1.022   1.414   9.267  0.6359 -0.8874 -0.3188
 8534SOL     OW37063   1.606   2.678   4.603 -0.2556 -0.0685 -0.0065
 8534SOL    HW137064   1.675   2.729   4.559 -0.9108 -2.0170 -3.2785
 8534SOL    HW237065   1.550   2.750   4.631 -0.8570  0.0091 -1.3903
 8535SOL     OW37066   4.634   2.341  16.194 -0.0875  0.1058  0.6273
 8535SOL    HW137067   4.706   2.328  16.133 -1.3465  2.2427 -1.3197
 8535SOL    HW237068   4.563   2.354  16.131  0.8282  0.7709 -0.2669
 8536SOL     OW37069   4.184   3.639  12.020 -0.2147  0.0152  0.3662
 8536SOL    HW137070   4.113   3.585  11.986 -1.0748 -0.2483  2.6202
 8536SOL    HW237071   4.192   3.692  11.940  2.2629 -0.3844  0.3628
 8537SOL     OW37072   0.340   3.634  16.949  0.2235 -0.7155 -0.3235
 8537SOL    HW137073   0.435   3.639  16.963  0.0440 -1.9570  1.2302
 8537SOL    HW237074   0.303   3.647  17.036 -1.0670  0.4913 -1.0379
 8538SOL     OW37075   3.892   3.383   2.157 -0.2915 -0.4058  0.0625
 8538SOL    HW137076   3.929   3.465   2.124 -0.7290 -1.2207 -2.4403
 8538SOL    HW237077   3.812   3.414   2.199 -0.9038 -2.3777  0.3657
 8539SOL     OW37078   4.643   3.499   0.365  0.3229 -0.2074 -0.2118
 8539SOL    HW137079   4.648   3.581   0.315  2.1575  0.3484  0.8772
 8539SOL    HW237080   4.703   3.518   0.437  0.1607 -0.8447  0.0950
 8540SOL     OW37081   2.313   0.505   7.451 -0.3329 -0.5737  0.4116
 8540SOL    HW137082   2.409   0.499   7.459 -0.2945  0.5707  0.8825
 8540SOL    HW237083   2.282   0.474   7.536 -2.6240  1.2317  0.2346
 8541SOL     OW37084   3.529   3.743   2.227 -0.6782 -0.0914  0.4700
 8541SOL    HW137085   3.508   3.834   2.248 -0.5079  0.0439  0.0669
 8541SOL    HW237086   3.447   3.696   2.243 -1.4729  0.5660 -1.5626
 8542SOL     OW37087   4.465   1.292   5.913  0.2425 -0.0622  0.2547
 8542SOL    HW137088   4.543   1.329   5.955 -0.3503  0.9444  0.4496
 8542SOL    HW237089   4.418   1.366   5.875  0.3586 -1.5037 -2.6824
 8543SOL     OW37090   1.686   3.159   1.312 -0.7990 -0.4252  0.4256
 8543SOL    HW137091   1.595   3.187   1.317 -0.4822  0.6310  0.2009
 8543SOL    HW237092   1.680   3.077   1.361  2.5213  0.0326  1.6503
 8544SOL     OW37093   1.920   2.404   5.332  0.0063  0.2572 -0.6761
 8544SOL    HW137094   1.986   2.378   5.267 -0.6339  2.4577 -2.1986
 8544SOL    HW237095   1.966   2.399   5.416 -3.2370  0.7198  1.1204
 8545SOL     OW37096   3.631   1.717   5.369 -0.3884  0.2178 -0.0445
 8545SOL    HW137097   3.706   1.712   5.428  0.4628  0.6556 -1.0874
 8545SOL    HW237098   3.670   1.705   5.282  0.4645 -0.8179  0.4778
 8546SOL     OW37099   0.705   0.449   7.831 -0.4193 -0.0324 -0.1631
 8546SOL    HW137100   0.642   0.466   7.901 -0.4910  2.2032 -0.7508
 8546SOL    HW237101   0.742   0.365   7.859 -0.6889 -0.8116 -2.1170
 8547SOL     OW37102   1.426   1.924  16.480 -0.0420 -0.3163 -0.1508
 8547SOL    HW137103   1.486   1.925  16.406  0.3782 -0.2106  0.1931
 8547SOL    HW237104   1.352   1.971  16.441 -1.4809 -0.8458  1.9192
 8548SOL     OW37105   4.511   2.996  13.170 -0.2481 -0.5097  0.0264
 8548SOL    HW137106   4.598   3.033  13.156  0.3650 -2.6246 -1.6610
 8548SOL    HW237107   4.537   2.915  13.214  1.6833 -0.2143 -0.5588
 8549SOL     OW37108   1.056   2.149   3.688 -0.3248 -0.1988 -0.0699
 8549SOL    HW137109   1.092   2.237   3.693  0.5014 -0.5357 -0.1866
 8549SOL    HW237110   0.981   2.171   3.632  0.7316  1.0359 -0.9870
 8550SOL     OW37111   0.815   1.337   8.136  0.3571  0.6502 -0.5091
 8550SOL    HW137112   0.831   1.244   8.148  1.3637  0.6298 -2.0290
 8550SOL    HW237113   0.907   1.365   8.135  0.5408 -0.0701 -3.6996
 8551SOL     OW37114   3.063   0.343   2.063  0.0521  0.4392 -0.2660
 8551SOL    HW137115   3.131   0.402   2.031  0.0647  0.1557 -0.7558
 8551SOL    HW237116   3.023   0.319   1.980 -3.6625  0.7834  1.4120
 8552SOL     OW37117   1.173   0.407  12.819 -0.5820 -0.2117  0.6976
 8552SOL    HW137118   1.165   0.501  12.829  0.5668 -0.0168 -0.2459
 8552SOL    HW237119   1.183   0.372  12.907  2.0359 -0.1497  0.4270
 8553SOL     OW37120   1.129   3.560   8.648 -0.4171  0.1228 -0.4344
 8553SOL    HW137121   1.046   3.513   8.656  0.6755 -1.5999  0.9243
 8553SOL    HW237122   1.134   3.601   8.734 -0.3677 -4.1095  1.5915
 8554SOL     OW37123   0.393   0.758   8.910 -0.1323 -0.2689  0.2431
 8554SOL    HW137124   0.433   0.757   8.997 -0.9293  2.3788  0.6290
 8554SOL    HW237125   0.442   0.822   8.857  0.3729 -0.3047  0.6640
 8555SOL     OW37126   2.194   0.198  17.036  0.8635  0.8849 -0.2216
 8555SOL    HW137127   2.253   0.123  17.040  0.3854  0.4967 -0.4375
 8555SOL    HW237128   2.201   0.230  16.946  1.7329  2.3776  0.3824
 8556SOL     OW37129   0.834   1.032   6.170  0.2625  0.0063  0.2995
 8556SOL    HW137130   0.778   1.002   6.099 -0.5959 -0.0922  1.0205
 8556SOL    HW237131   0.808   0.985   6.249 -1.3666  0.1819 -0.1426
 8557SOL     OW37132   0.791   3.032   8.177 -0.8492 -0.1334 -0.1260
 8557SOL    HW137133   0.730   2.994   8.240  1.4767 -4.6293 -0.6280
 8557SOL    HW237134   0.870   2.980   8.190 -1.9497 -1.8425 -0.2562
 8558SOL     OW37135   2.349   2.676   6.022  0.3921 -0.5159 -0.1889
 8558SOL    HW137136   2.262   2.693   6.059  0.8811  2.2157 -0.2367
 8558SOL    HW237137   2.386   2.618   6.088  0.5673  0.8280  0.9128
 8559SOL     OW37138   2.656   1.817   6.692  0.0382 -0.3259 -0.5752
 8559SOL    HW137139   2.714   1.883   6.730  2.7260 -0.9852 -3.5763
 8559SOL    HW237140   2.708   1.790   6.616  0.2198  1.3514 -1.0509
 8560SOL     OW37141   4.451   3.223   7.024  0.4960 -0.3595  0.5235
 8560SOL    HW137142   4.524   3.164   7.044 -1.8563 -3.2649  0.4916
 8560SOL    HW237143   4.479   3.302   7.070 -0.5810  1.1444 -1.3878
 8561SOL     OW37144   0.266   0.851   9.330 -0.3420 -0.1445 -0.4474
 8561SOL    HW137145   0.185   0.896   9.354 -0.2620  0.5063 -1.4404
 8561SOL    HW237146   0.259   0.788   9.402  1.1627  2.0367  1.5851
 8562SOL     OW37147   1.154   0.083   4.980 -0.1157  0.3026 -0.2876
 8562SOL    HW137148   1.198   0.113   4.901  3.1058  0.6250  1.6117
 8562SOL    HW237149   1.070   0.120   4.954  0.1241  2.2999  1.7172
 8563SOL     OW37150   2.947   3.961  14.066  0.4320 -0.3868 -0.7604
 8563SOL    HW137151   3.036   3.927  14.082  0.5117  0.0627 -0.2478
 8563SOL    HW237152   2.977   4.041  14.024  0.5751  0.1203  0.2971
 8564SOL     OW37153   4.070   3.037   0.035  0.0770  0.1413 -0.4950
 8564SOL    HW137154   4.135   2.994   0.090  0.1947  0.6879 -0.2172
 8564SOL    HW237155   4.059   3.117   0.086  0.9575  0.3334 -0.6029
 8565SOL     OW37156   1.360   0.899  15.846 -0.0719 -0.0344  0.3153
 8565SOL    HW137157   1.272   0.899  15.808  0.2076  0.7904 -0.3181
 8565SOL    HW237158   1.389   0.990  15.837  1.8861 -0.7014 -0.1010
 8566SOL     OW37159   1.999   3.088  13.161 -0.2358 -0.1190  0.2925
 8566SOL    HW137160   2.017   3.172  13.204  3.9713 -1.0263  0.2418
 8566SOL    HW237161   1.903   3.083  13.158 -0.3004  1.2956  0.0729
 8567SOL     OW37162   0.086   2.979   4.884  0.4315 -0.0508  0.4810
 8567SOL    HW137163   0.178   2.981   4.859 -0.1816 -2.3349 -1.9521
 8567SOL    HW237164   0.045   2.947   4.803 -0.1213  2.3074 -0.1958
 8568SOL     OW37165   2.878   0.327   1.138  0.0532 -0.0732  0.0067
 8568SOL    HW137166   2.962   0.291   1.108 -0.6707 -0.5688 -1.4503
 8568SOL    HW237167   2.859   0.366   1.053 -1.0088  1.7510  1.0916
 8569SOL     OW37168   1.028   0.507   2.767 -0.3134  0.5879 -0.2693
 8569SOL    HW137169   0.948   0.553   2.792 -0.4569  1.0069 -1.5161
 8569SOL    HW237170   1.089   0.576   2.795 -0.3943  0.0918  1.1375
 8570SOL     OW37171   2.077   1.490   9.614  0.4811  0.6053  0.8193
 8570SOL    HW137172   2.002   1.461   9.563  0.4799 -0.5223  1.4672
 8570SOL    HW237173   2.110   1.568   9.568  1.3669 -1.0153 -1.2940
 8571SOL     OW37174   3.144   2.571  11.629  0.1649 -0.2899 -0.0384
 8571SOL    HW137175   3.125   2.542  11.718  1.4083 -2.0197 -0.3428
 8571SOL    HW237176   3.137   2.495  11.571  1.1323  0.5554 -1.2677
 8572SOL     OW37177   0.515   3.812   4.878 -0.4106 -0.1990 -0.1557
 8572SOL    HW137178   0.449   3.859   4.827  0.8309 -0.0652 -1.6629
 8572SOL    HW237179   0.587   3.873   4.894 -0.3124 -0.2904 -0.2502
 8573SOL     OW37180   3.201   0.675   4.311  0.2200 -0.2327 -0.1612
 8573SOL    HW137181   3.166   0.608   4.252 -1.1488 -0.0194  0.4220
 8573SOL    HW237182   3.272   0.704   4.253 -0.9406  0.2152 -1.3590
 8574SOL     OW37183   0.096   0.287   7.656 -0.3070 -0.0079  0.3205
 8574SOL    HW137184   0.070   0.216   7.715  1.4753 -0.3687  0.6704
 8574SOL    HW237185   0.101   0.365   7.711  0.0141 -0.8300  1.4366
 8575SOL     OW37186   4.350   1.603  13.092 -0.3367  0.5363  0.4654
 8575SOL    HW137187   4.289   1.664  13.133  0.2116  1.3876  0.0119
 8575SOL    HW237188   4.347   1.528  13.152 -1.2777 -0.4971 -0.8607
 8576SOL     OW37189   4.275   3.630   9.252 -0.1994  0.3908 -0.3755
 8576SOL    HW137190   4.343   3.678   9.205  1.7932 -3.5304 -1.4796
 8576SOL    HW237191   4.279   3.550   9.200 -1.7996  0.4231 -0.5606
 8577SOL     OW37192   3.127   2.772   7.517 -0.1340 -0.5297 -0.3011
 8577SOL    HW137193   3.055   2.709   7.524 -0.7601  0.1019 -0.9589
 8577SOL    HW237194   3.127   2.776   7.421  2.9171  1.0929 -0.2365
 8578SOL     OW37195   2.799   3.927   2.506 -0.0747 -0.0370  0.2719
 8578SOL    HW137196   2.852   3.980   2.446  1.2595 -0.4542  1.0704
 8578SOL    HW237197   2.867   3.861   2.519 -0.4567 -0.4361  0.2403
 8579SOL     OW37198   4.543   0.402   8.339  0.0689  0.4494  0.5356
 8579SOL    HW137199   4.569   0.422   8.429 -0.7694 -0.3537  0.9615
 8579SOL    HW237200   4.571   0.483   8.295  2.7096 -0.4035  0.6656
 8580SOL     OW37201   0.895   4.062   1.427 -0.1789 -0.6790  0.0639
 8580SOL    HW137202   0.969   4.048   1.368  0.3560  0.9555  0.3425
 8580SOL    HW237203   0.872   4.151   1.399  0.6609 -0.8772 -1.2294
 8581SOL     OW37204   3.600   1.973   1.705 -0.0811  0.2324  0.4592
 8581SOL    HW137205   3.538   1.922   1.758  0.7421  0.9424  2.1109
 8581SOL    HW237206   3.581   2.060   1.740  2.0001  0.8076  0.1690
 8582SOL     OW37207   2.456   0.993   9.103  0.0053 -0.2313 -0.5506
 8582SOL    HW137208   2.363   0.972   9.111  0.3658 -1.3543  0.8506
 8582SOL    HW237209   2.458   1.089   9.101  0.9191 -0.2166  0.6484
 8583SOL     OW37210   4.191   1.678   9.390  0.1454  0.2492  0.1098
 8583SOL    HW137211   4.205   1.741   9.319  1.3201 -0.0738  0.0495
 8583SOL    HW237212   4.158   1.736   9.459 -1.0324  0.0229 -0.2685
 8584SOL     OW37213   2.006   2.038  12.288 -0.0007  0.5251 -0.7431
 8584SOL    HW137214   2.078   2.053  12.227 -0.3900 -1.6477 -1.7068
 8584SOL    HW237215   1.967   1.957  12.257  2.1821 -1.5180  1.8592
 8585SOL     OW37216   0.242   2.671   3.040  0.1659 -0.2941  0.3674
 8585SOL    HW137217   0.228   2.724   2.961  0.1737 -2.8198 -1.3260
 8585SOL    HW237218   0.263   2.586   3.002  0.3187  0.5849 -1.5396
 8586SOL     OW37219   0.387   0.696   1.958 -0.2229 -0.6009  0.2466
 8586SOL    HW137220   0.326   0.680   2.030 -1.3817  2.0086 -0.1682
 8586SOL    HW237221   0.461   0.648   1.996 -0.1816 -1.0275 -0.3738
 8587SOL     OW37222   3.081   4.474   3.699 -0.2446 -0.0755  0.2278
 8587SOL    HW137223   3.169   4.502   3.677 -0.1740 -1.8709 -1.7181
 8587SOL    HW237224   3.100   4.381   3.711  0.1533 -0.1031 -0.6583
 8588SOL     OW37225   1.275   4.065   3.899  0.0299 -0.5955 -0.0524
 8588SOL    HW137226   1.280   3.988   3.842  0.3294 -0.2522 -0.4821
 8588SOL    HW237227   1.276   4.134   3.833 -0.5085 -0.2239  0.3233
 8589SOL     OW37228   1.156   2.580  14.720  0.1153 -0.2800  0.2787
 8589SOL    HW137229   1.136   2.608  14.631 -0.7620 -1.8814 -0.0251
 8589SOL    HW237230   1.240   2.534  14.718  0.3137 -0.0379  2.4024
 8590SOL     OW37231   4.271   0.058   8.640 -0.0340  0.5565 -0.3906
 8590SOL    HW137232   4.238   0.107   8.716 -0.2302  0.6809 -0.5575
 8590SOL    HW237233   4.359   0.095   8.627  0.0020  0.7946  0.5356
 8591SOL     OW37234   4.484   3.886   0.791 -0.1013  0.0991 -0.2765
 8591SOL    HW137235   4.569   3.929   0.790 -0.3807  0.5970 -1.8155
 8591SOL    HW237236   4.526   3.800   0.800 -0.9355 -0.2235  0.5601
 8592SOL     OW37237   3.595   3.398   4.111 -0.4352 -0.6627 -0.1604
 8592SOL    HW137238   3.582   3.485   4.075  0.7662  0.5486  2.3173
 8592SOL    HW237239   3.688   3.381   4.099  0.2574  2.2386  1.0901
 8593SOL     OW37240   1.927   4.461   3.905 -0.0333 -0.0647  0.0786
 8593SOL    HW137241   1.922   4.369   3.930 -0.0992  0.0509  0.4935
 8593SOL    HW237242   1.928   4.452   3.810 -0.3493 -1.0235  0.1625
 8594SOL     OW37243   2.096   3.140   8.443 -0.3174 -0.2139  0.0606
 8594SOL    HW137244   2.015   3.183   8.472 -1.3448 -0.9050 -1.7706
 8594SOL    HW237245   2.159   3.211   8.430 -0.9346  0.5302  1.0730
 8595SOL     OW37246   1.848   4.535   9.011  0.2941 -0.2385 -0.2191
 8595SOL    HW137247   1.908   4.557   9.083  0.0724 -0.1444 -0.0643
 8595SOL    HW237248   1.766   4.570   9.045  1.0234  1.6988 -0.4655
 8596SOL     OW37249   0.096   0.771  17.302  0.3111  0.2316  0.1411
 8596SOL    HW137250   0.015   0.740  17.344  0.4543 -0.4160 -0.0577
 8596SOL    HW237251   0.157   0.744  17.370 -1.4652 -1.8271  0.9153
 8597SOL     OW37252   0.814   0.900   9.739 -0.2766  0.0349  0.3695
 8597SOL    HW137253   0.803   0.861   9.652  0.4764  1.2897 -0.2966
 8597SOL    HW237254   0.724   0.912   9.771 -0.7053 -0.3381 -0.6930
 8598SOL     OW37255   0.186   3.228   5.804  0.8586 -0.5715 -1.1419
 8598SOL    HW137256   0.121   3.223   5.875  0.1271 -1.7789 -1.8931
 8598SOL    HW237257   0.197   3.323   5.801 -0.7196 -0.2964  1.4966
 8599SOL     OW37258   0.345   0.413  10.976 -0.0681  0.1934 -0.5567
 8599SOL    HW137259   0.328   0.430  11.068  1.3172  0.1645 -0.3026
 8599SOL    HW237260   0.431   0.372  10.967  0.6111  1.6355 -0.5176
 8600SOL     OW37261   1.875   0.509   5.755 -0.0116 -0.4280  0.0592
 8600SOL    HW137262   1.833   0.438   5.705  0.1512 -0.6062  0.1750
 8600SOL    HW237263   1.806   0.521   5.820  0.7113  0.3071  0.6878
 8601SOL     OW37264   2.549   2.047  11.306  0.8921 -0.0585  0.6145
 8601SOL    HW137265   2.595   1.985  11.362 -1.0631 -0.2256  2.0238
 8601SOL    HW237266   2.624   2.095  11.271 -0.2705  2.5189  1.7395
 8602SOL     OW37267   0.331   1.135   4.467 -0.7011  0.3216  0.2487
 8602SOL    HW137268   0.366   1.187   4.394  1.4053 -1.3442  0.0711
 8602SOL    HW237269   0.244   1.171   4.488 -1.1534 -0.7578  0.2068
 8603SOL     OW37270   2.874   1.635   2.242  0.0218 -0.4022  0.0420
 8603SOL    HW137271   2.934   1.708   2.226  0.4050 -1.1471 -1.9567
 8603SOL    HW237272   2.791   1.674   2.216  0.1641  0.5921  1.0492
 8604SOL     OW37273   0.730   4.707  14.620  0.4549  0.0313 -0.2516
 8604SOL    HW137274   0.708   0.040  14.694 -0.4720  1.8333 -1.9081
 8604SOL    HW237275   0.825   0.000  14.623 -0.0843  2.7439  1.5603
 8605SOL     OW37276   2.459   2.725   4.580  0.9083 -0.6006  0.1004
 8605SOL    HW137277   2.418   2.639   4.586 -0.4301 -0.0624 -1.3744
 8605SOL    HW237278   2.520   2.696   4.649  1.1652  0.7069  0.4123
 8606SOL     OW37279   4.007   2.035   4.086  0.5164  0.5254 -0.3657
 8606SOL    HW137280   4.085   1.983   4.067  0.5129  0.7230 -0.9245
 8606SOL    HW237281   4.012   2.103   4.019 -0.1593  0.2856 -0.6627
 8607SOL     OW37282   2.881   2.219  16.193  0.1130 -0.4591 -0.0428
 8607SOL    HW137283   2.926   2.262  16.121 -1.2843  0.4853 -0.3575
 8607SOL    HW237284   2.873   2.300  16.243  0.4755  0.3623 -1.3176
 8608SOL     OW37285   4.029   3.626   0.998 -0.1020  0.2392 -0.0923
 8608SOL    HW137286   3.997   3.602   0.911 -0.4611  1.4272 -0.2939
 8608SOL    HW237287   3.947   3.655   1.036 -0.3086  0.7341 -0.9149
 8609SOL     OW37288   3.068   2.591  13.534 -0.6435  0.1083 -0.4873
 8609SOL    HW137289   3.069   2.567  13.627 -1.0020  1.4171 -0.1462
 8609SOL    HW237290   3.136   2.658  13.530 -0.8432  0.2675 -1.1493
 8610SOL     OW37291   2.340   0.107   6.531 -0.6660  0.2792 -0.1564
 8610SOL    HW137292   2.383   0.077   6.611  0.3626 -1.3641 -1.3310
 8610SOL    HW237293   2.416   0.099   6.473 -0.8244 -1.8798 -0.0420
 8611SOL     OW37294   4.300   2.618  10.503 -0.9992 -0.2714 -0.5746
 8611SOL    HW137295   4.367   2.553  10.523 -1.1832 -0.4444 -0.5206
 8611SOL    HW237296   4.346   2.699  10.481  2.2547 -1.1265  3.0383
 8612SOL     OW37297   1.953   1.315   4.507  0.3602 -0.3600 -0.1328
 8612SOL    HW137298   2.020   1.311   4.575 -0.3272  1.3785  0.6477
 8612SOL    HW237299   1.979   1.251   4.440  1.6140  1.3084 -1.2402
 8613SOL     OW37300   0.210   3.389   7.670  0.1935 -0.3275  0.2526
 8613SOL    HW137301   0.266   3.324   7.714  0.1887 -0.0997  0.5867
 8613SOL    HW237302   0.267   3.424   7.601  1.5030  1.5683  2.2960
 8614SOL     OW37303   2.247   4.024   1.492 -0.2689  0.2514 -0.0285
 8614SOL    HW137304   2.303   3.947   1.479  1.2709  1.3657  0.0148
 8614SOL    HW237305   2.276   4.067   1.573  1.6709 -2.0616  0.5061
 8615SOL     OW37306   2.787   3.894   6.165 -1.3208  0.3808  0.0364
 8615SOL    HW137307   2.769   3.987   6.151  0.6605  0.9478  1.2205
 8615SOL    HW237308   2.833   3.911   6.248 -2.6549 -0.4358  0.9465
 8616SOL     OW37309   2.460   1.538   3.928  0.5998 -0.1084  0.0022
 8616SOL    HW137310   2.401   1.611   3.944  1.1728  0.1145  1.0733
 8616SOL    HW237311   2.397   1.471   3.955  1.4789 -0.8709  0.1570
 8617SOL     OW37312   1.018   0.188   0.721 -0.1425 -0.4196 -0.1138
 8617SOL    HW137313   1.060   0.247   0.658 -0.3936  0.0567  0.1692
 8617SOL    HW237314   1.093   0.171   0.779  0.8062 -0.7023 -1.4225
 8618SOL     OW37315   4.677   0.687  13.649  0.0836  0.1755 -0.1610
 8618SOL    HW137316   4.672   0.594  13.671 -0.5136  0.6696  1.8259
 8618SOL    HW237317   4.596   0.708  13.695 -0.8295 -3.3152 -0.1944
 8619SOL     OW37318   3.045   0.422   4.503  0.2353  0.0227  0.1759
 8619SOL    HW137319   3.072   0.339   4.542 -1.4572  0.4077  2.1804
 8619SOL    HW237320   3.095   0.425   4.421 -0.5972  1.0864 -0.2924
 8620SOL     OW37321   3.836   2.929  12.548 -0.7187 -0.0890 -0.2127
 8620SOL    HW137322   3.823   2.836  12.565 -1.4820  0.3251  1.5539
 8620SOL    HW237323   3.916   2.935  12.496 -0.6292 -0.5400 -0.1289
 8621SOL     OW37324   4.479   0.665   7.676  0.1236 -0.6783 -0.0764
 8621SOL    HW137325   4.471   0.599   7.607  0.6913 -0.4802 -0.3301
 8621SOL    HW237326   4.492   0.737   7.614  1.8592  0.9557  2.1888
 8622SOL     OW37327   2.337   0.705  12.879  0.4066 -0.2989 -0.0819
 8622SOL    HW137328   2.374   0.709  12.791  1.0379 -1.7685  0.1138
 8622SOL    HW237329   2.261   0.762  12.864 -0.0239 -0.1600  2.6704
 8623SOL     OW37330   1.819   2.652   2.328  0.0256  0.1549 -0.0832
 8623SOL    HW137331   1.884   2.581   2.326  0.2281  0.3974 -1.9239
 8623SOL    HW237332   1.865   2.715   2.273  0.2388  1.0765  1.1342
 8624SOL     OW37333   3.334   2.138   1.680  0.4633 -0.4393  0.4296
 8624SOL    HW137334   3.363   2.146   1.589 -2.6332 -0.0915 -0.5179
 8624SOL    HW237335   3.335   2.231   1.704  1.1139 -0.1953 -0.5229
 8625SOL     OW37336   2.092   0.394   9.301  0.2058 -0.4037 -0.1932
 8625SOL    HW137337   2.148   0.397   9.379  0.1166  0.9633 -0.1825
 8625SOL    HW237338   2.058   0.305   9.306 -0.4404 -0.0924  0.9698
 8626SOL     OW37339   2.222   0.874  12.065  0.3175 -0.6151 -0.1785
 8626SOL    HW137340   2.289   0.824  12.019 -0.2845 -0.9325 -0.7038
 8626SOL    HW237341   2.270   0.922  12.132  1.5674 -1.9894 -0.0936
 8627SOL     OW37342   2.543   3.986   1.614  0.0185  0.3255  0.2420
 8627SOL    HW137343   2.479   4.046   1.653 -0.0272  2.1713 -2.6626
 8627SOL    HW237344   2.498   3.904   1.634 -0.6621  0.3466 -1.2324
 8628SOL     OW37345   1.016   0.612   3.786 -0.0944 -0.2517 -0.3680
 8628SOL    HW137346   1.108   0.592   3.802 -0.0096 -0.8917 -1.6644
 8628SOL    HW237347   1.008   0.642   3.695 -1.2739 -0.0576 -0.2052
 8629SOL     OW37348   2.315   4.649   1.113  0.1735  0.8483  0.5279
 8629SOL    HW137349   2.228   4.674   1.145 -0.8340 -0.8881 -0.8826
 8629SOL    HW237350   2.313   4.700   1.032  0.7176 -0.3111 -0.2015
 8630SOL     OW37351   3.358   3.078   4.576  0.6791  0.2839 -0.5317
 8630SOL    HW137352   3.279   3.132   4.578  0.3450 -0.0348 -4.7908
 8630SOL    HW237353   3.389   3.106   4.662 -3.1118  1.8734  0.3091
 8631SOL     OW37354   1.564   2.857  11.587  0.0713  0.4207  0.5502
 8631SOL    HW137355   1.551   2.921  11.657  0.8590  0.7409  0.4064
 8631SOL    HW237356   1.501   2.789  11.610  0.8364 -0.1706  0.8762
 8632SOL     OW37357   0.509   0.360   9.214 -0.1390  0.1272  0.2864
 8632SOL    HW137358   0.423   0.404   9.214  0.0434  0.4740  1.5654
 8632SOL    HW237359   0.475   0.275   9.188 -1.6107  0.8362 -0.1659
 8633SOL     OW37360   3.009   1.720  16.356  0.0087  0.3526  0.0676
 8633SOL    HW137361   3.099   1.750  16.367 -0.4283  1.6203  0.1566
 8633SOL    HW237362   2.970   1.805  16.374 -1.3702  0.1025 -1.7182
 8634SOL     OW37363   4.511   4.359   3.664 -0.0141 -0.2020 -0.4435
 8634SOL    HW137364   4.476   4.437   3.706 -1.1710 -1.0015  0.0934
 8634SOL    HW237365   4.543   4.407   3.587 -1.2528 -0.7151 -1.2785
 8635SOL     OW37366   1.412   1.037   3.791 -0.1084 -0.3400 -0.2706
 8635SOL    HW137367   1.316   1.038   3.795 -0.1288  0.5491 -1.0876
 8635SOL    HW237368   1.427   0.950   3.829 -0.6181 -0.5004 -0.4277
 8636SOL     OW37369   2.899   2.070   5.486  0.2959  0.0227  0.4037
 8636SOL    HW137370   2.856   2.046   5.568  2.1389 -0.4515  1.2366
 8636SOL    HW237371   2.822   2.075   5.429  0.7888  0.8542 -0.1990
 8637SOL     OW37372   1.888   2.466   8.089  0.0672  0.0517 -0.4930
 8637SOL    HW137373   1.916   2.458   8.180  0.1305  0.3319 -0.4891
 8637SOL    HW237374   1.879   2.374   8.061 -1.6424 -0.0065  0.2393
 8638SOL     OW37375   0.399   0.101   6.305 -0.1764 -0.4859  0.5107
 8638SOL    HW137376   0.464   0.136   6.245 -0.6694 -0.5879 -0.0849
 8638SOL    HW237377   0.440   0.128   6.387 -1.2461  0.6135  0.6823
 8639SOL     OW37378   2.965   0.228   0.758  0.2906 -0.1527  0.5626
 8639SOL    HW137379   2.877   0.191   0.764  0.0858 -0.3747 -3.7317
 8639SOL    HW237380   2.940   0.316   0.787 -0.8136 -0.4370  0.4826
 8640SOL     OW37381   4.053   2.305  15.835 -0.2823  0.0202 -0.1411
 8640SOL    HW137382   4.022   2.214  15.832 -1.6088  0.4842 -0.0389
 8640SOL    HW237383   4.006   2.344  15.762 -1.6635 -1.8544 -0.2493
 8641SOL     OW37384   0.547   2.102  10.893  0.4080 -0.2443 -0.0114
 8641SOL    HW137385   0.462   2.093  10.850  0.1328 -0.9134  0.6672
 8641SOL    HW237386   0.559   2.194  10.919 -0.6551  0.4045 -1.8447
 8642SOL     OW37387   0.435   4.164   2.825 -0.1436 -0.0945  0.4581
 8642SOL    HW137388   0.425   4.079   2.869  0.4650  0.2990  1.3448
 8642SOL    HW237389   0.406   4.139   2.737  2.8520 -2.7334  0.1707
 8643SOL     OW37390   3.704   2.514  16.466  0.0461  0.6623 -0.3064
 8643SOL    HW137391   3.691   2.478  16.378  0.3313 -1.9170  0.6923
 8643SOL    HW237392   3.615   2.516  16.502  0.6982 -1.8414  1.4037
 8644SOL     OW37393   2.416   2.608   1.648  0.1081  0.6509  0.1749
 8644SOL    HW137394   2.416   2.556   1.728 -0.2502 -0.2843 -0.4237
 8644SOL    HW237395   2.416   2.541   1.579  1.1581  1.8256 -0.9584
 8645SOL     OW37396   1.033   3.564   3.426  0.0346  0.0176  0.1451
 8645SOL    HW137397   0.975   3.575   3.350  2.8279  3.1992 -1.5434
 8645SOL    HW237398   1.073   3.651   3.428 -0.6589  0.3641 -1.1520
 8646SOL     OW37399   4.696   2.004  12.202 -0.5495 -0.2227  0.0765
 8646SOL    HW137400   0.030   1.953  12.260 -2.0940 -1.0176  0.8994
 8646SOL    HW237401   4.645   2.051  12.268  1.9323  0.4825  1.4740
 8647SOL     OW37402   4.176   2.902   5.908 -0.3723  0.1392  0.2401
 8647SOL    HW137403   4.120   2.861   5.841  0.5705 -1.5485  0.4721
 8647SOL    HW237404   4.106   2.923   5.970 -1.3191 -1.2976 -0.3305
 8648SOL     OW37405   0.615   0.805   9.526  0.1206  0.3235  0.3592
 8648SOL    HW137406   0.533   0.830   9.568 -0.6275 -0.5969 -0.5551
 8648SOL    HW237407   0.587   0.718   9.496  0.0199 -0.2601  2.1679
 8649SOL     OW37408   0.527   0.610  16.930 -0.0925 -0.1543  0.3471
 8649SOL    HW137409   0.515   0.684  16.989  1.2155 -0.6064  1.1662
 8649SOL    HW237410   0.599   0.559  16.966 -1.1594 -2.3675 -0.6162
 8650SOL     OW37411   1.212   2.440   8.174 -0.0235 -0.2579 -0.2349
 8650SOL    HW137412   1.193   2.532   8.193 -1.1606 -0.2823 -1.2202
 8650SOL    HW237413   1.231   2.421   8.266 -0.2079  1.8326  0.2355
 8651SOL     OW37414   1.916   1.142   8.831  0.8153 -0.3122 -0.6964
 8651SOL    HW137415   1.984   1.178   8.887  0.2106  2.4525 -1.7745
 8651SOL    HW237416   1.853   1.135   8.903  2.4932  1.1158  0.8964
 8652SOL     OW37417   1.345   0.583   4.435  0.2050 -0.1763  0.3827
 8652SOL    HW137418   1.363   0.561   4.344  1.4390 -1.8633  1.0262
 8652SOL    HW237419   1.258   0.623   4.431  0.2178 -0.0832  1.0148
 8653SOL     OW37420   2.314   1.018  12.636  0.0320  0.0431 -0.4904
 8653SOL    HW137421   2.286   0.937  12.593 -1.4271 -0.3085  1.1144
 8653SOL    HW237422   2.379   0.980  12.695  1.0342 -0.7306 -2.0818
 8654SOL     OW37423   3.521   2.548   5.275  0.1083 -0.0990 -0.1195
 8654SOL    HW137424   3.589   2.574   5.213  1.7953 -3.3968  0.3541
 8654SOL    HW237425   3.442   2.550   5.221  0.2212  0.6952 -0.2546
 8655SOL     OW37426   2.760   1.190  14.308  0.5136 -0.2086 -0.1181
 8655SOL    HW137427   2.671   1.195  14.274  0.6845  1.8701 -0.2468
 8655SOL    HW237428   2.788   1.281  14.309 -1.0188  0.2431  1.0950
 8656SOL     OW37429   2.275   0.398   7.705 -0.3535 -0.4008 -0.2954
 8656SOL    HW137430   2.180   0.402   7.690 -0.6146 -0.0174  1.5167
 8656SOL    HW237431   2.283   0.329   7.770  1.7838  0.5381  0.4468
 8657SOL     OW37432   2.110   4.448   3.377 -0.2909 -0.3950  0.6091
 8657SOL    HW137433   2.196   4.414   3.352 -0.5750  0.0434 -0.9878
 8657SOL    HW237434   2.063   4.367   3.362  1.5882 -0.9208 -2.5550
 8658SOL     OW37435   0.915   4.274   7.502  0.3589 -0.2280 -0.2542
 8658SOL    HW137436   1.007   4.247   7.499  0.2398 -0.5269 -1.0768
 8658SOL    HW237437   0.889   4.232   7.420 -0.1610 -0.3526 -0.0258
 8659SOL     OW37438   0.604   3.000   4.890  0.2230 -0.4198 -0.3237
 8659SOL    HW137439   0.687   3.045   4.903 -0.5061  1.3134 -1.7946
 8659SOL    HW237440   0.616   2.917   4.936 -0.8658 -1.5888 -2.1408
 8660SOL     OW37441   2.670   3.074   2.756  0.1649  0.7825 -0.3324
 8660SOL    HW137442   2.740   3.052   2.819 -0.3600 -1.9899 -0.7413
 8660SOL    HW237443   2.660   3.169   2.765  0.8252  0.9751 -1.7104
 8661SOL     OW37444   3.092   3.892   4.990  0.8836 -0.2225 -0.0266
 8661SOL    HW137445   3.120   3.983   4.975 -1.1424  0.8321  2.6913
 8661SOL    HW237446   2.999   3.908   5.005  0.7719 -1.2786  0.3879
 8662SOL     OW37447   4.486   3.336   6.353 -0.0120  0.1085  0.1498
 8662SOL    HW137448   4.505   3.428   6.371  1.4124  0.0590 -1.1516
 8662SOL    HW237449   4.526   3.294   6.429  0.9568  1.8040  0.5793
 8663SOL     OW37450   1.645   0.245   3.416 -0.4999 -0.1019 -0.3701
 8663SOL    HW137451   1.629   0.324   3.468 -0.1801  0.0334 -0.4796
 8663SOL    HW237452   1.740   0.237   3.421 -0.3971  1.8417  0.9716
 8664SOL     OW37453   2.331   0.548   1.726 -0.1427 -0.2926 -0.4364
 8664SOL    HW137454   2.347   0.473   1.669 -0.1773 -0.7820  0.1932
 8664SOL    HW237455   2.281   0.500   1.792  1.4901  0.0234  1.0392
 8665SOL     OW37456   0.457   4.577   5.360 -0.2749  0.6646 -0.1350
 8665SOL    HW137457   0.446   4.498   5.413  2.2310  0.8889  0.7148
 8665SOL    HW237458   0.537   4.608   5.401  0.0117  0.5744 -0.6266
 8666SOL     OW37459   1.294   2.388   9.475  0.5152 -0.4628 -0.3430
 8666SOL    HW137460   1.293   2.380   9.570 -2.5727  1.1319 -0.2288
 8666SOL    HW237461   1.360   2.321   9.459  0.0929 -0.8864 -0.3050
 8667SOL     OW37462   1.304   4.286  15.463  0.2105  0.1535  0.2552
 8667SOL    HW137463   1.227   4.328  15.425  1.6447 -0.3423 -3.1185
 8667SOL    HW237464   1.286   4.284  15.557 -0.4624  2.3556  0.1743
 8668SOL     OW37465   1.890   0.399  17.302  0.1649 -0.4040 -0.4150
 8668SOL    HW137466   1.883   0.487  17.264  1.7423  0.3974  1.1769
 8668SOL    HW237467   1.942   0.412  17.381 -1.2195 -0.7206  0.5410
 8669SOL     OW37468   2.009   1.345   2.908 -0.6343  0.0530 -0.6108
 8669SOL    HW137469   2.065   1.345   2.986 -2.6917  0.8342  0.8658
 8669SOL    HW237470   1.980   1.436   2.914 -0.8488  0.0438 -1.5755
 8670SOL     OW37471   1.708   1.855   9.104  0.4874  0.0848  0.2086
 8670SOL    HW137472   1.665   1.819   9.027  1.0855 -0.6163  0.1954
 8670SOL    HW237473   1.638   1.900   9.151  1.0312 -0.0768  1.1757
 8671SOL     OW37474   0.139   2.596   9.460 -0.3372 -0.6782 -0.9134
 8671SOL    HW137475   0.067   2.659   9.463  2.4008  2.4573 -1.4460
 8671SOL    HW237476   0.123   2.552   9.543  2.0104  2.1737  1.0500
 8672SOL     OW37477   1.959   1.648   2.933 -0.1939 -0.2817  0.3837
 8672SOL    HW137478   1.957   1.648   2.837  2.5953  0.8409  0.3295
 8672SOL    HW237479   2.034   1.708   2.937 -0.0843 -0.6977  4.2054
 8673SOL     OW37480   2.505   2.019  16.381 -0.6813  0.1923 -0.5738
 8673SOL    HW137481   2.457   1.972  16.450  2.2999 -0.1477  1.2300
 8673SOL    HW237482   2.449   1.999  16.305 -0.6219  2.9904 -1.3457
 8674SOL     OW37483   4.210   4.105   5.697  0.2357 -0.1716 -0.0345
 8674SOL    HW137484   4.299   4.133   5.672  0.0486  0.3375 -0.1399
 8674SOL    HW237485   4.199   4.031   5.637 -1.5097 -0.2597  0.3985
 8675SOL     OW37486   1.383   4.050   5.207  0.2801  0.5193  0.1104
 8675SOL    HW137487   1.412   3.963   5.180 -1.1203 -0.9656  3.4241
 8675SOL    HW237488   1.335   4.078   5.128  0.7594 -0.8003 -0.6445
 8676SOL     OW37489   1.159   3.077   4.304  0.6375 -0.5332 -0.0585
 8676SOL    HW137490   1.088   3.033   4.257  1.5240 -0.0510 -1.8653
 8676SOL    HW237491   1.115   3.102   4.386  2.5752  1.3652  0.4098
 8677SOL     OW37492   2.917   0.848  10.380  0.0741 -0.6831  0.3102
 8677SOL    HW137493   2.919   0.892  10.295 -1.3312  1.3024  1.3084
 8677SOL    HW237494   2.983   0.782  10.358 -1.4545 -2.4420  0.9430
 8678SOL     OW37495   1.635   3.551   6.614  0.0922 -0.1336  0.1181
 8678SOL    HW137496   1.669   3.488   6.677 -0.6075 -1.2746 -0.6525
 8678SOL    HW237497   1.702   3.554   6.546  0.4502 -2.2016  0.3945
 8679SOL     OW37498   4.390   0.058   6.126  0.4613  0.0899  0.0688
 8679SOL    HW137499   4.391   0.095   6.038 -0.0107  1.3112  0.5732
 8679SOL    HW237500   4.295   0.063   6.131  0.3910 -0.1814 -1.1879
 8680SOL     OW37501   1.116   0.651  15.357  0.3553 -0.1601  0.2395
 8680SOL    HW137502   1.102   0.734  15.401 -0.3391  0.0829 -0.4420
 8680SOL    HW237503   1.103   0.588  15.428  2.1201 -0.1798  0.5628
 8681SOL     OW37504   3.350   4.199   7.656  0.3168  0.5998 -0.2515
 8681SOL    HW137505   3.295   4.125   7.680 -1.9875  1.7413 -2.0021
 8681SOL    HW237506   3.412   4.201   7.728 -0.7644  0.8666  0.6783
 8682SOL     OW37507   1.360   2.458   4.924  0.2061 -0.0813  0.6744
 8682SOL    HW137508   1.385   2.372   4.890  2.1885  1.1190 -0.8816
 8682SOL    HW237509   1.392   2.459   5.014  0.2847  0.8182  0.6337
 8683SOL     OW37510   2.223   4.168   6.228  0.8907 -0.0732  0.2530
 8683SOL    HW137511   2.241   4.109   6.301 -1.3316  0.5419  1.2801
 8683SOL    HW237512   2.127   4.161   6.228  0.9611 -1.1296  0.0389
 8684SOL     OW37513   0.069   2.643   8.329 -0.1982  0.7645  0.6011
 8684SOL    HW137514   0.123   2.605   8.399  1.5888 -0.2461 -1.3142
 8684SOL    HW237515   4.708   2.621   8.369  0.3460  0.7830  1.7590
 8685SOL     OW37516   3.512   2.513   8.315 -0.5276 -0.6147 -0.1805
 8685SOL    HW137517   3.570   2.473   8.250  0.3254  3.1041 -1.6897
 8685SOL    HW237518   3.447   2.560   8.264 -0.5187 -0.9600 -0.5122
 8686SOL     OW37519   3.843   1.232   7.726  0.5068 -0.6549 -0.3779
 8686SOL    HW137520   3.765   1.285   7.709  0.0844 -0.7653  1.1823
 8686SOL    HW237521   3.914   1.296   7.730 -0.3935  0.2636  1.1551
 8687SOL     OW37522   1.314   1.599   7.430 -0.1954 -0.3730 -0.5147
 8687SOL    HW137523   1.272   1.584   7.345 -2.2142 -0.5635  0.5125
 8687SOL    HW237524   1.378   1.528   7.422  1.0164  0.5588  0.9527
 8688SOL     OW37525   4.594   4.065   6.668 -0.0784 -0.4844 -0.4818
 8688SOL    HW137526   4.678   4.033   6.636  1.4606  1.9381  1.1340
 8688SOL    HW237527   4.570   4.116   6.591 -0.7298  0.1409  0.1326
 8689SOL     OW37528   1.928   3.417   7.809  0.2863 -0.3801  0.7747
 8689SOL    HW137529   1.984   3.354   7.855 -0.9320 -3.5502 -2.1356
 8689SOL    HW237530   1.909   3.470   7.887 -2.2795  0.5576 -0.4936
 8690SOL     OW37531   3.923   2.013   8.883  0.1534  0.0390 -0.5206
 8690SOL    HW137532   3.893   2.085   8.827 -1.4349 -0.7124 -0.6189
 8690SOL    HW237533   3.858   1.943   8.880  2.1740 -1.8626  0.1632
 8691SOL     OW37534   4.260   4.396  16.079  0.0978  0.4626 -0.4620
 8691SOL    HW137535   4.238   4.470  16.137  0.6571  0.2309  0.0447
 8691SOL    HW237536   4.277   4.450  16.002 -0.3972  0.3328 -0.6629
 8692SOL     OW37537   0.925   2.314  17.692 -0.8116 -0.0579  0.1517
 8692SOL    HW137538   0.984   2.381  17.658  0.4944 -1.0468  0.4344
 8692SOL    HW237539   0.853   2.317  17.629 -0.8360  1.5035  0.2594
 8693SOL     OW37540   3.256   4.604   2.047  0.4868 -0.6583  0.6947
 8693SOL    HW137541   3.235   4.695   2.069  0.9436  0.0608 -1.9036
 8693SOL    HW237542   3.322   4.627   1.982  0.3318 -1.5738  0.2130
 8694SOL     OW37543   4.587   0.855   4.167 -0.3714  0.4248  0.1288
 8694SOL    HW137544   4.582   0.819   4.255 -1.6603 -0.2901 -0.2391
 8694SOL    HW237545   4.579   0.782   4.105 -0.4792  0.4828  0.0735
 8695SOL     OW37546   4.275   3.746   3.906 -0.8149  0.5772 -0.6268
 8695SOL    HW137547   4.254   3.709   3.991  1.8857 -2.0630 -1.1080
 8695SOL    HW237548   4.312   3.830   3.935  2.1342 -1.1148  0.5427
 8696SOL     OW37549   4.649   1.997   1.131  0.6121  0.2730 -0.0461
 8696SOL    HW137550   4.629   1.908   1.103  2.8652 -0.7272  1.5063
 8696SOL    HW237551   0.007   1.979   1.179  0.3799 -0.6531 -0.0121
 8697SOL     OW37552   0.963   1.027   5.104  0.1649  0.0493 -0.4336
 8697SOL    HW137553   1.037   0.972   5.129  0.5703  0.6862 -0.2390
 8697SOL    HW237554   1.016   1.103   5.078 -0.1959  1.3006  2.4616
 8698SOL     OW37555   0.316   2.875  11.829 -0.0380 -0.3369  0.1806
 8698SOL    HW137556   0.312   2.792  11.782 -0.6301 -0.8501  1.1502
 8698SOL    HW237557   0.392   2.870  11.887 -0.7013 -1.3474  0.9578
 8699SOL     OW37558   2.956   1.834   6.093  0.1525 -0.1709 -1.0336
 8699SOL    HW137559   2.897   1.893   6.046  2.5886  3.0231 -0.0884
 8699SOL    HW237560   2.893   1.777   6.136  1.6894 -0.8415  0.3143
 8700SOL     OW37561   4.527   1.822   3.873 -0.8824 -0.5746 -0.0798
 8700SOL    HW137562   4.575   1.903   3.855 -0.3291 -0.8958 -0.0403
 8700SOL    HW237563   4.496   1.811   3.783 -1.0381  1.7147 -0.3184
 8701SOL     OW37564   2.555   1.972   4.580 -0.1481  0.2130  0.1839
 8701SOL    HW137565   2.577   1.972   4.673  1.1302 -0.9395 -0.1299
 8701SOL    HW237566   2.527   1.881   4.571  1.9761 -0.4149  0.0902
 8702SOL     OW37567   0.325   1.927  11.180  0.0178 -0.0684  0.1018
 8702SOL    HW137568   0.375   1.942  11.260 -1.7475 -1.9632  1.5623
 8702SOL    HW237569   0.375   1.859  11.135  1.6312  1.1840  0.0307
 8703SOL     OW37570   3.482   3.059   6.395  0.2016 -0.2231 -0.0702
 8703SOL    HW137571   3.418   3.001   6.354  0.1496 -1.0418  1.1793
 8703SOL    HW237572   3.466   3.019   6.480 -2.9112  1.5223  0.1427
 8704SOL     OW37573   3.611   1.010   2.833  0.2064 -0.0321 -0.1376
 8704SOL    HW137574   3.593   1.006   2.927  0.1733  0.6058 -0.1176
 8704SOL    HW237575   3.608   0.915   2.819  2.1822  0.1699 -2.0473
 8705SOL     OW37576   1.519   4.543   4.438  0.5995 -0.1745 -0.3973
 8705SOL    HW137577   1.459   4.490   4.385  1.3869 -3.1013  1.6717
 8705SOL    HW237578   1.461   4.565   4.511 -1.2362 -0.4836 -1.7623
 8706SOL     OW37579   0.665   3.045   9.493 -0.6888 -0.5967 -0.5589
 8706SOL    HW137580   0.656   2.950   9.505 -1.2385 -0.1979  2.3399
 8706SOL    HW237581   0.754   3.056   9.527 -1.8615  0.6095  2.1400
 8707SOL     OW37582   2.227   2.417   3.417 -0.7050 -0.4564  0.5393
 8707SOL    HW137583   2.314   2.380   3.402 -0.8181 -0.5615  0.1642
 8707SOL    HW237584   2.188   2.342   3.462  1.4911 -2.0033 -0.1127
 8708SOL     OW37585   0.121   0.811   7.545  0.3781 -0.1607  0.9162
 8708SOL    HW137586   0.142   0.744   7.480  1.0610 -0.1009  1.0819
 8708SOL    HW237587   0.041   0.780   7.587 -0.3382  0.3342 -0.0857
 8709SOL     OW37588   0.040   2.234  15.982  0.4054  0.0440  0.0042
 8709SOL    HW137589   0.063   2.201  15.895  1.0478  0.9340 -0.1665
 8709SOL    HW237590   0.035   2.149  16.025  1.2231 -0.4067 -0.7872
 8710SOL     OW37591   2.128   3.616   6.518 -0.5709 -0.7655 -1.0472
 8710SOL    HW137592   2.172   3.686   6.567  0.0805 -0.3193 -2.2863
 8710SOL    HW237593   2.200   3.559   6.490  1.1230  0.5803  0.6239
 8711SOL     OW37594   0.050   2.793   0.820  0.6932  0.4449 -0.1375
 8711SOL    HW137595   0.009   2.708   0.803 -0.8663  1.1862 -0.0628
 8711SOL    HW237596   4.698   2.848   0.797  0.0638 -0.3570 -0.0063
 8712SOL     OW37597   4.174   0.785   7.895 -0.2996  0.6561  0.1082
 8712SOL    HW137598   4.263   0.750   7.890 -1.5153 -2.4384  0.0216
 8712SOL    HW237599   4.123   0.706   7.915 -0.3299  0.6328 -0.0602
 8713SOL     OW37600   4.265   2.182   8.763 -0.2932 -0.2331  0.1360
 8713SOL    HW137601   4.230   2.180   8.852  0.3795 -0.9708  0.3854
 8713SOL    HW237602   4.185   2.210   8.718  0.7707 -0.2277 -1.7454
 8714SOL     OW37603   0.296   1.893   2.200 -0.4815  0.0223  0.3760
 8714SOL    HW137604   0.247   1.954   2.144  0.3136 -0.1478 -0.5066
 8714SOL    HW237605   0.273   1.810   2.159 -0.7947 -0.5759  1.7656
 8715SOL     OW37606   1.323   3.595   0.819 -0.7608 -0.5699  0.1828
 8715SOL    HW137607   1.308   3.686   0.793  0.3447 -1.0302 -2.0437
 8715SOL    HW237608   1.254   3.583   0.885  0.2065  0.7589  1.4572
 8716SOL     OW37609   3.127   3.055   6.116  0.3406 -0.9518 -0.7273
 8716SOL    HW137610   3.146   3.149   6.116  0.6765 -1.0205 -2.1934
 8716SOL    HW237611   3.042   3.045   6.072  0.1239  2.1493 -0.9897
 8717SOL     OW37612   2.050   0.788   2.664 -0.2824  0.3597  0.2395
 8717SOL    HW137613   2.142   0.763   2.678 -0.0318  0.1543 -1.6951
 8717SOL    HW237614   2.057   0.883   2.671  1.5527  0.4376 -2.2463
 8718SOL     OW37615   1.893   0.735   3.970 -0.7752  0.2040  0.4569
 8718SOL    HW137616   1.917   0.702   4.057  0.9175 -2.2392 -0.9143
 8718SOL    HW237617   1.963   0.698   3.916 -0.9802  1.2338 -0.5046
 8719SOL     OW37618   0.523   3.613   6.485 -0.2683  0.4807  0.2450
 8719SOL    HW137619   0.503   3.539   6.428 -2.0333 -1.0745  2.8804
 8719SOL    HW237620   0.582   3.662   6.427  1.2581  0.2144  1.5525
 8720SOL     OW37621   4.329   1.646   5.482  0.3681 -0.1956  0.1284
 8720SOL    HW137622   4.404   1.696   5.450 -0.0434  1.1052  1.1950
 8720SOL    HW237623   4.378   1.587   5.539  0.2253 -1.4297 -1.0120
 8721SOL     OW37624   2.530   2.663   8.180 -0.2634 -0.1031 -0.4671
 8721SOL    HW137625   2.474   2.650   8.104 -3.2330  0.9171  1.5594
 8721SOL    HW237626   2.474   2.658   8.258  0.9339  1.2639  0.4892
 8722SOL     OW37627   2.440   0.766   3.536  0.3724  0.0983 -0.2374
 8722SOL    HW137628   2.429   0.727   3.449  1.2656 -2.3694  0.7401
 8722SOL    HW237629   2.420   0.858   3.520 -2.9815 -0.5527  0.3102
 8723SOL     OW37630   3.402   1.922   9.861 -0.0847  0.0418  0.2067
 8723SOL    HW137631   3.456   1.869   9.920  0.1718  0.4711  0.3574
 8723SOL    HW237632   3.321   1.933   9.911  0.4086  1.0553  0.7744
 8724SOL     OW37633   2.710   0.595   3.951 -0.4981 -0.6647 -0.3792
 8724SOL    HW137634   2.630   0.608   3.900 -0.3447 -1.7818 -0.9241
 8724SOL    HW237635   2.682   0.640   4.031  0.2145 -0.2711 -0.3521
 8725SOL     OW37636   2.563   3.093  17.304 -0.1542  0.4392 -0.4439
 8725SOL    HW137637   2.551   3.138  17.220 -0.7640  1.5906  0.2653
 8725SOL    HW237638   2.512   3.013  17.290 -0.2087  0.0480  1.9230
 8726SOL     OW37639   2.400   3.711  13.784 -0.0448  0.0965 -0.0906
 8726SOL    HW137640   2.385   3.799  13.751  1.3852 -0.0928 -1.2409
 8726SOL    HW237641   2.454   3.719  13.863 -1.3517  0.7518  0.7345
 8727SOL     OW37642   4.163   1.642   6.586  0.2322  0.1758 -0.1750
 8727SOL    HW137643   4.164   1.673   6.496  2.6241  2.8870  0.8041
 8727SOL    HW237644   4.133   1.552   6.568 -1.4426  0.8634 -0.8188
 8728SOL     OW37645   0.748   2.816   0.011 -0.2683  0.3650  0.0609
 8728SOL    HW137646   0.716   2.726   0.005 -0.6411  0.5549 -0.7363
 8728SOL    HW237647   0.782   2.833  17.617  1.8164 -2.1779  0.3725
 8729SOL     OW37648   1.592   4.393   5.900 -0.2010 -0.1126  0.8590
 8729SOL    HW137649   1.627   4.419   5.985  0.5761 -0.9326  0.7872
 8729SOL    HW237650   1.515   4.342   5.926  0.3148 -0.6548  1.3233
 8730SOL     OW37651   4.146   1.112  12.160  0.5718 -0.0956  0.0840
 8730SOL    HW137652   4.076   1.047  12.153 -1.2080  1.9863 -1.3006
 8730SOL    HW237653   4.095   1.192  12.152  1.1081  0.1758 -0.5745
 8731SOL     OW37654   0.733   1.393  11.868  0.0528  0.0174  0.1032
 8731SOL    HW137655   0.651   1.346  11.855  0.4090 -0.9129  1.2043
 8731SOL    HW237656   0.746   1.441  11.787 -2.2251  0.1569 -0.1838
 8732SOL     OW37657   1.932   2.307   9.010 -0.4972 -0.0707  0.4462
 8732SOL    HW137658   1.868   2.373   9.038 -0.5183  0.2908 -0.4581
 8732SOL    HW237659   1.968   2.270   9.091  1.0337 -2.0798 -1.1441
 8733SOL     OW37660   3.305   3.060   4.308  0.2494 -0.1494  0.3935
 8733SOL    HW137661   3.390   3.084   4.271  0.5261  1.7794  2.3002
 8733SOL    HW237662   3.329   3.067   4.400  0.1597 -1.7592  0.5488
 8734SOL     OW37663   4.519   2.881   8.843 -0.2229  0.3013  0.0780
 8734SOL    HW137664   4.607   2.847   8.828  0.5092  1.0943  2.5781
 8734SOL    HW237665   4.476   2.812   8.793 -1.9537  1.4324 -0.0121
 8735SOL     OW37666   4.635   0.195  12.147 -0.2692 -0.7320  0.0640
 8735SOL    HW137667   4.575   0.123  12.132  1.9574 -2.0533 -2.6202
 8735SOL    HW237668   4.608   0.276  12.103 -0.5654  0.4099  2.3698
 8736SOL     OW37669   0.421   3.766   6.734 -0.8025 -0.5773  0.1860
 8736SOL    HW137670   0.328   3.775   6.714 -0.6183 -1.0607 -0.8900
 8736SOL    HW237671   0.459   3.698   6.679  1.0552  0.0895  0.6231
 8737SOL     OW37672   3.325   3.480   4.239 -0.1933 -0.4737  0.4051
 8737SOL    HW137673   3.415   3.450   4.229 -0.0423  0.2558 -0.4229
 8737SOL    HW237674   3.310   3.450   4.329  0.2698 -1.0988  0.2777
 8738SOL     OW37675   2.126   3.921   9.610  0.1832 -0.2496 -0.0907
 8738SOL    HW137676   2.214   3.958   9.608  0.5633 -1.2141 -1.9790
 8738SOL    HW237677   2.088   3.978   9.676  2.2120  2.9810 -1.7000
 8739SOL     OW37678   1.935   2.448   6.182 -0.3315 -0.1014 -0.0692
 8739SOL    HW137679   1.943   2.373   6.241  0.3463  0.3494  0.4111
 8739SOL    HW237680   1.856   2.423   6.133  0.8352 -0.2375 -1.8672
 8740SOL     OW37681   2.323   0.745   5.028  0.4808  0.5071  0.1150
 8740SOL    HW137682   2.304   0.669   4.974 -0.7022 -0.1136  1.4031
 8740SOL    HW237683   2.281   0.816   4.979  1.5208  2.6586  2.3039
 8741SOL     OW37684   1.686   2.640   9.753  0.0303 -0.2938  0.3968
 8741SOL    HW137685   1.687   2.651   9.848  1.0235  1.7526  0.1509
 8741SOL    HW237686   1.730   2.558   9.733  0.9168  0.3671 -0.3786
 8742SOL     OW37687   1.628   4.571   1.564  0.0209  0.1589 -0.2076
 8742SOL    HW137688   1.619   4.557   1.658 -1.0115 -0.6763 -0.4350
 8742SOL    HW237689   1.598   4.483   1.540  1.9158 -0.6684  0.4424
 8743SOL     OW37690   1.902   0.052   6.857 -0.5016  0.5467 -0.1611
 8743SOL    HW137691   1.986   0.086   6.825  0.5115 -0.7253  1.1631
 8743SOL    HW237692   1.861   0.133   6.885 -3.3426 -0.7318 -0.6569
 8744SOL     OW37693   1.835   4.207   1.066  0.2233 -0.1475  0.8396
 8744SOL    HW137694   1.746   4.175   1.082  0.1383  0.2479  1.1672
 8744SOL    HW237695   1.869   4.221   1.155  1.0159 -0.5030  0.5961
 8745SOL     OW37696   4.171   3.065  11.638  0.2117  0.1234  0.7135
 8745SOL    HW137697   4.083   3.096  11.617  0.0616 -1.3567 -0.8283
 8745SOL    HW237698   4.235   3.106  11.579  0.6743 -2.4370 -0.5789
 8746SOL     OW37699   4.303   0.468   6.977 -0.4103 -0.2580  0.4385
 8746SOL    HW137700   4.210   0.491   6.985 -0.2933  0.4192 -0.1398
 8746SOL    HW237701   4.333   0.469   7.068  1.2747  1.1460 -0.1327
 8747SOL     OW37702   4.265   0.976   4.597 -0.6326 -0.0068  0.2723
 8747SOL    HW137703   4.279   0.884   4.618  2.4139  0.3441 -0.2682
 8747SOL    HW237704   4.217   0.963   4.515 -2.9680  0.3744  1.5710
 8748SOL     OW37705   3.980   0.437   5.421 -0.0730 -0.0791 -0.5401
 8748SOL    HW137706   4.057   0.430   5.365  0.2581 -1.9511  0.1356
 8748SOL    HW237707   4.011   0.384   5.495 -0.8797  1.7376  1.1057
 8749SOL     OW37708   1.002   4.498  14.845 -0.3129  0.2409 -0.3284
 8749SOL    HW137709   1.053   4.518  14.767 -0.2974 -0.2882 -0.4569
 8749SOL    HW237710   0.910   4.513  14.823 -0.1543 -1.0098 -1.8755
 8750SOL     OW37711   4.720   1.215   2.479 -0.7924  0.5404  0.1235
 8750SOL    HW137712   0.071   1.205   2.418 -0.0057 -0.2014  1.1865
 8750SOL    HW237713   0.044   1.203   2.561 -0.0118  0.5505 -0.3194
 8751SOL     OW37714   1.842   0.888   4.482  0.5158 -0.2992 -0.7473
 8751SOL    HW137715   1.761   0.908   4.529 -0.2209 -0.0325 -2.1305
 8751SOL    HW237716   1.838   0.795   4.506 -2.7148 -0.3291 -1.4740
 8752SOL     OW37717   4.307   4.395   4.578 -0.0424  0.3558  0.0952
 8752SOL    HW137718   4.401   4.381   4.565 -0.1540 -0.3846  0.1196
 8752SOL    HW237719   4.300   4.420   4.670  1.5133 -1.4121  0.6986
 8753SOL     OW37720   0.136   4.717   4.622  0.2791  0.1571 -0.3264
 8753SOL    HW137721   0.178   0.074   4.655 -1.7459  0.3185  1.8550
 8753SOL    HW237722   0.148   0.003   4.528 -0.9834  2.5298 -0.2535
 8754SOL     OW37723   2.506   3.679   3.557  0.3144  1.3942 -0.5378
 8754SOL    HW137724   2.569   3.663   3.627  0.6502 -1.5043 -1.5131
 8754SOL    HW237725   2.571   3.687   3.487  0.2365 -0.7915 -0.8526
 8755SOL     OW37726   3.700   2.896   2.218  0.0247 -0.4455  0.1709
 8755SOL    HW137727   3.744   2.969   2.176  0.9432  0.0475  1.9802
 8755SOL    HW237728   3.721   2.813   2.175 -1.9553 -1.8538  1.8677
 8756SOL     OW37729   2.099   1.899   5.843 -0.6350  0.0905  0.3302
 8756SOL    HW137730   2.190   1.870   5.832 -0.9526 -0.4084 -1.0329
 8756SOL    HW237731   2.105   1.963   5.914 -2.6737  0.3680  0.2503
 8757SOL     OW37732   1.909   0.092   0.495  0.0451  0.5084  0.4881
 8757SOL    HW137733   1.920   0.124   0.405  2.2105 -0.7155  0.3332
 8757SOL    HW237734   1.841   0.154   0.522 -0.8650  0.4310 -1.6153
 8758SOL     OW37735   3.058   1.924   8.139  0.0270 -0.3199  0.7104
 8758SOL    HW137736   2.979   1.875   8.116 -0.5662  1.0886 -0.3058
 8758SOL    HW237737   3.086   1.861   8.204 -0.9415  0.6248  2.0528
 8759SOL     OW37738   2.785   3.528   9.971  0.2453 -0.2023 -0.1716
 8759SOL    HW137739   2.773   3.440  10.005 -1.4377 -0.5056 -1.5636
 8759SOL    HW237740   2.753   3.583  10.042 -0.5563  0.7925 -1.2875
 8760SOL     OW37741   0.575   2.845   6.000 -0.4094 -0.0481  0.2205
 8760SOL    HW137742   0.589   2.883   5.913 -0.1465 -0.3102  0.1496
 8760SOL    HW237743   0.633   2.769   5.992 -0.0620  0.2665 -0.2970
 8761SOL     OW37744   3.020   3.647   3.776 -0.1022 -0.2634  0.1141
 8761SOL    HW137745   2.996   3.716   3.838  2.3569 -1.5469  2.5256
 8761SOL    HW237746   2.977   3.565   3.802 -0.9111  0.1183 -0.0258
 8762SOL     OW37747   4.135   2.663   7.122 -0.3727 -0.1939  0.2857
 8762SOL    HW137748   4.192   2.732   7.088  0.4092 -1.1857 -0.4303
 8762SOL    HW237749   4.164   2.579   7.085  0.7526  1.2349 -2.1306
 8763SOL     OW37750   1.749   3.602   4.316  0.0173 -0.6359  0.0021
 8763SOL    HW137751   1.832   3.648   4.315 -0.3264 -0.0030  1.2730
 8763SOL    HW237752   1.749   3.580   4.223  0.1432  0.2524 -0.2043
 8764SOL     OW37753   0.976   3.189  11.239  0.2464 -0.7461 -0.0819
 8764SOL    HW137754   0.881   3.188  11.249  0.5443  0.5294  2.8828
 8764SOL    HW237755   0.996   3.100  11.269  1.4434 -0.3544  0.2528
 8765SOL     OW37756   1.754   1.247  14.229  0.9552 -0.0854 -0.1102
 8765SOL    HW137757   1.715   1.331  14.254  0.3746 -0.9919  2.1005
 8765SOL    HW237758   1.737   1.196  14.309  0.5662 -0.7170 -0.6012
 8766SOL     OW37759   0.432   2.070  16.498 -0.0707 -0.2071 -0.3154
 8766SOL    HW137760   0.361   2.101  16.441 -0.1631  1.5143  0.7337
 8766SOL    HW237761   0.404   1.986  16.534 -1.3121  2.0302  3.9226
 8767SOL     OW37762   2.757   1.871  11.426  0.4379 -0.2631 -0.3402
 8767SOL    HW137763   2.826   1.839  11.367  1.1914  0.1910  0.2876
 8767SOL    HW237764   2.807   1.870  11.508  1.9121 -1.1078 -1.2619
 8768SOL     OW37765   2.102   1.513  10.562 -0.1989 -0.2952  0.0586
 8768SOL    HW137766   2.160   1.552  10.628  1.3188 -2.6280  0.0940
 8768SOL    HW237767   2.166   1.449  10.531  1.7682  0.3885  2.6653
 8769SOL     OW37768   1.452   1.964   4.120 -0.2487  0.2731 -0.6502
 8769SOL    HW137769   1.390   1.971   4.047 -1.7691  0.4577  0.6591
 8769SOL    HW237770   1.454   1.869   4.128  1.1812  0.3151 -0.5886
 8770SOL     OW37771   1.190   4.491   1.854 -0.1952  0.1280 -0.1775
 8770SOL    HW137772   1.101   4.464   1.875 -0.8689  2.1350 -0.5416
 8770SOL    HW237773   1.184   4.585   1.841 -0.8132  0.2442  0.9675
 8771SOL     OW37774   0.275   1.532   9.168 -0.0971  0.2426 -0.2021
 8771SOL    HW137775   0.361   1.538   9.125 -0.0056  0.7965  0.0563
 8771SOL    HW237776   0.255   1.624   9.185 -1.9513 -0.1410 -0.3626
 8772SOL     OW37777   1.482   4.261   4.817 -0.4867  0.1764  0.4031
 8772SOL    HW137778   1.513   4.297   4.734 -0.1185 -0.4185  0.2801
 8772SOL    HW237779   1.550   4.200   4.846  1.7927  1.1373 -2.9682
 8773SOL     OW37780   0.139   0.822   8.871 -0.0444  0.5534 -0.5126
 8773SOL    HW137781   0.225   0.780   8.874 -0.3784 -0.3161 -3.4895
 8773SOL    HW237782   0.103   0.801   8.785 -1.9855  1.2921  0.1162
 8774SOL     OW37783   2.315   1.519   6.881 -0.2745  0.1759  0.0614
 8774SOL    HW137784   2.406   1.535   6.906  0.3552 -4.0129  0.4437
 8774SOL    HW237785   2.276   1.604   6.899  1.1819  0.7162  0.6571
 8775SOL     OW37786   3.120   0.770   0.299 -0.4814  0.0676  0.7672
 8775SOL    HW137787   3.110   0.844   0.358  1.7694 -0.0776  1.3406
 8775SOL    HW237788   3.191   0.711   0.324  0.1271  0.3909 -0.1968
 8776SOL     OW37789   0.366   3.233   9.531  0.2994  0.0428 -0.4106
 8776SOL    HW137790   0.364   3.177   9.454  2.3672  1.3621 -1.4462
 8776SOL    HW237791   0.279   3.273   9.529  0.5543  0.5870 -0.6788
 8777SOL     OW37792   3.850   2.897  14.999 -0.2616 -0.2675 -0.3111
 8777SOL    HW137793   3.914   2.854  15.057  0.2363  2.0803  0.8844
 8777SOL    HW237794   3.792   2.822  14.992  0.0901 -0.4925 -0.8251
 8778SOL     OW37795   1.289   1.821   2.608  0.0474  0.5293 -0.2631
 8778SOL    HW137796   1.214   1.879   2.595  0.8891  1.2734 -1.6771
 8778SOL    HW237797   1.292   1.806   2.703 -0.2822  0.3369 -0.2824
 8779SOL     OW37798   2.732   3.628   5.582 -0.6700  0.1575  0.2906
 8779SOL    HW137799   2.645   3.663   5.561 -0.3461  0.0115 -1.2522
 8779SOL    HW237800   2.769   3.705   5.626  1.4292  0.7853 -2.5894
 8780SOL     OW37801   3.167   0.105  11.971  0.0537 -0.1501 -0.1010
 8780SOL    HW137802   3.171   0.127  12.064  1.1582  2.4853 -0.7710
 8780SOL    HW237803   3.075   0.081  11.960  0.0438  0.0419 -0.4385
 8781SOL     OW37804   4.242   3.155   2.496 -0.2409  0.3150  0.3096
 8781SOL    HW137805   4.333   3.185   2.490 -0.0186 -0.5698 -0.8562
 8781SOL    HW237806   4.196   3.239   2.498  2.3346  1.8194 -3.2084
 8782SOL     OW37807   0.697   2.286   5.172  0.6806 -0.6982  0.4272
 8782SOL    HW137808   0.656   2.241   5.098 -0.2062  0.1940  0.3780
 8782SOL    HW237809   0.685   2.380   5.161 -2.0424 -1.5308 -3.7421
 8783SOL     OW37810   4.080   3.721   4.847  0.3383  0.6036  0.5002
 8783SOL    HW137811   4.095   3.637   4.888  0.1323 -0.5433 -1.7440
 8783SOL    HW237812   3.990   3.701   4.819  0.7545 -0.8554  0.1892
 8784SOL     OW37813   1.896   2.982  11.903 -0.0890 -0.1080 -0.2872
 8784SOL    HW137814   1.966   2.962  11.965 -0.6028  1.1876  0.7248
 8784SOL    HW237815   1.920   2.958  11.813 -0.6228  0.1737 -0.5060
 8785SOL     OW37816   2.325   2.975  13.440  0.6642 -0.7768 -0.3694
 8785SOL    HW137817   2.400   2.923  13.470 -0.8455 -2.7267  0.0241
 8785SOL    HW237818   2.315   2.940  13.351 -2.7382  1.9221 -1.0464
 8786SOL     OW37819   1.752   2.268   7.940  0.0444 -0.3388 -0.0586
 8786SOL    HW137820   1.704   2.351   7.939 -0.5295 -0.6726  0.2761
 8786SOL    HW237821   1.764   2.241   7.849  1.1657 -1.1127  0.3124
 8787SOL     OW37822   0.216   0.429   1.224  0.2786  0.0236  0.2605
 8787SOL    HW137823   0.218   0.487   1.299 -1.0296 -0.2491  0.5067
 8787SOL    HW237824   0.262   0.478   1.156 -0.8196 -2.0054 -1.9811
 8788SOL     OW37825   2.958   0.941  13.379 -0.4689 -0.0291  0.2997
 8788SOL    HW137826   3.046   0.943  13.342 -0.6719  0.7913 -0.1429
 8788SOL    HW237827   2.909   0.997  13.318 -0.6971 -1.1459 -0.5464
 8789SOL     OW37828   2.016   4.557   0.136 -0.5250  0.0473 -0.3574
 8789SOL    HW137829   2.109   4.579   0.141 -0.7456  1.0509 -0.8291
 8789SOL    HW237830   1.992   4.582   0.047  0.9692  0.4010 -0.6656
 8790SOL     OW37831   1.131   4.615   5.181 -0.3098 -0.2241 -0.1037
 8790SOL    HW137832   1.132   4.685   5.115 -1.9323  0.2772  0.4036
 8790SOL    HW237833   1.185   4.659   5.246 -0.0112 -0.4372 -0.2083
 8791SOL     OW37834   0.227   0.484   6.801 -0.4856  0.2726 -0.2430
 8791SOL    HW137835   0.315   0.491   6.838 -0.3343 -2.0237 -0.1346
 8791SOL    HW237836   0.181   0.518   6.877  0.2522 -2.7808  1.5896
 8792SOL     OW37837   2.163   1.366   3.130  0.2220 -0.2436  0.4910
 8792SOL    HW137838   2.222   1.437   3.156  2.1349 -1.3122 -0.9135
 8792SOL    HW237839   2.226   1.312   3.082  0.1479  0.2262 -0.1340
 8793SOL     OW37840   3.941   4.410  16.206  0.1890  0.2984  0.0566
 8793SOL    HW137841   3.977   4.468  16.272  3.1249  0.2323 -1.4987
 8793SOL    HW237842   3.883   4.474  16.166 -1.5589  1.2451  4.0642
 8794SOL     OW37843   4.220   1.932  17.281 -0.0054 -0.7935 -0.7016
 8794SOL    HW137844   4.141   1.923  17.335  0.6816  2.1040  0.8014
 8794SOL    HW237845   4.244   2.024  17.290 -0.6453 -0.7412  0.6039
 8795SOL     OW37846   1.867   2.100   1.670 -0.7886 -0.2589  0.5482
 8795SOL    HW137847   1.844   2.018   1.627 -0.3680 -0.9190  1.5955
 8795SOL    HW237848   1.852   2.160   1.596  0.3341 -0.1717  0.4019
 8796SOL     OW37849   4.201   0.703  10.600  0.3082 -0.6028 -0.0444
 8796SOL    HW137850   4.111   0.732  10.592  0.6649  0.5054 -0.0356
 8796SOL    HW237851   4.249   0.780  10.630  2.2438 -1.4806 -0.8202
 8797SOL     OW37852   0.218   3.326   4.846 -0.3467  0.0741 -0.7879
 8797SOL    HW137853   0.290   3.265   4.834  1.3495  1.7696  0.9020
 8797SOL    HW237854   0.162   3.293   4.776 -3.7371 -1.2811  2.5801
 8798SOL     OW37855   1.424   3.892   1.458 -0.3285 -0.1753 -0.2845
 8798SOL    HW137856   1.513   3.928   1.454 -0.2522 -0.4441 -1.0837
 8798SOL    HW237857   1.379   3.975   1.447 -1.7331 -1.0506 -1.2412
 8799SOL     OW37858   4.625   1.391  10.182 -0.5774 -0.0752 -0.0333
 8799SOL    HW137859   4.584   1.398  10.269  2.8272 -1.9120  1.7003
 8799SOL    HW237860   4.553   1.407  10.120 -1.7987 -1.8683  0.9225
 8800SOL     OW37861   0.142   3.103   3.548 -0.0285  0.0177  0.5248
 8800SOL    HW137862   0.221   3.060   3.579 -0.7916 -1.8598 -0.1534
 8800SOL    HW237863   0.098   3.039   3.493 -0.1946  2.2200 -1.9169
 8801SOL     OW37864   4.273   0.196   6.865  0.7981  0.0403 -0.2578
 8801SOL    HW137865   4.293   0.289   6.875 -2.1349  0.4229  1.9636
 8801SOL    HW237866   4.261   0.166   6.955 -0.4970 -4.2285 -1.8428
 8802SOL     OW37867   1.894   0.984  13.001 -0.3927 -0.3378 -0.1852
 8802SOL    HW137868   1.903   0.889  13.009 -0.1947 -0.3697 -0.7585
 8802SOL    HW237869   1.901   0.991  12.905  3.2205  0.2503  0.1127
 8803SOL     OW37870   3.978   1.185   5.572 -0.0046  0.0546 -0.2565
 8803SOL    HW137871   4.015   1.167   5.659  1.0305  2.9745 -0.1250
 8803SOL    HW237872   4.041   1.144   5.513 -0.6411 -1.8821  0.3794
 8804SOL     OW37873   3.533   1.545  13.201 -0.4074  0.1267  0.0143
 8804SOL    HW137874   3.575   1.500  13.128  1.1533 -0.4495  1.2771
 8804SOL    HW237875   3.496   1.617  13.151 -0.4951  0.0195 -0.0764
 8805SOL     OW37876   3.500   0.596   1.845 -0.7210  0.2399  0.3564
 8805SOL    HW137877   3.578   0.643   1.873 -1.1729  2.3721 -1.9605
 8805SOL    HW237878   3.534   0.521   1.796 -2.4403  0.4984 -1.2371
 8806SOL     OW37879   2.161   2.903   4.977 -0.4771  0.3016  0.1174
 8806SOL    HW137880   2.110   2.870   5.051  0.7517 -1.2033  0.2934
 8806SOL    HW237881   2.092   2.930   4.916 -0.9890 -0.1616  0.4886
 8807SOL     OW37882   2.351   0.814   7.569 -0.2801  0.3047 -0.1618
 8807SOL    HW137883   2.414   0.834   7.638 -1.3447  0.5576  0.7269
 8807SOL    HW237884   2.398   0.819   7.485 -0.3191  2.0989 -0.0759
 8808SOL     OW37885   2.029   2.631   2.603 -0.3329  0.4763 -0.0284
 8808SOL    HW137886   2.042   2.686   2.526 -2.1576  0.4995 -0.3149
 8808SOL    HW237887   2.111   2.587   2.624 -1.0737 -1.1587 -0.5295
 8809SOL     OW37888   2.456   2.402   5.578  0.2481  0.1210 -0.0286
 8809SOL    HW137889   2.477   2.309   5.583 -1.9801 -0.3216  1.2553
 8809SOL    HW237890   2.437   2.422   5.670  1.9980  2.5478 -0.1928
 8810SOL     OW37891   2.638   4.046   1.321  0.1569 -0.9223  0.0255
 8810SOL    HW137892   2.642   4.028   1.415 -1.4603 -1.8538 -0.1005
 8810SOL    HW237893   2.628   4.141   1.326  1.6950 -0.7595  0.1383
 8811SOL     OW37894   2.865   3.332  11.438 -0.4710 -0.0816 -0.3717
 8811SOL    HW137895   2.923   3.392  11.486  0.0321  0.2900 -1.4351
 8811SOL    HW237896   2.895   3.248  11.474  1.9954  1.2493  0.6897
 8812SOL     OW37897   0.505   1.617   1.492  0.7880  0.4043 -0.5782
 8812SOL    HW137898   0.461   1.550   1.544  0.8364 -0.8316 -2.1280
 8812SOL    HW237899   0.516   1.575   1.407 -2.5786 -0.8532 -0.3818
 8813SOL     OW37900   1.257   2.806  15.817  0.0853  0.3121  0.2176
 8813SOL    HW137901   1.353   2.801  15.812 -0.0572 -1.1305 -1.0725
 8813SOL    HW237902   1.224   2.739  15.757 -2.3460  0.8619  0.9667
 8814SOL     OW37903   2.102   3.339   6.331 -0.2439  0.1472  0.2968
 8814SOL    HW137904   2.187   3.382   6.326  0.7407 -1.9636 -1.5660
 8814SOL    HW237905   2.044   3.386   6.271  0.0541 -0.2843 -0.3308
 8815SOL     OW37906   2.956   0.925   2.766  0.1007  0.1507  0.6611
 8815SOL    HW137907   2.940   1.017   2.788 -0.2068  0.2121  0.1767
 8815SOL    HW237908   2.935   0.893   2.853  3.0040  0.1964  1.3800
 8816SOL     OW37909   1.870   2.768   3.187  0.1538  0.3411 -0.0621
 8816SOL    HW137910   1.941   2.755   3.125 -0.1117  1.0762 -0.5238
 8816SOL    HW237911   1.921   2.799   3.262  1.4098 -0.4447 -0.5897
 8817SOL     OW37912   0.269   3.652   8.442 -0.1043 -0.2143  0.1369
 8817SOL    HW137913   0.218   3.572   8.433 -0.3480 -0.1190  0.6577
 8817SOL    HW237914   0.321   3.624   8.517 -0.6918 -1.5911  0.0240
 8818SOL     OW37915   1.727   3.262   4.147  0.0506 -0.0892 -0.0241
 8818SOL    HW137916   1.776   3.343   4.129 -1.8820  1.0366 -0.2381
 8818SOL    HW237917   1.639   3.301   4.151  0.1103 -0.2508  2.4196
 8819SOL     OW37918   2.020   1.919   7.378  0.2038 -0.2652 -0.4652
 8819SOL    HW137919   2.026   1.858   7.305 -0.0821 -2.2366  1.1645
 8819SOL    HW237920   1.925   1.932   7.378  0.1555 -0.6209 -0.4126
 8820SOL     OW37921   1.678   3.085  13.395 -0.1296  1.0716  0.2400
 8820SOL    HW137922   1.760   3.133  13.407  0.7368 -0.3912  0.2037
 8820SOL    HW237923   1.703   2.993  13.400 -0.7606  0.9221  0.5691
 8821SOL     OW37924   0.455   0.787  16.367  0.2231  0.0861 -0.4673
 8821SOL    HW137925   0.394   0.719  16.397 -0.4884  1.8076  1.9902
 8821SOL    HW237926   0.524   0.763  16.428 -0.5660 -1.4330 -0.1810
 8822SOL     OW37927   2.952   4.446   1.905  0.5649 -0.1436 -1.0355
 8822SOL    HW137928   2.960   4.542   1.907 -1.0405 -0.0315  0.0198
 8822SOL    HW237929   2.892   4.427   1.832 -0.8908 -1.2833  0.4619
 8823SOL     OW37930   2.578   4.676   2.810 -0.0508  0.0177  0.1186
 8823SOL    HW137931   2.599   0.005   2.732  0.0456 -1.0892 -0.5951
 8823SOL    HW237932   2.573   4.586   2.776  0.6917 -0.6635  1.8182
 8824SOL     OW37933   1.589   1.726   8.211 -0.0807 -0.5436 -0.1235
 8824SOL    HW137934   1.640   1.750   8.288  1.1429 -2.4881 -0.3347
 8824SOL    HW237935   1.639   1.761   8.138  0.0873  1.1699  0.8147
 8825SOL     OW37936   3.689   4.225  16.897 -0.1158  0.0391  0.0074
 8825SOL    HW137937   3.775   4.245  16.935  0.6039 -0.7920 -1.1465
 8825SOL    HW237938   3.634   4.249  16.971 -0.8357 -0.3292 -0.4139
 8826SOL     OW37939   0.290   0.444  12.563 -0.0333 -0.1986 -0.1009
 8826SOL    HW137940   0.241   0.376  12.516 -1.1224  1.5170 -1.4385
 8826SOL    HW237941   0.338   0.387  12.623 -1.8644 -0.0082  1.5700
 8827SOL     OW37942   3.643   0.876  10.417 -0.2553 -0.2589 -0.2777
 8827SOL    HW137943   3.679   0.955  10.457 -0.9334 -0.5124  0.8578
 8827SOL    HW237944   3.572   0.860  10.480 -0.7912 -2.9541 -1.5559
 8828SOL     OW37945   1.037   2.320   6.351 -0.0884 -0.1766 -0.1980
 8828SOL    HW137946   1.009   2.233   6.379 -0.4910 -0.1517 -0.5105
 8828SOL    HW237947   1.055   2.356   6.438  2.4255  0.9573 -1.1905
 8829SOL     OW37948   2.044   4.267   6.027 -0.5884 -0.0511 -0.1977
 8829SOL    HW137949   1.976   4.276   5.961  0.1053  0.6173 -0.8173
 8829SOL    HW237950   2.090   4.351   6.022 -1.5550  0.6036  1.8125
 8830SOL     OW37951   4.388   1.945   8.821  1.0120  0.7238  0.2971
 8830SOL    HW137952   4.469   1.988   8.793  1.2607  0.2597  0.3139
 8830SOL    HW237953   4.330   2.015   8.791 -1.6161 -1.0387  1.2348
 8831SOL     OW37954   0.457   4.028  11.701 -0.0560 -0.3466  0.0275
 8831SOL    HW137955   0.503   4.111  11.708 -1.4218  0.3906  0.1079
 8831SOL    HW237956   0.401   4.046  11.626  0.9600  0.2714 -0.5795
 8832SOL     OW37957   3.927   0.554   2.463  0.1940 -0.1638 -0.2878
 8832SOL    HW137958   3.960   0.640   2.438 -0.9598  0.8018  1.5048
 8832SOL    HW237959   3.914   0.567   2.557 -2.3028 -0.8910 -0.5430
 8833SOL     OW37960   2.769   0.235   9.518  0.2826 -0.0701 -0.0212
 8833SOL    HW137961   2.713   0.184   9.459 -0.1414  1.9967 -1.4111
 8833SOL    HW237962   2.738   0.222   9.608  3.2583  1.0812  1.1562
 8834SOL     OW37963   1.843   2.808   4.798  0.0904  0.2354 -0.1438
 8834SOL    HW137964   1.895   2.728   4.785  1.9010  1.0043  2.1987
 8834SOL    HW237965   1.885   2.857   4.727  0.3787 -0.6928 -0.6263
 8835SOL     OW37966   1.722   2.369   6.060 -0.2945  0.3695  0.2990
 8835SOL    HW137967   1.667   2.295   6.085 -1.6293  0.9817 -0.8117
 8835SOL    HW237968   1.713   2.370   5.964 -1.0057 -0.6146  0.3561
 8836SOL     OW37969   0.538   2.964   6.252 -0.6415 -0.1252 -0.0916
 8836SOL    HW137970   0.447   2.987   6.236 -0.3045  0.9451 -0.4706
 8836SOL    HW237971   0.558   2.922   6.168  1.5911 -0.5146  0.6165
 8837SOL     OW37972   1.662   3.167   2.632 -0.3811 -0.3578  0.5351
 8837SOL    HW137973   1.612   3.184   2.552  2.0808 -3.2497 -1.6155
 8837SOL    HW237974   1.635   3.241   2.686 -1.8802  0.5036 -1.3874
 8838SOL     OW37975   4.614   0.560   4.124 -0.3922  0.0478 -0.3087
 8838SOL    HW137976   4.685   0.572   4.187 -1.3196 -1.0280  0.9406
 8838SOL    HW237977   4.588   0.471   4.147 -2.7586  0.9302  0.3667
 8839SOL     OW37978   0.985   1.871  14.482 -1.0998 -0.0723 -0.3562
 8839SOL    HW137979   0.979   1.776  14.489 -0.4429 -0.0745  0.2735
 8839SOL    HW237980   0.911   1.880  14.423 -0.9038  1.6805 -0.3386
 8840SOL     OW37981   1.164   0.764   2.868 -0.2452 -0.2768 -0.0149
 8840SOL    HW137982   1.087   0.806   2.907 -0.8010  0.7777 -2.2535
 8840SOL    HW237983   1.231   0.832   2.878 -0.9332  0.5118 -0.7483
 8841SOL     OW37984   3.239   3.946  12.694  0.2804  0.1155 -0.0495
 8841SOL    HW137985   3.163   3.912  12.741  0.3131 -2.1673 -1.5988
 8841SOL    HW237986   3.195   4.014  12.643  0.6378  1.4202  1.4105
 8842SOL     OW37987   2.121   4.150   3.071 -0.3038 -1.0597 -0.2464
 8842SOL    HW137988   2.196   4.090   3.062  2.4822  2.3998 -0.2847
 8842SOL    HW237989   2.167   4.234   3.075 -0.0567 -1.1927 -0.2343
 8843SOL     OW37990   4.180   2.620   4.332 -0.2895 -0.0448  0.3789
 8843SOL    HW137991   4.157   2.606   4.424  1.6800 -0.1127  0.8448
 8843SOL    HW237992   4.190   2.531   4.299  3.6064 -0.3988  2.6201
 8844SOL     OW37993   0.827   3.361  13.341 -0.0638 -0.1927 -0.2566
 8844SOL    HW137994   0.815   3.422  13.269  1.2473 -0.7567 -0.9602
 8844SOL    HW237995   0.750   3.385  13.392  0.4317  0.8397  0.0225
 8845SOL     OW37996   4.390   2.612   8.696 -0.4935  0.6486  0.2188
 8845SOL    HW137997   4.310   2.596   8.645 -0.2713 -1.3012  0.4801
 8845SOL    HW237998   4.367   2.563   8.775 -1.8193  1.6407  0.4584
 8846SOL     OW37999   0.519   4.673   4.802 -0.1913 -0.0727 -0.3210
 8846SOL    HW138000   0.565   4.696   4.882 -1.4871  0.7205  0.1976
 8846SOL    HW238001   0.589   4.689   4.739 -0.4074  1.9953 -0.0373
 8847SOL     OW38002   4.488   1.103   4.128  0.2330 -0.5096 -0.1969
 8847SOL    HW138003   4.487   1.061   4.042  1.1584  0.4231 -0.6613
 8847SOL    HW238004   4.526   1.023   4.164 -0.4066 -0.3312  0.8778
 8848SOL     OW38005   0.421   1.306   2.813 -0.1969  0.0744  0.2591
 8848SOL    HW138006   0.468   1.321   2.731  0.5236  2.9274  1.2004
 8848SOL    HW238007   0.335   1.281   2.780  0.2890  1.3775 -1.9486
 8849SOL     OW38008   3.239   3.449   3.984 -0.2645  0.0333  0.0515
 8849SOL    HW138009   3.242   3.426   4.076  0.3128  0.0495  0.0397
 8849SOL    HW238010   3.261   3.366   3.941 -2.0584 -0.6081  0.3861
 8850SOL     OW38011   0.641   0.022   6.945 -0.5086  0.3321 -0.4214
 8850SOL    HW138012   0.611   4.706   7.028 -2.5275  0.6392 -0.9867
 8850SOL    HW238013   0.731   0.044   6.968 -0.7228  0.0986  0.6632
 8851SOL     OW38014   0.747   3.263  14.767 -0.1654 -0.1120  0.5986
 8851SOL    HW138015   0.690   3.253  14.843 -0.7753 -0.7584  0.0616
 8851SOL    HW238016   0.712   3.195  14.709  2.2944  0.7960 -1.9609
 8852SOL     OW38017   3.450   4.653   2.740  0.4950  0.8611 -0.3720
 8852SOL    HW138018   3.365   4.666   2.700  0.3687  0.3244 -0.2740
 8852SOL    HW238019   3.451   4.708   2.819  3.0906 -0.9373  0.8704
 8853SOL     OW38020   1.798   0.376  12.314 -0.0043 -0.1193 -0.1873
 8853SOL    HW138021   1.708   0.375  12.281  0.8045  0.5263 -2.4382
 8853SOL    HW238022   1.813   0.465  12.348 -0.1663 -0.6953  1.3921
 8854SOL     OW38023   4.065   4.638   8.527 -0.0178 -0.1300  0.4529
 8854SOL    HW138024   4.016   4.618   8.607 -1.2455  1.3202  0.0831
 8854SOL    HW238025   4.145   4.680   8.557  0.3487 -1.2586  1.0276
 8855SOL     OW38026   2.841   4.462   4.417  0.5271  0.0589  0.2119
 8855SOL    HW138027   2.861   4.456   4.324 -1.6490 -0.3107 -0.2320
 8855SOL    HW238028   2.853   4.370   4.440 -0.4028  0.3364  1.8195
 8856SOL     OW38029   1.313   3.311  12.962 -0.6090 -0.1070  0.0795
 8856SOL    HW138030   1.333   3.274  13.048 -1.0102 -4.0784 -1.5402
 8856SOL    HW238031   1.405   3.332  12.944 -0.4084 -0.0657  1.1984
 8857SOL     OW38032   1.993   3.735   0.311  0.1393 -0.0910 -0.6373
 8857SOL    HW138033   2.042   3.666   0.355 -2.9494 -2.1485 -0.4457
 8857SOL    HW238034   1.917   3.690   0.274  0.7221 -0.2076 -1.7002
 8858SOL     OW38035   4.602   4.547   3.024 -0.4473 -0.7545 -0.0700
 8858SOL    HW138036   4.528   4.608   3.028 -0.9528 -1.3355 -0.5968
 8858SOL    HW238037   4.612   4.553   2.929 -0.2555  0.4108  0.0236
 8859SOL     OW38038   0.525   0.743   1.350 -0.1551 -0.0237 -0.3319
 8859SOL    HW138039   0.433   0.730   1.371 -0.4497  0.1384 -1.5055
 8859SOL    HW238040   0.552   0.750   1.442  0.4326  0.4182 -0.5390
 8860SOL     OW38041   0.649   3.871  14.120  0.0173 -0.5105 -0.0092
 8860SOL    HW138042   0.718   3.872  14.053  2.7563  1.0975  2.8128
 8860SOL    HW238043   0.570   3.857  14.068  0.4434 -1.5057 -0.4043
 8861SOL     OW38044   2.554   2.215   8.972 -0.1874  0.0255  0.1704
 8861SOL    HW138045   2.643   2.220   9.005 -0.4110 -1.7773  1.0738
 8861SOL    HW238046   2.552   2.293   8.916  0.9264  0.6481  1.0008
 8862SOL     OW38047   0.518   3.525   9.871  0.8468  0.2135 -0.2324
 8862SOL    HW138048   0.450   3.590   9.855  1.8690  0.9496 -1.6168
 8862SOL    HW238049   0.463   3.453   9.904  0.9124 -0.2425 -1.1056
 8863SOL     OW38050   2.417   1.318   6.267  0.2997 -0.2199 -0.2566
 8863SOL    HW138051   2.497   1.357   6.302  0.2345  0.9361 -1.3976
 8863SOL    HW238052   2.371   1.289   6.346  0.5870  0.9656  0.3626
 8864SOL     OW38053   2.995   4.453  15.947 -0.1612  0.1791 -0.7538
 8864SOL    HW138054   2.947   4.465  16.029  0.3579 -1.9119 -0.1452
 8864SOL    HW238055   2.938   4.389  15.904 -1.3073 -0.3241  1.5520
 8865SOL     OW38056   1.051   3.235   6.059  0.3464 -0.3857 -0.5991
 8865SOL    HW138057   1.122   3.264   6.002 -0.4910  1.5408 -0.6721
 8865SOL    HW238058   1.098   3.212   6.138 -1.1118 -2.0118 -0.2013
 8866SOL     OW38059   2.673   0.397  15.620  0.8345  0.2981  0.4026
 8866SOL    HW138060   2.610   0.415  15.550 -0.6881 -0.5356  1.5612
 8866SOL    HW238061   2.688   0.486  15.650 -0.6975  0.2707  1.3170
 8867SOL     OW38062   2.389   2.485   7.255 -0.1414  0.1182  0.1259
 8867SOL    HW138063   2.381   2.525   7.169 -0.6976  2.7931  1.4288
 8867SOL    HW238064   2.434   2.552   7.306  0.1105 -0.4036  0.5893
 8868SOL     OW38065   0.964   1.927   9.164  0.3249  0.4713  0.3526
 8868SOL    HW138066   0.876   1.965   9.173  0.4744  0.6023  1.2917
 8868SOL    HW238067   1.008   1.964   9.241 -0.0600 -0.5322  1.0493
 8869SOL     OW38068   0.053   3.157   0.143  0.6695 -0.1357 -0.1668
 8869SOL    HW138069   0.147   3.151   0.130  0.8062  0.8700  0.3423
 8869SOL    HW238070   0.023   3.124   0.059  1.6862 -1.5562  0.0320
 8870SOL     OW38071   4.099   1.395  11.059  0.1763 -0.2544  0.8212
 8870SOL    HW138072   4.047   1.463  11.102  1.1586  1.7752 -1.2222
 8870SOL    HW238073   4.184   1.440  11.051  0.6473 -0.9342  2.0186
 8871SOL     OW38074   0.943   1.935  17.134 -0.0423  0.0851 -0.1241
 8871SOL    HW138075   0.874   1.969  17.077 -3.0714 -0.3034  3.2977
 8871SOL    HW238076   1.010   1.896  17.078  1.7572  1.3972  1.1074
 8872SOL     OW38077   4.220   4.629   9.570 -0.2016 -0.2105  0.3434
 8872SOL    HW138078   4.161   4.693   9.611 -0.1083 -0.4148  0.7949
 8872SOL    HW238079   4.158   4.603   9.502  0.7316 -0.0959 -0.5428
 8873SOL     OW38080   1.500   4.529   6.640 -0.0956  0.2604  0.0626
 8873SOL    HW138081   1.520   4.596   6.706 -1.6722  0.7734  0.0190
 8873SOL    HW238082   1.586   4.487   6.640  1.0080  2.4613 -3.0714
 8874SOL     OW38083   4.228   3.381   1.364  0.2611  0.0674 -0.0388
 8874SOL    HW138084   4.144   3.392   1.409 -0.0368  0.1373 -0.6104
 8874SOL    HW238085   4.218   3.435   1.285 -0.5009 -0.3900 -0.2621
 8875SOL     OW38086   3.047   4.608   7.874  0.0404  0.2894  0.2477
 8875SOL    HW138087   2.965   4.654   7.856 -0.0841  1.2604  3.2557
 8875SOL    HW238088   3.022   4.521   7.844 -1.4192  0.2244  1.6533
 8876SOL     OW38089   3.749   1.119  10.519 -0.2085  0.1542  0.2865
 8876SOL    HW138090   3.804   1.171  10.461 -1.9821 -0.5402 -2.0116
 8876SOL    HW238091   3.818   1.108  10.585 -0.7266  1.8320  1.1147
 8877SOL     OW38092   0.722   4.604   8.288  0.4586 -0.0391 -0.1641
 8877SOL    HW138093   0.661   4.659   8.336 -0.9853 -1.1031 -0.7778
 8877SOL    HW238094   0.676   4.521   8.299  1.8100 -0.5818  1.3828
 8878SOL     OW38095   0.969   3.031   2.249 -0.4243  0.7375  0.1832
 8878SOL    HW138096   0.888   3.076   2.274 -0.5441 -0.6486  2.3662
 8878SOL    HW238097   1.035   3.084   2.293  0.7375 -0.6305  0.0914
 8879SOL     OW38098   1.855   2.171   3.562 -0.0910  0.1962  0.5123
 8879SOL    HW138099   1.939   2.191   3.602  0.0497  1.8386 -0.5816
 8879SOL    HW238100   1.871   2.157   3.468 -0.6962  0.6445  0.3425
 8880SOL     OW38101   3.108   0.285   3.620 -0.4328  0.3506  0.1131
 8880SOL    HW138102   3.175   0.307   3.684 -3.1895  2.4146  2.3234
 8880SOL    HW238103   3.076   0.200   3.651 -0.0509 -0.3061 -1.2863
 8881SOL     OW38104   3.982   4.700  11.080 -0.0680 -0.0962  0.4443
 8881SOL    HW138105   3.989   4.681  11.174 -0.2270  1.2803  0.7338
 8881SOL    HW238106   4.034   0.058  11.075  0.5985 -0.4614  1.4120
 8882SOL     OW38107   1.395   3.289   5.414 -0.3360  0.5749  0.4422
 8882SOL    HW138108   1.448   3.270   5.492  0.6065  0.5353 -0.2090
 8882SOL    HW238109   1.450   3.350   5.365 -0.0568 -0.7652 -0.8766
 8883SOL     OW38110   2.331   0.244   7.359 -0.6719  0.2796  0.0643
 8883SOL    HW138111   2.281   0.194   7.424 -1.1838 -0.4143 -0.8617
 8883SOL    HW238112   2.288   0.327   7.380 -2.0543 -0.0909 -1.3669
 8884SOL     OW38113   3.283   1.744   7.578  0.2022 -0.1345 -0.1884
 8884SOL    HW138114   3.346   1.800   7.532 -0.7516  1.1480  0.0508
 8884SOL    HW238115   3.255   1.794   7.654 -1.8080 -0.7380 -0.5360
 8885SOL     OW38116   0.275   2.575   2.354 -0.0522  0.2304  0.0429
 8885SOL    HW138117   0.306   2.636   2.286 -1.6742  0.9795 -0.0197
 8885SOL    HW238118   0.218   2.517   2.304 -0.4338  0.8942 -0.2921
 8886SOL     OW38119   2.189   2.625   5.220  0.2257 -0.2354 -0.3877
 8886SOL    HW138120   2.152   2.559   5.279  0.5976  0.2557  0.3982
 8886SOL    HW238121   2.130   2.699   5.233  1.2576  1.0138 -2.9665
 8887SOL     OW38122   1.953   1.116  11.928 -0.3025  0.7598 -0.4499
 8887SOL    HW138123   1.928   1.083  11.841 -1.2153  1.8021 -0.5844
 8887SOL    HW238124   1.900   1.195  11.925 -0.5085  0.7486  3.8799
 8888SOL     OW38125   0.063   0.303  13.974  0.7712 -0.2908  0.3086
 8888SOL    HW138126   0.102   0.313  14.061  0.7985  0.8177  0.1647
 8888SOL    HW238127   0.000   0.233  13.994  0.6395  0.1519  1.4543
 8889SOL     OW38128   2.193   4.024   6.802 -0.2411  0.1109 -0.2458
 8889SOL    HW138129   2.183   3.954   6.867  0.4418 -0.1864 -0.4634
 8889SOL    HW238130   2.246   4.089   6.848  0.4808  0.4008 -1.4926
 8890SOL     OW38131   2.891   1.881   3.741  0.0700 -0.5009  0.1471
 8890SOL    HW138132   2.986   1.876   3.752  0.2148 -1.5121 -1.5559
 8890SOL    HW238133   2.878   1.840   3.656 -0.1855 -2.4923  1.1228
 8891SOL     OW38134   0.802   3.697  10.005  0.1295 -0.2393  0.6895
 8891SOL    HW138135   0.880   3.751  10.020 -0.4062  0.6665  0.1816
 8891SOL    HW238136   0.788   3.653  10.088 -1.5158  0.7401  0.9229
 8892SOL     OW38137   4.578   1.616  11.858  0.3604 -0.2041 -0.2407
 8892SOL    HW138138   4.503   1.558  11.871  1.2917 -1.5189 -0.7393
 8892SOL    HW238139   4.563   1.680  11.927 -0.0641  0.0954 -0.6088
 8893SOL     OW38140   2.402   3.525   4.080 -0.3735  0.0011 -0.2054
 8893SOL    HW138141   2.308   3.540   4.083 -0.9544 -3.3698 -1.5012
 8893SOL    HW238142   2.407   3.485   4.167  1.1094 -0.8691 -0.6882
 8894SOL     OW38143   1.815   1.745   2.467  0.0767 -0.1240  0.3231
 8894SOL    HW138144   1.731   1.791   2.462  0.2744  0.1879 -0.1269
 8894SOL    HW238145   1.873   1.820   2.481 -0.5824  0.5458 -0.5184
 8895SOL     OW38146   2.132   0.468   6.195 -0.3009 -0.6621  0.2746
 8895SOL    HW138147   2.194   0.399   6.174 -1.8467 -1.9790  0.0497
 8895SOL    HW238148   2.131   0.459   6.290  0.0218  0.0891  0.3527
 8896SOL     OW38149   0.420   1.154   4.820 -0.3194  0.0073  0.0725
 8896SOL    HW138150   0.343   1.121   4.866 -1.6278  0.5961 -1.6644
 8896SOL    HW238151   0.431   1.071   4.774  0.4611  0.4151 -0.4828
 8897SOL     OW38152   0.697   1.154  13.152 -0.1323 -0.2308 -0.0861
 8897SOL    HW138153   0.708   1.248  13.166  1.4849 -0.0412 -2.6419
 8897SOL    HW238154   0.781   1.136  13.111 -0.3860 -1.5842 -0.0028
 8898SOL     OW38155   2.827   2.310   1.328  0.4443  0.5176  0.2575
 8898SOL    HW138156   2.909   2.294   1.375  2.7889  1.2821 -3.4965
 8898SOL    HW238157   2.791   2.387   1.370 -0.7383  0.3288 -0.3988
 8899SOL     OW38158   1.456   3.899   8.454  0.4372  0.0938  0.3481
 8899SOL    HW138159   1.418   3.968   8.509  2.7318  1.7130 -0.0984
 8899SOL    HW238160   1.374   3.858   8.428  1.2271 -0.5721 -1.0941
 8900SOL     OW38161   1.994   2.475   7.603  0.4915  0.2802  0.0209
 8900SOL    HW138162   2.021   2.545   7.543  1.2937 -0.8607 -0.9592
 8900SOL    HW238163   2.078   2.467   7.649  0.5759  1.3121  0.0313
 8901SOL     OW38164   1.821   1.733   6.930 -0.4029 -0.3941  0.0584
 8901SOL    HW138165   1.791   1.700   7.015  0.1240 -2.2447 -0.4717
 8901SOL    HW238166   1.824   1.654   6.877 -0.4200 -1.1086  1.1250
 8902SOL     OW38167   0.459   1.974  11.412 -0.0093  0.1973 -0.4831
 8902SOL    HW138168   0.396   2.007  11.475  1.2024 -0.1785  0.9295
 8902SOL    HW238169   0.534   2.033  11.410  0.1531  0.0434  1.1268
 8903SOL     OW38170   4.489   2.143   7.326  0.0192 -0.0596 -0.6666
 8903SOL    HW138171   4.483   2.093   7.407 -2.1687  0.2648 -0.6351
 8903SOL    HW238172   4.548   2.083   7.279  0.4964 -2.3946  2.9403
 8904SOL     OW38173   1.788   3.945   4.208 -0.4510 -0.1233 -0.6079
 8904SOL    HW138174   1.771   3.867   4.262 -1.5933  0.2032 -0.5045
 8904SOL    HW238175   1.758   3.916   4.122 -0.0313 -3.4814  0.3431
 8905SOL     OW38176   1.576   0.976   7.784 -0.2897 -0.0306  0.0264
 8905SOL    HW138177   1.569   0.884   7.759  0.4418 -0.1518  0.2521
 8905SOL    HW238178   1.484   0.992   7.803 -0.9973  0.3965 -3.6555
 8906SOL     OW38179   4.411   2.291   3.154 -0.3991 -0.6040 -0.0359
 8906SOL    HW138180   4.462   2.312   3.075 -1.3876 -0.3513 -0.6070
 8906SOL    HW238181   4.478   2.310   3.219 -2.9483  1.2645  2.0383
 8907SOL     OW38182   2.550   1.377   1.272  0.2987 -0.0107 -0.5007
 8907SOL    HW138183   2.580   1.286   1.279 -0.0838 -0.1501 -0.6638
 8907SOL    HW238184   2.623   1.427   1.238 -0.4601  0.0179 -2.0982
 8908SOL     OW38185   3.076   4.607   2.273  0.1039  0.2309  0.5358
 8908SOL    HW138186   3.116   4.694   2.274 -0.5329  0.5510 -2.5802
 8908SOL    HW238187   3.117   4.589   2.188 -2.4101 -0.9735 -0.4009
 8909SOL     OW38188   1.153   3.000   5.600 -0.4581 -0.1245 -0.0267
 8909SOL    HW138189   1.079   3.053   5.631  1.0421  1.9686 -0.0495
 8909SOL    HW238190   1.131   2.929   5.661  2.0143  0.3286  1.3945
 8910SOL     OW38191   3.363   2.642   4.118 -0.3765 -0.2540 -0.3427
 8910SOL    HW138192   3.279   2.645   4.165 -1.1782 -0.7931 -1.7299
 8910SOL    HW238193   3.342   2.704   4.048  1.0474 -1.9374 -2.2756
 8911SOL     OW38194   3.788   1.975   5.853  0.3385  0.0058 -0.0987
 8911SOL    HW138195   3.866   2.018   5.817 -0.1512 -1.7371 -3.2576
 8911SOL    HW238196   3.828   1.902   5.899 -0.9579  0.6165  1.9835
 8912SOL     OW38197   2.647   0.182  13.257 -0.1198  0.1849  0.0041
 8912SOL    HW138198   2.685   0.259  13.300  0.0349  0.3264 -0.3854
 8912SOL    HW238199   2.566   0.165  13.305  0.4513  0.8534  1.2110
 8913SOL     OW38200   0.893   3.124   5.390  0.0756 -0.2384 -0.0571
 8913SOL    HW138201   0.895   3.033   5.421 -1.4795 -0.0765  0.5135
 8913SOL    HW238202   0.812   3.125   5.340 -0.0709 -1.7454  0.1414
 8914SOL     OW38203   1.461   4.405  17.387  0.2577 -0.3706  0.0197
 8914SOL    HW138204   1.465   4.354  17.306 -1.4378 -1.2508  0.4925
 8914SOL    HW238205   1.371   4.398  17.417  0.4823  1.1821  1.0334
 8915SOL     OW38206   0.933   1.208   9.035 -0.2917  0.0385  0.1188
 8915SOL    HW138207   0.891   1.131   8.997  0.2048 -0.3452  0.3399
 8915SOL    HW238208   1.017   1.200   8.989  0.6460 -0.4153  1.9017
 8916SOL     OW38209   2.975   0.597   1.550  0.2081 -0.3174  0.5583
 8916SOL    HW138210   2.995   0.507   1.522  1.9569  0.6940 -1.4802
 8916SOL    HW238211   3.032   0.605   1.626 -1.9438 -0.3040  2.1468
 8917SOL     OW38212   0.450   2.525   8.250 -0.4153  0.3618 -0.3319
 8917SOL    HW138213   0.439   2.432   8.268 -0.4833  0.4591  0.1297
 8917SOL    HW238214   0.358   2.552   8.261 -0.5504  0.2985 -1.3009
 8918SOL     OW38215   1.748   1.164   5.933  0.0084  0.3960  0.0517
 8918SOL    HW138216   1.817   1.119   5.982 -0.9087 -1.7282 -0.6290
 8918SOL    HW238217   1.672   1.117   5.965  1.3544 -1.1081  1.0432
 8919SOL     OW38218   2.600   2.567   4.370 -0.4615  0.3439 -0.2802
 8919SOL    HW138219   2.604   2.614   4.453 -1.1527  0.1795 -0.1513
 8919SOL    HW238220   2.650   2.492   4.400 -0.5274  0.9025  1.1977
 8920SOL     OW38221   0.008   3.189   2.150  0.3484  0.0889 -0.0988
 8920SOL    HW138222   0.041   3.256   2.090 -0.6310  0.9457  0.3287
 8920SOL    HW238223   0.014   3.231   2.236 -1.9618  0.1734  0.0151
 8921SOL     OW38224   3.738   3.105  10.458 -0.1101  0.1178  0.0059
 8921SOL    HW138225   3.708   3.070  10.374 -3.0552  2.1564  0.2092
 8921SOL    HW238226   3.758   3.016  10.487 -2.1639 -0.8545 -1.5179
 8922SOL     OW38227   0.086   0.851   4.526  0.0092 -0.2758 -0.1655
 8922SOL    HW138228   0.021   0.918   4.508  0.1628 -0.2490 -0.6324
 8922SOL    HW238229   0.111   0.867   4.617  0.4649 -0.7048 -0.2125
 8923SOL     OW38230   3.537   3.574   6.882 -0.8688  0.0691 -0.5071
 8923SOL    HW138231   3.446   3.551   6.902 -0.6546 -1.0003 -0.7475
 8923SOL    HW238232   3.563   3.509   6.817  0.4891  0.6381 -0.5323
 8924SOL     OW38233   0.378   1.431   4.433 -0.1049  0.4871  0.3040
 8924SOL    HW138234   0.368   1.412   4.527 -0.5181  4.0147  0.9888
 8924SOL    HW238235   0.284   1.433   4.414 -0.1618  1.6395  0.6409
 8925SOL     OW38236   0.894   0.996   2.950 -0.0392  0.2203 -0.1717
 8925SOL    HW138237   0.920   0.987   2.858 -1.7182 -0.4595 -0.5877
 8925SOL    HW238238   0.812   1.040   2.932 -0.8277 -2.1089 -2.3561
 8926SOL     OW38239   1.475   1.671   9.062  0.2377  0.2193  0.1831
 8926SOL    HW138240   1.423   1.621   9.125 -0.5949  3.1720  1.8162
 8926SOL    HW238241   1.550   1.615   9.043  0.5912  1.2438 -1.4038
 8927SOL     OW38242   1.460   4.370   1.307 -0.2897  0.4004 -0.4086
 8927SOL    HW138243   1.482   4.340   1.395 -0.5991  1.3608  0.0021
 8927SOL    HW238244   1.494   4.304   1.248  0.9534  0.9788 -0.3603
 8928SOL     OW38245   0.927   3.850   0.770 -0.6186 -0.1373  0.6073
 8928SOL    HW138246   0.869   3.921   0.746 -0.8700 -1.0374 -1.4635
 8928SOL    HW238247   0.865   3.798   0.822 -0.2178  0.6220  1.8506
 8929SOL     OW38248   2.593   0.465   4.750 -0.5292  0.0605 -0.4025
 8929SOL    HW138249   2.638   0.540   4.712  1.4130 -0.6120  0.5830
 8929SOL    HW238250   2.583   0.417   4.668 -0.5463 -2.2116  0.9433
 8930SOL     OW38251   0.293   2.749   0.711  0.8130 -0.4049 -0.6145
 8930SOL    HW138252   0.204   2.757   0.744  1.4050  1.6069  0.4407
 8930SOL    HW238253   0.279   2.796   0.630 -1.7587  0.2947  0.2430
 8931SOL     OW38254   1.935   1.748  10.517  0.7354 -0.2983 -0.1300
 8931SOL    HW138255   1.994   1.681  10.552 -0.1391 -0.5474  0.8518
 8931SOL    HW238256   1.912   1.797  10.595  1.3258  2.9858 -2.0415
 8932SOL     OW38257   4.328   3.018   6.263 -0.2458 -0.2437 -0.2249
 8932SOL    HW138258   4.326   3.022   6.168  1.4122 -0.3332 -0.2731
 8932SOL    HW238259   4.256   2.955   6.271  0.0675 -0.4031  1.5001
 8933SOL     OW38260   1.034   3.372   1.453 -0.6156 -0.4096 -0.3247
 8933SOL    HW138261   1.108   3.319   1.480 -0.4098  1.1324  2.1594
 8933SOL    HW238262   1.025   3.340   1.363 -0.4377  0.5683 -0.6925
 8934SOL     OW38263   1.643   4.060   1.427 -0.1173  0.5287 -0.5142
 8934SOL    HW138264   1.676   4.068   1.517  0.4604 -0.9065 -0.5982
 8934SOL    HW238265   1.703   3.994   1.392 -1.4192 -0.8628 -0.0779
 8935SOL     OW38266   3.212   2.547   7.761  0.6999  0.0115 -0.6578
 8935SOL    HW138267   3.146   2.576   7.824  0.1663 -0.5919 -0.9343
 8935SOL    HW238268   3.254   2.477   7.810  2.2834  2.7141  1.8114
 8936SOL     OW38269   0.397   0.932   7.789  0.5421 -0.1036  0.4855
 8936SOL    HW138270   0.305   0.953   7.806 -0.0344 -1.7379 -0.6267
 8936SOL    HW238271   0.391   0.947   7.695 -0.8829 -0.2213  0.5547
 8937SOL     OW38272   0.218   1.809  10.053 -0.5566 -0.5029 -0.1486
 8937SOL    HW138273   0.282   1.744  10.083 -0.0066  0.6318  1.0776
 8937SOL    HW238274   0.148   1.779  10.111  1.5416 -2.2346  1.4588
 8938SOL     OW38275   1.677   4.517  16.460 -0.0892 -0.1315  0.3120
 8938SOL    HW138276   1.740   4.452  16.429  0.8107 -0.6439  3.2446
 8938SOL    HW238277   1.652   4.543  16.371  1.5433  0.5512  0.0571
 8939SOL     OW38278   1.000   3.731  11.676  0.6369  0.1604  0.0720
 8939SOL    HW138279   1.014   3.677  11.753 -1.2236  0.1228  0.3891
 8939SOL    HW238280   0.962   3.662  11.622  0.9409 -0.5205  0.7313
 8940SOL     OW38281   2.881   0.692   6.398  0.5589  0.3062  0.0939
 8940SOL    HW138282   2.814   0.659   6.338  0.6603  1.8456 -0.8640
 8940SOL    HW238283   2.853   0.783   6.404 -0.2068  0.1978 -1.7695
 8941SOL     OW38284   2.487   0.757   6.598  0.0492 -0.3710  0.2150
 8941SOL    HW138285   2.442   0.673   6.605  1.0272 -0.9386 -0.3388
 8941SOL    HW238286   2.581   0.744   6.615 -0.0063 -0.3958  0.5094
 8942SOL     OW38287   1.040   3.706  13.053  0.0792 -0.5912 -0.0170
 8942SOL    HW138288   0.953   3.733  13.023  0.2950  1.9150  1.5924
 8942SOL    HW238289   1.046   3.610  13.050  2.9504 -0.4551  0.5731
 8943SOL     OW38290   2.669   2.353   4.902 -0.2708 -0.2873  0.1293
 8943SOL    HW138291   2.712   2.381   4.983 -2.2837  1.7352  0.4867
 8943SOL    HW238292   2.727   2.283   4.871  2.1361  1.5512  0.4495
 8944SOL     OW38293   2.613   1.947   3.928  0.1414 -0.0833  0.2303
 8944SOL    HW138294   2.542   1.890   3.957 -2.2789  1.4954 -2.7330
 8944SOL    HW238295   2.681   1.917   3.989  0.1584 -0.4691  0.0249
 8945SOL     OW38296   2.266   3.697  15.752 -0.0278 -0.1708 -0.0221
 8945SOL    HW138297   2.326   3.739  15.691  1.4413 -1.6023  0.4333
 8945SOL    HW238298   2.318   3.725  15.827  0.1021  0.7342 -0.4607
 8946SOL     OW38299   1.582   0.425   9.830 -0.4207  0.0190  0.4847
 8946SOL    HW138300   1.652   0.482   9.862 -1.7587  0.5902  2.4213
 8946SOL    HW238301   1.503   0.478   9.835 -1.6078 -1.8193  1.1933
 8947SOL     OW38302   3.644   2.284   1.749 -0.1274  0.6100  0.0747
 8947SOL    HW138303   3.729   2.299   1.709 -0.0814  0.4970  0.1299
 8947SOL    HW238304   3.588   2.290   1.672  0.4909  0.1662 -0.4116
 8948SOL     OW38305   0.659   4.039  14.330 -0.5183 -0.2210 -0.0011
 8948SOL    HW138306   0.591   3.995  14.380 -0.2678  1.7880  2.1146
 8948SOL    HW238307   0.671   3.978  14.257  2.7856  0.1521  0.2380
 8949SOL     OW38308   3.845   2.831   5.434 -0.2346 -0.0594  0.0170
 8949SOL    HW138309   3.905   2.765   5.399  0.0546 -0.4012  1.1598
 8949SOL    HW238310   3.857   2.902   5.370  0.5763 -0.7434 -0.5897
 8950SOL     OW38311   1.845   3.864   6.214 -0.2013  0.3345  0.6263
 8950SOL    HW138312   1.864   3.957   6.215  0.3101  0.2416 -2.1508
 8950SOL    HW238313   1.930   3.827   6.237 -0.2793  0.3487  0.9404
 8951SOL     OW38314   1.896   4.330   7.645 -0.0442 -0.2158  0.1983
 8951SOL    HW138315   1.956   4.397   7.610 -1.5795  1.3473  0.5819
 8951SOL    HW238316   1.917   4.261   7.582 -1.8216 -1.4471  0.9694
 8952SOL     OW38317   0.212   1.199   3.501 -0.7267 -0.1003  0.1502
 8952SOL    HW138318   0.288   1.231   3.549  0.3790  0.6381 -2.0753
 8952SOL    HW238319   0.149   1.268   3.521 -1.2260 -0.1994 -1.0799
 8953SOL     OW38320   4.595   1.629  12.706 -0.1247 -0.4021 -0.1843
 8953SOL    HW138321   4.598   1.575  12.628  1.1874 -0.5284 -0.0551
 8953SOL    HW238322   4.691   1.633  12.712 -0.1445 -0.8632  0.3850
 8954SOL     OW38323   1.345   1.872   6.744 -0.1877  0.1473 -0.5051
 8954SOL    HW138324   1.290   1.867   6.666 -0.0963  1.1656 -0.6357
 8954SOL    HW238325   1.274   1.868   6.808 -0.2580 -1.2209 -0.6646
 8955SOL     OW38326   0.559   0.756   7.025 -0.5528 -0.2209  0.0276
 8955SOL    HW138327   0.559   0.850   7.040 -2.6875 -0.3228  0.6995
 8955SOL    HW238328   0.626   0.732   7.090  0.2635  1.8192 -0.0784
 8956SOL     OW38329   3.996   4.716   5.249  0.1864 -0.7963 -0.0309
 8956SOL    HW138330   4.066   0.057   5.263 -0.0544 -0.4844 -0.2328
 8956SOL    HW238331   3.928   0.026   5.308 -0.1845  0.1617 -0.9780
 8957SOL     OW38332   1.759   0.649  11.437  0.0698 -0.2303  0.6491
 8957SOL    HW138333   1.668   0.638  11.409 -0.1261 -0.7097  1.4508
 8957SOL    HW238334   1.772   0.571  11.491 -2.4748 -2.7975 -2.4379
 8958SOL     OW38335   1.082   4.206  15.994 -0.3283 -0.1298 -0.0613
 8958SOL    HW138336   1.077   4.177  16.085  0.1503  1.9328  0.6044
 8958SOL    HW238337   1.169   4.177  15.966  0.4604  0.1444  2.1583
 8959SOL     OW38338   2.426   1.646   8.090  0.0057  0.1485 -0.5075
 8959SOL    HW138339   2.435   1.737   8.120 -1.2666 -0.1155  0.6657
 8959SOL    HW238340   2.381   1.614   8.168  0.7459 -0.5074 -0.3537
 8960SOL     OW38341   4.190   2.877   4.637  0.2478 -0.1497  0.4763
 8960SOL    HW138342   4.198   2.951   4.697 -1.6663 -0.0129  0.5586
 8960SOL    HW238343   4.276   2.835   4.635  0.0488 -0.5333 -0.1414
 8961SOL     OW38344   4.419   0.278   8.125  0.2923 -0.6133 -0.1650
 8961SOL    HW138345   4.365   0.209   8.163 -1.2721  0.0292 -1.1848
 8961SOL    HW238346   4.479   0.302   8.196  0.8877 -0.4856 -0.7100
 8962SOL     OW38347   2.841   2.508   0.931  0.1316  0.1775 -0.4918
 8962SOL    HW138348   2.818   2.563   0.856 -2.8533  0.2507  0.4608
 8962SOL    HW238349   2.818   2.427   0.884  3.8217 -1.8228  1.1486
 8963SOL     OW38350   3.543   4.010  17.541  0.2329  0.8335 -0.0100
 8963SOL    HW138351   3.572   4.100  17.553  1.7667  0.6757 -2.4745
 8963SOL    HW238352   3.532   3.975  17.629  0.8891  1.9340  0.5018
 8964SOL     OW38353   0.768   4.354  15.642 -0.3543 -0.3259  0.3579
 8964SOL    HW138354   0.848   4.349  15.694 -1.0399  1.7479  1.6418
 8964SOL    HW238355   0.746   4.448  15.640 -2.8789 -0.8877  1.1028
 8965SOL     OW38356   0.334   3.015   2.936 -0.2160  0.3958  0.1292
 8965SOL    HW138357   0.273   2.971   2.878  1.9287  0.9609 -2.5645
 8965SOL    HW238358   0.323   2.980   3.025  0.5762 -1.8120 -0.6283
 8966SOL     OW38359   0.810   3.713   2.996 -0.2675 -0.0211 -0.1509
 8966SOL    HW138360   0.740   3.776   3.012  0.0951 -0.0887  1.6607
 8966SOL    HW238361   0.803   3.710   2.901 -1.3747 -2.3136  0.0007
 8967SOL     OW38362   4.637   4.300   7.409 -0.5094  0.1484  0.2028
 8967SOL    HW138363   4.616   4.268   7.322 -0.4158  0.0946  0.1994
 8967SOL    HW238364   4.671   4.221   7.452  0.7098  0.3071 -0.4735
 8968SOL     OW38365   1.575   0.771  15.924 -0.5162 -0.4203  0.0577
 8968SOL    HW138366   1.493   0.809  15.894  0.7727  1.3515 -1.2232
 8968SOL    HW238367   1.633   0.816  15.862 -1.2034  1.3958  0.7572
 8969SOL     OW38368   1.245   0.548   8.107 -0.5037  0.1812  0.3093
 8969SOL    HW138369   1.211   0.603   8.178  0.8560  1.2146  0.1569
 8969SOL    HW238370   1.334   0.580   8.124  0.1544  0.5002 -3.8089
 8970SOL     OW38371   0.652   2.608   9.301  0.3887 -0.0470 -0.0536
 8970SOL    HW138372   0.564   2.606   9.339  0.1218 -0.3776 -0.6788
 8970SOL    HW238373   0.704   2.616   9.380  1.5788  2.9604 -1.1475
 8971SOL     OW38374   3.360   3.736   4.183 -0.2242 -0.0988 -0.4147
 8971SOL    HW138375   3.379   3.750   4.090  1.3418 -2.1964 -0.3947
 8971SOL    HW238376   3.364   3.643   4.202 -0.4241 -0.3687 -1.7429
 8972SOL     OW38377   4.474   3.385   5.240 -0.1504  0.1563  0.4676
 8972SOL    HW138378   4.453   3.350   5.326 -2.5603  0.1377 -0.1188
 8972SOL    HW238379   4.458   3.304   5.192  1.9492 -0.5144  0.9264
 8973SOL     OW38380   0.247   2.162  11.047  0.3513 -0.6438  0.4175
 8973SOL    HW138381   0.272   2.082  11.092  0.0843 -1.1469 -0.3188
 8973SOL    HW238382   0.153   2.146  11.052  0.0858  1.2402  1.3240
 8974SOL     OW38383   0.671   3.541   7.985 -0.1877 -0.6078 -0.3863
 8974SOL    HW138384   0.739   3.488   8.026  0.0136 -0.6801 -0.8126
 8974SOL    HW238385   0.606   3.546   8.055  0.9732  1.3961  0.5257
 8975SOL     OW38386   2.180   2.707  14.539 -0.3172 -0.0438 -0.8010
 8975SOL    HW138387   2.275   2.714  14.550 -0.0264 -0.9501 -2.8256
 8975SOL    HW238388   2.150   2.661  14.618 -0.0323 -0.1244 -0.7391
 8976SOL     OW38389   1.822   3.539   0.466  0.1461 -0.3133 -0.1129
 8976SOL    HW138390   1.798   3.620   0.511 -1.5886 -1.4100  0.8702
 8976SOL    HW238391   1.807   3.549   0.371 -1.9147  0.6403  0.3184
 8977SOL     OW38392   3.486   3.308  14.942  0.0719 -0.2071  0.1819
 8977SOL    HW138393   3.551   3.251  14.983  0.5955  0.4642  0.2900
 8977SOL    HW238394   3.543   3.383  14.927  3.3147 -2.4977  1.2074
 8978SOL     OW38395   4.016   2.012   2.872 -0.0415  0.2296 -0.6890
 8978SOL    HW138396   3.961   1.971   2.806 -0.8331  1.7169 -0.9631
 8978SOL    HW238397   3.995   2.103   2.852 -3.9242  0.2330  3.1183
 8979SOL     OW38398   4.615   4.654   8.879 -0.0557 -0.9213  0.3163
 8979SOL    HW138399   4.710   4.654   8.866 -0.1768 -0.7743 -0.5582
 8979SOL    HW238400   4.599   4.560   8.878 -0.5639 -0.8383  0.5180
 8980SOL     OW38401   0.326   3.058   3.889  0.0786  0.0840  0.0093
 8980SOL    HW138402   0.340   3.056   3.794  1.3761 -2.4407  0.2582
 8980SOL    HW238403   0.344   2.968   3.913 -0.3781 -0.2755 -0.9692
 8981SOL     OW38404   0.165   1.996   5.185  0.2156 -0.4105 -0.0308
 8981SOL    HW138405   0.227   1.932   5.149  1.5589  1.7676 -1.5925
 8981SOL    HW238406   0.224   2.071   5.180 -2.1366  1.2649 -2.7290
 8982SOL     OW38407   4.487   3.434  15.499 -0.4541  0.3364  0.2932
 8982SOL    HW138408   4.421   3.504  15.496  0.2885  0.9420 -1.8054
 8982SOL    HW238409   4.435   3.357  15.520 -0.5312 -0.2407 -1.9723
 8983SOL     OW38410   2.909   0.771   3.830 -0.0244  0.5773  0.3926
 8983SOL    HW138411   2.869   0.778   3.744  0.5007 -1.4305 -0.0084
 8983SOL    HW238412   2.832   0.737   3.875 -0.6638 -0.1767 -1.2825
 8984SOL     OW38413   3.341   1.226  14.721  0.3474  0.0545  0.1885
 8984SOL    HW138414   3.371   1.315  14.705 -3.5489  1.2391 -0.5394
 8984SOL    HW238415   3.262   1.240  14.670  1.0616  0.2991 -0.8601
 8985SOL     OW38416   0.926   3.300  11.576 -0.0706 -0.4327  0.1051
 8985SOL    HW138417   0.835   3.332  11.570  1.2640  3.3466 -0.1523
 8985SOL    HW238418   0.967   3.366  11.521  0.4511 -0.9919 -0.1681
 8986SOL     OW38419   0.870   4.379   6.046  0.0409 -0.1092 -0.6206
 8986SOL    HW138420   0.906   4.332   6.121 -0.6319  1.3801  0.6387
 8986SOL    HW238421   0.843   4.307   5.988 -2.7267  1.1313 -0.8783
 8987SOL     OW38422   2.153   2.015   0.942  0.4729  0.0847 -0.2038
 8987SOL    HW138423   2.121   1.944   0.887 -1.1997 -0.0522  0.9598
 8987SOL    HW238424   2.243   1.992   0.968  1.4144  1.6938 -2.0282
 8988SOL     OW38425   3.083   3.130  13.082  0.5475  0.0586  1.2526
 8988SOL    HW138426   3.080   3.185  13.003  1.6059 -1.2069  0.3228
 8988SOL    HW238427   3.177   3.115  13.080  0.7499  1.5886 -0.9327
 8989SOL     OW38428   1.311   2.931   9.233 -0.2318  0.5145 -0.1710
 8989SOL    HW138429   1.331   2.959   9.323 -1.0360  0.7238 -0.0597
 8989SOL    HW238430   1.245   2.995   9.210 -0.5005 -0.1101 -1.1092
 8990SOL     OW38431   2.713   1.854  17.550  0.2347  0.3162 -0.0732
 8990SOL    HW138432   2.633   1.805  17.531 -0.4575  0.6709  1.9931
 8990SOL    HW238433   2.718   1.924  17.485 -0.0968 -0.6416 -1.1407
 8991SOL     OW38434   0.763   4.209   5.050  0.2517 -0.1741  0.1139
 8991SOL    HW138435   0.773   4.287   4.996 -0.9936  0.7383  1.1899
 8991SOL    HW238436   0.754   4.247   5.137  1.8873  2.5210 -0.9021
 8992SOL     OW38437   4.077   4.513   8.147 -0.5797  0.1799 -0.3465
 8992SOL    HW138438   4.029   4.526   8.065  0.6322  0.2605 -1.0477
 8992SOL    HW238439   4.038   4.592   8.185  0.8300 -0.1223  1.6963
 8993SOL     OW38440   2.645   0.431   5.020  0.0345  0.1230 -0.6754
 8993SOL    HW138441   2.644   0.336   5.023  1.2291  0.1867  1.8978
 8993SOL    HW238442   2.588   0.449   4.946  0.7756 -1.2031 -1.5761
 8994SOL     OW38443   0.669   0.617   9.015  0.5076  0.2456 -0.4078
 8994SOL    HW138444   0.649   0.605   8.923  0.7710  2.4315 -0.7422
 8994SOL    HW238445   0.598   0.674   9.045  1.9172  1.4915  0.6136
 8995SOL     OW38446   3.678   0.583   6.080 -0.0688  0.2671 -0.1722
 8995SOL    HW138447   3.653   0.628   6.000  0.6479  0.2640 -0.3949
 8995SOL    HW238448   3.682   0.649   6.149  0.8956  2.6405 -2.5016
 8996SOL     OW38449   0.353   2.273   8.306 -0.1928  0.6856 -0.9079
 8996SOL    HW138450   0.414   2.199   8.313 -1.2494 -0.2385 -1.3796
 8996SOL    HW238451   0.271   2.225   8.313 -0.9811  2.0284 -0.9853
 8997SOL     OW38452   3.862   1.770   3.132  0.0999  0.7829 -0.1020
 8997SOL    HW138453   3.846   1.723   3.050  0.0752  2.1666 -0.8913
 8997SOL    HW238454   3.913   1.702   3.177 -1.3732 -1.1158 -1.3342
 8998SOL     OW38455   2.256   4.239   1.302  0.7039 -0.5735 -0.1700
 8998SOL    HW138456   2.210   4.162   1.334  2.5053 -2.0230 -1.0580
 8998SOL    HW238457   2.349   4.222   1.318  0.5634 -0.1849  1.0552
 8999SOL     OW38458   0.204   3.003   1.369 -0.1310  0.3124 -0.5213
 8999SOL    HW138459   0.132   3.024   1.429  0.4014  2.6640 -0.6949
 8999SOL    HW238460   0.148   2.991   1.292  2.0476 -3.5784 -1.5012
 9000SOL     OW38461   4.027   0.246   1.252  0.1461 -0.4241  0.0635
 9000SOL    HW138462   4.114   0.281   1.234 -0.5031  1.3189  0.3673
 9000SOL    HW238463   4.037   0.154   1.226 -1.2700 -0.3914 -0.5981
 9001SOL     OW38464   3.857   2.504   6.694  0.4951 -0.2792 -0.2286
 9001SOL    HW138465   3.773   2.469   6.666  0.3355  0.4489 -0.6695
 9001SOL    HW238466   3.829   2.570   6.758 -1.0106 -1.4784  0.3453
 9002SOL     OW38467   4.270   0.224   9.343 -0.0279 -0.0479 -0.3445
 9002SOL    HW138468   4.284   0.213   9.437 -0.7913 -2.2327 -0.4576
 9002SOL    HW238469   4.181   0.260   9.346  0.2903  0.6336  0.9285
 9003SOL     OW38470   3.252   4.561   8.296 -0.1953 -0.2116  0.5477
 9003SOL    HW138471   3.257   4.583   8.389 -0.6005 -1.0350  0.7684
 9003SOL    HW238472   3.303   4.631   8.255 -2.3372  1.2080  0.2859
 9004SOL     OW38473   2.709   3.866   4.443 -0.2832 -0.7415  0.1591
 9004SOL    HW138474   2.803   3.883   4.450 -0.5926  1.4875 -1.2570
 9004SOL    HW238475   2.671   3.951   4.464  2.0083  0.0458  1.1818
 9005SOL     OW38476   2.408   2.566   4.024  0.0704 -0.1021 -0.1951
 9005SOL    HW138477   2.421   2.483   4.072 -1.3355  0.0806  0.5258
 9005SOL    HW238478   2.494   2.598   3.998 -0.2695  0.5557 -0.5128
 9006SOL     OW38479   4.694   4.052   3.953  0.3858  0.1452  0.0648
 9006SOL    HW138480   4.672   3.960   3.966  0.3597 -0.1660 -2.1175
 9006SOL    HW238481   0.067   4.047   3.953  0.3735 -0.1688 -1.0959
 9007SOL     OW38482   3.230   3.357  14.950  0.0547 -0.4695  0.5209
 9007SOL    HW138483   3.321   3.328  14.940  0.1569  0.6039 -1.8239
 9007SOL    HW238484   3.206   3.370  14.858 -1.3990 -1.1112  0.8176
 9008SOL     OW38485   3.772   4.563  10.794 -0.0766  0.2783  0.3964
 9008SOL    HW138486   3.856   4.518  10.786 -0.2346  0.0621 -0.0928
 9008SOL    HW238487   3.715   4.486  10.799  0.8650 -0.4212  0.4229
 9009SOL     OW38488   3.791   3.841   5.182 -0.1312  0.0671  0.5428
 9009SOL    HW138489   3.780   3.923   5.229  0.0036 -0.7471  1.9798
 9009SOL    HW238490   3.877   3.847   5.140 -0.6576  2.5698 -0.1856
 9010SOL     OW38491   0.845   3.949   4.225  0.0369 -0.9093 -0.3649
 9010SOL    HW138492   0.930   3.941   4.182  0.1087  0.8341 -0.5636
 9010SOL    HW238493   0.885   3.974   4.308  0.1958 -0.9875 -0.4185
 9011SOL     OW38494   3.821   0.948   6.109  0.1297  0.3500  0.1833
 9011SOL    HW138495   3.912   0.970   6.086  0.0805 -1.5333 -1.7598
 9011SOL    HW238496   3.766   1.001   6.053 -0.4598 -1.4593 -0.9428
 9012SOL     OW38497   4.067   1.124   6.821 -0.3032  0.3806 -0.0486
 9012SOL    HW138498   4.039   1.083   6.903 -2.0244 -0.3319 -1.0009
 9012SOL    HW238499   4.147   1.168   6.851  0.2918 -0.0776 -0.9451
 9013SOL     OW38500   1.426   1.560  15.046 -0.0961  0.5729 -0.3876
 9013SOL    HW138501   1.440   1.621  15.119  0.4415 -3.2434  2.6728
 9013SOL    HW238502   1.445   1.610  14.967  0.1355  1.0444 -0.0329
 9014SOL     OW38503   3.539   4.664  12.734 -0.1493  1.0408 -0.0072
 9014SOL    HW138504   3.452   4.701  12.724 -0.5134  0.0467 -0.5355
 9014SOL    HW238505   3.555   4.613  12.655  0.4852  1.4946 -0.1704
 9015SOL     OW38506   3.134   2.698  15.197 -0.2908  0.0858 -0.2758
 9015SOL    HW138507   3.209   2.751  15.225 -1.2705  1.8832 -1.1089
 9015SOL    HW238508   3.082   2.773  15.169  0.8043  0.2955 -1.7185
 9016SOL     OW38509   0.508   0.861   6.059 -0.2495  0.7135  0.0257
 9016SOL    HW138510   0.465   0.822   6.135 -0.3444  0.8228  0.0273
 9016SOL    HW238511   0.452   0.934   6.033 -0.6055 -0.3486 -2.2420
 9017SOL     OW38512   4.130   1.055   5.384 -0.1647  0.0535  0.2578
 9017SOL    HW138513   4.091   1.039   5.298  0.7168  0.8811 -0.2945
 9017SOL    HW238514   4.214   1.016   5.361 -0.7796 -0.2977 -1.4209
 9018SOL     OW38515   3.824   2.921   2.817  0.3102 -0.3519 -0.0593
 9018SOL    HW138516   3.744   2.870   2.829 -0.2523  0.7071  0.6252
 9018SOL    HW238517   3.811   2.956   2.728  0.7836 -1.3200 -0.5114
 9019SOL     OW38518   4.350   0.044   7.663  0.0439  0.0385 -0.3387
 9019SOL    HW138519   4.365   0.138   7.657  1.0251 -0.0441  0.8025
 9019SOL    HW238520   4.259   0.034   7.635  0.1460 -2.3183  0.1404
 9020SOL     OW38521   3.622   2.379   7.220  0.2417 -0.2996 -0.0562
 9020SOL    HW138522   3.547   2.415   7.173  1.8083  1.7981 -0.9619
 9020SOL    HW238523   3.655   2.312   7.160  1.1757 -1.3916  1.6982
 9021SOL     OW38524   3.061   0.597   6.828 -0.0145 -0.0291  0.3733
 9021SOL    HW138525   3.026   0.517   6.789 -0.6277 -0.2859  1.4572
 9021SOL    HW238526   3.043   0.666   6.764 -1.0433 -0.7179 -0.0698
 9022SOL     OW38527   2.198   2.041  12.100 -0.1077 -0.3595  0.4774
 9022SOL    HW138528   2.248   2.074  12.025 -0.9739 -0.0046  0.0651
 9022SOL    HW238529   2.123   2.014  12.048  1.0229  1.1114 -1.8867
 9023SOL     OW38530   0.553   3.204   8.804 -0.3319 -0.6933 -0.2248
 9023SOL    HW138531   0.566   3.251   8.722  2.5963 -3.1864 -1.1855
 9023SOL    HW238532   0.534   3.281   8.859  0.4041 -2.3506  2.3728
 9024SOL     OW38533   3.740   2.063  14.022  0.3066 -0.1265 -0.4166
 9024SOL    HW138534   3.710   2.121  14.092  2.0274  1.4337 -0.9834
 9024SOL    HW238535   3.751   1.980  14.070 -0.3113  0.3819  0.6189
 9025SOL     OW38536   0.006   4.039   7.844  0.3047 -0.0285  0.0400
 9025SOL    HW138537   0.032   3.947   7.857 -1.0263 -0.3285  0.5491
 9025SOL    HW238538   4.650   4.049   7.896  0.5896 -1.6678  0.7966
 9026SOL     OW38539   1.090   3.979  10.552 -0.0129 -0.1707  0.0253
 9026SOL    HW138540   1.035   4.057  10.560 -1.8195 -1.4493  0.0000
 9026SOL    HW238541   1.167   4.008  10.503 -0.4491 -0.5624 -0.8857
 9027SOL     OW38542   4.143   2.823  13.573 -0.1340  0.4432  0.1066
 9027SOL    HW138543   4.053   2.790  13.576  0.1993 -0.3341  1.3578
 9027SOL    HW238544   4.132   2.886  13.501 -3.2634  1.9047  1.9029
 9028SOL     OW38545   1.862   1.872   5.647  0.6615  0.1122 -0.1779
 9028SOL    HW138546   1.887   1.964   5.637 -1.4015  0.7135  0.1689
 9028SOL    HW238547   1.880   1.864   5.740  0.7414  2.4648  0.0135
 9029SOL     OW38548   2.736   0.245  10.650  0.2979 -0.0586  0.4206
 9029SOL    HW138549   2.662   0.191  10.622  0.6964  0.0876 -0.9163
 9029SOL    HW238550   2.723   0.257  10.744  0.3651  0.6920  0.3386
 9030SOL     OW38551   0.944   4.629   0.529 -0.1675  0.5529 -0.4970
 9030SOL    HW138552   0.970   4.574   0.603  0.7377  1.1274 -0.3836
 9030SOL    HW238553   1.028   4.636   0.484  0.9868 -1.3312  1.3816
 9031SOL     OW38554   4.529   1.372   8.645  0.1245 -0.4917  0.2896
 9031SOL    HW138555   4.591   1.311   8.685 -1.0644 -2.0260 -0.2257
 9031SOL    HW238556   4.501   1.418   8.724 -1.8253  0.4336 -0.9453
 9032SOL     OW38557   3.078   2.096  14.905  0.3021 -0.0420 -0.7105
 9032SOL    HW138558   3.090   2.189  14.928 -1.0255 -0.0580  0.0720
 9032SOL    HW238559   3.156   2.083  14.851  1.8984  0.1085  1.5144
 9033SOL     OW38560   0.181   4.317   8.683  0.1797 -0.1008 -0.5702
 9033SOL    HW138561   0.226   4.244   8.643 -1.0552 -1.4336  0.4555
 9033SOL    HW238562   0.181   4.292   8.776 -1.0561 -0.0577 -0.5489
 9034SOL     OW38563   4.213   3.224   3.793 -0.1574  0.0541 -0.2447
 9034SOL    HW138564   4.258   3.240   3.876 -0.1741 -1.7239  0.1069
 9034SOL    HW238565   4.193   3.130   3.800 -0.1743  0.1494  0.8771
 9035SOL     OW38566   4.124   2.655   2.639  0.4187  0.0343  0.1621
 9035SOL    HW138567   4.165   2.696   2.563 -0.5942  1.4492  0.3735
 9035SOL    HW238568   4.039   2.626   2.608  1.2631 -1.9177 -0.3237
 9036SOL     OW38569   2.864   2.562  12.465 -0.0778 -0.3828  0.0836
 9036SOL    HW138570   2.882   2.542  12.556 -1.5416  1.6286  0.8097
 9036SOL    HW238571   2.952   2.583  12.433 -0.8546 -0.6760 -2.2473
 9037SOL     OW38572   2.232   2.207   2.481 -0.0418  0.6959 -0.2888
 9037SOL    HW138573   2.201   2.184   2.568  1.0982 -0.3011 -0.1477
 9037SOL    HW238574   2.216   2.301   2.486 -1.1396  0.3044  2.9122
 9038SOL     OW38575   2.909   4.336  12.874  0.3067 -0.1897  0.0548
 9038SOL    HW138576   2.844   4.406  12.869 -0.8052 -1.3101 -1.1192
 9038SOL    HW238577   2.985   4.375  12.918 -0.8785  0.1608  1.7593
 9039SOL     OW38578   4.010   3.374   3.661  0.1066 -0.5653 -0.5010
 9039SOL    HW138579   4.051   3.323   3.730 -1.2869 -3.0016 -1.4975
 9039SOL    HW238580   4.028   3.462   3.695 -0.9131 -1.0798  1.3634
 9040SOL     OW38581   1.334   0.100  13.253  0.1903 -0.2100 -0.1155
 9040SOL    HW138582   1.350   0.169  13.318 -0.2444  2.0612 -2.3859
 9040SOL    HW238583   1.417   0.060  13.277 -1.3309 -1.1549  3.4239
 9041SOL     OW38584   0.376   1.109   5.276 -0.5330 -0.5096  0.1047
 9041SOL    HW138585   0.410   1.053   5.346 -1.7524  0.2776  1.3358
 9041SOL    HW238586   0.287   1.109   5.312 -0.2431 -1.2817  0.8570
 9042SOL     OW38587   3.323   0.982   4.065  0.1933  0.2352 -0.2199
 9042SOL    HW138588   3.254   0.918   4.084  0.3951 -0.2735 -1.2179
 9042SOL    HW238589   3.282   1.067   4.048  0.9020  0.4533 -0.8261
 9043SOL     OW38590   4.087   3.099   6.406  0.3231 -0.3932 -0.2699
 9043SOL    HW138591   4.041   3.030   6.454  0.1122 -0.3889 -0.4680
 9043SOL    HW238592   4.022   3.168   6.396  0.2953 -0.1879  1.3585
 9044SOL     OW38593   0.491   1.538  15.656 -0.2228 -0.4723  0.2167
 9044SOL    HW138594   0.485   1.536  15.751  0.7852  1.8429  0.3247
 9044SOL    HW238595   0.583   1.552  15.636 -0.2720  0.4705  0.6674
 9045SOL     OW38596   1.763   0.309   6.416 -0.0090  0.2738 -0.5538
 9045SOL    HW138597   1.842   0.292   6.466 -0.0102  1.7722 -0.0505
 9045SOL    HW238598   1.720   0.223   6.418  1.9696 -0.6779  0.1859
 9046SOL     OW38599   3.387   0.275   4.640 -0.0939  0.4794  0.0046
 9046SOL    HW138600   3.437   0.314   4.711 -1.4650  1.2443  0.5527
 9046SOL    HW238601   3.299   0.260   4.676  0.0622 -1.9709 -0.6470
 9047SOL     OW38602   0.319   0.678   2.642  0.1421  0.4309  0.3845
 9047SOL    HW138603   0.299   0.585   2.635 -0.9552  0.4866  3.0063
 9047SOL    HW238604   0.267   0.708   2.716 -1.0829 -2.0090  0.5186
 9048SOL     OW38605   4.623   4.390   9.178 -0.6693  0.5456 -0.4991
 9048SOL    HW138606   4.549   4.445   9.201 -0.0990  0.8995  0.5224
 9048SOL    HW238607   4.632   4.393   9.083 -1.3663  0.4781 -0.5647
 9049SOL     OW38608   2.672   4.285  10.102  0.0543 -0.0108 -0.9583
 9049SOL    HW138609   2.746   4.334  10.138  1.4167 -2.0418 -1.0078
 9049SOL    HW238610   2.688   4.203  10.148 -1.9434  0.0659 -0.1333
 9050SOL     OW38611   4.704   1.002   5.521  0.3119 -0.1975  0.1672
 9050SOL    HW138612   4.692   0.917   5.478  1.6287 -1.4656  2.2950
 9050SOL    HW238613   0.008   0.977   5.610  0.2523  0.2593  0.3145
 9051SOL     OW38614   0.251   3.682  17.199  0.3299  0.5213 -0.2762
 9051SOL    HW138615   0.169   3.730  17.211  0.3939  0.6160 -0.2163
 9051SOL    HW238616   0.303   3.712  17.274 -2.0491 -0.7136  1.8990
 9052SOL     OW38617   2.922   3.739   6.828  0.6431  0.9124 -0.0044
 9052SOL    HW138618   2.978   3.663   6.845 -1.0817  0.0073  1.7432
 9052SOL    HW238619   2.977   3.814   6.846  0.9293  0.5773  0.5101
 9053SOL     OW38620   0.743   4.290   0.371  0.1585 -1.0497 -0.0815
 9053SOL    HW138621   0.675   4.249   0.426 -2.5926  1.3963 -1.6663
 9053SOL    HW238622   0.717   4.259   0.284  0.1659 -0.9823 -0.1072
 9054SOL     OW38623   3.651   2.933   9.044 -0.0645 -0.3475 -0.0336
 9054SOL    HW138624   3.558   2.912   9.048  0.3010 -1.3838  3.6877
 9054SOL    HW238625   3.669   2.878   9.121 -2.1275  0.3599  0.9463
 9055SOL     OW38626   3.323   1.356   0.384  0.2658 -0.1233  0.1783
 9055SOL    HW138627   3.244   1.310   0.411 -1.1311  1.9288 -0.4705
 9055SOL    HW238628   3.389   1.289   0.407  2.6001  2.0636 -0.1377
 9056SOL     OW38629   2.152   4.630  12.159 -0.7974  0.0996 -0.3370
 9056SOL    HW138630   2.190   4.665  12.078  2.1988  2.4313  2.0861
 9056SOL    HW238631   2.200   4.549  12.169  0.5213  0.7601 -1.3060
 9057SOL     OW38632   0.033   4.499   4.971 -0.3581 -0.2330 -0.3143
 9057SOL    HW138633   0.065   4.520   5.059 -0.9000 -0.4820 -0.0570
 9057SOL    HW238634   0.017   4.405   4.979 -0.3803 -0.2218 -0.2265
 9058SOL     OW38635   2.784   2.487   5.612 -0.6401  0.0866 -0.6046
 9058SOL    HW138636   2.703   2.499   5.561  0.6507  2.4914 -2.0823
 9058SOL    HW238637   2.836   2.435   5.551  1.3459 -0.4667  1.5878
 9059SOL     OW38638   0.563   2.206   3.659 -0.0638  0.2378 -0.4600
 9059SOL    HW138639   0.640   2.242   3.703  0.4567 -1.0307 -0.3375
 9059SOL    HW238640   0.504   2.185   3.731  0.2130 -0.5883 -0.4734
 9060SOL     OW38641   3.277   0.328   3.850  0.0999 -0.2321 -0.4955
 9060SOL    HW138642   3.280   0.297   3.941 -0.6767  2.0483  0.3038
 9060SOL    HW238643   3.366   0.297   3.830  0.4603 -0.0992  0.8983
 9061SOL     OW38644   1.400   4.038   9.411 -0.5250 -0.0945  0.2574
 9061SOL    HW138645   1.347   3.959   9.403  1.3297 -1.3733  0.5756
 9061SOL    HW238646   1.437   4.023   9.498  0.7397  0.2360 -0.2210
 9062SOL     OW38647   3.193   1.522   0.234  0.1426 -0.1411 -0.5800
 9062SOL    HW138648   3.240   1.456   0.287  2.3667 -0.2998 -2.7487
 9062SOL    HW238649   3.105   1.484   0.242  0.7258 -1.3108  0.3506
 9063SOL     OW38650   4.461   2.914  14.720  0.4022  0.3981 -0.1373
 9063SOL    HW138651   4.441   2.862  14.642  2.0619 -1.2175  0.5192
 9063SOL    HW238652   4.490   3.001  14.692  3.6481  0.0027  1.9787
 9064SOL     OW38653   4.522   4.310   8.641 -0.6078  0.4932  0.3847
 9064SOL    HW138654   4.433   4.298   8.675 -1.5348  0.0412 -2.2336
 9064SOL    HW238655   4.499   4.362   8.564 -1.7211  1.0609  1.0917
 9065SOL     OW38656   4.374   1.409  13.838 -0.0098  0.2157  0.4857
 9065SOL    HW138657   4.351   1.471  13.769  0.7132  0.2962  0.3194
 9065SOL    HW238658   4.315   1.447  13.903  0.1878  0.5196  0.4880
 9066SOL     OW38659   0.205   1.345   9.552 -0.0114  0.0577  0.1664
 9066SOL    HW138660   0.280   1.286   9.549  0.1356  0.1686  1.4362
 9066SOL    HW238661   0.238   1.414   9.610 -1.0406 -0.9819  1.9894
 9067SOL     OW38662   2.278   3.526   0.092  0.0274  0.0651 -0.0799
 9067SOL    HW138663   2.263   3.495   0.002  2.7977 -3.0834  0.5255
 9067SOL    HW238664   2.238   3.613   0.090 -0.1106  0.0384  1.7316
 9068SOL     OW38665   3.435   2.266  10.154  0.0069 -0.0998 -0.3271
 9068SOL    HW138666   3.377   2.241  10.082  0.9330 -2.4952 -0.2289
 9068SOL    HW238667   3.513   2.212  10.145 -0.9541 -1.5022 -0.1984
 9069SOL     OW38668   0.740   1.190   5.256  0.1945 -0.2283 -0.5038
 9069SOL    HW138669   0.800   1.179   5.183 -1.2980  2.0575 -2.0960
 9069SOL    HW238670   0.655   1.173   5.214 -0.6777  0.4865  0.9601
 9070SOL     OW38671   1.712   2.922   7.328  0.3608 -0.0060  0.2258
 9070SOL    HW138672   1.733   2.901   7.419 -0.4188  0.6926  0.5755
 9070SOL    HW238673   1.645   2.990   7.334  2.1240  1.6202  1.5725
 9071SOL     OW38674   0.123   2.172   2.058 -0.3684  0.3947  0.6522
 9071SOL    HW138675   0.168   2.243   2.012 -2.1203 -0.2243 -2.0352
 9071SOL    HW238676   0.033   2.182   2.028 -1.0308 -3.0681  1.3892
 9072SOL     OW38677   0.215   3.283   4.048 -0.2448  0.5296  0.3938
 9072SOL    HW138678   0.247   3.204   4.004 -0.9710 -0.5163  1.7654
 9072SOL    HW238679   0.123   3.284   4.023 -0.2141 -0.8079  0.2435
 9073SOL     OW38680   3.419   0.591  12.535  0.2006  0.0563 -0.3884
 9073SOL    HW138681   3.329   0.565  12.514  1.2054 -3.4277 -0.3881
 9073SOL    HW238682   3.472   0.528  12.486  2.1569  1.9585 -0.6918
 9074SOL     OW38683   2.264   3.470   5.309 -0.4521  0.3000  0.1973
 9074SOL    HW138684   2.183   3.448   5.262  0.2461 -0.9086 -0.4378
 9074SOL    HW238685   2.322   3.493   5.236 -0.7285  1.0456  0.2110
 9075SOL     OW38686   0.732   0.481   6.387 -0.5912  0.6535 -0.3715
 9075SOL    HW138687   0.656   0.519   6.432  0.2313  2.2065 -0.2724
 9075SOL    HW238688   0.711   0.388   6.382 -1.2571  0.6957  1.3093
 9076SOL     OW38689   2.801   0.259   1.936  0.0955  0.4325  0.7565
 9076SOL    HW138690   2.827   0.347   1.908 -0.2805  0.4391  0.4334
 9076SOL    HW238691   2.707   0.265   1.920  0.4900  0.1751 -1.6352
 9077SOL     OW38692   3.581   2.981   3.924 -0.1726  0.3083 -0.0989
 9077SOL    HW138693   3.627   3.020   3.850  0.6826 -2.8714 -1.2234
 9077SOL    HW238694   3.580   2.890   3.895  0.6866  0.5027 -0.7102
 9078SOL     OW38695   2.364   4.593   3.533  0.3942  0.0263  0.1071
 9078SOL    HW138696   2.285   4.633   3.497  0.9692 -0.2321 -1.4400
 9078SOL    HW238697   2.386   4.664   3.593 -0.0199 -0.7998  1.2375
 9079SOL     OW38698   1.172   3.896  16.832 -0.1614 -0.7857  0.4202
 9079SOL    HW138699   1.193   3.805  16.811  0.0491 -1.0947  1.9483
 9079SOL    HW238700   1.253   3.940  16.806 -0.5706  0.9107  1.9534
 9080SOL     OW38701   3.798   3.233   7.277 -0.7874  0.3974  0.2752
 9080SOL    HW138702   3.889   3.229   7.308 -0.7432 -4.0247 -0.3077
 9080SOL    HW238703   3.771   3.307   7.330  1.4097  1.3196  0.1091
 9081SOL     OW38704   4.354   0.725   2.968  0.4368  0.7106 -0.4015
 9081SOL    HW138705   4.441   0.730   3.007  0.2049  1.7370 -0.0341
 9081SOL    HW238706   4.317   0.639   2.989  2.2871 -0.5769 -2.3093
 9082SOL     OW38707   0.921   3.096   9.891  0.5575 -0.9588  0.0150
 9082SOL    HW138708   0.976   3.026   9.925 -0.4622 -2.0368 -0.5333
 9082SOL    HW238709   0.966   3.179   9.906 -1.5271  0.0952  0.5400
 9083SOL     OW38710   3.962   1.852   7.911  0.4082  0.1153  0.1703
 9083SOL    HW138711   3.997   1.845   8.000 -0.5008 -0.4262  0.4961
 9083SOL    HW238712   3.996   1.770   7.876  3.1201  0.5939  1.6769
 9084SOL     OW38713   2.667   3.363   5.386  0.1661 -0.3498 -0.4411
 9084SOL    HW138714   2.666   3.404   5.300 -2.0667  1.6470  0.5000
 9084SOL    HW238715   2.582   3.395   5.418 -0.3197 -1.9829 -0.0808
 9085SOL     OW38716   1.527   2.963   8.346 -0.3666 -0.6146  0.3429
 9085SOL    HW138717   1.564   3.051   8.343 -0.7736 -0.4669 -0.3990
 9085SOL    HW238718   1.592   2.917   8.398  2.2613  2.5166 -0.2249
 9086SOL     OW38719   3.864   3.040   5.277  0.4399 -0.1495 -0.4083
 9086SOL    HW138720   3.774   3.023   5.250  0.7743 -0.6054 -1.2247
 9086SOL    HW238721   3.899   3.073   5.194 -2.3547 -0.9707 -1.8949
 9087SOL     OW38722   4.573   1.399   2.623 -0.2769  0.4021 -0.4784
 9087SOL    HW138723   4.631   1.343   2.572  0.3989 -0.1536  0.9105
 9087SOL    HW238724   4.620   1.396   2.707 -1.6026 -0.5245  0.2298
 9088SOL     OW38725   1.719   1.912   5.221 -0.3108 -0.4658  0.1500
 9088SOL    HW138726   1.700   1.898   5.128  0.6736  0.1449 -0.1441
 9088SOL    HW238727   1.696   1.827   5.259  1.3756 -0.8126  0.3821
 9089SOL     OW38728   2.804   1.519   5.057 -0.2664  0.5804 -0.1248
 9089SOL    HW138729   2.738   1.586   5.072 -0.3529  0.0025  2.1151
 9089SOL    HW238730   2.842   1.521   5.145 -1.7581  0.9802  0.5018
 9090SOL     OW38731   3.528   4.031  14.843 -0.4660  0.8696 -0.1982
 9090SOL    HW138732   3.603   4.035  14.903 -1.2221  0.3188  0.7791
 9090SOL    HW238733   3.509   3.939  14.860 -0.9928  1.3001  1.5823
 9091SOL     OW38734   4.359   2.166   6.820 -0.1951 -0.1420 -0.4006
 9091SOL    HW138735   4.402   2.209   6.894  0.8089 -0.3387 -0.8589
 9091SOL    HW238736   4.431   2.111   6.790 -2.7957 -2.4036 -2.4306
 9092SOL     OW38737   1.733   4.470   7.994  0.0407  0.1051 -0.3949
 9092SOL    HW138738   1.644   4.505   7.993 -0.3262 -0.9766 -5.3061
 9092SOL    HW238739   1.774   4.541   8.042 -0.6506 -1.4003  2.4197
 9093SOL     OW38740   1.328   0.558   9.727  0.2132 -0.2739 -0.2678
 9093SOL    HW138741   1.273   0.614   9.782  1.5743  0.0832  0.7286
 9093SOL    HW238742   1.369   0.624   9.672 -1.3691  0.3511 -0.6922
 9094SOL     OW38743   1.586   2.149   6.147  0.0288  0.0847 -0.4294
 9094SOL    HW138744   1.610   2.073   6.094  2.7418  0.7385 -0.1066
 9094SOL    HW238745   1.579   2.116   6.237  1.5112  1.5345  0.2058
 9095SOL     OW38746   4.222   0.246   5.000 -0.3554  0.1359 -0.3034
 9095SOL    HW138747   4.134   0.282   5.003 -0.7646 -0.7975 -1.4025
 9095SOL    HW238748   4.266   0.310   4.944  2.5271 -0.7252  0.9680
 9096SOL     OW38749   0.186   2.866   6.754  0.0247  0.1565 -0.0162
 9096SOL    HW138750   0.219   2.861   6.844  1.9120 -3.1596 -0.8700
 9096SOL    HW238751   0.188   2.773   6.729 -2.1249 -0.2652  1.3472
 9097SOL     OW38752   2.760   0.404   5.282  0.2398  0.3034 -0.4180
 9097SOL    HW138753   2.776   0.310   5.271  0.6583  0.5123 -1.5566
 9097SOL    HW238754   2.722   0.442   5.202 -1.3551  1.8411  1.0590
 9098SOL     OW38755   1.784   3.450  12.733 -0.9744  0.2302  0.4156
 9098SOL    HW138756   1.825   3.507  12.797  0.7449 -0.3962 -0.1189
 9098SOL    HW238757   1.805   3.366  12.774  0.2242 -0.9160 -2.5357
 9099SOL     OW38758   2.179   1.766   4.714  0.1703 -0.3386 -0.2459
 9099SOL    HW138759   2.180   1.684   4.764  2.7978 -0.4609 -0.5093
 9099SOL    HW238760   2.176   1.745   4.620 -3.7177  0.1092 -0.2365
 9100SOL     OW38761   3.110   0.567   0.719 -0.2612  0.3511 -0.5819
 9100SOL    HW138762   3.157   0.611   0.648  0.4773 -1.8110 -1.4268
 9100SOL    HW238763   3.140   0.477   0.706 -0.7007  0.0833  0.2484
 9101SOL     OW38764   3.200   4.516   1.278  0.0273 -0.0293  0.3836
 9101SOL    HW138765   3.227   4.481   1.362  0.4066  0.9613  0.6730
 9101SOL    HW238766   3.198   4.610   1.294 -0.8932 -0.0510  0.4083
 9102SOL     OW38767   3.306   2.764   7.937 -0.5748  0.1835  0.5984
 9102SOL    HW138768   3.276   2.742   7.849 -1.4768  0.1052  0.9232
 9102SOL    HW238769   3.370   2.695   7.957 -0.5784 -0.0924 -0.3399
 9103SOL     OW38770   1.633   0.140  13.573 -0.1388  0.1540 -0.4141
 9103SOL    HW138771   1.628   0.087  13.493  1.9985 -1.6019  0.6149
 9103SOL    HW238772   1.726   0.162  13.564  0.1675  0.0759  2.7676
 9104SOL     OW38773   3.045   0.776  14.721 -0.8251  0.1457 -0.0504
 9104SOL    HW138774   2.959   0.753  14.759 -0.4493 -0.9669  0.1331
 9104SOL    HW238775   3.062   0.845  14.784  0.3652 -0.2254  0.0399
 9105SOL     OW38776   4.059   3.750   6.961  0.1885 -0.0958 -0.0281
 9105SOL    HW138777   4.037   3.684   7.026 -0.0538 -0.4288 -0.4471
 9105SOL    HW238778   3.972   3.779   6.932  0.1460  2.5515  2.7497
 9106SOL     OW38779   0.821   3.596   2.261  0.4154 -0.1945 -0.2273
 9106SOL    HW138780   0.748   3.565   2.315 -0.3515 -0.0423 -1.1715
 9106SOL    HW238781   0.795   3.548   2.182 -0.6849 -0.5902  0.3724
 9107SOL     OW38782   0.208   0.352   0.571  0.6674  0.3302 -0.2900
 9107SOL    HW138783   0.153   0.292   0.623 -1.3148  0.7086 -1.9704
 9107SOL    HW238784   0.200   0.438   0.612  0.7338 -0.3601  1.1795
 9108SOL     OW38785   1.879   3.020   4.600 -0.2607 -0.1596  0.1149
 9108SOL    HW138786   1.791   3.048   4.573 -1.3715 -1.0491  2.8685
 9108SOL    HW238787   1.873   2.929   4.569  1.6682  0.0265 -0.8090
 9109SOL     OW38788   3.543   3.988   8.820  0.3154 -0.4581  0.1732
 9109SOL    HW138789   3.500   4.041   8.754  3.2746  0.2483 -1.2133
 9109SOL    HW238790   3.593   4.057   8.864  1.6765 -2.4823  1.8163
 9110SOL     OW38791   2.841   2.389   6.986  0.3109 -0.6962  0.0690
 9110SOL    HW138792   2.796   2.308   7.011  0.7825 -1.2925 -1.0050
 9110SOL    HW238793   2.882   2.359   6.905 -0.1886 -0.3932 -0.3000
 9111SOL     OW38794   3.806   1.667   2.835 -0.3183  0.1889  0.4198
 9111SOL    HW138795   3.752   1.589   2.846 -2.0212  1.7179  3.0137
 9111SOL    HW238796   3.746   1.742   2.829  1.4778  1.5339 -0.8402
 9112SOL     OW38797   1.349   0.520   2.921 -0.5321  0.3730  0.1171
 9112SOL    HW138798   1.324   0.495   3.010 -0.6848  1.0412  0.2608
 9112SOL    HW238799   1.283   0.583   2.894  0.6585  1.2772 -0.6830
 9113SOL     OW38800   4.423   1.608   8.364  0.3115  0.2758  0.7047
 9113SOL    HW138801   4.462   1.684   8.408 -0.7837  0.4830  1.3325
 9113SOL    HW238802   4.365   1.642   8.296 -0.8710 -0.1033  1.5225
 9114SOL     OW38803   3.150   0.292  10.856  0.5072 -0.5008 -0.4556
 9114SOL    HW138804   3.162   0.245  10.774  1.8722  1.0863 -1.1665
 9114SOL    HW238805   3.214   0.361  10.842 -0.1797  0.0396 -0.8963
 9115SOL     OW38806   0.701   3.770   3.768  0.2426  0.2158  0.1833
 9115SOL    HW138807   0.696   3.828   3.692 -0.1818 -1.4664 -1.0422
 9115SOL    HW238808   0.750   3.818   3.835 -0.1891  1.9816 -0.7511
 9116SOL     OW38809   2.839   0.728   8.972 -0.4818  0.2768  0.0205
 9116SOL    HW138810   2.795   0.792   8.915 -0.2741  0.4115  0.0115
 9116SOL    HW238811   2.863   0.788   9.043  0.5282  0.6696 -0.6483
 9117SOL     OW38812   0.513   1.565   9.067  0.3986 -0.7804  0.0666
 9117SOL    HW138813   0.603   1.534   9.077  1.2572  1.1377 -1.6102
 9117SOL    HW238814   0.525   1.583   8.974 -2.9488  0.1610 -0.1818
 9118SOL     OW38815   3.546   2.603   9.099  0.6126 -0.5924 -0.4648
 9118SOL    HW138816   3.564   2.582   9.191 -3.5221 -1.0000  0.2378
 9118SOL    HW238817   3.504   2.688   9.110 -0.0087 -0.6222 -2.6919
 9119SOL     OW38818   2.999   4.318   9.009 -0.0672 -0.2390  0.0182
 9119SOL    HW138819   2.999   4.393   9.068  1.3292  1.3184 -1.9846
 9119SOL    HW238820   2.905   4.300   9.012 -0.4616  1.8952  0.7101
 9120SOL     OW38821   2.933   2.388  14.206 -0.6262  0.1859  0.1771
 9120SOL    HW138822   2.893   2.379  14.292 -0.4126  2.1771  0.5012
 9120SOL    HW238823   2.873   2.329  14.160  0.7859  0.3896 -1.9079
 9121SOL     OW38824   2.222   1.803   7.841 -0.0412  0.2481 -0.1587
 9121SOL    HW138825   2.166   1.756   7.903  0.5280  0.4953  0.5398
 9121SOL    HW238826   2.183   1.779   7.757  0.8402 -1.9409  0.0615
 9122SOL     OW38827   4.589   0.622   8.903 -0.3488  0.2414  0.2011
 9122SOL    HW138828   4.521   0.557   8.924  2.2225 -1.7377  2.3434
 9122SOL    HW238829   4.589   0.628   8.807  0.8192 -0.6427  0.1463
 9123SOL     OW38830   3.424   1.081   7.639  0.0932  0.0018 -0.2644
 9123SOL    HW138831   3.353   1.138   7.669 -1.6314 -1.8211 -0.8519
 9123SOL    HW238832   3.508   1.114   7.671 -0.7408  1.8653 -0.0040
 9124SOL     OW38833   3.072   1.223   6.124  0.0326 -0.1514  0.0116
 9124SOL    HW138834   3.040   1.271   6.047 -0.8113  0.1416  0.5390
 9124SOL    HW238835   3.125   1.155   6.083  0.6543 -0.2626  1.0035
 9125SOL     OW38836   1.518   1.114   2.158  0.2626 -0.3645 -0.4121
 9125SOL    HW138837   1.540   1.190   2.105  0.0152 -0.4891 -0.6886
 9125SOL    HW238838   1.502   1.148   2.247 -1.4966 -2.1665 -0.0410
 9126SOL     OW38839   1.497   1.437  15.872 -0.6507  0.9334  0.2473
 9126SOL    HW138840   1.557   1.452  15.945 -1.1924  1.2674  0.6223
 9126SOL    HW238841   1.551   1.441  15.793 -1.0425 -0.3905 -0.0806
 9127SOL     OW38842   0.144   4.451   4.397  0.3300  0.3253 -0.3698
 9127SOL    HW138843   0.188   4.535   4.382  2.6553 -0.1631  3.6718
 9127SOL    HW238844   0.222   4.400   4.415  0.3063  0.2905 -0.3659
 9128SOL     OW38845   3.748   1.621  10.557  0.3297 -0.7422  0.1826
 9128SOL    HW138846   3.786   1.564  10.624  1.4054  0.1900  0.3632
 9128SOL    HW238847   3.655   1.611  10.579  0.2434  0.6870  0.4671
 9129SOL     OW38848   1.941   3.757   7.067 -0.5972  0.1237 -0.0184
 9129SOL    HW138849   1.863   3.808   7.092 -1.2515 -1.9647  2.2572
 9129SOL    HW238850   1.919   3.744   6.975 -1.3441  0.2485  0.1388
 9130SOL     OW38851   2.162   2.845   6.325  0.1442 -0.4322 -0.9338
 9130SOL    HW138852   2.126   2.836   6.237  0.9842  3.2566 -1.6478
 9130SOL    HW238853   2.220   2.921   6.315  0.1679 -0.1013  1.8128
 9131SOL     OW38854   2.343   2.513   8.814  0.2611  0.0554 -0.0471
 9131SOL    HW138855   2.302   2.587   8.859  0.1384 -1.3221  2.1178
 9131SOL    HW238856   2.267   2.455   8.803  0.9324 -0.8775  0.3096
 9132SOL     OW38857   3.720   0.431   2.336 -0.3910 -0.2944 -0.2762
 9132SOL    HW138858   3.794   0.464   2.387 -0.7909 -0.9626  0.7429
 9132SOL    HW238859   3.665   0.410   2.412 -2.0441  1.3414 -1.0081
 9133SOL     OW38860   0.243   2.576   7.565 -0.3691  0.1296  0.0892
 9133SOL    HW138861   0.166   2.593   7.620  0.0251  0.5489  0.5123
 9133SOL    HW238862   0.309   2.548   7.629 -0.6130  0.9885  0.7169
 9134SOL     OW38863   4.485   1.920   7.528  0.1742  0.7854  0.1820
 9134SOL    HW138864   4.393   1.893   7.537  0.2827 -0.2289 -1.7024
 9134SOL    HW238865   4.521   1.860   7.462 -2.1366 -2.0305  1.4749
 9135SOL     OW38866   1.447   4.405   5.328  0.3469 -0.5609 -0.2735
 9135SOL    HW138867   1.352   4.389   5.331 -0.2483  3.2884  1.1379
 9135SOL    HW238868   1.465   4.423   5.236 -1.4448 -0.3297 -0.5927
 9136SOL     OW38869   4.586   3.827  12.230  0.3023 -0.3468  0.2389
 9136SOL    HW138870   4.659   3.884  12.256 -1.0253  1.8628 -0.9022
 9136SOL    HW238871   4.579   3.772  12.308 -3.0856 -1.5795 -0.9198
 9137SOL     OW38872   2.304   0.620   2.652 -0.1129 -0.1684  0.2942
 9137SOL    HW138873   2.320   0.674   2.729 -2.5678  0.0138  0.6957
 9137SOL    HW238874   2.383   0.625   2.598  0.8062  1.2393  1.8079
 9138SOL     OW38875   3.458   2.930  11.426  0.1282  0.6076  0.1869
 9138SOL    HW138876   3.493   2.913  11.513  0.7393 -3.0439 -0.7813
 9138SOL    HW238877   3.541   2.965  11.394  0.5915  0.7001  1.4728
 9139SOL     OW38878   1.761   0.340   6.145 -0.1890 -0.2457 -0.7243
 9139SOL    HW138879   1.746   0.364   6.236 -1.2806 -0.1275 -0.9446
 9139SOL    HW238880   1.826   0.272   6.163  1.9217  1.4087 -2.0382
 9140SOL     OW38881   0.450   1.931   9.967 -0.2255  0.0430 -0.4078
 9140SOL    HW138882   0.367   1.898  10.003 -1.2196  1.6333 -1.2090
 9140SOL    HW238883   0.483   1.993  10.032  0.4544  0.4713 -1.1778
 9141SOL     OW38884   0.217   3.991  11.864  0.8936 -0.2177 -0.3077
 9141SOL    HW138885   0.143   3.988  11.803 -0.3936  0.9580  1.2043
 9141SOL    HW238886   0.282   4.021  11.800  0.0175 -0.5913 -1.3765
 9142SOL     OW38887   3.922   0.568   3.663 -0.4792 -0.6289 -0.1842
 9142SOL    HW138888   3.991   0.621   3.624  2.1705 -2.3778  2.1284
 9142SOL    HW238889   3.888   0.616   3.738  1.1856  0.4951 -0.1623
 9143SOL     OW38890   2.827   3.498   8.826  0.3256 -0.4353  0.1098
 9143SOL    HW138891   2.897   3.451   8.782  1.0946 -1.1271  2.0568
 9143SOL    HW238892   2.855   3.589   8.834 -0.4072 -0.1769 -0.2880
 9144SOL     OW38893   0.549   2.722   6.725 -0.0243 -0.5148 -0.0094
 9144SOL    HW138894   0.515   2.716   6.636 -1.4710  0.0873  0.4947
 9144SOL    HW238895   0.638   2.752   6.705 -0.9029  1.9931 -0.2411
 9145SOL     OW38896   2.787   1.283  11.805 -0.6404  0.1479 -0.3472
 9145SOL    HW138897   2.837   1.359  11.836 -0.6020 -1.0218  2.5079
 9145SOL    HW238898   2.758   1.238  11.884  1.7302 -1.5766 -0.4383
 9146SOL     OW38899   0.948   4.629   2.471  0.0266  0.6639 -0.1886
 9146SOL    HW138900   0.981   4.544   2.499 -0.6732  0.9281  1.4163
 9146SOL    HW238901   0.866   4.604   2.429  0.1273 -0.5928  0.3673
 9147SOL     OW38902   2.137   0.793   8.804 -0.1999 -0.9405 -0.3993
 9147SOL    HW138903   2.145   0.748   8.719  0.4736 -0.5743 -0.5339
 9147SOL    HW238904   2.200   0.744   8.857  2.5190  0.3274 -2.4623
 9148SOL     OW38905   1.965   0.899  17.362  0.0376  0.1533  0.6862
 9148SOL    HW138906   2.054   0.918  17.390 -0.8933  3.4723  1.3778
 9148SOL    HW238907   1.989   0.844  17.287 -3.3352 -0.3716  0.0047
 9149SOL     OW38908   1.686   2.331   5.231  0.0751 -0.1507  0.6722
 9149SOL    HW138909   1.658   2.254   5.280  3.8970 -1.6948  0.4150
 9149SOL    HW238910   1.774   2.347   5.264  0.6797  0.1599 -1.0975
 9150SOL     OW38911   4.427   1.803   9.049 -0.0260  0.0538  0.5418
 9150SOL    HW138912   4.407   1.875   8.989  1.3991  0.5430  0.6385
 9150SOL    HW238913   4.386   1.840   9.126  0.1695 -0.8924  1.1060
 9151SOL     OW38914   4.271   3.066   8.171  0.4749 -0.1908  0.1170
 9151SOL    HW138915   4.292   3.142   8.117  1.1884  0.3066  1.0935
 9151SOL    HW238916   4.216   3.102   8.240 -0.3611 -0.6302 -0.3200
 9152SOL     OW38917   2.212   1.437   2.401  0.4308  0.3908 -0.3028
 9152SOL    HW138918   2.146   1.388   2.352  0.0767  0.5984 -0.0347
 9152SOL    HW238919   2.192   1.415   2.492  0.3866 -1.2805 -0.7192
 9153SOL     OW38920   1.674   2.588  10.042 -0.8982 -0.0417  0.0895
 9153SOL    HW138921   1.719   2.505  10.059  0.2866  0.6136  0.1971
 9153SOL    HW238922   1.718   2.644  10.106 -1.7168  2.1257 -1.2534
 9154SOL     OW38923   0.783   1.305   3.640  0.0336 -0.2412 -0.2019
 9154SOL    HW138924   0.753   1.359   3.567 -1.4988 -0.5312  0.2215
 9154SOL    HW238925   0.790   1.371   3.710  1.3200 -0.1836 -0.3700
 9155SOL     OW38926   2.853   0.504  10.205  0.1292  0.7405 -0.0969
 9155SOL    HW138927   2.868   0.413  10.230  1.8988  0.8150 -0.8834
 9155SOL    HW238928   2.834   0.540  10.292  1.0019  1.3116 -0.1386
 9156SOL     OW38929   2.461   2.979  10.977 -0.8261 -0.4557 -0.1214
 9156SOL    HW138930   2.449   2.893  10.936  1.6342  0.0096 -1.7888
 9156SOL    HW238931   2.378   3.023  10.958  0.2849  2.2063  1.2264
 9157SOL     OW38932   3.701   1.173   4.782  0.4882  0.2373  0.7110
 9157SOL    HW138933   3.626   1.139   4.732  0.7064  0.1520  0.4455
 9157SOL    HW238934   3.662   1.245   4.832  0.7583 -0.4070  1.8511
 9158SOL     OW38935   1.088   4.340   1.347 -0.2144 -0.1259 -0.0954
 9158SOL    HW138936   1.082   4.270   1.281  0.0853  0.7425 -1.0461
 9158SOL    HW238937   1.078   4.425   1.305  0.4174 -0.8821 -1.7783
 9159SOL     OW38938   2.738   2.286  12.581 -0.7216 -0.1078 -0.7313
 9159SOL    HW138939   2.829   2.306  12.605 -0.5687 -0.9669 -0.5933
 9159SOL    HW238940   2.760   2.231  12.506 -0.7310 -1.6393  0.3759
 9160SOL     OW38941   1.578   2.480   8.665  0.0508 -0.4676 -0.2083
 9160SOL    HW138942   1.595   2.562   8.712  1.7761 -0.1016 -1.4967
 9160SOL    HW238943   1.581   2.518   8.578 -1.5753  0.4571  0.1269
 9161SOL     OW38944   4.116   2.482   5.522 -0.3636 -0.2419 -0.6595
 9161SOL    HW138945   4.187   2.490   5.586  0.9369 -0.1606 -2.1324
 9161SOL    HW238946   4.054   2.441   5.583  1.9381  0.3702  2.0700
 9162SOL     OW38947   3.502   1.319   7.323  0.5693 -0.5789 -0.3124
 9162SOL    HW138948   3.483   1.379   7.395 -0.9988  1.4292 -2.3598
 9162SOL    HW238949   3.597   1.323   7.318  0.5793 -1.8852 -1.0199
 9163SOL     OW38950   0.058   0.684   7.021 -0.3039  0.0446 -0.3169
 9163SOL    HW138951   0.119   0.644   7.083  0.3715  0.1150 -0.9357
 9163SOL    HW238952   0.010   0.601   7.024 -3.0215  1.5952 -1.2920
 9164SOL     OW38953   1.699   2.730   8.914  0.6658 -1.1594 -0.0252
 9164SOL    HW138954   1.677   2.759   8.826 -2.6273  0.4060  1.3035
 9164SOL    HW238955   1.685   2.812   8.961  0.3218  0.1946 -2.5444
 9165SOL     OW38956   3.551   0.678  11.924  0.1766  0.4435  0.0643
 9165SOL    HW138957   3.598   0.707  11.845 -0.2271 -0.8875 -0.6558
 9165SOL    HW238958   3.510   0.595  11.903  2.7109 -1.3161  2.1216
 9166SOL     OW38959   1.115   1.229   5.050 -0.6656  0.4531  0.3358
 9166SOL    HW138960   1.164   1.231   4.968  1.4607  0.4405  1.5790
 9166SOL    HW238961   1.157   1.296   5.105  0.4153  1.0644 -1.2140
 9167SOL     OW38962   4.709   4.495   5.622  0.2004 -0.0364 -0.4704
 9167SOL    HW138963   0.066   4.453   5.589  1.2811  1.1533  0.5968
 9167SOL    HW238964   4.678   4.410   5.652 -0.7928  0.4271 -0.1820
 9168SOL     OW38965   4.348   4.196  17.323 -0.5472  0.2650 -0.0401
 9168SOL    HW138966   4.273   4.249  17.351 -0.0990  1.1326 -0.4756
 9168SOL    HW238967   4.383   4.164  17.407 -1.0013  0.2164  0.1297
 9169SOL     OW38968   4.289   3.323   8.095 -0.2873 -0.0724  0.0355
 9169SOL    HW138969   4.210   3.371   8.122  0.6002  1.3592  0.0579
 9169SOL    HW238970   4.355   3.377   8.137  1.3779 -2.8653  1.0407
 9170SOL     OW38971   4.597   3.740   1.309 -0.3055  0.2638  0.0387
 9170SOL    HW138972   4.559   3.653   1.315 -1.2294  0.7529  1.3394
 9170SOL    HW238973   4.545   3.795   1.249 -2.3476 -0.8253  0.8160
 9171SOL     OW38974   0.387   0.998  12.279 -0.6738 -0.0492 -0.2892
 9171SOL    HW138975   0.444   0.967  12.348 -0.5376  0.7220 -0.0519
 9171SOL    HW238976   0.335   0.919  12.264 -3.0109  1.8557 -2.4067
 9172SOL     OW38977   2.246   3.109  11.325  0.6560 -0.1620  0.0199
 9172SOL    HW138978   2.188   3.060  11.266 -0.4706  1.0681  0.0941
 9172SOL    HW238979   2.323   3.052  11.328 -0.3875 -1.6057 -0.5505
 9173SOL     OW38980   1.025   4.637   1.360 -0.6193  0.2825  0.4269
 9173SOL    HW138981   0.987   4.664   1.277  0.0489  1.8421  0.6175
 9173SOL    HW238982   1.023   4.718   1.412 -0.1855  0.3459  0.3429
 9174SOL     OW38983   2.224   2.264   4.528  1.1393 -0.1424  0.2067
 9174SOL    HW138984   2.249   2.198   4.593  1.6506 -0.1556  0.0015
 9174SOL    HW238985   2.280   2.336   4.556 -3.0651  2.7381  1.1232
 9175SOL     OW38986   4.556   0.816   6.133 -0.3123  0.1867  0.0282
 9175SOL    HW138987   4.618   0.847   6.199 -0.5692  0.4523  0.1448
 9175SOL    HW238988   4.545   0.898   6.085 -1.8623  0.1281  0.2873
 9176SOL     OW38989   2.389   2.272   7.727 -0.4683 -0.1236  0.5071
 9176SOL    HW138990   2.343   2.189   7.716 -0.4021 -0.0846 -0.0627
 9176SOL    HW238991   2.412   2.297   7.637 -0.7032  0.3756  0.5824
 9177SOL     OW38992   1.257   3.104  15.458 -0.0714 -0.1461  0.1387
 9177SOL    HW138993   1.311   3.077  15.384  0.2292  0.7007  0.0476
 9177SOL    HW238994   1.312   3.073  15.530 -0.6292 -0.1339  0.5801
 9178SOL     OW38995   0.084   2.236   1.094 -0.0369 -0.2487  0.4533
 9178SOL    HW138996   0.096   2.175   1.021 -1.4479 -0.8144  0.6908
 9178SOL    HW238997   4.712   2.224   1.103 -0.1533  0.8509  0.6153
 9179SOL     OW38998   3.156   4.023   0.927  0.1145 -0.2321 -0.4103
 9179SOL    HW138999   3.090   3.965   0.891  1.9606 -2.9083  0.5033
 9179SOL    HW239000   3.116   4.079   0.994 -0.6093  1.6679 -2.4417
 9180SOL     OW39001   0.771   1.750   2.563  0.4188  0.3843 -0.1449
 9180SOL    HW139002   0.803   1.817   2.503  0.4990  0.4730 -0.0032
 9180SOL    HW239003   0.849   1.698   2.585  0.3980  0.6048  0.4274
 9181SOL     OW39004   0.546   1.105   7.934  0.4528 -0.6075 -0.1894
 9181SOL    HW139005   0.522   1.024   7.887  2.9689 -1.3284 -0.2483
 9181SOL    HW239006   0.531   1.164   7.860 -3.8610 -0.9070  0.4788
 9182SOL     OW39007   2.541   0.318  10.179  0.3633  0.5408  0.3488
 9182SOL    HW139008   2.514   0.227  10.192 -1.9558  1.0250 -1.0524
 9182SOL    HW239009   2.535   0.352  10.269 -1.0121 -1.7366  1.1101
 9183SOL     OW39010   0.212   1.781  12.617 -0.2359  0.1705 -0.1306
 9183SOL    HW139011   0.183   1.855  12.671  2.5549  1.3990 -0.2737
 9183SOL    HW239012   0.188   1.708  12.674  0.6118 -0.1346 -0.1708
 9184SOL     OW39013   0.990   1.051   4.734  0.1859 -0.1345  0.0382
 9184SOL    HW139014   1.072   1.099   4.738 -0.2685  0.6137  0.3368
 9184SOL    HW239015   1.006   0.993   4.659 -0.4940 -0.5001  0.1698
 9185SOL     OW39016   2.242   1.466   7.895  0.3452 -0.4279 -0.4379
 9185SOL    HW139017   2.334   1.467   7.920  0.3169 -0.3967 -0.3359
 9185SOL    HW239018   2.248   1.427   7.807  2.0178  0.7874 -0.8592
 9186SOL     OW39019   0.148   3.870   8.663 -0.4067 -0.1698 -0.2945
 9186SOL    HW139020   0.147   3.893   8.756  0.1740 -1.1733 -0.0451
 9186SOL    HW239021   0.126   3.777   8.663 -1.6973  0.1441 -2.4269
 9187SOL     OW39022   1.599   1.131   4.203 -0.0085 -0.0631  0.1889
 9187SOL    HW139023   1.636   1.156   4.287 -1.1412  0.1717  0.6218
 9187SOL    HW239024   1.567   1.042   4.215  0.3185 -0.2214 -0.1247
 9188SOL     OW39025   0.446   1.662   6.098  0.3420  0.0108  0.2649
 9188SOL    HW139026   0.536   1.668   6.067  0.9057 -0.4627  1.7717
 9188SOL    HW239027   0.443   1.746   6.144  1.0769  1.6743 -2.7407
 9189SOL     OW39028   4.250   2.806   5.263  0.0041  0.5948 -0.2125
 9189SOL    HW139029   4.165   2.781   5.299 -0.1009  3.0344  1.2213
 9189SOL    HW239030   4.300   2.796   5.344 -1.2057  0.8733  0.5605
 9190SOL     OW39031   4.469   2.129  12.903  0.3582 -0.0452 -0.0229
 9190SOL    HW139032   4.403   2.181  12.949  1.8063  0.6481  1.2626
 9190SOL    HW239033   4.435   2.044  12.931 -0.3722  1.0836  2.4909
 9191SOL     OW39034   3.456   1.949   5.892 -0.2309  0.1701 -0.5979
 9191SOL    HW139035   3.444   1.991   5.978 -5.5231  0.0199 -1.2936
 9191SOL    HW239036   3.476   2.023   5.835  3.2883 -1.6075 -1.6791
 9192SOL     OW39037   4.534   1.261   1.941  0.1125  0.4981  0.5857
 9192SOL    HW139038   4.579   1.244   2.024 -0.3899 -1.8223  0.3828
 9192SOL    HW239039   4.453   1.299   1.973  0.4807  1.4183  0.4075
 9193SOL     OW39040   1.645   4.206   5.152  0.0303 -0.3683  0.0295
 9193SOL    HW139041   1.591   4.271   5.107 -0.9267 -2.2214 -1.4965
 9193SOL    HW239042   1.576   4.157   5.197 -1.0319  1.2481  0.1578
 9194SOL     OW39043   1.727   3.948   7.170  0.1731  0.0541  0.3612
 9194SOL    HW139044   1.667   3.874   7.164 -2.2312  2.1987 -2.4020
 9194SOL    HW239045   1.678   4.017   7.124 -0.8714 -0.4481  0.7009
 9195SOL     OW39046   4.109   4.436  17.626  0.5606  0.1748  0.4772
 9195SOL    HW139047   4.038   4.489  17.591 -0.6061 -0.7254  1.4833
 9195SOL    HW239048   4.127   4.372  17.557  2.6227  0.9028  0.3492
 9196SOL     OW39049   1.232   1.775  17.687 -0.2563  0.2067  0.5104
 9196SOL    HW139050   1.252   1.686   0.024 -0.3182 -0.1571 -0.4903
 9196SOL    HW239051   1.319   1.811   0.005 -1.3660  3.3544 -1.1327
 9197SOL     OW39052   1.918   3.222   0.876  0.6986 -0.2249 -0.6331
 9197SOL    HW139053   1.909   3.231   0.971 -0.7878 -2.0691 -0.5989
 9197SOL    HW239054   1.871   3.299   0.845  0.2057 -0.5420 -0.6804
 9198SOL     OW39055   1.533   3.614   7.407 -0.3644  0.8013  0.6261
 9198SOL    HW139056   1.587   3.603   7.485 -0.5636  0.8647  0.7731
 9198SOL    HW239057   1.505   3.524   7.392  2.1132  0.0993  0.1700
 9199SOL     OW39058   1.901   2.275   1.421 -0.2330 -0.9260  0.4677
 9199SOL    HW139059   1.826   2.328   1.394  1.3645  0.0339 -2.1291
 9199SOL    HW239060   1.952   2.337   1.473 -0.4488  0.7545 -1.3208
 9200SOL     OW39061   3.934   3.960   4.637 -0.7812  0.0510  0.2460
 9200SOL    HW139062   4.006   3.986   4.580 -1.4741  0.9392 -0.2213
 9200SOL    HW239063   3.956   4.003   4.720  3.0092 -0.5837 -0.4225
 9201SOL     OW39064   3.811   1.882   8.280 -0.1582  0.4990  0.0528
 9201SOL    HW139065   3.840   1.810   8.335  1.7088 -0.6789 -2.5433
 9201SOL    HW239066   3.894   1.910   8.243  0.5585 -0.5996  0.8450
 9202SOL     OW39067   1.859   3.983   2.569  0.0240  0.2736  0.0422
 9202SOL    HW139068   1.917   3.939   2.507 -0.7451 -1.0621  0.2769
 9202SOL    HW239069   1.808   4.039   2.511  0.6007  1.7819  1.0000
 9203SOL     OW39070   4.629   4.125  13.896  0.3317 -0.3542  0.3539
 9203SOL    HW139071   4.636   4.037  13.860 -2.7115 -0.2213 -0.5233
 9203SOL    HW239072   4.705   4.120  13.954  2.1738  0.4451 -1.9708
 9204SOL     OW39073   1.837   0.328   8.360 -0.1854 -0.0365 -0.4033
 9204SOL    HW139074   1.886   0.402   8.396  0.9408  0.1011 -2.1862
 9204SOL    HW239075   1.870   0.257   8.415  1.5961  1.1195  0.0383
 9205SOL     OW39076   0.102   4.086  16.800  0.5982  0.6799 -0.1579
 9205SOL    HW139077   0.024   4.047  16.838  0.9742  0.7126  0.6522
 9205SOL    HW239078   0.160   4.012  16.817  0.1187 -0.3241 -2.9910
 9206SOL     OW39079   4.121   0.894  10.860 -0.2576 -0.1983  0.2644
 9206SOL    HW139080   4.199   0.902  10.804  1.1907 -0.7736  2.2002
 9206SOL    HW239081   4.154   0.946  10.933  2.0633 -0.6681 -0.4351
 9207SOL     OW39082   2.065   4.080  11.049 -0.3772  0.1879 -0.2431
 9207SOL    HW139083   2.010   4.075  11.127 -0.6857  2.4178 -0.3249
 9207SOL    HW239084   2.147   4.042  11.081 -0.1216  1.1775  0.2526
 9208SOL     OW39085   3.556   1.820  10.042 -0.1447 -0.3841 -0.0012
 9208SOL    HW139086   3.539   1.792  10.132  1.1350  1.7081  0.8971
 9208SOL    HW239087   3.607   1.901  10.047 -1.0499  0.1407  0.6093
 9209SOL     OW39088   0.859   2.826   1.695 -0.5811  0.8805 -0.1448
 9209SOL    HW139089   0.933   2.766   1.688 -1.1570  0.2976 -1.1444
 9209SOL    HW239090   0.782   2.776   1.670 -1.0030  0.6536  1.6188
 9210SOL     OW39091   4.602   2.605  17.035  0.4371 -0.1728  0.1198
 9210SOL    HW139092   4.683   2.553  17.037  0.4404 -0.1474  0.5461
 9210SOL    HW239093   4.630   2.687  17.074  2.8538 -1.3981  0.9855
 9211SOL     OW39094   1.662   0.898   5.791 -0.4416  1.1460  0.7663
 9211SOL    HW139095   1.756   0.883   5.782 -0.2562  2.0554  1.2072
 9211SOL    HW239096   1.619   0.814   5.808 -1.7782  1.5379 -0.6231
 9212SOL     OW39097   3.253   2.908   7.212  0.0772  0.8773 -0.2551
 9212SOL    HW139098   3.348   2.901   7.207 -0.0746 -0.5291 -1.1554
 9212SOL    HW239099   3.245   3.001   7.188 -0.0083  0.7018 -0.9250
 9213SOL     OW39100   2.861   2.575  10.710 -0.4915 -0.0425 -0.1403
 9213SOL    HW139101   2.956   2.577  10.726 -0.4188  0.5971 -0.6278
 9213SOL    HW239102   2.834   2.657  10.751  3.0914 -0.4059  2.9885
 9214SOL     OW39103   3.654   3.197   6.232  0.2282  0.6375  0.1290
 9214SOL    HW139104   3.601   3.137   6.285 -1.0997  0.6252 -1.1976
 9214SOL    HW239105   3.713   3.216   6.305 -0.2283  0.6766  0.4924
 9215SOL     OW39106   4.495   3.795  11.222  0.7084 -0.8969  0.5472
 9215SOL    HW139107   4.433   3.779  11.293 -1.2473  1.5637 -0.6025
 9215SOL    HW239108   4.474   3.716  11.171 -0.8039 -1.2395  1.6994
 9216SOL     OW39109   3.320   0.131   5.007 -0.2764 -0.6505  0.2846
 9216SOL    HW139110   3.410   0.101   4.991 -0.0820 -0.0059  0.1769
 9216SOL    HW239111   3.271   0.068   4.954  1.1733 -0.8059 -0.8669
 9217SOL     OW39112   1.943   1.023   6.988  0.0059 -0.4931 -0.2900
 9217SOL    HW139113   1.980   1.103   7.025  2.5590 -1.6030 -0.4510
 9217SOL    HW239114   1.854   1.053   6.968  0.2117 -0.6343 -1.4373
 9218SOL     OW39115   2.918   3.231  17.048  0.0751 -0.0726  0.4773
 9218SOL    HW139116   2.840   3.284  17.062 -0.1901 -0.8843  2.0814
 9218SOL    HW239117   2.926   3.174  17.125 -0.1690  0.9287  1.2444
 9219SOL     OW39118   0.967   1.861   0.055  0.1675  0.1180 -0.2718
 9219SOL    HW139119   1.058   1.832   0.050  0.1196 -0.0298 -0.2915
 9219SOL    HW239120   0.941   1.784   0.106  0.4763 -1.1105 -1.9395
 9220SOL     OW39121   3.436   1.937   6.942  0.1101  0.2601 -0.1583
 9220SOL    HW139122   3.459   1.935   6.849 -1.8279 -0.8143 -0.6332
 9220SOL    HW239123   3.496   1.876   6.984  2.4186  1.6842 -1.3902
 9221SOL     OW39124   4.286   3.250  15.601 -0.4643 -0.0496 -0.8109
 9221SOL    HW139125   4.209   3.301  15.626  0.5231  0.1770  1.8599
 9221SOL    HW239126   4.305   3.201  15.681 -1.0153 -1.0480 -1.3040
 9222SOL     OW39127   2.531   0.321   1.965  0.4053 -0.0654 -0.1013
 9222SOL    HW139128   2.473   0.321   2.041 -0.0191 -2.6105 -0.4197
 9222SOL    HW239129   2.473   0.305   1.890  0.8218  3.2296 -1.1113
 9223SOL     OW39130   1.244   3.503   9.195 -0.1858 -0.0963  0.1373
 9223SOL    HW139131   1.217   3.567   9.261  1.3341  0.0988  0.5596
 9223SOL    HW239132   1.293   3.556   9.133 -3.2089  0.6516 -1.6233
 9224SOL     OW39133   4.166   2.199  10.538 -0.1078 -0.0697 -0.0110
 9224SOL    HW139134   4.139   2.287  10.563  0.8165 -0.5507  2.7142
 9224SOL    HW239135   4.259   2.212  10.519 -0.1881 -0.0469 -0.3779
 9225SOL     OW39136   4.514   3.346   9.155 -0.1230  0.2612  0.2395
 9225SOL    HW139137   4.589   3.288   9.158 -0.5236 -0.2320  0.6327
 9225SOL    HW239138   4.525   3.395   9.074  0.3556  2.0375  1.3738
 9226SOL     OW39139   2.634   1.581   8.646  0.0594  0.6278 -0.1130
 9226SOL    HW139140   2.588   1.642   8.703 -2.2187  0.8237 -2.1384
 9226SOL    HW239141   2.564   1.520   8.623  1.0352 -0.5976  0.1889
 9227SOL     OW39142   2.593   2.388   5.317 -0.2567  0.1791 -0.3075
 9227SOL    HW139143   2.538   2.336   5.258  1.4087 -2.1058  0.1601
 9227SOL    HW239144   2.541   2.377   5.397  1.1591  0.0113  0.5743
 9228SOL     OW39145   2.464   3.699   1.367 -0.1402 -0.2557  0.4448
 9228SOL    HW139146   2.497   3.760   1.301  0.2818 -0.6554  0.2817
 9228SOL    HW239147   2.541   3.644   1.384  0.0554  0.5576  2.1907
 9229SOL     OW39148   0.717   3.732   0.988  0.0615 -0.1142 -0.6095
 9229SOL    HW139149   0.752   3.750   1.075 -0.4566  0.8332 -0.6015
 9229SOL    HW239150   0.767   3.655   0.960  1.2341 -0.0243  1.1972
 9230SOL     OW39151   3.485   4.162   6.680  0.1902  0.3339 -0.5216
 9230SOL    HW139152   3.505   4.254   6.696 -1.3654  0.1221  2.5987
 9230SOL    HW239153   3.541   4.146   6.604  0.9533 -0.3952  0.1920
 9231SOL     OW39154   4.718   4.529   9.647 -0.1925 -0.0574 -0.2829
 9231SOL    HW139155   0.054   4.559   9.716 -0.2581  1.1411 -0.7485
 9231SOL    HW239156   4.653   4.598   9.632 -2.9698 -2.7279 -0.6960
 9232SOL     OW39157   4.233   0.370  10.392  0.3145  0.1322  0.1455
 9232SOL    HW139158   4.301   0.353  10.457  1.8043  1.0794 -1.1979
 9232SOL    HW239159   4.158   0.382  10.451  1.0601  1.1847  0.8780
 9233SOL     OW39160   0.599   1.509   6.678 -0.6878 -0.1465  0.0327
 9233SOL    HW139161   0.641   1.427   6.651 -1.5283 -0.2756 -0.9026
 9233SOL    HW239162   0.549   1.533   6.600 -1.6710 -1.0513  0.3806
 9234SOL     OW39163   2.858   1.868   3.081 -0.1831 -0.1117 -0.1755
 9234SOL    HW139164   2.894   1.895   3.166 -2.8653  0.2470  0.8479
 9234SOL    HW239165   2.808   1.789   3.102  1.0670 -0.0929  2.8122
 9235SOL     OW39166   0.478   4.406   7.521  0.2924 -0.0280  0.2510
 9235SOL    HW139167   0.462   4.458   7.600  1.1952 -0.8026  0.9421
 9235SOL    HW239168   0.537   4.338   7.553 -1.2663 -0.9495  1.1860
 9236SOL     OW39169   2.534   0.959   3.872  0.3762  0.2063  0.3717
 9236SOL    HW139170   2.491   1.017   3.810 -3.0208 -0.4123  2.1414
 9236SOL    HW239171   2.622   0.997   3.881  1.0356 -0.8584 -1.6787
 9237SOL     OW39172   0.119   4.659  15.732  0.0147 -0.1150 -0.5964
 9237SOL    HW139173   0.060   4.648  15.806  0.5780 -2.4948 -0.4777
 9237SOL    HW239174   0.153   4.569  15.725 -0.1004 -0.4010  2.5430
 9238SOL     OW39175   4.420   0.743  12.668 -0.0239 -0.5560 -0.0255
 9238SOL    HW139176   4.339   0.739  12.616 -2.0262 -0.8285  3.0707
 9238SOL    HW239177   4.484   0.714  12.604 -0.8277 -0.3622 -0.9203
 9239SOL     OW39178   2.137   1.734   7.220 -0.0683 -0.2819 -0.0004
 9239SOL    HW139179   2.232   1.736   7.227 -0.0661  0.0963 -0.1554
 9239SOL    HW239180   2.128   1.728   7.125  1.2506 -0.5970 -0.0991
 9240SOL     OW39181   4.544   2.688   0.535  0.2537  0.4643 -0.4121
 9240SOL    HW139182   4.607   2.637   0.587  0.4586  0.9508 -0.1852
 9240SOL    HW239183   4.591   2.750   0.480 -1.0248 -0.7264 -2.8534
 9241SOL     OW39184   3.895   4.017   2.978  0.4818 -0.6431  0.2707
 9241SOL    HW139185   3.837   3.949   3.013  0.4244 -0.0910  1.2420
 9241SOL    HW239186   3.859   4.038   2.892  2.1129  3.1041  0.5183
 9242SOL     OW39187   4.316   1.398   8.486  0.1580  0.0177 -0.1398
 9242SOL    HW139188   4.403   1.370   8.513 -0.6105 -2.3381 -0.0874
 9242SOL    HW239189   4.349   1.476   8.443 -1.2367  1.1475  0.8494
 9243SOL     OW39190   0.657   1.155   3.120 -0.1176 -0.3948 -0.2819
 9243SOL    HW139191   0.584   1.217   3.126 -1.8304 -2.2406 -2.0404
 9243SOL    HW239192   0.648   1.142   3.026 -2.3951 -0.3421 -0.0606
 9244SOL     OW39193   4.178   3.928   1.986  0.4325  0.0992 -0.0148
 9244SOL    HW139194   4.208   3.954   2.073  0.7344  1.7109 -0.5914
 9244SOL    HW239195   4.215   3.995   1.928 -0.6929 -0.2338 -1.1237
 9245SOL     OW39196   3.060   4.631  10.012  0.1534 -0.3303  0.2539
 9245SOL    HW139197   3.080   4.679   9.932 -0.2839 -2.4636 -1.1245
 9245SOL    HW239198   3.047   4.543   9.979 -1.3906 -0.3138  0.8198
 9246SOL     OW39199   1.830   0.771   6.039  0.6631 -0.2010  0.4092
 9246SOL    HW139200   1.865   0.719   6.112  0.8527 -0.7877 -0.0998
 9246SOL    HW239201   1.864   0.717   5.968  0.1513  0.1785 -0.1272
 9247SOL     OW39202   4.663   2.361   1.705 -0.2683  0.0476  0.2997
 9247SOL    HW139203   4.619   2.288   1.661  0.1362 -0.8021  1.2930
 9247SOL    HW239204   0.030   2.347   1.674 -1.0080  0.3072 -1.9722
 9248SOL     OW39205   3.894   2.436  13.389  0.1819  0.1372 -0.1781
 9248SOL    HW139206   3.925   2.504  13.329 -0.2389 -1.6804 -2.4436
 9248SOL    HW239207   3.959   2.449  13.459  0.7931 -0.4063 -0.6404
 9249SOL     OW39208   1.393   0.597   6.845  0.6998 -0.9863 -0.3902
 9249SOL    HW139209   1.324   0.582   6.909  1.4473 -1.5964  0.2738
 9249SOL    HW239210   1.454   0.657   6.889 -0.8398  0.2423  0.0651
 9250SOL     OW39211   3.175   0.949  16.806  0.0245 -0.2348 -0.0773
 9250SOL    HW139212   3.210   1.020  16.753  0.7895 -0.8105 -0.3319
 9250SOL    HW239213   3.119   1.008  16.858  1.7322  1.9640 -0.7358
 9251SOL     OW39214   3.558   4.692   7.721 -0.0125 -0.4031 -0.2928
 9251SOL    HW139215   3.496   4.675   7.792 -2.0005 -0.8318 -2.1628
 9251SOL    HW239216   3.536   0.059   7.698 -2.4096 -1.0803 -0.6653
 9252SOL     OW39217   3.852   3.176   9.002 -0.8277 -0.2891 -0.1942
 9252SOL    HW139218   3.815   3.094   8.970  0.9393 -0.9997 -0.4596
 9252SOL    HW239219   3.795   3.247   8.973 -2.9190 -1.8459  0.1604
 9253SOL     OW39220   4.120   3.234   0.213 -0.2345 -1.0240 -0.2101
 9253SOL    HW139221   4.203   3.261   0.253  1.2021 -2.1012 -2.4223
 9253SOL    HW239222   4.060   3.254   0.285 -0.1400  0.4692 -0.5448
 9254SOL     OW39223   1.257   0.844   6.705 -0.0307  0.3724 -0.6862
 9254SOL    HW139224   1.348   0.875   6.713 -0.3423  1.1102  0.0506
 9254SOL    HW239225   1.266   0.806   6.618 -0.9125 -3.6324  1.0133
 9255SOL     OW39226   4.606   3.127   4.130 -0.1601 -0.0332  0.4267
 9255SOL    HW139227   4.674   3.080   4.082 -0.0820  1.6772 -1.1311
 9255SOL    HW239228   4.634   3.114   4.220  0.1149  0.2641  0.3814
 9256SOL     OW39229   2.850   4.662   5.803  0.7674 -0.3555  0.0242
 9256SOL    HW139230   2.777   0.000   5.816  0.1422 -0.7086 -1.8433
 9256SOL    HW239231   2.811   4.576   5.819 -0.5991  0.8780  3.4023
 9257SOL     OW39232   0.633   1.274   9.343  0.5028 -0.1427 -0.1578
 9257SOL    HW139233   0.656   1.184   9.368  0.3897 -0.0863  0.1497
 9257SOL    HW239234   0.568   1.260   9.275  1.0915 -1.9242 -0.3454
 9258SOL     OW39235   4.689   1.132   3.814 -0.3732  0.1582  0.0023
 9258SOL    HW139236   4.701   1.038   3.798  1.3880  0.4086 -0.1622
 9258SOL    HW239237   4.714   1.141   3.906 -0.7389 -0.7530  0.1946
 9259SOL     OW39238   1.335   3.006   3.605 -0.2250  0.6147 -0.3705
 9259SOL    HW139239   1.317   3.073   3.671 -2.0130 -0.2014 -0.0207
 9259SOL    HW239240   1.323   2.925   3.655 -1.7690 -0.1393 -1.9727
 9260SOL     OW39241   2.324   0.505   0.389  0.2661  0.4737 -0.2562
 9260SOL    HW139242   2.260   0.575   0.374  0.4000  0.2557 -1.8537
 9260SOL    HW239243   2.281   0.449   0.454 -0.7788  1.1350 -0.3772
 9261SOL     OW39244   2.129   1.454   7.532 -0.1027 -0.1201  0.3294
 9261SOL    HW139245   2.189   1.458   7.457  0.4173  0.0810  0.7536
 9261SOL    HW239246   2.197   1.455   7.599 -0.5477  1.1281  0.7529
 9262SOL     OW39247   3.166   1.767   3.398  0.8460  0.5923  0.2447
 9262SOL    HW139248   3.252   1.808   3.404  1.7272 -1.0174 -1.3044
 9262SOL    HW239249   3.183   1.689   3.344  0.0988 -0.9458  2.2236
 9263SOL     OW39250   2.952   0.024   1.161  0.1169 -0.3035 -0.4895
 9263SOL    HW139251   3.027   0.036   1.220 -0.6958  1.1900  0.2203
 9263SOL    HW239252   2.982   0.087   1.096  0.4073 -0.5279 -0.5749
 9264SOL     OW39253   2.999   4.480  15.071 -0.6951 -0.1517 -0.1189
 9264SOL    HW139254   2.984   4.432  15.152 -0.1392  1.5001  0.9446
 9264SOL    HW239255   3.067   4.424  15.033 -2.2903 -1.6716 -0.7465
 9265SOL     OW39256   1.844   3.721   3.372 -0.0920 -0.7043  0.4127
 9265SOL    HW139257   1.835   3.809   3.409 -1.3725 -0.2070 -1.1174
 9265SOL    HW239258   1.751   3.702   3.361  0.6620 -1.3010 -4.7461
 9266SOL     OW39259   1.776   0.583   3.652 -0.0222  0.3954 -0.1593
 9266SOL    HW139260   1.865   0.580   3.616 -0.4478  0.0531 -1.1952
 9266SOL    HW239261   1.781   0.666   3.698  1.2363  1.7781 -2.7977
 9267SOL     OW39262   1.942   2.543  14.505  0.0630  0.4218  0.2879
 9267SOL    HW139263   2.030   2.580  14.501  1.2089 -1.7970  4.7878
 9267SOL    HW239264   1.939   2.521  14.598 -1.3118  0.9336  0.3718
 9268SOL     OW39265   0.346   1.470   1.879  0.1818  0.9498 -0.2128
 9268SOL    HW139266   0.294   1.424   1.813 -0.5736  0.0874  0.9661
 9268SOL    HW239267   0.434   1.439   1.862 -0.1853  0.3816 -1.0926
 9269SOL     OW39268   2.485   2.688   2.486 -0.7393 -0.3247  0.0183
 9269SOL    HW139269   2.448   2.721   2.568  0.8760  0.8499  0.2708
 9269SOL    HW239270   2.540   2.617   2.517 -0.8677 -0.6416 -0.4864
 9270SOL     OW39271   3.572   3.825  13.652 -0.2950 -0.4904 -0.1719
 9270SOL    HW139272   3.601   3.813  13.562  1.0866  0.5951  0.1269
 9270SOL    HW239273   3.496   3.881  13.636 -0.3165 -0.5015 -0.1080
 9271SOL     OW39274   3.959   0.006  10.228  0.1291 -0.1759  0.2320
 9271SOL    HW139275   3.957   0.056  10.310 -1.6460 -2.0799  1.3499
 9271SOL    HW239276   3.882   4.673  10.231 -0.4678  0.6709  0.6671
 9272SOL     OW39277   1.194   0.935  13.853  0.3157  0.7365 -0.4895
 9272SOL    HW139278   1.124   0.988  13.813  0.0674 -0.7857 -2.0675
 9272SOL    HW239279   1.220   1.002  13.917 -1.7693 -0.1065  1.2499
 9273SOL     OW39280   0.257   3.748  12.001 -0.3089  0.1315 -0.3448
 9273SOL    HW139281   0.349   3.754  12.026  0.3539  0.8590 -3.0897
 9273SOL    HW239282   0.226   3.824  11.952  2.1382  0.6471 -1.0838
 9274SOL     OW39283   3.005   1.787   4.291  0.5365  0.1258 -0.0188
 9274SOL    HW139284   2.988   1.700   4.328 -0.6527  1.2880  2.1693
 9274SOL    HW239285   3.097   1.792   4.316 -0.0293  1.4429  1.8292
 9275SOL     OW39286   0.693   1.718   6.016 -0.1435 -0.0102  0.1646
 9275SOL    HW139287   0.733   1.656   5.955  0.5631 -0.1834  0.8042
 9275SOL    HW239288   0.765   1.728   6.078  2.2867  1.1114 -2.8311
 9276SOL     OW39289   1.901   0.528   8.063 -0.3475 -0.5387 -0.4076
 9276SOL    HW139290   1.848   0.602   8.094 -0.9720 -0.1399 -2.4520
 9276SOL    HW239291   1.982   0.553   8.108 -1.0333 -0.5360  0.8295
 9277SOL     OW39292   1.679   4.337   8.268 -0.1540  0.4672  0.5427
 9277SOL    HW139293   1.690   4.373   8.180 -0.3574  0.0557  0.3486
 9277SOL    HW239294   1.765   4.328   8.309 -0.3234  0.0781  0.8180
 9278SOL     OW39295   4.327   2.537   5.159 -0.2001 -0.2503 -0.3668
 9278SOL    HW139296   4.390   2.563   5.092 -1.3372 -1.2655 -1.8281
 9278SOL    HW239297   4.307   2.623   5.195  1.0225  0.4335 -1.3194
 9279SOL     OW39298   3.040   2.865  16.973  0.7585  0.0082  0.3060
 9279SOL    HW139299   2.989   2.799  16.926  1.9139 -1.9278  1.8079
 9279SOL    HW239300   3.123   2.818  16.965 -0.7117 -2.2607 -1.5834
 9280SOL     OW39301   3.353   3.135  13.111  0.5273 -0.4947  0.2300
 9280SOL    HW139302   3.420   3.204  13.116  0.2113 -0.1364 -0.4852
 9280SOL    HW239303   3.387   3.089  13.034  1.4228  0.2449  0.1806
 9281SOL     OW39304   0.095   1.618   6.012 -0.3668  0.2338  0.1414
 9281SOL    HW139305   0.012   1.665   5.997 -0.2339  0.0001 -1.3109
 9281SOL    HW239306   0.153   1.689   6.039 -0.0664  0.5221 -1.2795
 9282SOL     OW39307   4.666   2.052  11.939 -0.3391  0.0245 -0.7364
 9282SOL    HW139308   4.689   2.049  12.032  0.3311  0.0803 -0.8953
 9282SOL    HW239309   4.586   2.000  11.945 -0.5687  0.5599  0.9685
 9283SOL     OW39310   4.553   2.877  12.901  0.1403  0.1304 -0.1073
 9283SOL    HW139311   4.557   2.924  12.984  0.9146 -1.5230  0.7853
 9283SOL    HW239312   4.495   2.934  12.850 -0.9804  0.8468  2.0016
 9284SOL     OW39313   1.516   2.344   2.530  0.0127  0.5762  0.6155
 9284SOL    HW139314   1.454   2.279   2.498 -1.4460  1.7810  0.9409
 9284SOL    HW239315   1.597   2.309   2.495  0.5761  0.6868  1.8064
 9285SOL     OW39316   2.883   2.326   5.823 -0.0709 -0.2668 -0.0662
 9285SOL    HW139317   2.950   2.271   5.783  3.1237  1.5839  2.6769
 9285SOL    HW239318   2.856   2.374   5.745  0.6930 -1.8741 -1.3184
 9286SOL     OW39319   1.256   0.425   3.175  0.0018 -0.2520  1.1874
 9286SOL    HW139320   1.270   0.332   3.189 -0.2362 -0.6407 -1.0917
 9286SOL    HW239321   1.172   0.440   3.218 -0.6385 -1.1791  0.2511
 9287SOL     OW39322   3.804   1.355   3.911  0.0281  0.5358 -0.5305
 9287SOL    HW139323   3.736   1.378   3.975  2.0237 -1.5579  2.3306
 9287SOL    HW239324   3.811   1.262   3.931  1.6283  1.2624  2.2823
 9288SOL     OW39325   0.050   1.623  10.713  0.2772 -0.1395  0.0813
 9288SOL    HW139326   0.082   1.554  10.655  0.1381 -1.0951  1.1316
 9288SOL    HW239327   0.074   1.588  10.799 -0.7408  1.9282  1.2082
 9289SOL     OW39328   0.918   3.487  12.920 -0.6743  0.1068  0.6874
 9289SOL    HW139329   0.981   3.500  12.849 -2.4800  2.3494 -0.4817
 9289SOL    HW239330   0.913   3.391  12.926  0.8796 -0.0552 -0.8349
 9290SOL     OW39331   1.877   3.563   5.320  0.7218 -0.3519 -0.2226
 9290SOL    HW139332   1.900   3.656   5.323  0.4531 -0.3230  1.0464
 9290SOL    HW239333   1.954   3.520   5.283  0.8991 -0.5010  0.3118
 9291SOL     OW39334   0.200   3.106   7.204  0.2456  0.2816 -0.0105
 9291SOL    HW139335   0.192   3.107   7.300  1.9332  0.4565  0.1286
 9291SOL    HW239336   0.293   3.124   7.192  0.2810  0.5601  0.6437
 9292SOL     OW39337   1.888   1.558   3.250  0.3033 -0.0316  0.1056
 9292SOL    HW139338   1.947   1.497   3.207  0.8041 -1.6457  3.0916
 9292SOL    HW239339   1.918   1.642   3.215  1.7495  0.2573  2.0352
 9293SOL     OW39340   0.179   4.368   5.893 -0.1074 -0.1687  0.3190
 9293SOL    HW139341   0.153   4.434   5.829  2.1760  1.6887  1.3071
 9293SOL    HW239342   0.223   4.296   5.849 -0.2803 -0.4970  0.6735
 9294SOL     OW39343   0.827   1.842   8.868 -0.5289  0.5348  0.6530
 9294SOL    HW139344   0.827   1.935   8.845  1.8061  0.6313  1.0825
 9294SOL    HW239345   0.919   1.822   8.852 -0.9351 -1.3831  0.7133
 9295SOL     OW39346   1.454   2.821   2.354 -0.0430 -0.3273 -0.0917
 9295SOL    HW139347   1.458   2.738   2.401 -0.4364  0.0902  0.6932
 9295SOL    HW239348   1.541   2.857   2.373  1.0533 -3.0681  0.1341
 9296SOL     OW39349   1.075   3.625   1.343 -0.2279  0.0106 -0.0465
 9296SOL    HW139350   1.171   3.619   1.340 -0.2925 -0.8030 -0.4766
 9296SOL    HW239351   1.071   3.550   1.402  1.9095 -0.0172  0.0604
 9297SOL     OW39352   4.271   0.837   2.746  0.2038 -0.6450 -0.4375
 9297SOL    HW139353   4.308   0.816   2.832 -0.6231  0.4438  0.1856
 9297SOL    HW239354   4.177   0.826   2.756  0.4860 -0.7104  2.1049
 9298SOL     OW39355   3.461   0.809   3.779 -0.5111  0.0245 -0.5200
 9298SOL    HW139356   3.394   0.875   3.760 -0.5249 -0.5375 -2.4592
 9298SOL    HW239357   3.515   0.878   3.817 -1.2388  0.3786 -0.1222
 9299SOL     OW39358   0.157   0.266   4.639  0.4011  0.1580 -0.1430
 9299SOL    HW139359   0.081   0.287   4.692 -0.3720 -0.3121 -1.0626
 9299SOL    HW239360   0.214   0.342   4.651  1.3378 -0.8277  1.5722
 9300SOL     OW39361   2.365   4.489   6.539 -0.0376  0.0285 -0.1969
 9300SOL    HW139362   2.278   4.529   6.534 -0.1553  0.0033  1.5424
 9300SOL    HW239363   2.404   4.525   6.618 -1.3769  0.1111  0.4383
 9301SOL     OW39364   0.647   3.090   2.341 -0.1105  0.3572 -0.0982
 9301SOL    HW139365   0.605   3.007   2.363  0.9708 -0.0709  0.4178
 9301SOL    HW239366   0.673   3.122   2.428 -1.2627  0.2520  0.2806
 9302SOL     OW39367   1.033   4.288  15.751 -0.1453 -0.4511  0.0502
 9302SOL    HW139368   1.093   4.233  15.700  2.1986  1.0016  1.2921
 9302SOL    HW239369   1.055   4.277  15.843  1.6449  2.8978  0.0199
 9303SOL     OW39370   4.112   4.306   7.226 -0.6621  0.2767  0.0320
 9303SOL    HW139371   4.080   4.313   7.136  2.3781  0.7683 -0.9989
 9303SOL    HW239372   4.077   4.220   7.248  1.9003 -0.5574  0.7991
 9304SOL     OW39373   3.115   0.715   4.592  0.0528  0.0079  0.0743
 9304SOL    HW139374   3.061   0.643   4.622 -0.6152  1.0079  1.2559
 9304SOL    HW239375   3.171   0.682   4.522 -1.1794 -2.9076  0.4669
 9305SOL     OW39376   4.003   3.472   7.847 -0.1905 -0.0363 -0.0588
 9305SOL    HW139377   3.930   3.527   7.817 -0.9733 -0.9395  0.1854
 9305SOL    HW239378   3.990   3.486   7.941 -1.5067 -0.1557 -0.2201
 9306SOL     OW39379   4.298   0.907   1.552 -0.1929  0.1562 -0.4784
 9306SOL    HW139380   4.274   0.828   1.601  0.0964  0.5827  0.3551
 9306SOL    HW239381   4.214   0.923   1.509  0.2667 -0.3158 -1.5397
 9307SOL     OW39382   4.485   2.299   8.675 -0.1870  0.1663 -0.6765
 9307SOL    HW139383   4.535   2.293   8.756  2.1822  3.2012 -1.9159
 9307SOL    HW239384   4.402   2.260   8.703 -0.8481 -0.2692 -3.2096
 9308SOL     OW39385   1.693   4.649   5.150  0.0953 -0.5767  0.1059
 9308SOL    HW139386   1.664   4.689   5.231 -0.8879  2.9790 -2.0169
 9308SOL    HW239387   1.788   4.657   5.142  0.0638 -1.3023 -0.9947
 9309SOL     OW39388   4.721   0.858   9.840  0.6313 -0.5040 -0.1109
 9309SOL    HW139389   4.686   0.935   9.884  0.0043 -1.3113  0.7924
 9309SOL    HW239390   4.721   0.797   9.913  1.1278 -0.2692  0.0896
 9310SOL     OW39391   4.120   0.341   0.764  0.3952 -0.3294 -0.3610
 9310SOL    HW139392   4.105   0.431   0.793  3.1001  0.1756 -0.4636
 9310SOL    HW239393   4.165   0.364   0.683 -1.3766 -1.0023 -1.5303
 9311SOL     OW39394   0.945   2.991   9.315  0.0626 -0.2921 -0.1100
 9311SOL    HW139395   0.961   2.899   9.293 -0.7006 -0.3754 -0.3071
 9311SOL    HW239396   0.914   2.994   9.406 -1.5484  1.4007 -0.7196
 9312SOL     OW39397   2.794   4.073   5.872 -0.0366 -0.2244 -0.2355
 9312SOL    HW139398   2.806   4.099   5.964 -1.5911 -0.5083  0.0461
 9312SOL    HW239399   2.777   4.157   5.831 -1.4772 -0.7259 -0.6706
 9313SOL     OW39400   3.026   3.135  17.528 -0.2698  0.5817  0.6435
 9313SOL    HW139401   2.996   3.209  17.581 -2.1853  1.8169 -2.1547
 9313SOL    HW239402   3.086   3.191  17.479 -0.2963 -0.7944 -0.9599
 9314SOL     OW39403   0.908   1.202   4.148  0.5371  0.1397  0.2497
 9314SOL    HW139404   0.897   1.229   4.239 -0.4986  1.5183 -0.2733
 9314SOL    HW239405   0.824   1.235   4.115  1.4105  2.8976  0.7573
 9315SOL     OW39406   1.759   1.323   3.809 -0.5586 -0.3056  0.2445
 9315SOL    HW139407   1.848   1.311   3.844 -1.2568 -0.6454  1.8997
 9315SOL    HW239408   1.715   1.358   3.886 -0.0731  0.3831  0.2146
 9316SOL     OW39409   0.239   1.971   7.272  0.3597 -0.1575  0.6691
 9316SOL    HW139410   0.229   2.052   7.223 -0.7513 -1.6495 -1.5265
 9316SOL    HW239411   0.152   1.938   7.294 -0.8992  2.0374 -1.0853
 9317SOL     OW39412   0.121   2.612   3.486  0.5770 -0.4133  0.4163
 9317SOL    HW139413   0.200   2.642   3.441  0.1815  1.1340  0.7608
 9317SOL    HW239414   0.040   2.656   3.461  1.0182  1.0560  1.5460
 9318SOL     OW39415   3.387   4.412   2.842  0.7171  0.6115  0.3754
 9318SOL    HW139416   3.426   4.490   2.803  1.6649 -0.1437 -0.2166
 9318SOL    HW239417   3.332   4.461   2.903  0.6571  0.1782  0.6661
 9319SOL     OW39418   3.154   3.515   2.990  0.0007 -0.7836 -0.1023
 9319SOL    HW139419   3.166   3.429   3.030  0.3636 -0.6028  0.1733
 9319SOL    HW239420   3.245   3.544   2.997  0.4567 -2.0298 -0.8596
 9320SOL     OW39421   3.519   4.663   1.931 -0.4259 -0.2941  0.0913
 9320SOL    HW139422   3.547   0.031   1.942  1.0241 -0.7229 -0.1745
 9320SOL    HW239423   3.552   4.623   2.011  1.6883 -1.4876 -1.3867
 9321SOL     OW39424   1.527   3.326   5.657 -0.3515 -0.0837  0.0123
 9321SOL    HW139425   1.482   3.376   5.726 -0.7368 -1.0668  0.4733
 9321SOL    HW239426   1.577   3.400   5.622  0.6577 -0.7109  0.1264
 9322SOL     OW39427   0.913   2.864   2.539  0.2031 -0.1640  0.3592
 9322SOL    HW139428   1.003   2.838   2.519 -0.0156 -0.3536 -0.3885
 9322SOL    HW239429   0.933   2.944   2.588  1.5366  1.1117 -2.2599
 9323SOL     OW39430   2.981   1.089   6.761 -0.1940  0.1555 -0.3590
 9323SOL    HW139431   3.067   1.128   6.778  0.1893 -0.0957 -1.7510
 9323SOL    HW239432   2.993   1.075   6.667 -1.3252 -1.9044 -0.1913
 9324SOL     OW39433   3.424   0.796   5.616 -0.5881  0.0266  0.3419
 9324SOL    HW139434   3.462   0.793   5.528  0.9643 -1.9417  1.0934
 9324SOL    HW239435   3.456   0.883   5.640  2.4484 -0.5105 -1.8837
 9325SOL     OW39436   3.277   3.509   6.683  0.3074  0.3192 -0.0679
 9325SOL    HW139437   3.337   3.460   6.626 -0.8496  0.8688 -1.7582
 9325SOL    HW239438   3.306   3.478   6.769  1.9142  1.8085 -0.0627
 9326SOL     OW39439   0.740   1.960   3.637 -0.4250 -0.3858 -0.1086
 9326SOL    HW139440   0.678   2.032   3.648 -0.2820 -0.4040  0.8760
 9326SOL    HW239441   0.679   1.899   3.595 -0.6375 -0.0288 -0.3164
 9327SOL     OW39442   0.661   0.792   4.777  0.1900  0.1123 -0.6871
 9327SOL    HW139443   0.620   0.866   4.733 -1.8353  0.2511  1.3947
 9327SOL    HW239444   0.736   0.825   4.826  0.6865  0.3080 -1.5847
 9328SOL     OW39445   0.643   2.812   2.671 -0.1511  0.1187  0.1688
 9328SOL    HW139446   0.721   2.784   2.621 -1.0622 -0.5096 -0.9130
 9328SOL    HW239447   0.609   2.723   2.682 -1.2141  0.4851 -0.1949
 9329SOL     OW39448   4.650   2.054   3.816  0.0103  0.4267  0.2724
 9329SOL    HW139449   4.619   2.102   3.740  0.1400 -0.9176 -0.6308
 9329SOL    HW239450   4.716   2.116   3.847  0.8725  0.0153 -0.7449
 9330SOL     OW39451   4.594   2.285   1.956  0.1775 -0.2547  0.9669
 9330SOL    HW139452   4.570   2.196   1.931  2.4644 -0.7486  0.4911
 9330SOL    HW239453   4.621   2.324   1.873  1.5382 -1.6018  0.7764
 9331SOL     OW39454   3.910   1.160   4.221  0.7958  0.7925  0.1618
 9331SOL    HW139455   3.921   1.248   4.256  0.9369  0.0844  1.8706
 9331SOL    HW239456   3.892   1.104   4.296 -0.9207  1.7018  0.4263
 9332SOL     OW39457   2.853   1.764   8.060 -0.2583  0.4031  0.1648
 9332SOL    HW139458   2.818   1.766   7.971  2.5556 -1.9342 -0.9912
 9332SOL    HW239459   2.829   1.673   8.076  0.1783  0.5281  1.5035
 9333SOL     OW39460   4.443   3.535   8.152  0.1033  0.0630 -0.6584
 9333SOL    HW139461   4.447   3.608   8.215  0.9252  1.7166 -2.6154
 9333SOL    HW239462   4.537   3.531   8.133  0.4481 -1.3557  1.3612
 9334SOL     OW39463   4.634   2.602   9.095 -0.0860  0.4421  0.2054
 9334SOL    HW139464   4.714   2.592   9.044  0.3205 -2.6249  1.4305
 9334SOL    HW239465   4.611   2.515   9.126 -0.0573 -0.1571 -1.4360
 9335SOL     OW39466   0.467   3.716   3.217  0.3989 -0.0335  0.0410
 9335SOL    HW139467   0.458   3.631   3.174  0.7168 -1.3738  2.6561
 9335SOL    HW239468   0.394   3.715   3.279  0.3316  2.2482  0.0169
 9336SOL     OW39469   4.477   1.822   3.601  0.0883 -0.1725  0.4461
 9336SOL    HW139470   4.567   1.819   3.568  0.1241 -1.6360  0.7040
 9336SOL    HW239471   4.452   1.731   3.589  0.1016 -0.2414  0.9631
 9337SOL     OW39472   4.653   0.554  12.474  0.1390  0.2975 -0.1993
 9337SOL    HW139473   0.009   0.606  12.462  0.5622 -0.1636  0.5688
 9337SOL    HW239474   4.644   0.506  12.392 -2.1989 -2.1488  1.4679
 9338SOL     OW39475   4.402   3.675  14.032  0.6461 -0.1940  0.2678
 9338SOL    HW139476   4.365   3.725  14.105 -1.0144  3.9816 -3.4460
 9338SOL    HW239477   4.412   3.748  13.970 -0.8367 -1.3709 -1.3583
 9339SOL     OW39478   0.633   1.070   0.703  0.1625  0.7254  0.4567
 9339SOL    HW139479   0.565   1.135   0.686  1.8469  2.2817 -0.3813
 9339SOL    HW239480   0.712   1.125   0.705  0.2923  0.5229  0.8562
 9340SOL     OW39481   0.347   4.225  10.666  0.7919 -0.6210  0.2663
 9340SOL    HW139482   0.359   4.170  10.742  0.2505 -0.9978  0.0747
 9340SOL    HW239483   0.419   4.199  10.608  0.1526  0.4315 -0.9931
 9341SOL     OW39484   1.398   2.390  12.140 -0.0469  0.1152  0.5324
 9341SOL    HW139485   1.313   2.363  12.174  0.0029 -1.4390 -0.5794
 9341SOL    HW239486   1.447   2.317  12.178  1.5062  2.0254  2.2384
 9342SOL     OW39487   3.791   1.296   7.349 -0.1388  0.5253  0.5080
 9342SOL    HW139488   3.803   1.208   7.384  0.2099 -0.0915 -1.1231
 9342SOL    HW239489   3.863   1.296   7.285  1.4688 -0.3414  2.3427
 9343SOL     OW39490   1.627   1.688   7.445  0.1011  0.0591 -0.4831
 9343SOL    HW139491   1.552   1.737   7.480 -0.2711 -0.0540 -1.1111
 9343SOL    HW239492   1.580   1.605   7.442  1.6784 -0.7805 -1.9345
 9344SOL     OW39493   2.121   1.178   4.340  0.0721  0.1207 -0.2144
 9344SOL    HW139494   2.073   1.100   4.312 -2.0624  0.7021  1.7646
 9344SOL    HW239495   2.195   1.132   4.379 -2.9520 -3.3852  1.3005
 9345SOL     OW39496   2.361   3.061   3.846 -0.0254  0.5492 -0.1634
 9345SOL    HW139497   2.384   3.149   3.816  1.3406  0.2495  0.0303
 9345SOL    HW239498   2.402   3.007   3.778  3.5151  2.5229  0.4090
 9346SOL     OW39499   2.232   2.818   9.179  0.3279 -0.5562 -0.4469
 9346SOL    HW139500   2.226   2.900   9.229 -0.8331  0.1818 -1.8096
 9346SOL    HW239501   2.192   2.843   9.096 -0.1455 -0.2690 -0.1307
 9347SOL     OW39502   0.828   2.843  16.130 -0.0187  0.1716  0.1625
 9347SOL    HW139503   0.830   2.786  16.206  3.3116 -0.7483 -0.6240
 9347SOL    HW239504   0.735   2.866  16.125 -0.2874 -0.9494 -0.1619
 9348SOL     OW39505   1.912   2.559   4.163 -0.1348 -0.3679 -0.0863
 9348SOL    HW139506   2.000   2.596   4.155 -1.2471  2.3562  0.2158
 9348SOL    HW239507   1.878   2.616   4.094  0.3299  0.4495  0.3448
 9349SOL     OW39508   1.651   1.151   9.179 -0.0746  0.0358  0.3218
 9349SOL    HW139509   1.680   1.068   9.216 -0.4992 -0.3130 -0.1261
 9349SOL    HW239510   1.614   1.189   9.259 -1.7871 -0.0023 -0.4470
 9350SOL     OW39511   1.010   3.915  11.940 -0.5209 -0.4104 -0.3285
 9350SOL    HW139512   1.092   3.883  11.902  0.1544  0.4295  0.4252
 9350SOL    HW239513   1.036   3.959  12.021 -1.2605  0.3212 -0.4790
 9351SOL     OW39514   3.392   4.132   4.715  0.0329  0.3709 -0.2842
 9351SOL    HW139515   3.469   4.079   4.731 -0.0886  0.4301  0.5458
 9351SOL    HW239516   3.423   4.222   4.700  0.1277  0.0469 -2.0340
 9352SOL     OW39517   4.456   2.737  15.061  0.8202 -0.1585  0.2809
 9352SOL    HW139518   4.404   2.659  15.045  1.4817 -0.7106  0.8274
 9352SOL    HW239519   4.398   2.811  15.080  0.7906  0.0311 -0.5262
 9353SOL     OW39520   2.829   2.391   1.999  0.2155  0.0505  0.2941
 9353SOL    HW139521   2.751   2.415   1.949  0.3553  1.6299  0.8288
 9353SOL    HW239522   2.893   2.368   1.932 -1.3712  1.1970 -1.6016
 9354SOL     OW39523   3.970   0.824   0.406  0.5393 -0.0440  0.8358
 9354SOL    HW139524   4.047   0.780   0.441  0.6184  0.5951  1.4675
 9354SOL    HW239525   3.913   0.752   0.379 -0.2011 -0.1283  2.6294
 9355SOL     OW39526   3.029   2.196   7.103 -0.3421  0.7010  0.0042
 9355SOL    HW139527   3.091   2.179   7.173  1.0291  1.0039 -1.1436
 9355SOL    HW239528   2.983   2.272   7.138 -1.0736 -0.1976  1.0045
 9356SOL     OW39529   3.141   3.060  11.026  0.0609  0.5714 -0.3832
 9356SOL    HW139530   3.094   2.985  10.990  1.1583  0.1725 -0.9554
 9356SOL    HW239531   3.076   3.072  11.096 -0.5408  3.0238 -1.3543
 9357SOL     OW39532   3.693   0.882   8.730 -0.3998  0.3764  0.1642
 9357SOL    HW139533   3.743   0.928   8.797 -0.0475 -1.2743  1.0327
 9357SOL    HW239534   3.605   0.864   8.764 -0.4270 -0.5879 -0.4228
 9358SOL     OW39535   0.590   1.264  14.762 -0.1424 -0.0571  0.5378
 9358SOL    HW139536   0.653   1.239  14.694 -0.7883  0.7035 -0.3338
 9358SOL    HW239537   0.647   1.268  14.839 -0.1873 -1.4582  0.6473
 9359SOL     OW39538   0.344   4.532   4.657  0.2419 -0.2343 -0.1576
 9359SOL    HW139539   0.272   4.594   4.645 -0.1260 -0.5020  0.6784
 9359SOL    HW239540   0.402   4.574   4.720  0.2261 -0.3043 -0.0968
 9360SOL     OW39541   3.921   1.945   1.723 -0.8617 -0.5815  0.6268
 9360SOL    HW139542   3.857   1.973   1.788 -2.3239  0.2995 -1.1791
 9360SOL    HW239543   3.994   2.001   1.751 -1.1475 -0.5319  1.2563
 9361SOL     OW39544   2.149   4.435   2.202 -0.2278  0.9590  0.3697
 9361SOL    HW139545   2.156   4.529   2.187 -0.7376  1.4190  3.0652
 9361SOL    HW239546   2.100   4.434   2.283  0.2305  1.7194  0.6565
 9362SOL     OW39547   4.464   0.638  13.415 -0.0451  0.3149  0.4461
 9362SOL    HW139548   4.476   0.549  13.384 -1.7148  0.1316  0.3544
 9362SOL    HW239549   4.375   0.640  13.450 -0.1671 -1.9068  0.2540
 9363SOL     OW39550   2.382   3.936  15.410 -0.2125  0.5057  0.4514
 9363SOL    HW139551   2.422   3.967  15.328 -1.2762 -1.1699 -0.6951
 9363SOL    HW239552   2.328   3.866  15.375 -0.9155  1.1205  0.3006
 9364SOL     OW39553   3.400   1.506   7.853 -0.0337 -0.1908  0.2248
 9364SOL    HW139554   3.389   1.490   7.947 -1.4430 -0.9509 -0.0773
 9364SOL    HW239555   3.383   1.600   7.858  1.7937  0.1302  0.4654
 9365SOL     OW39556   3.642   4.065   5.783  0.4326 -0.4020  0.2555
 9365SOL    HW139557   3.613   4.026   5.866 -0.1505  0.8460  0.6458
 9365SOL    HW239558   3.678   4.147   5.816 -0.0413  0.2189 -0.7753
 9366SOL     OW39559   1.925   3.483   6.179  0.2216 -0.2550  0.0668
 9366SOL    HW139560   1.853   3.433   6.218 -0.0539 -0.9233 -1.2603
 9366SOL    HW239561   1.898   3.488   6.087 -0.6845  2.0261  0.4684
 9367SOL     OW39562   0.490   1.969   3.999  0.3636 -0.2332  0.1647
 9367SOL    HW139563   0.440   2.048   3.981  0.6472  0.2054  1.3211
 9367SOL    HW239564   0.417   1.921   4.038 -0.0402 -1.5421 -2.1481
 9368SOL     OW39565   3.577   1.334   7.731  0.5297  0.6348  0.5409
 9368SOL    HW139566   3.594   1.380   7.648  1.5857  2.0577  1.5553
 9368SOL    HW239567   3.518   1.402   7.762  0.6037  0.8298  0.2599
 9369SOL     OW39568   4.025   3.259  12.306 -0.3247  0.2966 -0.3670
 9369SOL    HW139569   4.013   3.306  12.389  0.9796  2.1932 -1.2679
 9369SOL    HW239570   4.021   3.171  12.344  0.9926  0.7754  0.8755
 9370SOL     OW39571   0.599   2.780   7.455 -0.4689  0.0827  0.1447
 9370SOL    HW139572   0.577   2.765   7.547 -1.6370  2.6912  0.2945
 9370SOL    HW239573   0.681   2.828   7.463 -0.6730  0.5809 -0.6951
 9371SOL     OW39574   3.348   1.403   4.191 -0.6478  0.0753  0.4636
 9371SOL    HW139575   3.295   1.377   4.266  1.1883  0.0190  1.7675
 9371SOL    HW239576   3.285   1.399   4.119 -0.8074 -1.4327  0.6759
 9372SOL     OW39577   3.955   2.230   0.914 -0.4220  0.3195  0.1569
 9372SOL    HW139578   4.027   2.197   0.969 -0.0829 -1.6043 -1.4409
 9372SOL    HW239579   3.876   2.203   0.960  0.6284 -2.0881  0.6027
 9373SOL     OW39580   0.199   1.579   1.582 -0.6109 -0.1935  0.0996
 9373SOL    HW139581   0.193   1.674   1.579  0.0687 -0.2169 -1.6619
 9373SOL    HW239582   0.127   1.557   1.642  1.4291 -0.2575  2.5062
 9374SOL     OW39583   1.526   2.242   4.995 -0.2448  0.3280 -0.1096
 9374SOL    HW139584   1.595   2.263   5.058 -1.1763  3.5083 -0.1730
 9374SOL    HW239585   1.563   2.250   4.907  0.2431 -2.4462 -0.1753
 9375SOL     OW39586   1.816   3.331   4.416  0.3919 -0.1554  0.2473
 9375SOL    HW139587   1.828   3.285   4.333 -0.8533  1.8854 -1.0712
 9375SOL    HW239588   1.751   3.398   4.395 -0.2704 -1.1399 -0.9183
 9376SOL     OW39589   1.759   4.404   4.781 -0.5626  1.1559 -0.7725
 9376SOL    HW139590   1.763   4.311   4.803  1.5905  1.5339  0.4356
 9376SOL    HW239591   1.751   4.390   4.686 -1.5793 -2.1354 -0.1758
 9377SOL     OW39592   0.396   3.382  15.240  0.0607 -0.4064  0.0805
 9377SOL    HW139593   0.472   3.423  15.199 -0.1209  0.9139  1.0406
 9377SOL    HW239594   0.356   3.326  15.174  2.0928 -0.4304 -1.1174
 9378SOL     OW39595   2.574   1.361  16.442 -0.1128 -0.7252 -0.0451
 9378SOL    HW139596   2.491   1.312  16.444  0.3225 -1.4094  1.0955
 9378SOL    HW239597   2.639   1.294  16.458 -0.0928 -0.9244 -0.9498
 9379SOL     OW39598   2.564   3.962   3.170  0.0356 -0.3288 -0.5037
 9379SOL    HW139599   2.536   4.053   3.177  0.2295 -0.1909 -1.4346
 9379SOL    HW239600   2.624   3.963   3.095 -0.5990  0.8496 -1.0012
 9380SOL     OW39601   1.093   0.745   6.215  0.3955 -1.0743 -0.1564
 9380SOL    HW139602   1.117   0.656   6.190  2.8431 -0.1613 -1.1256
 9380SOL    HW239603   0.998   0.739   6.209  0.5035  0.1667 -3.2338
 9381SOL     OW39604   0.766   4.278  13.602 -0.3236 -0.2067  0.1611
 9381SOL    HW139605   0.858   4.286  13.577 -0.3031 -0.0589  0.2872
 9381SOL    HW239606   0.771   4.287  13.697 -0.1226 -0.9354  0.2229
 9382SOL     OW39607   4.596   1.429   9.205  0.3290 -0.4909 -0.2990
 9382SOL    HW139608   4.676   1.396   9.245 -1.0262 -2.4296  0.8042
 9382SOL    HW239609   4.586   1.378   9.124  0.7511 -0.7969 -0.1573
 9383SOL     OW39610   2.517   3.851   1.150  0.1412  0.6822  0.0714
 9383SOL    HW139611   2.491   3.918   1.086  0.9721  1.1451  0.2089
 9383SOL    HW239612   2.566   3.911   1.206  1.6198 -2.9108  2.5515
 9384SOL     OW39613   2.847   3.726  13.645 -0.5449 -0.1465 -0.1403
 9384SOL    HW139614   2.933   3.768  13.633 -0.1482 -1.0576 -0.4616
 9384SOL    HW239615   2.788   3.790  13.604  0.6094  0.4128 -0.9333
 9385SOL     OW39616   0.822   4.431   4.922  0.6708 -0.7027 -0.0567
 9385SOL    HW139617   0.888   4.462   4.860  1.9729 -2.5052  0.4279
 9385SOL    HW239618   0.792   4.521   4.938 -0.3708 -1.0933  0.1403
 9386SOL     OW39619   4.296   4.002   5.037  0.0816  0.4689  0.2514
 9386SOL    HW139620   4.352   4.070   4.999  1.1995  0.4791  1.8955
 9386SOL    HW239621   4.351   3.961   5.105 -0.3111  2.7879  1.9488
 9387SOL     OW39622   3.783   3.940   7.094  0.0894 -0.4489  0.7487
 9387SOL    HW139623   3.762   3.983   7.011  0.3789 -0.5276  0.6351
 9387SOL    HW239624   3.824   3.859   7.062  2.4191  0.8647  0.3846
 9388SOL     OW39625   2.144   2.590  13.317  0.7174  0.4148 -0.1719
 9388SOL    HW139626   2.084   2.660  13.344 -1.2902 -1.6528  0.7446
 9388SOL    HW239627   2.200   2.637  13.256  0.7226  1.7181  0.8445
 9389SOL     OW39628   3.797   0.100  10.699  0.3230  0.0299  0.1070
 9389SOL    HW139629   3.797   0.005  10.710 -0.1208  0.2089  1.5555
 9389SOL    HW239630   3.865   0.099  10.632  0.5667  1.6125  0.3267
 9390SOL     OW39631   0.872   2.650   5.632 -0.0311 -0.1342  0.7166
 9390SOL    HW139632   0.950   2.609   5.670 -2.4192 -4.0286  1.4489
 9390SOL    HW239633   0.831   2.579   5.582 -0.2432  0.5972 -0.1364
 9391SOL     OW39634   0.705   3.371  11.416  0.6856  0.0897 -0.6498
 9391SOL    HW139635   0.619   3.395  11.383  0.4389 -3.3533 -2.5713
 9391SOL    HW239636   0.703   3.287  11.370  1.5711 -0.1229 -0.3101
 9392SOL     OW39637   3.099   0.456  16.209 -0.4560 -0.1226  0.3478
 9392SOL    HW139638   3.006   0.431  16.214 -0.7030  0.7959  0.3613
 9392SOL    HW239639   3.123   0.449  16.301 -2.6391 -2.2596  0.7862
 9393SOL     OW39640   2.299   1.282  16.466  0.2676  0.0779  0.0536
 9393SOL    HW139641   2.248   1.221  16.412 -0.3907 -1.7808  2.7576
 9393SOL    HW239642   2.229   1.326  16.514 -0.0231 -1.4813  1.0438
 9394SOL     OW39643   3.605   4.432   6.696  0.3285 -0.6267 -0.0800
 9394SOL    HW139644   3.673   4.499   6.706 -0.4287 -0.0256  0.9493
 9394SOL    HW239645   3.581   4.449   6.605  2.2669 -2.3254 -0.8972
 9395SOL     OW39646   1.039   2.235   9.009  0.2950  0.1533  0.3523
 9395SOL    HW139647   1.043   2.331   9.005  2.8380  0.0471  0.3861
 9395SOL    HW239648   1.090   2.219   9.089  2.6347 -1.2152 -1.4275
 9396SOL     OW39649   4.492   1.104   6.224  0.6558 -0.7203 -0.5176
 9396SOL    HW139650   4.451   1.075   6.142 -0.4391  1.8314 -0.8745
 9396SOL    HW239651   4.585   1.083   6.225  1.0906  1.1649 -0.8324
 9397SOL     OW39652   4.157   3.661  11.006  0.4706  0.1908 -0.0009
 9397SOL    HW139653   4.242   3.619  10.998  0.9287  1.0385  0.3850
 9397SOL    HW239654   4.192   3.749  10.993 -3.0560  1.6949  0.5576
 9398SOL     OW39655   4.224   0.131   5.265 -0.2355  0.9247  0.1836
 9398SOL    HW139656   4.313   0.151   5.294 -1.1231  0.6449  3.0994
 9398SOL    HW239657   4.226   0.184   5.185 -1.9220  0.9947  0.1934
 9399SOL     OW39658   3.763   0.647   8.333  0.0032  0.0035  0.3256
 9399SOL    HW139659   3.684   0.604   8.364  1.2840 -1.0704  2.1086
 9399SOL    HW239660   3.729   0.700   8.261  1.9796 -1.7255 -1.9195
 9400SOL     OW39661   0.002   3.353   7.846 -0.6983 -0.0834  0.3101
 9400SOL    HW139662   0.080   3.356   7.791  1.5060  0.6531  3.4872
 9400SOL    HW239663   0.009   3.422   7.912  0.3645  0.7161 -0.6370
 9401SOL     OW39664   2.390   1.981   4.908  0.9768 -0.1899 -0.3903
 9401SOL    HW139665   2.388   1.902   4.854  0.5875  0.3847 -1.2123
 9401SOL    HW239666   2.455   1.955   4.974  0.6934  0.6803  0.2290
 9402SOL     OW39667   0.202   1.141   9.925 -0.4509 -0.2980  0.4047
 9402SOL    HW139668   0.276   1.085   9.950  0.4313  0.4379 -0.5268
 9402SOL    HW239669   0.251   1.203   9.870  0.7953 -0.5508  1.2192
 9403SOL     OW39670   3.077   2.272   8.646 -1.3016 -0.2470  0.4403
 9403SOL    HW139671   3.072   2.254   8.740 -1.4127 -0.6307  0.3590
 9403SOL    HW239672   3.001   2.223   8.616  0.1552 -0.8151 -2.3396
 9404SOL     OW39673   2.229   3.803   3.949 -0.4253  0.2942 -0.4038
 9404SOL    HW139674   2.282   3.862   3.896  1.6087 -0.4318  0.7995
 9404SOL    HW239675   2.264   3.786   4.037 -0.5206  2.0276 -0.0480
 9405SOL     OW39676   2.555   0.602   9.012 -0.4080  0.4440  0.4177
 9405SOL    HW139677   2.597   0.631   9.093  0.8328 -2.0563  0.6710
 9405SOL    HW239678   2.628   0.606   8.950  1.5417  1.8763  2.8357
 9406SOL     OW39679   3.309   3.171   3.934 -0.3013  0.2685  0.1765
 9406SOL    HW139680   3.243   3.114   3.973  0.1023  0.6665  1.4582
 9406SOL    HW239681   3.385   3.116   3.953 -0.0119  1.1995  1.7077
 9407SOL     OW39682   1.939   2.970  10.900 -0.3656 -0.4798 -0.6425
 9407SOL    HW139683   1.928   2.887  10.854  0.2492 -1.0722  0.2640
 9407SOL    HW239684   1.863   3.018  10.868 -0.2124  0.4561  0.3823
 9408SOL     OW39685   1.945   4.257   8.938 -0.0219  0.7048 -0.2268
 9408SOL    HW139686   1.911   4.183   8.888 -0.2785  0.9404 -0.4015
 9408SOL    HW239687   1.873   4.320   8.939 -0.5590  0.0677  1.5112
 9409SOL     OW39688   3.934   2.491   8.452  0.0271  0.3106  0.0887
 9409SOL    HW139689   3.923   2.397   8.465  0.7328  0.3408  0.8977
 9409SOL    HW239690   3.930   2.488   8.356 -0.0151 -0.1007  0.1041
 9410SOL     OW39691   0.051   0.658  10.019  0.2837 -0.2445 -0.0491
 9410SOL    HW139692   0.118   0.629   9.957  2.2432 -0.5774  2.2090
 9410SOL    HW239693   0.110   0.705  10.078  1.3278 -0.5663 -0.8328
 9411SOL     OW39694   0.035   4.332   4.171  0.4830 -0.6376  0.0011
 9411SOL    HW139695   0.021   4.240   4.194 -0.4938 -0.6682 -0.6708
 9411SOL    HW239696   0.055   4.368   4.257  0.6081 -1.5406  0.3566
 9412SOL     OW39697   0.274   2.706   5.869 -0.2048  0.3420 -0.0910
 9412SOL    HW139698   0.215   2.684   5.797  0.3640  1.7063 -0.9764
 9412SOL    HW239699   0.285   2.799   5.851 -1.4321  0.5304  0.1263
 9413SOL     OW39700   1.264   2.642   7.367  0.0780  0.0335 -0.3410
 9413SOL    HW139701   1.209   2.672   7.439  3.3096  0.4204  1.9497
 9413SOL    HW239702   1.296   2.563   7.409  2.0121  1.0247  0.0362
 9414SOL     OW39703   0.084   0.490   6.067  0.0526  0.9133 -0.4107
 9414SOL    HW139704   0.050   0.572   6.102  1.7548  0.1096  3.0981
 9414SOL    HW239705   0.111   0.444   6.147  0.0944 -1.6524 -1.8875
 9415SOL     OW39706   3.332   0.405   5.296  0.1764  0.0269  0.4463
 9415SOL    HW139707   3.334   0.429   5.203 -0.9217 -0.4309  0.3081
 9415SOL    HW239708   3.269   0.333   5.289 -1.7181  1.7734 -0.8045
 9416SOL     OW39709   2.009   4.430   5.002 -0.0614  0.0097  0.2762
 9416SOL    HW139710   2.004   4.498   5.070  2.6712 -1.8286  2.3108
 9416SOL    HW239711   1.950   4.368   5.044 -0.5236 -1.0376 -1.9096
 9417SOL     OW39712   0.343   2.264  16.677  0.6956 -0.1552  0.3441
 9417SOL    HW139713   0.421   2.309  16.710 -0.9656  1.9580  1.4513
 9417SOL    HW239714   0.397   2.199  16.633  0.5244 -0.4931  0.6284
 9418SOL     OW39715   0.982   4.099   3.102  0.5387 -0.4298  0.1441
 9418SOL    HW139716   0.888   4.120   3.099  0.4888 -0.4508  1.4658
 9418SOL    HW239717   1.003   4.050   3.023 -1.3572 -3.0001  1.2571
 9419SOL     OW39718   3.941   0.080  11.342 -0.2181 -0.3996  0.0414
 9419SOL    HW139719   3.898   0.158  11.307  1.4941  0.6783  0.3158
 9419SOL    HW239720   3.888   0.072  11.422  1.1208  1.8440  1.1708
 9420SOL     OW39721   4.077   2.903   3.175  0.2998 -0.2333 -0.0034
 9420SOL    HW139722   4.020   2.949   3.114  1.8905  0.3341 -1.0795
 9420SOL    HW239723   4.014   2.840   3.209 -0.2668 -0.8825 -2.3106
 9421SOL     OW39724   3.663   2.443   5.043 -0.0807 -0.6202  0.3837
 9421SOL    HW139725   3.688   2.488   4.963  0.0340 -3.4184 -1.1430
 9421SOL    HW239726   3.619   2.365   5.011  0.6751 -0.0641 -1.9785
 9422SOL     OW39727   1.891   2.562   9.463 -0.0657  0.0891 -0.1294
 9422SOL    HW139728   1.931   2.572   9.550  0.7692 -2.3558 -0.2449
 9422SOL    HW239729   1.893   2.656   9.443  0.0615  0.4664  1.6106
 9423SOL     OW39730   2.162   1.442  11.013 -0.7125 -0.4265 -0.0296
 9423SOL    HW139731   2.176   1.418  11.105  0.4658  1.7171  0.3660
 9423SOL    HW239732   2.214   1.367  10.985 -1.0384 -0.2350 -1.1512
 9424SOL     OW39733   0.123   3.504   0.563  0.3545  0.3803 -0.0107
 9424SOL    HW139734   0.182   3.486   0.636  1.3424 -1.6720 -1.3182
 9424SOL    HW239735   0.197   3.526   0.507 -1.3946  1.1332 -1.9973
 9425SOL     OW39736   1.894   3.631  12.881  0.0586  0.0099 -0.1730
 9425SOL    HW139737   1.981   3.670  12.873 -0.3040  0.6685 -0.9431
 9425SOL    HW239738   1.868   3.649  12.972 -2.1045 -2.4299 -0.3288
 9426SOL     OW39739   0.478   0.100   2.998 -0.1553  0.8609  0.1330
 9426SOL    HW139740   0.550   0.043   3.025  1.1842  3.6829  2.4937
 9426SOL    HW239741   0.478   0.081   2.904  0.5955 -0.9395  0.4920
 9427SOL     OW39742   2.417   2.792   8.961 -0.1631 -0.4652  0.0639
 9427SOL    HW139743   2.368   2.776   9.041 -0.8135 -2.6825 -0.7883
 9427SOL    HW239744   2.350   2.845   8.918  0.7140  1.9842  1.6563
 9428SOL     OW39745   0.008   3.962   2.833  0.2616  0.3596  0.3840
 9428SOL    HW139746   4.640   3.985   2.811  0.2173  1.3755  1.6372
 9428SOL    HW239747   0.002   3.950   2.927 -0.5967 -0.0415  0.2799
 9429SOL     OW39748   3.228   0.918   0.574  0.0816  0.3889 -0.8095
 9429SOL    HW139749   3.317   0.934   0.605 -1.0242  3.1821  1.0065
 9429SOL    HW239750   3.191   0.956   0.653  2.2239 -0.6131  0.6741
 9430SOL     OW39751   1.283   3.613   8.193  0.1948 -0.3639  0.0378
 9430SOL    HW139752   1.207   3.556   8.208  0.3223 -1.4023 -3.3807
 9430SOL    HW239753   1.270   3.653   8.107 -1.4614 -3.3017 -1.0794
 9431SOL     OW39754   2.420   3.994   7.188  0.2412 -0.2102 -0.1898
 9431SOL    HW139755   2.501   3.955   7.224 -0.4801  1.2080  2.9545
 9431SOL    HW239756   2.350   3.966   7.246  0.7392  2.3278  1.6494
 9432SOL     OW39757   0.204   2.252   1.624  0.0624  0.1566  0.3867
 9432SOL    HW139758   0.237   2.292   1.544  0.0092 -1.7693 -0.6050
 9432SOL    HW239759   0.260   2.175   1.635 -0.8475 -0.3959  1.1447
 9433SOL     OW39760   3.883   4.145   7.932  0.1215 -0.3936  0.2550
 9433SOL    HW139761   3.975   4.151   7.905  0.0025  1.1157  0.2044
 9433SOL    HW239762   3.847   4.220   7.885  1.5660 -0.0740 -0.3584
 9434SOL     OW39763   0.078   3.429   3.335 -0.0911  0.0674 -0.6101
 9434SOL    HW139764   4.722   3.416   3.387  0.4965  1.9784  0.7567
 9434SOL    HW239765   0.059   3.509   3.286 -0.1676  0.1936 -0.3733
 9435SOL     OW39766   2.218   1.896   8.933  0.4724  0.0550  0.2711
 9435SOL    HW139767   2.164   1.864   8.861  0.4752  0.7292 -0.0242
 9435SOL    HW239768   2.235   1.821   8.991 -0.0910  0.2401  0.6772
 9436SOL     OW39769   0.942   0.746  13.587 -0.4072  0.2671  0.2184
 9436SOL    HW139770   1.031   0.770  13.561 -0.5633  0.2028 -0.3888
 9436SOL    HW239771   0.960   0.727  13.679 -3.0768 -0.5733  0.5728
 9437SOL     OW39772   0.044   0.982   6.242  0.3742 -0.0311  0.4198
 9437SOL    HW139773   0.069   0.983   6.335  1.7855  1.4161  0.0146
 9437SOL    HW239774   0.071   1.071   6.221 -0.6241  0.1745  0.0142
 9438SOL     OW39775   1.531   2.481   3.084  0.6626 -0.1143 -0.1757
 9438SOL    HW139776   1.532   2.542   3.011  1.5536 -0.3188 -0.3410
 9438SOL    HW239777   1.528   2.542   3.158  1.0105  0.7517 -0.8720
 9439SOL     OW39778   2.604   3.798   4.708 -0.0621 -0.1625  0.1969
 9439SOL    HW139779   2.652   3.817   4.628  0.1315 -1.3195  0.0502
 9439SOL    HW239780   2.633   3.709   4.725 -0.7839 -0.2445  0.9852
 9440SOL     OW39781   3.377   3.109   6.658 -0.1739 -0.1733  0.3980
 9440SOL    HW139782   3.292   3.136   6.624 -0.6903 -1.4126  0.7093
 9440SOL    HW239783   3.355   3.058   6.736 -0.4550  0.8491  0.9826
 9441SOL     OW39784   4.052   3.690  13.511  0.3677 -0.5665  0.8332
 9441SOL    HW139785   4.007   3.612  13.477 -0.5407 -0.0085  0.7590
 9441SOL    HW239786   3.977   3.749  13.511 -0.0569 -1.0909 -2.3218
 9442SOL     OW39787   0.330   3.334   6.495 -0.0451 -0.1557  0.0134
 9442SOL    HW139788   0.424   3.317   6.506  0.4275  1.5503 -1.4020
 9442SOL    HW239789   0.291   3.256   6.533  0.4057 -0.6676 -0.5555
 9443SOL     OW39790   2.537   2.479   2.171 -0.1683  0.0133 -0.7597
 9443SOL    HW139791   2.472   2.549   2.181 -2.0574 -2.0147  1.2440
 9443SOL    HW239792   2.617   2.522   2.143 -0.1908  1.3428  1.2096
 9444SOL     OW39793   2.886   3.240   2.938 -0.4130  0.1828  0.1922
 9444SOL    HW139794   2.981   3.245   2.948 -0.3831 -0.9800  0.5172
 9444SOL    HW239795   2.872   3.145   2.928 -0.0593  0.1086  0.4178
 9445SOL     OW39796   0.647   3.461   5.267 -0.1339 -0.1580  0.5600
 9445SOL    HW139797   0.614   3.476   5.179  0.2373  1.5934  0.7258
 9445SOL    HW239798   0.650   3.550   5.302  0.2969 -0.0169  0.1656
 9446SOL     OW39799   0.296   2.181   3.349 -0.8276 -0.3393 -0.6263
 9446SOL    HW139800   0.367   2.126   3.315 -0.0776 -0.8952  1.8746
 9446SOL    HW239801   0.344   2.231   3.414 -0.4110 -1.9713  0.3164
 9447SOL     OW39802   2.666   2.748   4.099 -0.0621 -0.3633 -0.6636
 9447SOL    HW139803   2.617   2.690   4.158  0.8385 -2.2052 -1.7142
 9447SOL    HW239804   2.609   2.825   4.101  0.4995  0.0256  0.2408
 9448SOL     OW39805   1.995   3.317   6.942 -0.4371  0.2799  0.0973
 9448SOL    HW139806   2.089   3.308   6.953  0.1787  1.1455 -4.4358
 9448SOL    HW239807   1.959   3.241   6.988  2.0143 -0.1904  1.2469
 9449SOL     OW39808   4.700   3.600   8.313  0.2720 -0.1214  0.5608
 9449SOL    HW139809   0.011   3.526   8.363  0.5175  0.0878  0.7046
 9449SOL    HW239810   4.630   3.629   8.372  0.0435  1.7574 -0.6480
 9450SOL     OW39811   0.702   4.440  13.341 -0.8540  0.2413  0.1354
 9450SOL    HW139812   0.743   4.390  13.270  1.1532  2.6309 -0.4146
 9450SOL    HW239813   0.664   4.518  13.302  0.1036  0.3142 -0.6568
 9451SOL     OW39814   2.403   2.781   5.763  0.4004 -0.2704  0.3989
 9451SOL    HW139815   2.356   2.796   5.844 -0.8384 -0.4436 -0.2875
 9451SOL    HW239816   2.329   2.808   5.709 -0.2486 -0.2069  1.3216
 9452SOL     OW39817   0.055   3.914   3.148 -0.2058 -0.2269  0.0826
 9452SOL    HW139818   0.072   3.999   3.189 -2.1602 -0.0690  0.5303
 9452SOL    HW239819   4.691   3.891   3.181 -1.4878  2.1965 -1.6065
 9453SOL     OW39820   3.983   0.706   6.052  0.0631 -0.4325 -0.0769
 9453SOL    HW139821   3.945   0.644   5.990 -0.2183 -1.1488  0.8170
 9453SOL    HW239822   3.901   0.747   6.078  0.4651 -1.6936  3.1533
 9454SOL     OW39823   3.455   0.231   7.484 -0.4581 -0.1603  0.4696
 9454SOL    HW139824   3.467   0.276   7.568 -2.0941 -1.5538  1.4657
 9454SOL    HW239825   3.378   0.270   7.443  1.0439  1.8138 -0.4688
 9455SOL     OW39826   0.147   2.787   5.109  0.1393 -0.0449 -0.2809
 9455SOL    HW139827   0.238   2.803   5.133 -0.3684  1.4985  0.5798
 9455SOL    HW239828   0.121   2.858   5.049 -0.6889  0.3749  0.5838
 9456SOL     OW39829   3.265   4.495   7.596  0.1113  0.3445 -0.5272
 9456SOL    HW139830   3.336   4.433   7.588 -1.5677 -1.3083 -2.5534
 9456SOL    HW239831   3.282   4.528   7.685 -1.8642 -0.4861  0.1668
 9457SOL     OW39832   3.991   4.319   4.345 -0.4771 -0.3003  0.4180
 9457SOL    HW139833   3.971   4.231   4.312  1.7359 -1.1245  1.2879
 9457SOL    HW239834   3.981   4.310   4.439  0.0738  1.0261  0.5951
 9458SOL     OW39835   4.072   2.094  16.048  0.1600  0.6026  0.1810
 9458SOL    HW139836   4.091   2.186  16.030 -0.4683  0.6901 -0.0506
 9458SOL    HW239837   3.997   2.089  15.988  0.7701 -1.2433 -0.4174
 9459SOL     OW39838   3.777   0.288   4.415 -0.4786  0.2919  0.3270
 9459SOL    HW139839   3.730   0.364   4.381 -1.6030 -0.6774 -0.2744
 9459SOL    HW239840   3.760   0.229   4.342  1.6580  0.0256  0.0630
 9460SOL     OW39841   2.582   3.373   3.986  0.1339  0.2002 -0.5652
 9460SOL    HW139842   2.634   3.446   3.953  0.2503 -0.7722 -2.5452
 9460SOL    HW239843   2.511   3.417   4.032  0.6203  1.9740 -1.5317
 9461SOL     OW39844   4.352   0.925  13.913  0.6221  0.6527 -0.3758
 9461SOL    HW139845   4.308   1.009  13.901  0.5156  0.5433 -0.7497
 9461SOL    HW239846   4.381   0.931  14.004  2.1332 -0.4759 -0.7722
 9462SOL     OW39847   0.768   1.350   2.403  0.7806 -0.3847 -0.2090
 9462SOL    HW139848   0.712   1.310   2.337  0.8296  0.9303 -1.0573
 9462SOL    HW239849   0.823   1.400   2.342  1.3346 -0.5567  0.1466
 9463SOL     OW39850   0.437   0.805  17.170  0.5938 -0.3006  0.4873
 9463SOL    HW139851   0.515   0.852  17.200 -0.5465  1.6860  0.3595
 9463SOL    HW239852   0.370   0.869  17.195  1.6880  0.7693  0.6988
 9464SOL     OW39853   0.155   0.869   6.024 -0.0681 -0.5490  0.2893
 9464SOL    HW139854   0.104   0.917   6.090 -0.0592 -2.1841  1.4840
 9464SOL    HW239855   0.203   0.798   6.067 -0.4449 -1.8140 -1.4183
 9465SOL     OW39856   3.217   0.707  16.679 -0.4909 -0.1216 -0.0086
 9465SOL    HW139857   3.187   0.781  16.733  1.2087 -1.4600  2.7202
 9465SOL    HW239858   3.216   0.749  16.593 -2.0459 -3.1311 -1.4212
 9466SOL     OW39859   4.321   3.200   4.408  0.9563 -0.2151  0.1928
 9466SOL    HW139860   4.296   3.116   4.371 -1.0933 -0.2843  1.7710
 9466SOL    HW239861   4.377   3.181   4.483  0.0283  1.7531  1.3877
 9467SOL     OW39862   3.487   3.659   2.588 -0.1619 -0.7323 -0.1237
 9467SOL    HW139863   3.571   3.688   2.552  0.2163 -1.8468 -0.1433
 9467SOL    HW239864   3.436   3.617   2.518 -0.7531  0.2433 -0.2786
 9468SOL     OW39865   3.726   2.531   3.228  0.2136 -0.0980  0.5451
 9468SOL    HW139866   3.783   2.487   3.165 -2.7041 -0.5449 -1.7799
 9468SOL    HW239867   3.650   2.555   3.175  0.3217 -2.8454 -0.8587
 9469SOL     OW39868   0.038   4.704   3.375  0.2874 -0.3570  0.4961
 9469SOL    HW139869   0.131   0.005   3.380 -0.3783  2.9519 -3.2525
 9469SOL    HW239870   0.028   4.612   3.399 -0.1317 -0.1933  0.9496
 9470SOL     OW39871   3.586   2.738   2.973  0.2365  0.2864  0.8189
 9470SOL    HW139872   3.611   2.817   3.022  1.7082 -1.0173  2.1750
 9470SOL    HW239873   3.493   2.732   2.998  0.4089  1.0359  1.6565
 9471SOL     OW39874   3.380   2.565   3.263  0.4159  0.1418  0.1889
 9471SOL    HW139875   3.441   2.547   3.192  1.5171  0.3087  1.0933
 9471SOL    HW239876   3.398   2.658   3.280 -1.0686  1.2728 -4.2749
 9472SOL     OW39877   0.356   3.769  17.680 -0.3606  0.3806 -0.4873
 9472SOL    HW139878   0.416   3.700   0.015  0.6944  0.4292 -2.6085
 9472SOL    HW239879   0.276   3.753   0.037  0.1171 -2.6198 -0.7169
 9473SOL     OW39880   1.518   0.447   0.750 -0.5485  0.4576  0.4558
 9473SOL    HW139881   1.472   0.392   0.814  0.4880  0.1860  0.9771
 9473SOL    HW239882   1.474   0.433   0.666  0.0169 -0.1429  0.2610
 9474SOL     OW39883   2.747   1.741   5.728  0.2031  0.0949  0.2862
 9474SOL    HW139884   2.820   1.710   5.781 -0.3465 -2.8857 -0.6565
 9474SOL    HW239885   2.687   1.669   5.750 -1.4376  1.6480  0.8629
 9475SOL     OW39886   3.838   3.623   6.654  0.4031 -0.1128  0.1822
 9475SOL    HW139887   3.880   3.594   6.573  1.2813 -0.0269  0.6039
 9475SOL    HW239888   3.809   3.545   6.700 -0.2754  1.7583  2.9061
 9476SOL     OW39889   0.041   0.022   5.718 -0.3976 -0.0214  0.3427
 9476SOL    HW139890   0.022   4.656   5.686 -1.8288 -0.5063  2.5805
 9476SOL    HW239891   0.129   0.039   5.684 -0.7116 -1.7059 -1.3404
 9477SOL     OW39892   0.318   3.784  16.212  0.0989 -0.2697  0.3607
 9477SOL    HW139893   0.320   3.850  16.282 -1.6711 -0.2231  0.3806
 9477SOL    HW239894   0.230   3.796  16.177 -0.8163 -0.9400  2.4686
 9478SOL     OW39895   0.423   0.537   4.436 -0.2947 -0.2948 -0.5550
 9478SOL    HW139896   0.499   0.568   4.486  0.3165 -1.2737 -0.8852
 9478SOL    HW239897   0.366   0.528   4.513 -0.0603  1.2134 -0.1934
 9479SOL     OW39898   0.166   0.124   5.323  0.0941 -0.0122  0.1354
 9479SOL    HW139899   0.080   0.094   5.294  0.6180  1.2576 -2.6534
 9479SOL    HW239900   0.169   0.194   5.258 -3.0848 -0.4393 -0.4646
 9480SOL     OW39901   4.478   4.664   9.525 -0.2167  0.4077  0.3814
 9480SOL    HW139902   4.384   4.654   9.538 -0.3716 -0.2731 -1.2167
 9480SOL    HW239903   4.492   0.032   9.553  0.4187 -0.1744  1.9350
 9481SOL     OW39904   3.177   1.889  10.026  0.5875 -0.3727 -0.4460
 9481SOL    HW139905   3.125   1.882  10.106 -2.2750 -0.5195 -2.3183
 9481SOL    HW239906   3.202   1.798  10.010 -1.9536 -1.1248 -0.2165
 9482SOL     OW39907   4.244   0.492   6.068 -0.4104  0.2859 -0.5206
 9482SOL    HW139908   4.215   0.436   5.995 -1.6124  2.1778 -1.4960
 9482SOL    HW239909   4.161   0.505   6.114 -1.0142 -1.2405 -1.1656
 9483SOL     OW39910   2.292   4.592   0.163 -0.1498 -0.0185 -0.5861
 9483SOL    HW139911   2.280   4.530   0.235  0.5849 -1.0835 -1.3654
 9483SOL    HW239912   2.277   4.537   0.086 -1.5810 -1.0205  0.4101
 9484SOL     OW39913   3.883   3.853   7.454 -0.2872 -0.2893 -0.3443
 9484SOL    HW139914   3.891   3.917   7.525  1.0619  0.8115 -1.4778
 9484SOL    HW239915   3.881   3.917   7.383  2.2654 -1.5056 -1.5495
 9485SOL     OW39916   3.874   0.390   7.356  0.2265  0.1037  0.1926
 9485SOL    HW139917   3.874   0.369   7.262  1.5848 -1.4189  0.5329
 9485SOL    HW239918   3.795   0.442   7.372 -0.6664 -1.4340  0.7180
 9486SOL     OW39919   1.481   0.486  15.808  0.7024  0.1865  0.0311
 9486SOL    HW139920   1.422   0.526  15.744 -0.7290 -1.0781  0.5700
 9486SOL    HW239921   1.540   0.560  15.820  3.1377 -1.7904  0.2171
 9487SOL     OW39922   1.861   1.030  12.322 -0.6125 -0.2992  0.0518
 9487SOL    HW139923   1.880   1.123  12.307  2.1290 -0.4475  2.6378
 9487SOL    HW239924   1.920   0.981  12.264  0.3621  0.4963  0.3709
 9488SOL     OW39925   4.258   4.406   2.258  0.3762  0.2488 -0.7559
 9488SOL    HW139926   4.197   4.408   2.184  0.4062  0.0101 -0.7861
 9488SOL    HW239927   4.310   4.482   2.230  1.7836 -0.5466 -0.3084
 9489SOL     OW39928   3.044   2.559   2.980  0.1595  0.4769  0.7492
 9489SOL    HW139929   2.996   2.553   3.063  0.8661 -3.1627  0.9004
 9489SOL    HW239930   3.010   2.481   2.936  1.5836 -0.0971  0.6481
 9490SOL     OW39931   3.306   0.368   6.978 -0.2578  0.3279  0.0287
 9490SOL    HW139932   3.282   0.278   6.998 -2.4317  0.6414 -1.1559
 9490SOL    HW239933   3.330   0.357   6.886 -1.5401 -0.3012 -0.2299
 9491SOL     OW39934   0.495   2.396   3.413  0.0796  0.1786  0.0503
 9491SOL    HW139935   0.578   2.394   3.366 -0.2462  0.1838 -0.5246
 9491SOL    HW239936   0.528   2.373   3.499  0.8169 -0.6327 -0.4509
 9492SOL     OW39937   3.759   0.837  14.182 -0.1159  0.2845 -0.4280
 9492SOL    HW139938   3.706   0.901  14.135  1.4117  1.0570 -1.0908
 9492SOL    HW239939   3.832   0.834  14.120  0.3480  0.6604  0.0955
 9493SOL     OW39940   3.543   4.680   5.045 -0.3515 -0.1681  0.0118
 9493SOL    HW139941   3.548   0.002   5.129 -2.0202  0.7716 -0.3849
 9493SOL    HW239942   3.530   4.589   5.072 -1.6656 -0.3763 -1.3080
 9494SOL     OW39943   4.187   4.384   3.212  0.6320  0.4223 -0.2162
 9494SOL    HW139944   4.226   4.298   3.199 -1.0094 -0.1011 -1.7606
 9494SOL    HW239945   4.124   4.377   3.140  0.1199  1.0019  0.1819
 9495SOL     OW39946   2.816   0.028   6.802  0.3407 -0.6365 -0.2364
 9495SOL    HW139947   2.822   4.695   6.879 -1.0733  0.1752  0.4650
 9495SOL    HW239948   2.844   4.695   6.730  0.1856  2.2827 -2.5536
 9496SOL     OW39949   2.408   2.726   2.224 -0.3208  0.7005  0.2138
 9496SOL    HW139950   2.417   2.772   2.308 -0.6408 -0.1151  0.7058
 9496SOL    HW239951   2.331   2.768   2.186 -1.4255  0.1968  1.8918
 9497SOL     OW39952   4.344   0.753  17.262 -0.3260  0.1019  0.5816
 9497SOL    HW139953   4.290   0.779  17.187  0.5006  0.0525 -0.0312
 9497SOL    HW239954   4.411   0.698  17.221 -0.3467  0.5544 -0.0592
 9498SOL     OW39955   2.930   2.375   2.813  0.4571  0.2784  0.3216
 9498SOL    HW139956   2.936   2.333   2.727  3.0217  0.5746  0.3641
 9498SOL    HW239957   2.927   2.294   2.865 -1.1041  0.6378  0.7851
 9499SOL     OW39958   4.382   1.200   7.969 -0.7665  0.1609 -0.2253
 9499SOL    HW139959   4.469   1.163   7.976  0.1194  1.9182 -2.1192
 9499SOL    HW239960   4.320   1.127   7.976  0.1019 -0.3829  1.7002
 9500SOL     OW39961   4.692   2.355   2.448 -0.3021 -0.9574  0.2691
 9500SOL    HW139962   4.640   2.385   2.523  2.0325  1.0860  1.0707
 9500SOL    HW239963   4.642   2.387   2.374 -3.0578 -0.4798  2.3293
 9501SOL     OW39964   1.331   2.366  10.406  0.4221  0.0636 -0.0336
 9501SOL    HW139965   1.265   2.348  10.473  0.6605 -1.1936 -0.1364
 9501SOL    HW239966   1.408   2.344  10.459  1.5859  1.4044 -1.1510
 9502SOL     OW39967   0.981   1.789   5.345 -0.3524 -0.0034  0.5242
 9502SOL    HW139968   0.957   1.876   5.314 -1.8427 -0.6746 -0.1857
 9502SOL    HW239969   0.900   1.749   5.377 -0.9555  0.8417  0.0645
 9503SOL     OW39970   3.456   2.431  16.310  0.1160  0.0621  0.4099
 9503SOL    HW139971   3.383   2.422  16.371  1.3789  1.0135  2.0646
 9503SOL    HW239972   3.454   2.345  16.268  1.6810 -0.0305  0.5164
 9504SOL     OW39973   3.666   4.098   7.561  0.1688  0.0775 -0.2899
 9504SOL    HW139974   3.677   4.034   7.631 -0.2010  1.3303  0.9309
 9504SOL    HW239975   3.736   4.163   7.575  0.1900  0.1435 -0.7008
 9505SOL     OW39976   3.577   3.039   5.188 -0.5802  0.0749 -0.4682
 9505SOL    HW139977   3.494   2.995   5.170  0.4940 -1.2925 -2.0039
 9505SOL    HW239978   3.543   3.109   5.244 -1.5832 -1.6070  1.0256
 9506SOL     OW39979   1.894   0.039   3.953  0.3694 -0.3237 -0.2045
 9506SOL    HW139980   1.880   0.064   3.862 -0.0271  0.1441 -0.0176
 9506SOL    HW239981   1.906   4.667   3.946 -2.1453 -0.7052  0.3330
 9507SOL     OW39982   0.173   2.478  16.057 -0.3373  0.1285  0.1818
 9507SOL    HW139983   0.142   2.388  16.046  1.5420 -0.5569  0.5341
 9507SOL    HW239984   0.259   2.468  16.097 -1.0405  1.0139  1.8955
 9508SOL     OW39985   3.166   4.451   2.641  0.6112  0.4348 -0.5516
 9508SOL    HW139986   3.248   4.412   2.672  0.6911  0.3421 -0.8844
 9508SOL    HW239987   3.186   4.499   2.561  3.6126 -1.2848 -0.8194
 9509SOL     OW39988   2.301   1.484  17.679  0.0753  0.4068  0.0867
 9509SOL    HW139989   2.352   1.405  17.661 -0.4370 -0.2893  1.6554
 9509SOL    HW239990   2.235   1.450   0.046 -1.3819 -1.5193 -2.5810
 9510SOL     OW39991   1.460   2.085   3.460 -0.6142  0.3321 -0.6776
 9510SOL    HW139992   1.399   2.142   3.414 -3.1229 -2.1716 -0.4253
 9510SOL    HW239993   1.403   2.013   3.484 -0.7179  0.8866  0.7140
 9511SOL     OW39994   2.279   3.019   3.202  0.0868  0.4755 -0.3235
 9511SOL    HW139995   2.293   3.108   3.235 -1.4684  0.7814 -0.4917
 9511SOL    HW239996   2.363   2.987   3.169 -0.1019  0.6845 -1.0200
 9512SOL     OW39997   3.763   1.590   5.796  0.1819  0.2351 -0.0283
 9512SOL    HW139998   3.706   1.631   5.862  0.9683  0.7202  0.3519
 9512SOL    HW239999   3.774   1.651   5.723  0.3262  0.4360  0.1573
 9513SOL     OW40000   3.491   4.275  14.736  0.2073  0.4099 -0.9812
 9513SOL    HW140001   3.503   4.191  14.779 -2.0703 -0.0961 -1.3554
 9513SOL    HW240002   3.412   4.268  14.683  0.6645  0.8343 -1.7325
 9514SOL     OW40003   0.026   2.142   4.134  0.3537 -0.2179  0.0065
 9514SOL    HW140004   4.689   2.067   4.129  0.8870 -0.7216  1.3326
 9514SOL    HW240005   0.084   2.120   4.061 -1.1737  1.3837 -1.7052
 9515SOL     OW40006   1.307   3.045   7.757 -0.3364  0.2862  0.5609
 9515SOL    HW140007   1.236   3.102   7.787 -0.2892  0.5279  0.2125
 9515SOL    HW240008   1.306   2.970   7.816  2.1164 -0.7703 -0.7184
 9516SOL     OW40009   3.813   0.320  11.304 -0.4868 -0.4867  0.0943
 9516SOL    HW140010   3.725   0.313  11.268  0.3161 -1.9606 -1.5580
 9516SOL    HW240011   3.822   0.410  11.272  1.5983 -0.8611 -0.3956
 9517SOL     OW40012   1.388   1.075   8.349 -0.4071 -0.6805  0.6318
 9517SOL    HW140013   1.393   1.023   8.268 -3.0090 -2.1579  1.4255
 9517SOL    HW240014   1.461   1.136   8.337  0.4707 -1.7638  0.3417
 9518SOL     OW40015   2.657   3.275   9.807 -0.0563 -0.1315 -0.0525
 9518SOL    HW140016   2.694   3.238   9.887  1.9639  1.3124 -0.3018
 9518SOL    HW240017   2.627   3.353   9.855  1.1583  0.8449 -0.8689
 9519SOL     OW40018   4.701   3.539   8.042 -0.4712  0.0239 -0.0878
 9519SOL    HW140019   0.041   3.609   8.059  2.1610 -2.4255  0.1858
 9519SOL    HW240020   4.714   3.498   8.127 -0.1706  1.5774  0.6119
 9520SOL     OW40021   2.890   1.679   3.555  0.6049  0.2946  0.1096
 9520SOL    HW140022   2.843   1.597   3.571 -0.5764  0.5935 -1.7591
 9520SOL    HW240023   2.964   1.635   3.513  0.1872  0.2822 -0.6201
 9521SOL     OW40024   2.166   1.764   3.887  0.2090  0.4500  0.2896
 9521SOL    HW140025   2.173   1.749   3.793 -0.1059  0.9314  0.1880
 9521SOL    HW240026   2.091   1.707   3.904  0.8927 -0.8388 -0.9506
 9522SOL     OW40027   2.740   4.680   8.970 -0.4398  0.2651 -0.1735
 9522SOL    HW140028   2.696   4.598   8.993 -1.7506  1.2625  0.8375
 9522SOL    HW240029   2.745   0.014   9.046 -0.7148  0.7285 -0.5002
 9523SOL     OW40030   1.424   1.651   0.278  0.7302  0.3596 -0.1286
 9523SOL    HW140031   1.432   1.601   0.359  0.2318 -0.3912 -0.5420
 9523SOL    HW240032   1.362   1.715   0.313 -0.5796  0.1982 -2.1813
 9524SOL     OW40033   0.898   3.846   6.459  0.3904  0.2043 -0.1534
 9524SOL    HW140034   0.992   3.867   6.461  0.5414 -0.7440  2.2067
 9524SOL    HW240035   0.867   3.919   6.511  0.3112  1.1669 -1.5645
 9525SOL     OW40036   1.857   2.158   1.919 -0.4856  0.2133  0.5288
 9525SOL    HW140037   1.785   2.220   1.902  0.4901  1.2063  0.0570
 9525SOL    HW240038   1.871   2.130   1.829  1.2221  0.6364  0.6637
 9526SOL     OW40039   0.888   2.753  16.976  0.0564  0.0239  0.2218
 9526SOL    HW140040   0.861   2.806  16.901  1.7084 -1.1412 -1.2160
 9526SOL    HW240041   0.822   2.784  17.037 -1.4407 -1.3838 -0.6607
 9527SOL     OW40042   2.252   0.386   8.401 -0.2274 -0.7028  0.3536
 9527SOL    HW140043   2.242   0.310   8.459  0.1524 -1.0721 -0.0645
 9527SOL    HW240044   2.162   0.418   8.410  0.4018  1.1061  0.1515
 9528SOL     OW40045   3.557   2.492   9.356 -0.2783 -0.2031 -0.3667
 9528SOL    HW140046   3.559   2.531   9.443 -0.2780 -0.1291 -0.3993
 9528SOL    HW240047   3.639   2.443   9.365  1.3327  2.2811 -1.4621
 9529SOL     OW40048   4.188   4.033   0.052 -0.1448  0.0032 -0.2475
 9529SOL    HW140049   4.136   4.041  17.666  1.2440 -0.4653 -1.1996
 9529SOL    HW240050   4.278   4.020   0.021 -0.4638 -0.8643 -0.7994
 9530SOL     OW40051   3.919   2.380   9.023  0.4489 -0.6751  0.0930
 9530SOL    HW140052   3.915   2.464   8.976 -1.9507 -0.2674  1.0238
 9530SOL    HW240053   3.908   2.319   8.950  1.2217 -0.7506  0.0391
 9531SOL     OW40054   3.887   3.243  11.328  0.2706  0.1839  0.6950
 9531SOL    HW140055   3.959   3.279  11.278 -0.2766  0.1311 -0.1411
 9531SOL    HW240056   3.831   3.320  11.333  1.5062  1.1197 -0.0864
 9532SOL     OW40057   2.053   2.245   7.857  0.1366  0.6990 -0.0539
 9532SOL    HW140058   2.034   2.169   7.802 -0.7878  0.1885  0.9736
 9532SOL    HW240059   2.098   2.193   7.924 -0.5703 -0.1685 -0.2446
 9533SOL     OW40060   0.848   0.238   6.219 -0.1881  0.4808  0.0738
 9533SOL    HW140061   0.796   0.172   6.265 -0.7216 -0.1048 -1.3770
 9533SOL    HW240062   0.804   0.222   6.135 -0.4194  0.4760  0.1944
 9534SOL     OW40063   1.416   3.999   0.982 -0.0653 -0.2080 -0.0886
 9534SOL    HW140064   1.353   3.942   0.937 -0.4286  0.9719 -1.0737
 9534SOL    HW240065   1.478   3.932   1.010  0.9167  0.5520 -0.4524
 9535SOL     OW40066   0.529   0.039   8.416  0.2898  0.1173  0.3117
 9535SOL    HW140067   0.435   0.057   8.419  0.2676 -0.1591  1.4259
 9535SOL    HW240068   0.551   0.004   8.502  0.7082 -0.2885  0.0420
 9536SOL     OW40069   3.117   3.203   9.434 -0.7291  0.2768 -0.0213
 9536SOL    HW140070   3.154   3.204   9.523 -1.2346 -1.6062  0.2081
 9536SOL    HW240071   3.128   3.294   9.407  2.8186  0.0544  0.6563
 9537SOL     OW40072   0.286   1.002  14.510  0.3738 -0.5303 -0.3213
 9537SOL    HW140073   0.194   1.023  14.498  0.3260  1.2648  3.1515
 9537SOL    HW240074   0.324   1.042  14.432 -1.4865  0.3053 -0.7832
 9538SOL     OW40075   2.478   4.626   4.952  0.2314  0.0243 -0.0315
 9538SOL    HW140076   2.391   4.627   4.992 -0.1881 -1.1223 -0.9308
 9538SOL    HW240077   2.463   4.581   4.869 -0.6734  0.9699 -0.3758
 9539SOL     OW40078   0.437   1.281   9.796 -0.4096  0.2363  0.5582
 9539SOL    HW140079   0.483   1.339   9.735 -3.0273 -0.5848 -2.2324
 9539SOL    HW240080   0.503   1.218   9.823  0.7136  1.3236  0.3838
 9540SOL     OW40081   2.317   3.955   4.656  0.3751 -0.4501 -0.5716
 9540SOL    HW140082   2.326   4.004   4.574 -1.9235  1.8789  0.5785
 9540SOL    HW240083   2.402   3.911   4.655 -0.2241 -1.6806  4.1085
 9541SOL     OW40084   2.384   0.987   1.940  0.6660  0.3323  0.6944
 9541SOL    HW140085   2.384   1.047   1.866  1.9060  0.0873  0.4953
 9541SOL    HW240086   2.313   0.935   1.902  1.6438 -0.0345 -0.6121
 9542SOL     OW40087   1.315   4.028  15.936 -0.0905  0.1282 -0.1250
 9542SOL    HW140088   1.248   3.960  15.935 -0.1875  0.1905  1.2155
 9542SOL    HW240089   1.398   3.981  15.923  0.1184  0.6414 -0.5995
 9543SOL     OW40090   2.232   2.324  15.570 -0.2686  0.4461  0.5411
 9543SOL    HW140091   2.259   2.376  15.494  0.2903  0.8173  0.9893
 9543SOL    HW240092   2.303   2.260  15.567 -0.1599  0.5786  0.3106
 9544SOL     OW40093   0.592   1.330   1.856  0.2622  0.0575 -0.0996
 9544SOL    HW140094   0.608   1.281   1.775  2.6525  1.6631 -0.6219
 9544SOL    HW240095   0.679   1.321   1.895 -0.9102 -1.0731  2.2566
 9545SOL     OW40096   4.093   1.665   4.933 -0.1690 -0.1173  0.3627
 9545SOL    HW140097   4.022   1.714   4.892 -0.1836  0.2243  0.7940
 9545SOL    HW240098   4.112   1.711   5.015 -0.8008  0.5500  0.1300
 9546SOL     OW40099   0.847   1.970   2.404 -0.3830  0.4392  0.7171
 9546SOL    HW140100   0.778   2.017   2.451 -0.3043  0.6163  0.6512
 9546SOL    HW240101   0.851   2.013   2.319  4.3534 -0.1517  0.6403
 9547SOL     OW40102   0.262   0.866   4.309  0.7047 -0.5276 -0.4234
 9547SOL    HW140103   0.343   0.916   4.324  0.9188 -0.9316 -0.2480
 9547SOL    HW240104   0.221   0.864   4.396  0.8319  1.2658 -0.3245
 9548SOL     OW40105   3.962   0.943  16.181  0.6244 -0.6259  0.2069
 9548SOL    HW140106   3.970   1.037  16.166  2.5013 -0.5819  1.4737
 9548SOL    HW240107   3.947   0.936  16.276 -0.6682  0.9366  0.1289
 9549SOL     OW40108   1.077   1.696   4.689  0.0653 -0.8530 -0.4628
 9549SOL    HW140109   1.136   1.701   4.614 -0.9881 -1.6479 -1.3361
 9549SOL    HW240110   1.137   1.704   4.763 -0.3003  1.8034 -0.4371
 9550SOL     OW40111   0.793   4.361  13.876  0.0006  0.0305  0.0943
 9550SOL    HW140112   0.791   4.354  13.972  0.3217  0.0219  0.0998
 9550SOL    HW240113   0.754   4.449  13.880  0.6813  0.3562 -0.3950
 9551SOL     OW40114   1.906   1.668   0.067  0.0464 -0.7709 -0.2117
 9551SOL    HW140115   1.851   1.740   0.036  1.6640 -0.0893 -1.4909
 9551SOL    HW240116   1.959   1.662  17.681 -1.4370 -2.3386 -1.0764
 9552SOL     OW40117   4.498   1.892   1.390  0.6974  0.0547 -0.3334
 9552SOL    HW140118   4.574   1.879   1.333  1.7104  0.1609  1.0072
 9552SOL    HW240119   4.481   1.800   1.410  3.0926  0.0226  1.5203
 9553SOL     OW40120   4.324   2.491   7.909  0.0844 -0.2125  0.1591
 9553SOL    HW140121   4.229   2.490   7.903  0.0426 -1.0549  0.9810
 9553SOL    HW240122   4.340   2.569   7.856 -1.3211 -0.9258 -1.3238
 9554SOL     OW40123   1.530   1.505  16.941 -0.2679 -0.2041  0.4009
 9554SOL    HW140124   1.553   1.422  16.983 -1.4635 -2.2545 -3.0267
 9554SOL    HW240125   1.590   1.569  16.981  0.7861 -0.0833 -1.3424
 9555SOL     OW40126   1.590   3.464  12.489 -0.2999  0.0971  0.1449
 9555SOL    HW140127   1.512   3.444  12.540 -0.4523 -0.2536 -0.2231
 9555SOL    HW240128   1.662   3.466  12.552  0.7743  0.6128 -1.1055
 9556SOL     OW40129   4.102   2.571   6.602 -0.4031 -0.2107  0.1407
 9556SOL    HW140130   4.175   2.526   6.646 -0.0073 -2.2667 -2.6506
 9556SOL    HW240131   4.032   2.520   6.643 -0.1398  0.1433  1.0447
 9557SOL     OW40132   4.398   3.803   8.687 -0.1368 -0.1329  0.0775
 9557SOL    HW140133   4.481   3.796   8.734  0.4807  1.5589 -0.7390
 9557SOL    HW240134   4.372   3.894   8.705  0.6605 -0.1806  1.4698
 9558SOL     OW40135   2.689   0.117   7.648  0.2731 -0.0667  0.0037
 9558SOL    HW140136   2.748   0.185   7.616  2.0153 -0.4367  2.4479
 9558SOL    HW240137   2.620   0.171   7.687  2.0901  2.5118 -0.3757
 9559SOL     OW40138   4.190   4.130  13.828  0.3975  0.3130  0.1295
 9559SOL    HW140139   4.112   4.107  13.778  0.9539  0.5260 -0.8227
 9559SOL    HW240140   4.253   4.154  13.761 -2.3429  2.6065 -1.6214
 9560SOL     OW40141   3.099   0.635   2.621  0.5357 -0.3463 -0.0555
 9560SOL    HW140142   3.149   0.568   2.576 -0.1488 -1.0066  0.1798
 9560SOL    HW240143   3.018   0.586   2.637  0.1629  0.4214  0.4203
 9561SOL     OW40144   0.244   2.435   1.179  0.1513  0.2060  0.3683
 9561SOL    HW140145   0.205   2.363   1.129  1.6754 -0.8191  0.6717
 9561SOL    HW240146   0.301   2.470   1.111  1.7435 -1.9853  0.5902
 9562SOL     OW40147   3.211   0.036   6.642 -0.0336  0.3099 -0.2045
 9562SOL    HW140148   3.208   0.009   6.734 -0.6902 -1.9791 -0.9018
 9562SOL    HW240149   3.277   4.706   6.598  0.0169 -1.3530  1.9062
 9563SOL     OW40150   0.975   4.593   6.935  0.1651 -0.5628 -0.1453
 9563SOL    HW140151   0.957   4.654   7.006  0.1631 -1.0650  0.2884
 9563SOL    HW240152   0.962   4.635   6.850  0.1248 -0.3747 -0.0455
 9564SOL     OW40153   3.256   1.709   6.935 -0.0920  0.1200 -0.0484
 9564SOL    HW140154   3.314   1.752   6.872  2.3147 -0.0648  2.0594
 9564SOL    HW240155   3.215   1.789   6.968 -4.1098 -2.8420  2.0950
 9565SOL     OW40156   3.647   3.591   0.253  0.9373  0.2225 -0.0321
 9565SOL    HW140157   3.697   3.510   0.243  0.4280 -0.1032  0.1065
 9565SOL    HW240158   3.564   3.555   0.283 -0.1812  0.9467 -2.3169
 9566SOL     OW40159   2.728   2.705   8.403  0.5484 -0.1482 -0.3832
 9566SOL    HW140160   2.784   2.777   8.434 -0.7989  1.2786 -1.2922
 9566SOL    HW240161   2.702   2.729   8.314  0.4843  0.9646 -0.0726
 9567SOL     OW40162   0.359   0.269   1.933 -0.5937 -0.3778  0.1026
 9567SOL    HW140163   0.350   0.298   1.842 -0.4651 -0.9972 -0.1091
 9567SOL    HW240164   0.280   0.305   1.972 -0.1984  1.3529 -0.6939
 9568SOL     OW40165   1.857   1.516   5.358 -0.0223  0.8953  0.6475
 9568SOL    HW140166   1.895   1.428   5.360 -1.3633  0.2671 -0.9552
 9568SOL    HW240167   1.890   1.544   5.443 -0.0998 -2.3008  1.7372
   4.72289   4.72289  17.69346
