Membrane in water
40167
    1TCq1    O1    1   2.375   0.521  11.581  0.4512  0.2839  0.3638
    1TCq1    C1    2   2.316   0.423  11.652  0.1300 -0.2951  0.2519
    1TCq1    O2    3   2.351   0.355  11.743 -0.3189  0.2157 -0.2818
    1TCq1    C2    4   2.194   0.388  11.580  0.4423 -0.3198 -0.1611
    1TCq1    C3    5   2.173   0.411  11.446 -0.1835 -0.2389 -0.6234
    1TCq1    C4    6   2.059   0.356  11.394 -0.4220 -0.3328  0.1229
    1TCq1    C5    7   1.968   0.283  11.470  0.5229  0.0802 -0.0161
    1TCq1    C6    8   1.999   0.257  11.598  0.1004  0.1546 -0.1407
    1TCq1    C7    9   2.103   0.322  11.658 -0.4979 -0.0736  0.1227
    1TCq1    C8   10   1.928   0.151  11.667  0.2438  0.3188 -0.6008
    1TCq1    O4   11   1.821   0.110  11.636 -0.3945  0.1256 -0.1498
    1TCq1    C9   12   2.046   0.357  11.253 -0.6729  0.2577 -0.3083
    1TCq1    O5   13   1.971   0.269  11.199 -0.3663 -0.0445 -0.3257
    1TCq1    O6   14   2.104   0.447  11.181 -0.4993  0.3125 -0.3307
    1TCq1    H1   15   2.319   0.559  11.511  2.3979  3.3377  0.4190
    1TCq1    H2   16   2.246   0.455  11.380  0.8787  1.0100  1.3816
    1TCq1    H3   17   1.889   0.231  11.417 -0.7703  1.7090  0.3359
    1TCq1    H4   18   2.118   0.311  11.765  0.3057  2.2069  0.2450
    2MPD2     C   19   1.939   4.483  12.001 -0.7557 -0.2410 -0.2263
    2MPD2    C1   20   1.850   4.520  11.913  0.2152 -0.5343 -0.0292
    2MPD2    C2   21   1.873   4.631  11.826  0.5586 -0.3436  0.5177
    2MPD2    C3   22   1.986   4.700  11.842  0.0171  0.0442 -0.2137
    2MPD2    C4   23   2.078   4.671  11.930  0.4150 -0.0424 -0.1274
    2MPD2    C5   24   2.055   4.557  12.003 -0.1558  0.4444 -0.0232
    2MPD2     H   25   1.789   4.653  11.761  1.0666 -0.3401 -0.1333
    2MPD2    H1   26   2.166   0.011  11.939  0.9148 -1.1453  2.4581
    2MPD2    H2   27   1.935   4.386  12.049 -0.2238  0.9072  2.1192
    2MPD2    H3   28   2.139   4.520  12.062  0.4202  0.3863 -0.8823
    2MPD2     N   29   2.008   0.093  11.766 -0.2184  0.1695  0.3660
    2MPD2    H5   30   2.101   0.129  11.779  0.1565 -0.7230  0.1843
    2MPD2    N1   31   1.729   4.449  11.897  0.1127 -0.1787 -0.7096
    2MPD2    H7   32   1.686   4.476  11.809 -0.5155  0.9554 -0.0520
    3TCq1    O1   33   1.648   1.212  10.364  0.4911  0.0475 -0.0396
    3TCq1    C1   34   1.515   1.185  10.375  0.0389  0.3237  0.1238
    3TCq1    O2   35   1.455   1.095  10.313  0.4284  0.4560  0.6301
    3TCq1    C2   36   1.462   1.262  10.486  0.0218 -0.0190  0.3591
    3TCq1    C3   37   1.500   1.396  10.491  0.0286 -0.1289  0.2230
    3TCq1    C4   38   1.429   1.475  10.576  0.1032  0.0027 -0.6357
    3TCq1    C5   39   1.324   1.426  10.654  0.6544  0.3728 -0.0539
    3TCq1    C6   40   1.292   1.291  10.643 -0.3253  0.1868  0.0172
    3TCq1    C7   41   1.351   1.210  10.553  0.1773 -0.4133  0.6225
    3TCq1    C8   42   1.157   1.241  10.677 -0.0209  0.4535 -0.1139
    3TCq1    O4   43   1.132   1.122  10.679  0.5467 -0.3113 -0.3943
    3TCq1    C9   44   1.455   1.616  10.585 -0.0469 -0.0221 -0.4852
    3TCq1    O5   45   1.355   1.688  10.615  0.3234 -0.1484  0.2019
    3TCq1    O6   46   1.573   1.656  10.557  0.6878  0.2438 -0.2054
    3TCq1    H1   47   1.688   1.250  10.445 -1.1195  1.3663  0.1447
    3TCq1    H2   48   1.579   1.430  10.425  0.8792  0.0519  1.3341
    3TCq1    H3   49   1.264   1.498  10.707  0.1792 -1.1785  1.4942
    3TCq1    H4   50   1.331   1.103  10.547 -0.9755 -0.2661  1.6866
    4MPD2     C   51   0.690   1.310  10.877  0.1172  0.1881 -0.3419
    4MPD2    C1   52   0.755   1.429  10.881  0.3525 -0.4866 -0.2287
    4MPD2    C2   53   0.875   1.441  10.817 -0.7400 -0.3162  0.8051
    4MPD2    C3   54   0.942   1.331  10.778 -0.4410 -0.5243  0.2513
    4MPD2    C4   55   0.886   1.210  10.784 -0.1660  0.5973 -0.0858
    4MPD2    C5   56   0.753   1.200  10.824 -0.1026  0.0350  0.3178
    4MPD2     H   57   0.921   1.538  10.804 -0.5031 -0.3082  1.7186
    4MPD2    H1   58   0.937   1.117  10.759 -1.9120 -0.3606 -0.0828
    4MPD2    H2   59   0.583   1.301  10.895  0.3064 -0.2634  0.5474
    4MPD2    H3   60   0.714   1.100  10.824  2.8619 -1.1158  1.3906
    4MPD2     N   61   1.073   1.345  10.721  0.0295  0.4628 -0.0091
    4MPD2    H5   62   1.108   1.440  10.713 -0.7661  0.5764 -2.0911
    4MPD2    N1   63   0.700   1.543  10.943  0.4109 -0.5796 -0.4446
    4MPD2    H7   64   0.754   1.629  10.947 -1.0155  0.3949 -2.4577
    5TCq1    O1   65   2.364   2.948  11.774  0.3755  0.3157 -0.7417
    5TCq1    C1   66   2.325   2.846  11.695 -0.3239 -0.1543  0.0884
    5TCq1    O2   67   2.335   2.725  11.734  0.0897 -0.4828 -0.8099
    5TCq1    C2   68   2.222   2.891  11.605  0.0215  0.3627  0.3265
    5TCq1    C3   69   2.191   3.023  11.573  0.1399  0.5525 -0.7737
    5TCq1    C4   70   2.082   3.052  11.503 -0.0467  0.1397 -0.7434
    5TCq1    C5   71   1.999   2.953  11.461 -0.2212 -0.7761 -0.1238
    5TCq1    C6   72   2.020   2.827  11.509  0.9469 -0.5020 -0.1151
    5TCq1    C7   73   2.131   2.790  11.580 -0.0297 -0.0533  0.3048
    5TCq1    C8   74   1.935   2.716  11.464  0.5377 -0.1254  0.2265
    5TCq1    O4   75   1.923   2.613  11.532  0.9170  0.0813 -0.3205
    5TCq1    C9   76   2.079   3.181  11.436  0.4514 -0.2405  1.0611
    5TCq1    O5   77   2.107   3.278  11.511 -0.2904  0.0941  0.1175
    5TCq1    O6   78   2.015   3.193  11.329 -0.3757 -0.3800  0.0943
    5TCq1    H1   79   2.355   3.041  11.744 -0.1099  0.0621 -1.4053
    5TCq1    H2   80   2.261   3.105  11.581 -0.4608  1.0420 -0.5990
    5TCq1    H3   81   1.920   2.999  11.403 -0.2911 -2.8084 -1.6153
    5TCq1    H4   82   2.147   2.687  11.612 -2.8335 -0.7600 -0.5837
    6MPD2     C   83   1.637   2.751  11.259 -0.3726 -0.6705  0.8769
    6MPD2    C1   84   1.735   2.679  11.327  0.4451 -0.8023  0.4538
    6MPD2    C2   85   1.726   2.540  11.349 -0.3881 -0.1602 -0.1745
    6MPD2    C3   86   1.606   2.478  11.318 -0.1707 -0.7154 -0.5774
    6MPD2    C4   87   1.510   2.545  11.241  0.3133 -0.3737 -0.3784
    6MPD2    C5   88   1.535   2.679  11.218 -0.1576  0.0537  0.0242
    6MPD2     H   89   1.805   2.474  11.382 -0.9107  0.3544  2.0948
    6MPD2    H1   90   1.423   2.492  11.203 -0.0756 -0.0679  0.0796
    6MPD2    H2   91   1.643   2.858  11.241 -1.0887 -0.4630  1.8576
    6MPD2    H3   92   1.466   2.728  11.150  1.0371 -1.1256 -2.0516
    6MPD2     N   93   1.597   2.338  11.335  0.4495 -0.0987 -0.2991
    6MPD2    H5   94   1.679   2.289  11.370  0.9338  1.6843  1.0739
    6MPD2    N1   95   1.852   2.756  11.361  0.1435  0.4213  0.5341
    6MPD2    H7   96   1.852   2.850  11.324 -0.4274  0.4150  0.5254
    7TCq1    O1   97   0.334   1.905  13.633  0.1708  0.2501  0.0885
    7TCq1    C1   98   0.311   1.926  13.503  0.2394  0.4700 -0.2320
    7TCq1    O2   99   0.348   2.030  13.449 -0.4118 -0.4866  0.5264
    7TCq1    C2  100   0.175   1.874  13.475  0.0366  0.8226 -1.2904
    7TCq1    C3  101   0.096   1.949  13.398 -0.0898  0.4042  0.5923
    7TCq1    C4  102   4.687   1.915  13.387  0.8282  0.0589  0.1004
    7TCq1    C5  103   4.633   1.798  13.442 -0.3585 -0.3635 -0.5200
    7TCq1    C6  104   4.719   1.721  13.514  0.8000 -0.5205  0.2138
    7TCq1    C7  105   0.134   1.755  13.533 -0.2508 -0.2349  0.4704
    7TCq1    C8  106   4.684   1.592  13.564 -0.0451  0.2605  0.5052
    7TCq1    O4  107   0.006   1.560  13.674  0.1080  0.5166 -0.1347
    7TCq1    C9  108   4.604   2.005  13.311 -0.1501  0.7283 -0.2740
    7TCq1    O5  109   4.645   2.120  13.287  0.0846  0.1360  0.4821
    7TCq1    O6  110   4.486   1.960  13.310 -0.4298  0.1427  0.7678
    7TCq1    H1  111   0.272   1.838  13.668 -2.3679  3.0090  0.9236
    7TCq1    H2  112   0.130   2.041  13.352 -0.2256  0.2164  0.1186
    7TCq1    H3  113   4.529   1.768  13.430 -0.4513 -0.5417  0.6739
    7TCq1    H4  114   0.210   1.689  13.574  0.3551 -0.5473 -1.1503
    8MPD2     C  115   4.420   1.165  13.502 -0.0526 -0.5108 -0.5222
    8MPD2    C1  116   4.441   1.234  13.623  0.2421 -0.6241  0.2280
    8MPD2    C2  117   4.513   1.355  13.616 -0.4471 -0.2948  0.2307
    8MPD2    C3  118   4.554   1.409  13.488  0.2295  0.7949 -0.1933
    8MPD2    C4  119   4.514   1.349  13.372 -0.8746 -0.3057 -0.1813
    8MPD2    C5  120   4.443   1.231  13.384  0.3131  0.2805  0.2046
    8MPD2     H  121   4.550   1.399  13.708  1.3981 -1.6655  0.1335
    8MPD2    H1  122   4.525   1.394  13.274  1.3541  1.0999  0.6918
    8MPD2    H2  123   4.363   1.073  13.495 -1.1064 -0.0016  1.6084
    8MPD2    H3  124   4.404   1.192  13.290  2.0241  2.2025 -1.3164
    8MPD2     N  125   4.620   1.529  13.466  0.7101  0.0559  0.4496
    8MPD2    H5  126   4.613   1.576  13.376 -0.2149 -2.5639 -0.8379
    8MPD2    N1  127   4.403   1.159  13.743  0.2770  0.9252 -0.2437
    8MPD2    H7  128   4.358   1.068  13.739  1.8220  0.1565 -0.2262
    9TCq1    O1  129   1.213   0.216  10.758 -0.0318  0.1629 -0.2666
    9TCq1    C1  130   1.285   0.269  10.857  0.3552  0.0981 -0.1353
    9TCq1    O2  131   1.261   0.257  10.980 -0.2672  0.5286 -0.0815
    9TCq1    C2  132   1.391   0.343  10.798  0.2760 -0.1770 -0.3452
    9TCq1    C3  133   1.448   0.323  10.676 -0.2801 -0.2467 -0.6870
    9TCq1    C4  134   1.562   0.401  10.640  0.4182 -0.1671  0.2208
    9TCq1    C5  135   1.611   0.500  10.714 -0.1319 -0.3941 -0.3477
    9TCq1    C6  136   1.556   0.519  10.838  0.6554  0.6343 -0.2921
    9TCq1    C7  137   1.454   0.429  10.885  0.5789  0.3043  0.4697
    9TCq1    C8  138   1.598   0.627  10.917 -0.2199  0.0091 -0.5386
    9TCq1    O4  139   1.701   0.684  10.888 -0.7951  0.1754 -0.2193
    9TCq1    C9  140   1.612   0.387  10.503 -0.4018  0.3690  0.2752
    9TCq1    O5  141   1.567   0.294  10.434 -0.0888 -0.1395 -0.1610
    9TCq1    O6  142   1.718   0.450  10.474  0.3451 -0.2575  0.3105
    9TCq1    H1  143   1.238   0.239  10.666  1.9562  1.0759  0.4968
    9TCq1    H2  144   1.399   0.243  10.622  0.5223 -0.5567 -0.9643
    9TCq1    H3  145   1.678   0.571  10.667 -1.0389  1.3043  0.9098
    9TCq1    H4  146   1.405   0.439  10.981  1.3392  1.2307  0.7559
   10MPD2     C  147   1.587   0.866  11.105 -0.8137  0.8223 -0.0273
   10MPD2    C1  148   1.516   0.749  11.121  0.2401  0.5401 -0.4529
   10MPD2    C2  149   1.447   0.729  11.241  0.0075 -0.0613 -1.5561
   10MPD2    C3  150   1.462   0.817  11.344  0.1784 -0.3409 -0.7929
   10MPD2    C4  151   1.545   0.929  11.323 -0.0834 -0.1867 -0.0874
   10MPD2    C5  152   1.598   0.957  11.202 -0.8391  0.1407  0.1113
   10MPD2     H  153   1.389   0.637  11.241 -0.1345  0.0223 -0.2674
   10MPD2    H1  154   1.564   1.005  11.399 -2.3470  1.6663 -1.3702
   10MPD2    H2  155   1.641   0.889  11.014 -1.2380 -0.6997 -0.6493
   10MPD2    H3  156   1.677   1.031  11.195  0.5515 -1.3535 -0.2127
   10MPD2     N  157   1.398   0.804  11.473 -0.2838  0.2736 -0.7438
   10MPD2    H5  158   1.444   0.850  11.550 -2.2922 -0.4319  0.8693
   10MPD2    N1  159   1.511   0.643  11.024 -0.2054 -0.4318  0.3509
   10MPD2    H7  160   1.433   0.580  11.039  0.8234 -2.2440 -1.9257
   11TCq1    O1  161   2.818   0.412  14.132  0.0042  0.0169  0.0304
   11TCq1    C1  162   2.813   0.302  14.210 -0.1534  0.0340 -0.2115
   11TCq1    O2  163   2.723   0.220  14.181  0.2831 -0.1750 -0.1345
   11TCq1    C2  164   2.804   0.377  14.341 -0.8594 -0.0883  0.4118
   11TCq1    C3  165   2.910   0.454  14.380 -0.3282  0.0878  0.4148
   11TCq1    C4  166   2.887   0.524  14.501  0.8389  0.2452  0.6117
   11TCq1    C5  167   2.777   0.502  14.577 -0.8080 -0.0716 -0.6756
   11TCq1    C6  168   2.678   0.429  14.527 -0.2977 -0.1051  0.3245
   11TCq1    C7  169   2.685   0.356  14.410  0.2332 -0.0769  0.3080
   11TCq1    C8  170   2.550   0.434  14.589  0.7472 -0.2760  0.1363
   11TCq1    O4  171   2.530   0.521  14.671  0.2192 -0.3463 -0.0995
   11TCq1    C9  172   2.978   0.625  14.538  0.5348 -0.0334 -0.4044
   11TCq1    O5  173   3.053   0.661  14.446 -0.2779 -0.4987  0.2168
   11TCq1    O6  174   2.964   0.686  14.643  0.0208 -0.1809  0.2629
   11TCq1    H1  175   2.880   0.483  14.158  0.7397 -0.4311 -0.4812
   11TCq1    H2  176   2.998   0.474  14.320 -2.3041 -0.2098 -2.5856
   11TCq1    H3  177   2.760   0.571  14.659  1.5106 -0.6537  0.2977
   11TCq1    H4  178   2.599   0.305  14.368  0.7984 -2.7946  2.4674
   12MPD2     C  179   2.264   0.431  14.647 -0.1357 -0.4900  0.2074
   12MPD2    C1  180   2.324   0.331  14.572  0.7045  0.2721 -0.1786
   12MPD2    C2  181   2.250   0.243  14.493  0.6122 -0.5143  0.1242
   12MPD2    C3  182   2.111   0.252  14.493  0.3295 -0.3066 -0.2413
   12MPD2    C4  183   2.056   0.346  14.572  0.3998  0.2489  0.8242
   12MPD2    C5  184   2.128   0.433  14.649  1.0694  0.7224  0.3520
   12MPD2     H  185   2.307   0.176  14.430  0.0381  0.5825 -1.5476
   12MPD2    H1  186   1.948   0.351  14.578  0.1634 -2.0054 -1.5680
   12MPD2    H2  187   2.320   0.502  14.707  1.6073 -0.1997 -1.7256
   12MPD2    H3  188   2.080   0.505  14.714 -0.7358 -1.4368  1.4086
   12MPD2     N  189   2.032   0.158  14.420 -0.2213  0.1767 -0.2813
   12MPD2    H5  190   2.093   0.108  14.356  0.4792  0.3280  0.2579
   12MPD2    N1  191   2.469   0.325  14.552 -0.0612  0.6207 -0.2696
   12MPD2    H7  192   2.500   0.260  14.482  0.3853  0.4385  0.1026
   13TCq1    O1  193   1.961   0.509  10.598  0.0812  0.1391  0.1826
   13TCq1    C1  194   1.959   0.427  10.712  0.1977 -0.2867  0.2543
   13TCq1    O2  195   2.013   0.449  10.819  0.0443 -0.0848  0.4276
   13TCq1    C2  196   1.897   0.292  10.678  0.4367 -0.1749  0.9195
   13TCq1    C3  197   1.917   0.248  10.555  0.2982  0.5484 -0.2494
   13TCq1    C4  198   1.850   0.131  10.523  0.4492  0.5654  0.2374
   13TCq1    C5  199   1.779   0.056  10.606  0.2512  0.3684  0.3932
   13TCq1    C6  200   1.766   0.101  10.732  0.0100  0.2319 -0.7626
   13TCq1    C7  201   1.828   0.217  10.773 -0.0735 -0.1737  0.4254
   13TCq1    C8  202   1.656   0.041  10.812 -0.2716 -0.0018 -0.3618
   13TCq1    O4  203   1.606   0.118  10.893 -0.0804 -0.2903 -0.5024
   13TCq1    C9  204   1.859   0.077  10.390  0.4395  0.5402  0.1341
   13TCq1    O5  205   1.825   4.679  10.372  0.5911 -0.6534 -0.0465
   13TCq1    O6  206   1.916   0.148  10.301 -0.4428  0.6962 -0.3322
   13TCq1    H1  207   1.895   0.468  10.538 -1.3035  1.9952  0.4386
   13TCq1    H2  208   1.978   0.299  10.482 -0.6370 -2.7228 -3.2787
   13TCq1    H3  209   1.724   4.689  10.577 -0.1480  0.6361  0.3355
   13TCq1    H4  210   1.816   0.256  10.873  1.7461 -0.8459  0.9161
   14MPD2     C  211   1.481   4.441  10.804 -0.5212 -0.0333 -0.3718
   14MPD2    C1  212   1.497   4.576  10.818  0.2293  0.0531 -0.1219
   14MPD2    C2  213   1.394   4.653  10.868  0.1070  0.4805 -0.0655
   14MPD2    C3  214   1.267   4.596  10.901 -0.4112 -0.5568  0.4431
   14MPD2    C4  215   1.254   4.461  10.882 -0.3033 -0.4704 -0.1308
   14MPD2    C5  216   1.360   4.386  10.841 -0.5514 -0.3068  0.3530
   14MPD2     H  217   1.397   0.038  10.884  2.4280  0.3789  0.2554
   14MPD2    H1  218   1.169   4.395  10.896 -2.0729  1.4844 -1.6849
   14MPD2    H2  219   1.563   4.375  10.778 -0.3453 -0.7126  1.9718
   14MPD2    H3  220   1.352   4.278  10.834 -0.5636 -0.3812  1.5237
   14MPD2     N  221   1.162   4.676  10.953  0.4805 -0.0940  0.2785
   14MPD2    H5  222   1.188   0.052  10.962  1.7739 -0.5255  1.1374
   14MPD2    N1  223   1.617   4.635  10.777  0.1093 -0.1477  0.2490
   14MPD2    H7  224   1.684   4.582  10.723  0.3951 -0.1670  0.6228
   15TCq1    O1  225   4.357   0.295   2.660 -0.0914 -0.5351 -0.2020
   15TCq1    C1  226   4.399   0.165   2.635  0.1835 -1.1157  0.0383
   15TCq1    O2  227   4.517   0.140   2.621 -0.4273  0.2954  0.4678
   15TCq1    C2  228   4.287   0.101   2.564  0.3261 -0.6275 -0.0525
   15TCq1    C3  229   4.159   0.140   2.586 -0.4702  0.1733  0.1029
   15TCq1    C4  230   4.068   0.115   2.493  0.1568  0.7231 -0.5198
   15TCq1    C5  231   4.101   0.045   2.378  0.2339  0.3604 -0.7191
   15TCq1    C6  232   4.236   0.008   2.358  0.2935 -1.4616 -0.1874
   15TCq1    C7  233   4.328   0.043   2.446  0.1629 -0.1182 -0.2120
   15TCq1    C8  234   4.277   4.636   2.257 -0.7260  1.1536  0.4442
   15TCq1    O4  235   4.387   4.585   2.252  0.3142 -0.1746 -0.2281
   15TCq1    C9  236   3.932   0.145   2.512 -0.1589  0.3360 -0.4195
   15TCq1    O5  237   3.892   0.158   2.625 -0.5101  0.1176 -0.3139
   15TCq1    O6  238   3.862   0.134   2.411  0.1261 -0.2428 -0.0111
   15TCq1    H1  239   4.259   0.303   2.667  0.0224  1.2443 -0.5827
   15TCq1    H2  240   4.129   0.187   2.679 -4.1308  1.8752 -1.9387
   15TCq1    H3  241   4.020   0.022   2.309 -1.2976 -5.2918  2.9410
   15TCq1    H4  242   4.430   0.007   2.442  0.6588  1.2238  0.6138
   16MPD2     C  243   4.080   4.593   1.938  0.0327  0.2087 -0.0492
   16MPD2    C1  244   4.191   4.582   2.018  0.3296  0.2071  0.2741
   16MPD2    C2  245   4.291   4.506   1.970 -0.1387 -0.0145 -0.2491
   16MPD2    C3  246   4.301   4.463   1.837  0.4798 -0.4910  0.1726
   16MPD2    C4  247   4.191   4.487   1.754  0.5304  0.5788 -0.3910
   16MPD2    C5  248   4.086   4.560   1.802 -0.1210 -0.0010 -0.3977
   16MPD2     H  249   4.379   4.498   2.033 -2.3384  1.5620  2.9789
   16MPD2    H1  250   4.197   4.470   1.647 -0.2484  0.1308 -0.3626
   16MPD2    H2  251   3.998   4.656   1.970  1.0175  0.4899  1.8697
   16MPD2    H3  252   4.002   4.591   1.740  2.5484  2.1166 -2.9908
   16MPD2     N  253   4.416   4.378   1.798 -0.0418 -0.9204 -0.7667
   16MPD2    H5  254   4.490   4.362   1.866  0.0733 -0.4505 -0.7836
   16MPD2    N1  255   4.182   4.642   2.152 -0.6225  0.4886 -0.4048
   16MPD2    H7  256   4.106   4.704   2.177 -1.3922  0.0085 -1.5559
   17TCq1    O1  257   1.932   0.051  11.063 -0.0454  0.0749 -0.5931
   17TCq1    C1  258   1.891   4.675  11.149  0.7219 -0.6528 -0.2576
   17TCq1    O2  259   1.820   4.581  11.117 -0.0997 -0.1954  0.0481
   17TCq1    C2  260   1.995   4.666  11.257  0.1663  0.3278  0.1345
   17TCq1    C3  261   1.964   4.589  11.365 -0.8204  0.2131  0.2238
   17TCq1    C4  262   2.054   4.583  11.467 -0.0847 -0.3534 -0.5874
   17TCq1    C5  263   2.169   4.647  11.467 -0.7234 -0.2661  1.3380
   17TCq1    C6  264   2.202   4.721  11.353 -0.5006 -0.8087  0.0919
   17TCq1    C7  265   2.116   0.006  11.240  0.7711  0.3852  0.2369
   17TCq1    C8  266   2.327   0.069  11.355 -0.7204 -0.2491 -0.7467
   17TCq1    O4  267   2.368   0.111  11.461 -0.3179 -0.3861 -0.4792
   17TCq1    C9  268   2.031   4.477  11.564 -0.0993 -0.2997  0.4322
   17TCq1    O5  269   2.127   4.446  11.636 -0.5713  0.2966  0.8205
   17TCq1    O6  270   1.923   4.413  11.556  0.0798 -0.0351 -0.1494
   17TCq1    H1  271   1.949   0.127  11.122 -0.9432 -0.6172  0.5650
   17TCq1    H2  272   1.875   4.527  11.364 -2.1444  2.1060  2.2154
   17TCq1    H3  273   2.240   4.638  11.548 -0.4499  0.0396  1.1354
   17TCq1    H4  274   2.141   0.062  11.151 -0.9812  2.8353  1.2808
   18MPD2     C  275   2.556   0.240  11.253  0.4259  0.3028  0.3537
   18MPD2    C1  276   2.496   0.140  11.179 -0.1671 -0.6455 -0.0864
   18MPD2    C2  277   2.556   0.099  11.058  0.0340  0.5872 -0.2445
   18MPD2    C3  278   2.678   0.157  11.024  0.8186  0.3917  0.1192
   18MPD2    C4  279   2.727   0.264  11.091  0.0564  0.2060  0.1520
   18MPD2    C5  280   2.664   0.318  11.203  0.7030  0.6842 -0.9179
   18MPD2     H  281   2.509   0.028  10.991 -1.9475  1.4653  0.2345
   18MPD2    H1  282   2.814   0.314  11.051  0.0776 -0.0828 -0.1572
   18MPD2    H2  283   2.511   0.275  11.345  1.4629  0.1815  0.9057
   18MPD2    H3  284   2.702   0.401  11.261 -0.8493 -1.2301  2.8498
   18MPD2     N  285   2.748   0.111  10.917  0.6070 -0.2640 -0.4316
   18MPD2    H5  286   2.842   0.147  10.901  0.8746 -1.3939 -1.4491
   18MPD2    N1  287   2.378   0.077  11.224 -0.1088 -0.2371 -0.1094
   18MPD2    H7  288   2.341   0.007  11.160 -0.6767 -0.5168  0.5313
   19TMC2    C1  289   2.965   4.316  14.449 -0.6191  0.2660  0.2709
   19TMC2    C2  290   2.929   4.218  14.528  0.5255  0.2047  0.1335
   19TMC2    C3  291   2.828   4.135  14.484 -0.2234  0.3621 -0.9173
   19TMC2    C4  292   2.904   4.338  14.322  0.3055  0.6764  0.7289
   19TMC2    C5  293   2.800   4.257  14.285 -0.1067 -0.5886 -0.1860
   19TMC2    C6  294   2.761   4.155  14.364  0.6169 -0.0079 -0.5492
   19TMC2     C  295   3.038   4.420  14.513 -0.1828  0.1242  0.1820
   19TMC2     O  296   3.047   4.417  14.635  0.0156  0.0181  0.3619
   19TMC2     H  297   2.977   4.193  14.622  1.6344 -2.2571 -1.0890
   19TMC2    H1  298   2.930   4.426  14.264 -1.4277  1.3214  0.9210
   19TMC2    H2  299   2.686   4.086  14.327 -0.2314  0.1425  0.9041
   19TMC2    C7  300   2.763   4.244  14.146  0.6208 -0.0802 -0.0237
   19TMC2    C8  301   2.796   4.022  14.572  0.9950  0.2296 -0.0163
   19TMC2    O1  302   2.644   4.224  14.116 -0.3445 -0.0397  0.2073
   19TMC2    O2  303   2.833   4.019  14.687 -0.0872  0.3301  0.1768
   19TMC2    O5  304   2.703   3.944  14.517  0.3454  0.2556  0.0268
   19TMC2    H5  305   2.717   3.937  14.421 -0.0000  1.7689 -0.1295
   20MPD2     C  306   3.272   4.664  14.372 -0.0983  0.6039  0.8274
   20MPD2    C1  307   3.202   4.602  14.472 -0.2974  0.1716 -0.9566
   20MPD2    C2  308   3.226   4.639  14.606  0.0707 -0.3317 -0.1421
   20MPD2    C3  309   3.337   4.716  14.632 -0.0453  0.3760 -0.1318
   20MPD2    C4  310   3.406   0.051  14.527  0.0316 -1.0619  0.2489
   20MPD2    C5  311   3.370   0.032  14.394  0.5050 -0.2660  0.1316
   20MPD2     H  312   3.168   4.608  14.692  0.9039 -1.3831  0.0358
   20MPD2    H1  313   3.479   0.125  14.557 -2.6025  1.9945 -0.7821
   20MPD2    H2  314   3.245   4.646  14.268 -1.1557 -0.2924  1.2564
   20MPD2    H3  315   3.413   0.088  14.311 -0.7974  2.6713  1.4180
   20MPD2     N  316   3.383   0.025  14.764  0.1381 -0.3559 -0.0814
   20MPD2    H5  317   3.445   0.105  14.777 -2.0050  1.5583 -1.6084
   20MPD2    N1  318   3.108   4.508  14.430  0.2203 -0.0878  0.4805
   20MPD2    H7  319   3.112   4.489  14.330 -1.0101 -0.4819  0.4994
   21MPD2     C  320   0.948   0.578  14.552  0.2469 -0.0250 -1.0240
   21MPD2    C1  321   1.018   0.493  14.641  0.6162 -0.2848 -0.3527
   21MPD2    C2  322   0.970   0.487  14.767  0.5893 -0.1090 -0.1244
   21MPD2    C3  323   0.855   0.543  14.810  0.2905 -0.8475 -0.2738
   21MPD2    C4  324   0.786   0.623  14.725  0.8820 -0.3951  0.6317
   21MPD2    C5  325   0.839   0.641  14.601  0.6998 -0.6828  0.0365
   21MPD2     H  326   1.028   0.417  14.826  0.4064 -0.0063  0.1781
   21MPD2    H1  327   0.685   0.657  14.746  2.0506  1.3440  3.3564
   21MPD2    H2  328   0.983   0.590  14.450  0.1767  0.1880 -1.0233
   21MPD2    H3  329   0.776   0.695  14.531  2.6846  1.9963  0.3284
   21MPD2     N  330   0.797   0.508  14.932 -0.8379  0.5537 -0.1697
   21MPD2    H5  331   0.701   0.542  14.942 -0.5871  1.5548 -1.1007
   21MPD2    N1  332   1.143   0.437  14.612 -0.2242  0.0964 -0.4032
   21MPD2    H7  333   1.185   0.384  14.688  1.4323  1.7641 -0.1462
   22TCq2    C1  334   0.846   0.422  15.021 -0.3322 -0.1211  0.6762
   22TCq2    O2  335   0.957   0.375  15.032  0.4724 -0.1076  0.3098
   22TCq2    C2  336   0.743   0.378  15.116  0.5388 -0.1011  0.2759
   22TCq2    C3  337   0.748   0.248  15.162  0.2415  0.2882 -0.5804
   22TCq2    C4  338   0.645   0.202  15.234  0.6579 -0.8246 -0.6794
   22TCq2    C5  339   0.533   0.275  15.254  0.1427  0.6795  0.6179
   22TCq2    C6  340   0.536   0.405  15.208  0.0974  0.4333  0.1392
   22TCq2    C7  341   0.641   0.461  15.148  1.0696 -0.2835  0.5567
   22TCq2    C8  342   0.425   0.491  15.256 -0.3167  0.6360 -0.3416
   22TCq2    O4  343   0.376   0.455  15.365 -0.2117  0.2151  0.0700
   22TCq2    C9  344   0.642   0.060  15.267  0.5045  0.1274  0.7093
   22TCq2    O5  345   0.740   4.716  15.232 -0.0416 -0.4953  0.1981
   22TCq2    O6  346   0.541   0.013  15.321 -0.2627  0.6795 -0.0102
   22TCq2    H2  347   0.839   0.193  15.141 -0.0598  0.2884 -1.9310
   22TCq2    H3  348   0.451   0.235  15.313  0.9921  2.9051  3.3142
   22TCq2    H4  349   0.640   0.556  15.095 -1.3490 -0.5799  0.0706
   23MPD2     C  350   2.967   1.716  15.318 -0.0137  0.3555  0.8111
   23MPD2    C1  351   2.868   1.621  15.310  0.5393  0.5734 -0.2007
   23MPD2    C2  352   2.784   1.624  15.199  0.0803 -0.3483 -0.0123
   23MPD2    C3  353   2.796   1.721  15.106  0.7088 -0.9014 -0.9874
   23MPD2    C4  354   2.897   1.818  15.112  0.2464 -0.6577  0.2117
   23MPD2    C5  355   2.978   1.816  15.220 -0.3816  0.6047 -0.7986
   23MPD2     H  356   2.704   1.551  15.205 -0.8460  0.8604  2.0880
   23MPD2    H1  357   2.915   1.887  15.031  0.0490  1.1505  1.6920
   23MPD2    H2  358   3.038   1.725  15.400 -0.3785 -1.7445  1.3601
   23MPD2    H3  359   3.051   1.897  15.227  0.2920 -0.1915  1.4067
   23MPD2     N  360   2.716   1.720  14.991  0.0477  0.3411 -0.1137
   23MPD2    H5  361   2.714   1.792  14.920  0.1096 -2.3929 -2.8754
   23MPD2    N1  362   2.860   1.514  15.401  0.4974  0.2371  0.4071
   23MPD2    H7  363   2.812   1.428  15.375  0.7761  0.7081 -1.6782
   24TCq2    C1  364   2.622   1.621  14.970 -0.3872 -0.7161 -0.3259
   24TCq2    O2  365   2.602   1.517  15.033 -0.2510  0.4326  0.3122
   24TCq2    C2  366   2.538   1.642  14.860  0.2495 -0.5287 -0.2368
   24TCq2    C3  367   2.544   1.762  14.789 -0.5081 -0.3588 -0.3475
   24TCq2    C4  368   2.448   1.791  14.700 -0.4252  0.2741  0.2079
   24TCq2    C5  369   2.341   1.709  14.684 -0.3698 -0.2492 -0.3916
   24TCq2    C6  370   2.342   1.585  14.749 -0.7066 -1.3071  0.1732
   24TCq2    C7  371   2.443   1.547  14.836  0.0969  0.0140  0.2788
   24TCq2    C8  372   2.235   1.484  14.728 -0.0702 -0.3471  0.4885
   24TCq2    O4  373   2.255   1.370  14.768  0.1380 -0.4105 -0.0330
   24TCq2    C9  374   2.451   1.919  14.636  0.3920  0.0814 -0.0912
   24TCq2    O5  375   2.506   2.012  14.705  0.1841 -0.4475  1.2402
   24TCq2    O6  376   2.385   1.927  14.526 -0.6190  0.0766  0.4263
   24TCq2    H2  377   2.624   1.834  14.802 -0.9352 -0.2489  1.6271
   24TCq2    H3  378   2.275   1.739  14.603  1.0577  2.6676 -0.4770
   24TCq2    H4  379   2.441   1.450  14.884  0.6081  0.3261  0.9333
   25TMC2    C1  380   1.040   3.951  11.242 -0.0363 -0.7749 -0.0102
   25TMC2    C2  381   0.928   3.942  11.167  0.2851  0.1456 -0.2126
   25TMC2    C3  382   0.814   4.010  11.215 -0.7228  0.2176 -0.0351
   25TMC2    C4  383   1.050   4.018  11.356  0.1220  0.1536 -0.0093
   25TMC2    C5  384   0.936   4.084  11.400 -0.2559 -0.4562  0.7852
   25TMC2    C6  385   0.817   4.080  11.333  0.4270 -0.1442  0.4757
   25TMC2     C  386   1.160   3.876  11.187  0.1118 -0.7149 -0.5611
   25TMC2     O  387   1.265   3.932  11.202 -0.5975  0.4382  0.0303
   25TMC2     H  388   0.927   3.879  11.078  0.6547  0.6956 -0.6047
   25TMC2    H1  389   1.143   4.010  11.411  0.4985 -2.4378 -1.0471
   25TMC2    H2  390   0.726   4.123  11.373 -0.1243 -0.5518 -0.3208
   25TMC2    C7  391   0.933   4.088  11.545 -0.0005 -0.1816 -0.2657
   25TMC2    C8  392   0.683   3.993  11.163  0.2013 -0.3695  0.4197
   25TMC2    O1  393   1.017   4.027  11.611  0.3561  0.5119  0.1030
   25TMC2    O2  394   0.575   3.986  11.219 -0.2939  0.5069 -0.0031
   25TMC2    O5  395   0.701   4.001  11.025 -0.4377  0.4275 -0.2039
   25TMC2    H5  396   0.796   4.018  11.004 -0.0851  0.2587  1.2575
   26MPD2     C  397   1.390   3.464  10.981 -0.9177  0.0962  0.2432
   26MPD2    C1  398   1.257   3.435  10.996  0.0758  0.5915 -0.0708
   26MPD2    C2  399   1.166   3.532  11.038 -0.2165 -0.1522  0.3026
   26MPD2    C3  400   1.212   3.660  11.078  0.3023  0.1585 -0.5690
   26MPD2    C4  401   1.343   3.685  11.068 -0.8581  0.6656 -0.1308
   26MPD2    C5  402   1.430   3.587  11.022  0.2607  0.4563 -0.5821
   26MPD2     H  403   1.059   3.512  11.039 -0.2868  0.2249  0.7071
   26MPD2    H1  404   1.374   3.788  11.081 -2.3753  1.1573 -0.4319
   26MPD2    H2  405   1.461   3.385  10.961  0.2677  1.2550 -0.1404
   26MPD2    H3  406   1.534   3.612  11.004  0.9114  0.0083  2.5332
   26MPD2     N  407   1.128   3.763  11.121 -0.1702  0.0139  0.5919
   26MPD2    H5  408   1.031   3.734  11.135 -0.5427  1.4757  1.0550
   26MPD2    N1  409   1.216   3.296  10.969 -0.0948 -0.0993 -0.1471
   26MPD2    H7  410   1.288   3.233  10.935 -2.3344 -0.4497 -4.2012
   27TMC2    C1  411   0.673   1.195  13.272  0.1656 -0.0010 -0.1695
   27TMC2    C2  412   0.616   1.282  13.181 -0.2634  0.2404 -0.4418
   27TMC2    C3  413   0.696   1.331  13.078  0.5090  0.3030  0.8211
   27TMC2    C4  414   0.800   1.158  13.260 -0.2742  0.1295 -0.0160
   27TMC2    C5  415   0.878   1.212  13.164  0.2930 -0.3472  0.0613
   27TMC2    C6  416   0.822   1.291  13.068 -0.5281  0.3210 -0.3448
   27TMC2     C  417   0.599   1.072  13.314  0.0136  0.5521 -0.0670
   27TMC2     O  418   0.654   0.977  13.364 -0.0079  0.2077 -0.2794
   27TMC2     H  419   0.515   1.316  13.202 -1.0842 -1.8220 -0.9539
   27TMC2    H1  420   0.844   1.078  13.318  3.0189  2.5027  0.8204
   27TMC2    H2  421   0.882   1.330  12.986 -0.3518 -0.3039 -0.5114
   27TMC2    C7  422   0.976   1.116  13.110  0.0726 -0.0925  0.0054
   27TMC2    C8  423   0.647   1.436  12.987  0.6729  0.4724  0.0549
   27TMC2    O1  424   0.962   1.003  13.155 -0.2630 -0.1231 -0.3536
   27TMC2    O2  425   0.580   1.526  13.029 -0.2892 -0.5738 -0.0643
   27TMC2    O5  426   0.714   1.425  12.870  0.0726 -0.1246 -0.7212
   27TMC2    H5  427   0.745   1.335  12.846  0.1877 -0.2946  0.0867
   28MPD2     C  428   0.207   0.781  13.160  0.9634 -0.4179  0.7236
   28MPD2    C1  429   0.165   0.910  13.154  0.7578  0.5093 -0.3308
   28MPD2    C2  430   0.252   1.007  13.201 -0.0525  0.3536  0.3459
   28MPD2    C3  431   0.379   0.974  13.249 -1.2472  0.1366  0.2476
   28MPD2    C4  432   0.414   0.842  13.247 -0.4112 -0.6328 -0.4964
   28MPD2    C5  433   0.330   0.745  13.210 -0.1268  0.4799  0.0411
   28MPD2     H  434   0.229   1.113  13.195  0.7760  0.4243 -1.5006
   28MPD2    H1  435   0.518   0.819  13.263 -0.7273 -1.5360  0.2639
   28MPD2    H2  436   0.151   0.701  13.114  1.3317 -0.8769  1.0672
   28MPD2    H3  437   0.363   0.641  13.206 -0.9376  0.2177  0.1865
   28MPD2     N  438   0.470   1.079  13.282 -0.8389  0.3063 -0.1429
   28MPD2    H5  439   0.443   1.168  13.241 -0.8929  0.2073 -0.3240
   28MPD2    N1  440   0.027   0.942  13.107  0.3952  0.2947  0.4387
   28MPD2    H7  441   4.704   0.867  13.056  0.6038  0.4956 -0.0410
   29MPD2     C  442   4.372   3.563  14.142  0.6556  0.2667 -0.2929
   29MPD2    C1  443   4.515   3.555  14.155 -0.1803  0.7026 -0.0201
   29MPD2    C2  444   4.591   3.669  14.135 -0.8424 -0.3109  0.4366
   29MPD2    C3  445   4.521   3.797  14.128  0.6878 -0.0619 -0.1722
   29MPD2    C4  446   4.384   3.794  14.130  0.2188 -0.2105  0.0467
   29MPD2    C5  447   4.311   3.685  14.133  0.1106 -0.2473  0.1215
   29MPD2     H  448   4.699   3.662  14.134 -0.8799 -0.6564 -0.8642
   29MPD2    H1  449   4.332   3.889  14.126  2.1314  0.8352 -0.0459
   29MPD2    H2  450   4.303   3.482  14.159  0.3121 -0.2933 -4.2530
   29MPD2    H3  451   4.203   3.699  14.136  0.0494 -1.2713  2.6060
   29MPD2     N  452   4.585   3.925  14.122 -0.2628 -0.2105  0.1681
   29MPD2    H5  453   4.521   4.001  14.142 -0.4880 -0.2484 -0.4005
   29MPD2    N1  454   4.585   3.434  14.174 -0.5223 -0.2166  0.5403
   29MPD2    H7  455   4.685   3.431  14.188 -0.6222 -1.0020  1.0740
   30TCq2    C1  456   4.719   3.945  14.118 -0.0071  1.2920 -0.3634
   30TCq2    O2  457   0.076   3.866  14.083 -0.0971  1.0277  0.0681
   30TCq2    C2  458   0.037   4.081  14.133 -0.3205  0.3023  0.1457
   30TCq2    C3  459   0.169   4.117  14.123 -0.7116  0.9951 -0.3640
   30TCq2    C4  460   0.214   4.238  14.159 -0.3135 -0.3890  0.5245
   30TCq2    C5  461   0.126   4.331  14.210 -0.0593 -0.4826 -0.6696
   30TCq2    C6  462   4.717   4.300  14.226 -0.5549 -0.0182 -1.1033
   30TCq2    C7  463   4.669   4.179  14.184 -0.0747 -1.0673  0.6161
   30TCq2    C8  464   4.625   4.390  14.298 -0.4173 -0.2537  0.5684
   30TCq2    O4  465   4.504   4.370  14.280  0.0515  0.0336 -0.5140
   30TCq2    C9  466   0.355   4.267  14.152  0.4446  0.7361  0.3851
   30TCq2    O5  467   0.387   4.385  14.142  0.5618 -0.3429  0.1830
   30TCq2    O6  468   0.435   4.170  14.167  0.0422  0.1829 -0.3128
   30TCq2    H2  469   0.234   4.048  14.071 -1.1847 -0.7421  1.3656
   30TCq2    H3  470   0.164   4.431  14.227 -1.2561 -0.1241 -0.0986
   30TCq2    H4  471   4.564   4.159  14.199 -0.4865  0.3324 -0.4038
   31MPD2     C  472   2.612   2.588  14.443 -0.2841  0.7264  0.2882
   31MPD2    C1  473   2.482   2.634  14.422 -0.5512 -0.3720  0.3415
   31MPD2    C2  474   2.390   2.590  14.519 -0.3135  0.8032  0.3114
   31MPD2    C3  475   2.417   2.513  14.628 -0.2318  0.3781 -0.3049
   31MPD2    C4  476   2.544   2.458  14.635 -0.0413 -0.3712 -0.3911
   31MPD2    C5  477   2.635   2.497  14.538 -0.2222  0.9693 -0.3791
   31MPD2     H  478   2.289   2.630  14.521 -0.5956  0.1442 -0.6761
   31MPD2    H1  479   2.583   2.403  14.720  1.6698  0.5576 -0.5800
   31MPD2    H2  480   2.692   2.618  14.377  0.4002 -1.7229  0.0268
   31MPD2    H3  481   2.736   2.467  14.566  0.0509  2.5961  0.3522
   31MPD2     N  482   2.329   2.497  14.737 -0.1174 -0.4811 -0.2259
   31MPD2    H5  483   2.367   2.461  14.824 -1.7249 -0.3577  0.5349
   31MPD2    N1  484   2.458   2.724  14.318  0.2725  0.2330  0.1425
   31MPD2    H7  485   2.535   2.762  14.263  0.9214  0.0071  0.9080
   32TCq2    C1  486   2.200   2.536  14.748  0.4643  0.1663 -0.4569
   32TCq2    O2  487   2.129   2.570  14.652 -0.4945 -0.3214  0.1214
   32TCq2    C2  488   2.158   2.559  14.883 -0.5416  0.2908  0.3631
   32TCq2    C3  489   2.055   2.648  14.900 -0.7960 -0.0724 -0.9924
   32TCq2    C4  490   2.011   2.681  15.028  0.0369  0.1220 -0.4428
   32TCq2    C5  491   2.070   2.621  15.136  0.1950  0.1881  0.8165
   32TCq2    C6  492   2.173   2.531  15.112 -0.3931  0.6272  0.8485
   32TCq2    C7  493   2.221   2.497  14.987  0.6552 -0.1068 -0.8839
   32TCq2    C8  494   2.200   2.438  15.222 -0.1804 -0.5702  0.1148
   32TCq2    O4  495   2.313   2.391  15.226  0.2400  0.5542  0.0255
   32TCq2    C9  496   1.924   2.794  15.058 -0.2964  0.4279 -0.2680
   32TCq2    O5  497   1.866   2.785  15.167  0.3168  0.1730  0.2271
   32TCq2    O6  498   1.876   2.849  14.955 -0.0527  0.5001  0.3921
   32TCq2    H2  499   2.016   2.702  14.814  1.3679  0.4452 -1.6295
   32TCq2    H3  500   2.041   2.648  15.237  0.0049  0.4694  0.6887
   32TCq2    H4  501   2.298   2.421  14.983  0.7578  0.1062 -2.9635
   33MPD2     C  502   3.077   0.144  10.117  0.6780  0.5386  0.0489
   33MPD2    C1  503   2.962   0.088  10.168 -0.1158  0.4241 -0.0920
   33MPD2    C2  504   2.849   0.070  10.087  0.2512 -0.0004  0.4713
   33MPD2    C3  505   2.848   0.118   9.958 -0.7450  0.2667 -0.3250
   33MPD2    C4  506   2.973   0.159   9.904  0.4859  0.1957  0.1873
   33MPD2    C5  507   3.079   0.186   9.988  0.4086 -0.1662  0.4169
   33MPD2     H  508   2.754   0.041  10.130  0.9031 -3.3021 -0.3380
   33MPD2    H1  509   2.986   0.196   9.803 -0.6573 -0.3343 -0.1464
   33MPD2    H2  510   3.161   0.166  10.183  1.2562 -1.0665 -0.1538
   33MPD2    H3  511   3.170   0.224   9.943  0.1533  0.3938  0.3770
   33MPD2     N  512   2.732   0.131   9.876 -0.5613 -0.3677  0.0408
   33MPD2    H5  513   2.754   0.167   9.783  1.2403 -2.1264 -0.2144
   33MPD2    N1  514   2.972   0.046  10.299  0.2241 -0.0463  0.5311
   33MPD2    H7  515   3.063   0.050  10.343  0.6693  0.8748 -0.4787
   34TCq2    C1  516   2.599   0.089   9.912  0.0999  0.0442  0.3874
   34TCq2    O2  517   2.551   0.026  10.006  0.8201  0.1505 -0.3363
   34TCq2    C2  518   2.494   0.126   9.811  0.0418 -0.3748 -0.5123
   34TCq2    C3  519   2.365   0.099   9.856 -0.0903  0.0871 -0.5662
   34TCq2    C4  520   2.265   0.171   9.807 -0.0033 -0.7408  0.2985
   34TCq2    C5  521   2.281   0.260   9.706 -0.1470  0.2993 -0.2662
   34TCq2    C6  522   2.409   0.285   9.658 -0.4800  0.4706 -0.0278
   34TCq2    C7  523   2.517   0.212   9.709 -0.9948  0.1257  0.1733
   34TCq2    C8  524   2.432   0.390   9.557 -0.4625  0.1432  0.1985
   34TCq2    O4  525   2.547   0.421   9.529  1.1129 -0.3408  0.1110
   34TCq2    C9  526   2.134   0.163   9.868 -0.7744  0.3675  0.3637
   34TCq2    O5  527   2.114   0.094   9.970 -0.2979  0.1746  0.5408
   34TCq2    O6  528   2.042   0.233   9.815 -0.3267  0.3135  0.1530
   34TCq2    H2  529   2.348   0.026   9.934 -1.2814 -0.3688 -1.2487
   34TCq2    H3  530   2.199   0.323   9.675  0.3912  1.4673  0.6675
   34TCq2    H4  531   2.616   0.237   9.674 -0.9262  0.3128  0.5027
   35MPD2     C  532   3.838   1.868  11.990 -0.1315  0.3478 -0.3890
   35MPD2    C1  533   3.846   1.744  12.043  0.2662 -0.4321  0.1042
   35MPD2    C2  534   3.774   1.636  11.992 -0.0111 -0.4256 -0.0553
   35MPD2    C3  535   3.680   1.668  11.898 -0.2222  0.1057  0.4114
   35MPD2    C4  536   3.682   1.794  11.847  0.0758 -0.1686  1.0885
   35MPD2    C5  537   3.759   1.892  11.887 -0.5127  0.3367 -0.1052
   35MPD2     H  538   3.765   1.537  12.037  1.0044  0.2791  1.6971
   35MPD2    H1  539   3.615   1.816  11.764  0.5740  2.9838  1.5241
   35MPD2    H2  540   3.892   1.949  12.039 -0.9988  1.1303 -0.7481
   35MPD2    H3  541   3.760   1.986  11.833 -2.0468  0.5072  0.1419
   35MPD2     N  542   3.585   1.564  11.864  0.7320  0.1695 -0.4636
   35MPD2    H5  543   3.587   1.473  11.909 -1.6206 -0.4912 -1.7150
   35MPD2    N1  544   3.918   1.723  12.165  0.0539 -0.1391 -0.5459
   35MPD2    H7  545   3.935   1.807  12.220 -2.3032 -0.9960  1.4519
   36TCq2    C1  546   3.477   1.581  11.769  0.4740 -0.0775 -1.1307
   36TCq2    O2  547   3.448   1.681  11.699  0.1569 -0.9766 -0.2696
   36TCq2    C2  548   3.399   1.456  11.772 -0.0305 -0.5693  0.3655
   36TCq2    C3  549   3.309   1.454  11.667 -0.1553 -0.0220 -0.1687
   36TCq2    C4  550   3.233   1.339  11.656 -0.0973 -0.1851  0.1243
   36TCq2    C5  551   3.240   1.241  11.753  0.4711 -0.9925 -0.0739
   36TCq2    C6  552   3.328   1.259  11.860  0.0141  0.1539 -0.3902
   36TCq2    C7  553   3.413   1.366  11.867 -0.7378 -0.3128  0.2455
   36TCq2    C8  554   3.356   1.145  11.947 -0.2230  0.6551  0.1132
   36TCq2    O4  555   3.429   1.165  12.044  0.0590  0.4517  0.0727
   36TCq2    C9  556   3.144   1.324  11.547 -0.3376  0.5089 -0.3651
   36TCq2    O5  557   3.138   1.417  11.465 -0.0542 -0.4469  0.2704
   36TCq2    O6  558   3.108   1.205  11.523  0.0960  0.1484 -0.5063
   36TCq2    H2  559   3.299   1.528  11.589 -2.6327  0.1410  0.3024
   36TCq2    H3  560   3.167   1.162  11.741  1.4554 -2.3176  2.8233
   36TCq2    H4  561   3.457   1.385  11.964  1.0035  2.8680 -1.1487
   37TMC2    C1  562   0.892   2.380  11.439  0.1166  0.6036 -0.1161
   37TMC2    C2  563   0.841   2.358  11.315  0.3406  0.8668 -0.7618
   37TMC2    C3  564   0.875   2.449  11.217  0.1102  0.7108 -0.3877
   37TMC2    C4  565   0.951   2.493  11.468  0.6662  0.6440  0.0700
   37TMC2    C5  566   0.983   2.577  11.368 -0.2456  0.5143  0.7387
   37TMC2    C6  567   0.954   2.558  11.237 -0.1927 -0.3971 -0.1055
   37TMC2     C  568   0.866   2.291  11.552  0.2669  0.0270 -0.6514
   37TMC2     O  569   0.761   2.230  11.555  0.3930  0.0807 -0.3519
   37TMC2     H  570   0.769   2.280  11.294  1.2585 -0.0083 -0.6295
   37TMC2    H1  571   0.980   2.518  11.569  0.9700  0.8207 -0.0625
   37TMC2    H2  572   0.977   2.628  11.158  2.9464 -1.0645  0.1962
   37TMC2    C7  573   1.076   2.687  11.409  0.4696  0.3555  0.3491
   37TMC2    C8  574   0.831   2.425  11.082  0.1696  0.2410 -0.5264
   37TMC2    O1  575   1.074   2.713  11.526 -0.3137  0.3036 -0.0912
   37TMC2    O2  576   0.715   2.393  11.064  0.6153 -0.2935 -0.0241
   37TMC2    O5  577   0.939   2.370  11.010  0.2039 -0.5440  0.1614
   37TMC2    H5  578   1.028   2.366  11.052  0.5075 -0.6706 -0.5048
   38MPD2     C  579   1.007   2.083  12.000 -0.1117  0.4225  0.2157
   38MPD2    C1  580   1.120   2.132  11.940 -1.4616 -0.3000 -0.0373
   38MPD2    C2  581   1.097   2.217  11.825  0.2412  0.1669 -0.6353
   38MPD2    C3  582   0.975   2.238  11.765 -0.1997  0.8615  0.2187
   38MPD2    C4  583   0.863   2.175  11.826 -0.6801 -0.3299 -0.0166
   38MPD2    C5  584   0.884   2.103  11.943 -0.0315  0.5901 -0.4802
   38MPD2     H  585   1.183   2.257  11.774  0.1717  2.2698  0.8855
   38MPD2    H1  586   0.761   2.175  11.790 -1.1783  0.1792  1.3736
   38MPD2    H2  587   1.017   2.027  12.093  1.2892  0.1955 -0.0644
   38MPD2    H3  588   0.799   2.060  11.996 -0.6176  1.1510 -0.9635
   38MPD2     N  589   0.970   2.304  11.641  0.0064  0.0016  0.2068
   38MPD2    H5  590   1.055   2.346  11.603 -0.1554  0.6254  0.5409
   38MPD2    N1  591   1.250   2.106  11.987 -0.1841  0.2250 -0.0992
   38MPD2    H7  592   1.332   2.143  11.938 -0.3931  0.4539 -0.2755
   39MPD2     C  593   0.160   3.070   2.030 -0.5342 -0.5985 -0.2232
   39MPD2    C1  594   0.199   3.194   2.007  0.8462  0.2372 -0.0985
   39MPD2    C2  595   0.129   3.266   1.906  0.7175 -0.1183 -0.1276
   39MPD2    C3  596   0.022   3.208   1.832 -0.5194  0.4425  0.3980
   39MPD2    C4  597   4.707   3.079   1.860 -0.0232 -0.5046  0.3649
   39MPD2    C5  598   0.058   3.013   1.960 -0.2945  0.6168  0.2528
   39MPD2     H  599   0.164   3.364   1.875 -0.0507  0.1302 -0.1966
   39MPD2    H1  600   4.640   3.019   1.800 -1.5693  1.9381 -0.3530
   39MPD2    H2  601   0.205   3.017   2.114  0.2108 -0.8969 -0.8098
   39MPD2    H3  602   0.032   2.909   1.977 -1.2194  0.7647 -0.2697
   39MPD2     N  603   4.681   3.276   1.723  0.1751 -1.3687 -0.1881
   39MPD2    H5  604   4.607   3.229   1.673 -2.5706  1.0031  1.6692
   39MPD2    N1  605   0.289   3.253   2.098  0.0643  0.9656 -0.0395
   39MPD2    H7  606   0.323   3.197   2.176 -1.1734 -1.5285 -1.3048
   40TCq2    C1  607   0.336   3.385   2.091  0.1100  0.0242  0.4292
   40TCq2    O2  608   0.301   3.478   2.018 -0.2948 -0.1955  0.0251
   40TCq2    C2  609   0.397   3.424   2.215 -0.6513  0.1837 -0.1325
   40TCq2    C3  610   0.357   3.355   2.329  0.0436  0.0647  0.4234
   40TCq2    C4  611   0.392   3.408   2.448 -0.0265  0.1235 -0.1814
   40TCq2    C5  612   0.468   3.520   2.458 -0.5726  0.5173 -0.0219
   40TCq2    C6  613   0.508   3.592   2.343 -0.6352  0.8771 -0.0420
   40TCq2    C7  614   0.464   3.543   2.223  0.3013 -0.3227  0.0323
   40TCq2    C8  615   0.605   3.701   2.358 -0.8015 -0.5066 -0.3894
   40TCq2    O4  616   0.622   3.739   2.469  0.1413 -0.1226 -0.5617
   40TCq2    C9  617   0.377   3.339   2.571 -0.0341  0.1078 -0.4155
   40TCq2    O5  618   0.316   3.224   2.561 -0.0559 -0.1779  0.0039
   40TCq2    O6  619   0.421   3.385   2.682  0.0419 -0.6582 -0.1486
   40TCq2    H2  620   0.292   3.268   2.330 -0.3169  0.3346  0.5737
   40TCq2    H3  621   0.497   3.557   2.556 -0.1565 -0.3334  0.1824
   40TCq2    H4  622   0.485   3.597   2.131 -1.5860 -2.4065 -1.6549
   41TMC2    C1  623   3.792   1.425  13.770  0.1958  0.4095 -0.7284
   41TMC2    C2  624   3.884   1.323  13.740 -0.1226 -0.2778 -0.4883
   41TMC2    C3  625   3.947   1.310  13.616  0.3665  0.6370 -0.2476
   41TMC2    C4  626   3.767   1.521  13.675 -0.4296 -0.2667 -0.4509
   41TMC2    C5  627   3.814   1.495  13.551  0.4515 -0.0183 -0.0261
   41TMC2    C6  628   3.907   1.396  13.512  0.1348  0.5225  0.3733
   41TMC2     C  629   3.728   1.430  13.904 -0.2490 -0.3845  0.6842
   41TMC2     O  630   3.760   1.329  13.967 -0.2486 -0.8999  0.7208
   41TMC2     H  631   3.917   1.248  13.811 -0.5656 -0.2558 -0.2549
   41TMC2    H1  632   3.688   1.595  13.691  0.5041  1.3232 -3.2743
   41TMC2    H2  633   3.949   1.401  13.412  1.3353 -0.0506  0.8491
   41TMC2    C7  634   3.753   1.571  13.444  0.4894  0.2936 -0.3062
   41TMC2    C8  635   4.061   1.216  13.601  0.0734 -0.1345  0.1009
   41TMC2    O1  636   3.716   1.686  13.459  0.5125  0.4001 -0.4226
   41TMC2    O2  637   4.036   1.099  13.622  0.1902 -0.5187  1.2461
   41TMC2    O5  638   4.143   1.261  13.507 -0.5467 -0.3989  0.1961
   41TMC2    H5  639   4.143   1.359  13.510  0.0365 -0.3718 -0.6049
   42MPD2     C  640   3.600   1.470  14.164 -0.7112  0.1346 -0.0606
   42MPD2    C1  641   3.617   1.567  14.069  0.3637  0.4758 -0.0017
   42MPD2    C2  642   3.560   1.694  14.100  0.6969  0.5428 -0.3737
   42MPD2    C3  643   3.505   1.731  14.223  0.6295  0.0194  0.6266
   42MPD2    C4  644   3.515   1.631  14.322  0.4436  0.1887  0.2641
   42MPD2    C5  645   3.545   1.505  14.288 -0.7311 -0.6719  0.4094
   42MPD2     H  646   3.571   1.769  14.022 -0.9932  1.2347  0.0404
   42MPD2    H1  647   3.483   1.654  14.423 -2.0503 -2.2071  0.0193
   42MPD2    H2  648   3.629   1.366  14.152 -0.4614  0.3153 -1.0521
   42MPD2    H3  649   3.539   1.426  14.362 -1.8121  2.1710  3.3490
   42MPD2     N  650   3.445   1.854  14.250  0.2029  0.2282  0.0190
   42MPD2    H5  651   3.427   1.876  14.347 -1.3829  1.2972 -0.5163
   42MPD2    N1  652   3.673   1.547  13.943 -0.3346  0.2844  0.1466
   42MPD2    H7  653   3.671   1.627  13.882  1.5173 -0.5723 -1.0164
   43MPD2     C  654   0.223   4.359   1.443 -0.6073  0.1192 -0.4594
   43MPD2    C1  655   0.105   4.331   1.380 -0.5295 -0.0534  0.1395
   43MPD2    C2  656   4.717   4.406   1.404  0.0246 -0.4747  0.0936
   43MPD2    C3  657   4.720   4.497   1.511 -0.1715 -0.3057 -0.0504
   43MPD2    C4  658   0.109   4.506   1.588 -0.0372 -0.4389  0.9731
   43MPD2    C5  659   0.219   4.435   1.553  0.3425 -0.1157 -0.4206
   43MPD2     H  660   4.621   4.390   1.355 -0.5583 -1.2661  1.4826
   43MPD2    H1  661   0.127   4.586   1.659 -2.0479 -0.3449  1.3727
   43MPD2    H2  662   0.313   4.304   1.418  0.3078  0.3747  2.2694
   43MPD2    H3  663   0.312   4.455   1.606  0.1228  2.4687 -0.9995
   43MPD2     N  664   4.611   4.583   1.548  0.0832 -0.1626  0.3936
   43MPD2    H5  665   4.623   4.633   1.635  0.3054  4.3295 -2.2039
   43MPD2    N1  666   0.095   4.244   1.272  0.2805 -0.3528  0.1113
   43MPD2    H7  667   0.008   4.238   1.220 -0.1559 -1.9102  1.0049
   44TCq2    C1  668   4.378   0.150   1.849  0.2375  0.0325 -0.0778
   44TCq2    O2  669   4.460   0.081   1.912 -0.2005 -0.2299  0.2655
   44TCq2    C2  670   4.365   0.124   1.708 -0.6666 -0.4441  0.5091
   44TCq2    C3  671   4.289   0.205   1.626 -0.4150 -0.0971 -0.4897
   44TCq2    C4  672   4.278   0.172   1.497 -0.3586 -0.0138 -0.1571
   44TCq2    C5  673   4.339   0.060   1.446  0.1554 -0.1557 -0.0998
   44TCq2    C6  674   4.416   4.706   1.530  0.7560 -0.2241  0.3527
   44TCq2    C7  675   4.428   0.007   1.663  0.2857  0.1490 -0.7250
   44TCq2    C8  676   4.499   4.601   1.474  0.8765  0.0826 -0.1318
   44TCq2    O4  677   4.468   4.554   1.366 -0.0918 -0.3298  0.4078
   44TCq2    C9  678   4.213   0.266   1.406  0.3584 -0.2565  0.7502
   44TCq2    O5  679   4.166   0.372   1.451 -0.5742  0.6517  0.3147
   44TCq2    O6  680   4.211   0.236   1.285 -0.1785 -0.9446 -0.2166
   44TCq2    H2  681   4.248   0.300   1.658  2.7554  0.4147  2.1098
   44TCq2    H3  682   4.326   0.040   1.340 -0.8147  0.4474 -0.0951
   44TCq2    H4  683   4.467   4.661   1.737 -2.6850 -1.4512 -0.6470
   45TMC2    C1  684   0.822   0.983   9.686  0.0336  0.0827  0.1422
   45TMC2    C2  685   0.931   0.901   9.719 -0.0167  0.5610 -0.6302
   45TMC2    C3  686   1.037   0.966   9.759 -0.1078  0.4333 -0.2040
   45TMC2    C4  687   0.830   1.121   9.683 -0.1641 -0.5149 -0.0500
   45TMC2    C5  688   0.949   1.174   9.730 -0.1187  0.7362 -0.3609
   45TMC2    C6  689   1.054   1.097   9.773  0.4505  0.3026 -0.2724
   45TMC2     C  690   0.692   0.920   9.660 -0.2653  0.2122  0.8977
   45TMC2     O  691   0.696   0.796   9.656 -0.2356  0.9149  0.3969
   45TMC2     H  692   0.916   0.795   9.735 -0.2782  0.8912  1.2724
   45TMC2    H1  693   0.756   1.189   9.642  0.7825  0.3343 -0.3332
   45TMC2    H2  694   1.150   1.142   9.794  0.1075  0.8484  0.1352
   45TMC2    C7  695   0.980   1.300   9.684 -0.2436 -0.3004 -0.3177
   45TMC2    C8  696   1.155   0.888   9.766  0.9269 -0.5470  0.5651
   45TMC2    O1  697   0.962   1.328   9.567 -0.1927 -0.1186  0.8920
   45TMC2    O2  698   1.252   0.925   9.829  0.1442 -0.1724  0.8678
   45TMC2    O5  699   1.161   0.808   9.659  0.2390 -0.4429  0.3985
   45TMC2    H5  700   1.093   0.804   9.588 -0.6391  2.5173  1.0558
   46MPD2     C  701   0.412   0.831   9.614  0.1155 -0.5552  0.1293
   46MPD2    C1  702   0.454   0.960   9.609 -0.7394 -0.4314 -0.1197
   46MPD2    C2  703   0.360   1.058   9.590 -0.3278  0.1196  0.3699
   46MPD2    C3  704   0.230   1.025   9.555 -0.0542  0.2678 -0.1382
   46MPD2    C4  705   0.193   0.892   9.565 -0.3308  0.1957 -0.5422
   46MPD2    C5  706   0.281   0.794   9.596 -0.7813 -0.0633  0.4232
   46MPD2     H  707   0.394   1.160   9.580  1.0529 -0.2997  0.7670
   46MPD2    H1  708   0.096   0.850   9.540 -0.9500  1.8675 -0.9364
   46MPD2    H2  709   0.478   0.749   9.638  1.3179 -0.0474 -1.4712
   46MPD2    H3  710   0.250   0.692   9.612 -2.5962  1.1307  4.8191
   46MPD2     N  711   0.148   1.131   9.504  0.5054  0.3592  0.2542
   46MPD2    H5  712   0.182   1.225   9.489  1.8755 -0.2801 -0.6472
   46MPD2    N1  713   0.592   1.009   9.630 -0.4885 -0.5279  0.5305
   46MPD2    H7  714   0.602   1.109   9.643  0.5449 -0.4344 -1.0262
   47TMC2    C1  715   2.191   0.919   9.730 -0.1506  0.3656  0.4098
   47TMC2    C2  716   2.306   0.864   9.789 -0.0863  0.3312  0.7026
   47TMC2    C3  717   2.310   0.727   9.789 -0.1490 -0.1164  0.8061
   47TMC2    C4  718   2.079   0.850   9.705  0.1294 -0.5457  0.2837
   47TMC2    C5  719   2.095   0.720   9.698 -0.9086  0.4246  0.2988
   47TMC2    C6  720   2.203   0.654   9.741  0.3273 -0.0742 -0.4228
   47TMC2     C  721   2.169   1.061   9.716  0.5608  0.3358 -0.6427
   47TMC2     O  722   2.055   1.097   9.688  0.3950 -1.0037  0.2845
   47TMC2     H  723   2.384   0.921   9.838 -0.6260  1.7579 -0.0915
   47TMC2    H1  724   1.977   0.885   9.698  0.6070  0.8722  0.4372
   47TMC2    H2  725   2.210   0.548   9.718 -0.7872 -0.4081  0.7683
   47TMC2    C7  726   1.999   0.646   9.628 -0.7385 -0.1116 -0.3195
   47TMC2    C8  727   2.435   0.658   9.834 -0.0229  0.6753 -0.4547
   47TMC2    O1  728   1.978   0.533   9.668 -0.9818  0.6493 -0.3011
   47TMC2    O2  729   2.540   0.700   9.783  0.2798  0.1397  0.2727
   47TMC2    O5  730   2.419   0.528   9.857 -0.3204 -0.2540  0.3790
   47TMC2    H5  731   2.339   0.512   9.911 -0.4118  0.2880  0.4113
   48MPD2     C  732   2.188   1.367   9.736  0.6418 -0.1055  0.1498
   48MPD2    C1  733   2.289   1.277   9.738 -0.1585  0.2492  0.3635
   48MPD2    C2  734   2.415   1.333   9.767 -0.3190  0.4628 -0.4015
   48MPD2    C3  735   2.429   1.472   9.785 -0.1487 -0.6170  0.6403
   48MPD2    C4  736   2.314   1.552   9.777  0.2744  0.0728 -0.2902
   48MPD2    C5  737   2.194   1.493   9.754 -0.0817 -0.0814 -0.9333
   48MPD2     H  738   2.512   1.287   9.760 -0.7041 -0.5433  0.9875
   48MPD2    H1  739   2.318   1.660   9.779 -2.7717  0.1452  2.7868
   48MPD2    H2  740   2.085   1.339   9.713  0.2580 -0.4471  2.3208
   48MPD2    H3  741   2.106   1.556   9.748  0.4724  1.1511  3.5814
   48MPD2     N  742   2.557   1.522   9.800  0.1722 -0.2541  0.0976
   48MPD2    H5  743   2.632   1.462   9.767 -0.5296 -1.5772  0.8940
   48MPD2    N1  744   2.285   1.137   9.721 -0.8792 -0.3810  0.5813
   48MPD2    H7  745   2.366   1.080   9.745 -1.3610 -0.4807  1.9923
   49MPD2     C  746   0.886   4.461   9.960 -0.4006 -0.7050 -0.1445
   49MPD2    C1  747   0.848   4.568  10.032 -0.9383 -0.4223  0.6363
   49MPD2    C2  748   0.838   4.560  10.169  0.2702 -0.2531 -0.4826
   49MPD2    C3  749   0.855   4.438  10.234 -0.1455 -0.0506  0.3320
   49MPD2    C4  750   0.899   4.329  10.162 -0.2935  0.9480 -0.1919
   49MPD2    C5  751   0.914   4.340  10.023  0.9190  0.0466  0.5328
   49MPD2     H  752   0.806   4.643  10.231 -0.1944 -1.3275  0.7350
   49MPD2    H1  753   0.912   4.231  10.207 -1.2259  1.0942  0.4059
   49MPD2    H2  754   0.895   4.462   9.852  0.7740 -2.1189 -0.0708
   49MPD2    H3  755   0.932   4.252   9.963  1.0259 -0.7190  1.6926
   49MPD2     N  756   0.844   4.414  10.373 -0.1025  0.1723  0.1854
   49MPD2    H5  757   0.862   4.319  10.403 -0.8526  0.0051  0.1201
   49MPD2    N1  758   0.802   4.690   9.967  0.0508 -0.3291  0.1404
   49MPD2    H7  759   0.757   0.036  10.027  0.3294 -1.2298  1.3624
   50TCq2    C1  760   0.805   4.711   9.830 -0.9932 -0.1388 -0.0898
   50TCq2    O2  761   0.879   4.661   9.749 -0.4484  0.2867  0.0591
   50TCq2    C2  762   0.719   0.103   9.795  0.3160 -0.3339  0.2712
   50TCq2    C3  763   0.731   0.139   9.665 -0.3781 -0.8152 -0.0795
   50TCq2    C4  764   0.637   0.209   9.601  0.7841 -0.0494  0.1575
   50TCq2    C5  765   0.515   0.229   9.669 -0.2748 -0.2675  0.3858
   50TCq2    C6  766   0.498   0.179   9.795 -0.3215 -0.0888  0.0496
   50TCq2    C7  767   0.602   0.126   9.863  0.2366  0.4910 -0.6813
   50TCq2    C8  768   0.361   0.145   9.831 -0.7315  0.1423 -1.0078
   50TCq2    O4  769   0.278   0.228   9.809  0.6570 -0.2411  0.1517
   50TCq2    C9  770   0.659   0.250   9.463 -0.1584  0.0217 -0.7125
   50TCq2    O5  771   0.779   0.236   9.425 -0.5653 -0.3671 -0.0767
   50TCq2    O6  772   0.568   0.307   9.394  0.5496  0.2657 -0.5123
   50TCq2    H2  773   0.825   0.117   9.615 -1.4368  0.6769 -2.7311
   50TCq2    H3  774   0.433   0.277   9.619 -0.1859  0.7492  1.2090
   50TCq2    H4  775   0.575   0.072   9.953 -1.4411 -0.3778 -1.7158
   51MPD2     C  776   1.795   2.794   1.610  0.4476  1.2041  0.6512
   51MPD2    C1  777   1.842   2.712   1.713  0.6370 -0.2878  0.1192
   51MPD2    C2  778   1.907   2.769   1.826 -1.1157 -0.0831  0.2660
   51MPD2    C3  779   1.920   2.902   1.849  0.9845 -0.3519  0.4196
   51MPD2    C4  780   1.863   2.976   1.750  0.3746 -0.0348  0.3007
   51MPD2    C5  781   1.806   2.927   1.635  0.6354 -0.4928 -0.6476
   51MPD2     H  782   1.939   2.701   1.904  0.2682 -1.2728 -1.3413
   51MPD2    H1  783   1.871   3.084   1.759 -0.1312  0.0066  0.2614
   51MPD2    H2  784   1.743   2.767   1.519 -0.8333  0.7203  1.5294
   51MPD2    H3  785   1.789   3.002   1.559  1.3050 -2.0244 -2.2877
   51MPD2     N  786   1.988   2.965   1.956  0.5975 -0.6052  0.0927
   51MPD2    H5  787   2.001   3.066   1.951  0.2922 -0.4796  1.9114
   51MPD2    N1  788   1.855   2.566   1.703  0.0792  0.3054  0.4951
   51MPD2    H7  789   1.917   2.519   1.769  0.1725 -0.7367 -0.3238
   52TCq2    C1  790   2.039   2.891   2.063 -0.0083 -0.0025  0.0148
   52TCq2    O2  791   2.019   2.778   2.092 -0.2894  0.1553  0.8883
   52TCq2    C2  792   2.107   2.974   2.151  0.0223 -0.5031 -0.0652
   52TCq2    C3  793   2.120   2.927   2.277  0.6115 -0.3400  0.2363
   52TCq2    C4  794   2.192   3.000   2.373 -0.3225 -0.1218  0.3271
   52TCq2    C5  795   2.249   3.120   2.342  0.1213  0.8570 -0.3307
   52TCq2    C6  796   2.229   3.165   2.213  0.2621 -0.5331  0.5638
   52TCq2    C7  797   2.168   3.091   2.113 -0.0627 -0.2580  0.4504
   52TCq2    C8  798   2.282   3.296   2.181 -0.1932  0.3479  0.3065
   52TCq2    O4  799   2.367   3.335   2.259  0.3846  0.3258  0.2863
   52TCq2    C9  800   2.222   2.936   2.503  0.5116  0.1817  0.5103
   52TCq2    O5  801   2.284   3.006   2.583  0.1874 -0.1916 -0.3001
   52TCq2    O6  802   2.195   2.809   2.509 -0.7366  0.1756  0.3517
   52TCq2    H2  803   2.069   2.837   2.309 -3.0136  1.9940  1.0937
   52TCq2    H3  804   2.304   3.169   2.421 -0.1850 -0.1702  0.5270
   52TCq2    H4  805   2.173   3.131   2.013 -2.5465  1.0759  0.8592
   53TMC2    C1  806   1.653   2.956  11.709  0.7816 -1.2209 -0.1300
   53TMC2    C2  807   1.787   2.997  11.725 -0.6161 -0.6682  0.3166
   53TMC2    C3  808   1.844   2.949  11.840  0.1292  0.1720  0.0494
   53TMC2    C4  809   1.589   2.876  11.792 -0.3285 -0.5059  0.2979
   53TMC2    C5  810   1.670   2.818  11.888 -0.1113 -0.2031  0.4808
   53TMC2    C6  811   1.791   2.859  11.925  0.2477 -0.0720  0.6094
   53TMC2     C  812   1.588   3.006  11.587 -0.1873  0.8186  0.8245
   53TMC2     O  813   1.664   3.052  11.501 -0.1217  0.5457 -0.2441
   53TMC2     H  814   1.836   3.060  11.651 -2.0490  0.3030  0.2010
   53TMC2    H1  815   1.493   2.839  11.758 -2.2245  2.6126  2.2252
   53TMC2    H2  816   1.844   2.805  12.002  2.2578 -1.3313 -1.6724
   53TMC2    C7  817   1.598   2.727  11.976  0.1190 -0.3592 -0.5201
   53TMC2    C8  818   1.982   2.997  11.855 -0.1074  0.8688  0.3736
   53TMC2    O1  819   1.475   2.735  11.989 -0.2028 -0.2158 -0.1628
   53TMC2    O2  820   2.021   3.106  11.816 -0.5267  0.0990  0.1676
   53TMC2    O5  821   2.051   2.889  11.892 -0.0487 -0.2834 -0.4626
   53TMC2    H5  822   2.002   2.804  11.890 -0.9198  0.1995  0.2433
   54MPD2     C  823   1.422   3.044  11.341 -0.3590 -0.5223  0.4780
   54MPD2    C1  824   1.373   2.985  11.455 -1.6432 -0.2044 -0.0710
   54MPD2    C2  825   1.281   2.885  11.439  0.0318 -0.0499 -0.2844
   54MPD2    C3  826   1.220   2.857  11.320  0.5018  0.4565  0.2306
   54MPD2    C4  827   1.267   2.919  11.210  0.5305 -0.1717  0.7621
   54MPD2    C5  828   1.359   3.023  11.222  0.1474  0.2166  0.0758
   54MPD2     H  829   1.272   2.830  11.532 -3.9276  1.5796  0.2701
   54MPD2    H1  830   1.234   2.905  11.108  0.0482  1.0926  0.7456
   54MPD2    H2  831   1.500   3.119  11.332  0.3050 -1.4034 -1.0996
   54MPD2    H3  832   1.392   3.073  11.132  0.9228 -3.1151 -1.5006
   54MPD2     N  833   1.137   2.753  11.301  0.2212  0.2256 -0.4600
   54MPD2    H5  834   1.119   2.721  11.207  1.0605  1.6368 -1.1055
   54MPD2    N1  835   1.448   2.988  11.580 -0.6863  0.6020 -0.0408
   54MPD2    H7  836   1.411   2.962  11.671  0.7511  1.6887  0.8661
   55MPD2     C  837   2.845   3.696  17.547 -0.7087  0.0792 -0.1459
   55MPD2    C1  838   2.817   3.644  17.670 -1.1349  0.5887  0.5727
   55MPD2    C2  839   2.686   3.635   0.018  0.4023 -0.2273 -0.3118
   55MPD2    C3  840   2.583   3.677  17.627 -0.1055  0.0702  0.1833
   55MPD2    C4  841   2.609   3.714  17.496  0.0441  0.2057 -0.3907
   55MPD2    C5  842   2.742   3.718  17.461 -0.3228 -0.3580 -0.1131
   55MPD2     H  843   2.653   3.583   0.107 -2.6639 -0.9210 -1.8580
   55MPD2    H1  844   2.530   3.732  17.423  0.2391  1.1259 -0.3790
   55MPD2    H2  845   2.946   3.711  17.508 -0.4837 -0.1315  0.3567
   55MPD2    H3  846   2.754   3.736  17.354 -1.5780  0.2788 -0.1474
   55MPD2     N  847   2.451   3.682  17.685 -0.3869 -0.5015  0.2422
   55MPD2    H5  848   2.448   3.678   0.096  1.7078 -0.4109  0.3270
   55MPD2    N1  849   2.924   3.612   0.069  0.3088  0.1067 -0.0620
   55MPD2    H7  850   3.018   3.620   0.030  0.1930 -1.7121 -0.6916
   56TCq2    C1  851   2.916   3.591   0.201 -0.4380 -0.1726  0.0259
   56TCq2    O2  852   2.819   3.580   0.273  0.2282  0.5399  0.2125
   56TCq2    C2  853   3.046   3.569   0.264 -0.2663  0.8278  0.6372
   56TCq2    C3  854   3.142   3.488   0.214 -0.4181  0.7329 -0.0089
   56TCq2    C4  855   3.247   3.446   0.285  0.2812 -0.0142  0.1801
   56TCq2    C5  856   3.256   3.470   0.421 -0.0676  0.8856 -0.2512
   56TCq2    C6  857   3.149   3.544   0.472 -0.3624  0.2104  0.3987
   56TCq2    C7  858   3.051   3.598   0.394  0.4182 -0.0746  0.4439
   56TCq2    C8  859   3.134   3.542   0.615  0.0300  0.7104  0.0612
   56TCq2    O4  860   3.199   3.467   0.693 -0.8295  0.5631  0.2922
   56TCq2    C9  861   3.346   3.365   0.216  0.5021 -0.2831  0.0117
   56TCq2    O5  862   3.317   3.323   0.100  0.1748  0.5073 -0.3267
   56TCq2    O6  863   3.463   3.379   0.260  0.2391  0.4108  0.4333
   56TCq2    H2  864   3.144   3.457   0.110  0.6324 -0.0700  0.2521
   56TCq2    H3  865   3.343   3.450   0.482  0.1009  0.5150 -0.6181
   56TCq2    H4  866   2.965   3.643   0.442  1.3784  0.9318  1.2375
   57TMC2    C1  867   2.072   0.152  13.973 -0.7280 -0.8168 -1.0895
   57TMC2    C2  868   2.119   0.091  14.083 -0.2295  0.0727  0.2100
   57TMC2    C3  869   2.212   4.715  14.067  0.2926  0.0815 -0.3346
   57TMC2    C4  870   2.096   0.110  13.843 -1.0617  0.0736 -0.5297
   57TMC2    C5  871   2.199   0.017  13.829 -0.0109  0.1891 -0.0561
   57TMC2    C6  872   2.254   4.684  13.937 -0.1890 -0.0744 -0.8168
   57TMC2     C  873   1.964   0.244  14.001 -0.1030  0.6017  0.3243
   57TMC2     O  874   1.949   0.285  14.113 -0.4412 -0.1350 -1.1167
   57TMC2     H  875   2.101   0.140  14.178 -0.7887 -0.5736  0.4336
   57TMC2    H1  876   2.048   0.161  13.760 -1.3989 -1.3864 -1.2295
   57TMC2    H2  877   2.315   4.594  13.932 -0.1153 -0.0656 -0.1177
   57TMC2    C7  878   2.233   4.700  13.705  0.5074 -0.4014 -0.5014
   57TMC2    C8  879   2.276   4.667  14.184  0.2137  0.4564 -0.8032
   57TMC2    O1  880   2.315   4.611  13.708  0.4861 -0.5085 -0.0892
   57TMC2    O2  881   2.233   4.708  14.289  0.7254 -0.0073 -0.4812
   57TMC2    O5  882   2.411   4.667  14.148  0.0451  0.1288  0.1145
   57TMC2    H5  883   2.421   4.597  14.080 -0.2700  0.9257 -0.7463
   58MPD2     C  884   1.477   0.379  13.912 -0.1581 -0.2545 -0.0828
   58MPD2    C1  885   1.564   0.420  14.012 -0.8327  0.4088  0.4791
   58MPD2    C2  886   1.699   0.379  14.010 -0.5711 -0.0402 -0.7209
   58MPD2    C3  887   1.739   0.294  13.916  0.7338 -0.0661  0.3420
   58MPD2    C4  888   1.650   0.251  13.814  0.0609  0.2189  0.6454
   58MPD2    C5  889   1.523   0.288  13.819  0.0976 -0.4819 -0.1416
   58MPD2     H  890   1.757   0.412  14.095  0.0173 -0.5706 -0.9165
   58MPD2    H1  891   1.676   0.188  13.729 -0.1149  0.7117  0.2255
   58MPD2    H2  892   1.371   0.402  13.910 -0.0084  0.3871 -0.4403
   58MPD2    H3  893   1.466   0.258  13.732  0.9589  0.2953 -0.9763
   58MPD2     N  894   1.866   0.240  13.908  0.1374  0.7496  0.0467
   58MPD2    H5  895   1.882   0.186  13.823  1.1231 -0.0818  0.7634
   58MPD2    N1  896   1.528   0.512  14.111 -0.2798  0.2305  0.0152
   58MPD2    H7  897   1.598   0.538  14.180 -1.1221  2.2144  0.1405
   59MPD2     C  898   4.386   0.328  13.332 -0.3351  0.3497 -0.2599
   59MPD2    C1  899   4.394   0.447  13.265 -0.4944  0.0184  0.2207
   59MPD2    C2  900   4.458   0.556  13.325  0.3340  0.0905 -0.1400
   59MPD2    C3  901   4.498   0.552  13.462 -0.2868  0.1749  0.1434
   59MPD2    C4  902   4.456   0.442  13.533  0.0103  0.4981 -0.3432
   59MPD2    C5  903   4.414   0.325  13.467 -0.7111  0.3810  0.8489
   59MPD2     H  904   4.476   0.647  13.270 -0.0726  0.1555 -0.1667
   59MPD2    H1  905   4.486   0.437  13.637 -2.2387 -0.5276  0.2654
   59MPD2    H2  906   4.338   0.240  13.291  1.1825 -0.1281 -1.0166
   59MPD2    H3  907   4.405   0.234  13.526 -1.9606  1.8413  2.8777
   59MPD2     N  908   4.579   0.645  13.532  0.5321 -0.2594 -0.3995
   59MPD2    H5  909   4.596   0.635  13.632 -0.5839  2.6687  0.0643
   59MPD2    N1  910   4.336   0.464  13.133  0.6809 -0.6177  0.2218
   59MPD2    H7  911   4.342   0.557  13.092  0.8243 -1.2057 -1.0748
   60TCq2    C1  912   4.291   0.369  13.046 -0.0790  0.7156  0.4506
   60TCq2    O2  913   4.247   0.254  13.065 -0.2220  0.2771 -0.3929
   60TCq2    C2  914   4.244   0.436  12.927 -0.6289 -0.0030  0.0757
   60TCq2    C3  915   4.122   0.402  12.889 -0.5432 -0.7502 -0.0424
   60TCq2    C4  916   4.064   0.482  12.788 -0.1291 -0.2369  0.3364
   60TCq2    C5  917   4.127   0.600  12.749 -0.3429 -0.4332 -0.7554
   60TCq2    C6  918   4.253   0.632  12.802  0.5089 -0.5295 -0.1713
   60TCq2    C7  919   4.310   0.548  12.888  0.0795  0.1705 -0.1262
   60TCq2    C8  920   4.342   0.739  12.756 -0.6618  0.6094  0.2725
   60TCq2    O4  921   4.461   0.733  12.791  0.3183 -0.1375 -0.2568
   60TCq2    C9  922   3.938   0.452  12.726 -0.1260 -0.0834  0.6694
   60TCq2    O5  923   3.893   0.332  12.733 -0.0663  0.5979 -0.0843
   60TCq2    O6  924   3.890   0.543  12.654 -0.0540 -0.0100 -0.1744
   60TCq2    H2  925   4.075   0.313  12.931  1.8483 -2.3049 -0.6543
   60TCq2    H3  926   4.090   0.665  12.671 -2.3365 -0.7987 -0.1151
   60TCq2    H4  927   4.413   0.554  12.922  0.0859 -0.8254  0.0367
   61MPD2     C  928   3.782   1.797  14.524 -0.2276 -0.1591 -0.4627
   61MPD2    C1  929   3.848   1.887  14.616 -0.7207  0.3180 -0.3778
   61MPD2    C2  930   3.948   1.962  14.562 -0.7897  0.1730 -0.3419
   61MPD2    C3  931   3.990   1.948  14.428 -1.0241 -0.6554  0.8033
   61MPD2    C4  932   3.918   1.872  14.339 -0.9984 -0.4890 -0.4136
   61MPD2    C5  933   3.808   1.810  14.392 -0.6420 -0.3341  0.3219
   61MPD2     H  934   4.002   2.032  14.625  2.1296 -1.4743 -1.0212
   61MPD2    H1  935   3.941   1.865  14.233  2.4778  1.0266  0.2392
   61MPD2    H2  936   3.699   1.731  14.545 -0.2754  0.2685  0.7042
   61MPD2    H3  937   3.755   1.743  14.325 -1.3273 -1.3683  1.9056
   61MPD2     N  938   4.091   2.027  14.376 -0.0762 -0.2702 -0.1429
   61MPD2    H5  939   4.096   2.027  14.274 -2.8242  0.9574 -0.2700
   61MPD2    N1  940   3.806   1.925  14.745  0.3749  0.1414  0.0359
   61MPD2    H7  941   3.831   2.017  14.780 -3.5721  1.3575 -0.2871
   62TCq2    C1  942   3.732   1.844  14.819 -0.1566  0.2015 -0.3391
   62TCq2    O2  943   3.726   1.724  14.801  0.2414  0.0715 -0.1806
   62TCq2    C2  944   3.692   1.900  14.948 -0.3300  0.5367 -0.1170
   62TCq2    C3  945   3.642   1.806  15.037  0.2023 -0.0027 -0.5030
   62TCq2    C4  946   3.585   1.852  15.147 -0.0336 -0.6015 -0.0833
   62TCq2    C5  947   3.586   1.984  15.182  0.0135 -0.3157 -0.0256
   62TCq2    C6  948   3.639   2.073  15.090  0.9448  0.3466 -0.6770
   62TCq2    C7  949   3.680   2.030  14.967 -0.3115 -0.2446  0.6564
   62TCq2    C8  950   3.666   2.204  15.143  0.1747 -0.1125  0.6282
   62TCq2    O4  951   3.649   2.296  15.058  0.2275  0.3734  0.6420
   62TCq2    C9  952   3.538   1.760  15.245  0.2241  0.2194 -0.5123
   62TCq2    O5  953   3.507   1.805  15.357  0.1811 -0.3099 -0.3898
   62TCq2    O6  954   3.549   1.642  15.204  0.7200  0.2173  0.4570
   62TCq2    H2  955   3.639   1.701  15.010  0.3981  0.5151 -2.5497
   62TCq2    H3  956   3.542   2.009  15.277 -0.4222  0.4667 -0.4297
   62TCq2    H4  957   3.700   2.101  14.887 -0.5309 -1.4830 -0.4927
   63TMC2    C1  958   2.721   2.068  10.682  0.5138  0.4029 -0.8224
   63TMC2    C2  959   2.764   1.960  10.613 -0.2474  0.8184 -0.1311
   63TMC2    C3  960   2.812   1.987  10.485 -0.1379 -0.3095 -0.9059
   63TMC2    C4  961   2.716   2.200  10.631 -0.4917 -0.2892 -0.6165
   63TMC2    C5  962   2.762   2.223  10.502  1.0349 -0.1061  0.2380
   63TMC2    C6  963   2.820   2.117  10.428  0.6314  0.0529 -0.2909
   63TMC2     C  964   2.651   2.041  10.802  0.4221  0.3558  0.2120
   63TMC2     O  965   2.655   2.131  10.882 -0.5488  0.4721  0.0017
   63TMC2     H  966   2.772   1.858  10.650 -0.6668  1.1768  0.9100
   63TMC2    H1  967   2.696   2.286  10.692  1.6700  0.1521 -0.5282
   63TMC2    H2  968   2.865   2.111  10.329 -2.5411  0.6717 -1.7801
   63TMC2    C7  969   2.720   2.354  10.457 -0.2181  0.4780 -0.1496
   63TMC2    C8  970   2.869   1.876  10.423 -0.1709  0.3728 -0.1766
   63TMC2    O1  971   2.630   2.406  10.518  0.3141 -0.0519 -0.6464
   63TMC2    O2  972   2.795   1.798  10.360  0.0159  0.0384 -0.4943
   63TMC2    O5  973   2.971   1.840  10.499  0.1424 -0.0189  0.1665
   63TMC2    H5  974   3.010   1.919  10.542 -0.3324 -0.6601  1.7818
   64MPD2     C  975   2.348   1.782  11.113  0.1157  0.1896 -0.0041
   64MPD2    C1  976   2.384   1.697  11.013 -0.2850  0.4872  0.5359
   64MPD2    C2  977   2.445   1.750  10.902 -0.4177 -0.7491  0.2066
   64MPD2    C3  978   2.503   1.880  10.914 -0.4029 -0.4313  0.2394
   64MPD2    C4  979   2.487   1.952  11.029  0.0560  0.0599 -0.1477
   64MPD2    C5  980   2.404   1.905  11.132  0.6592  0.1651 -0.8096
   64MPD2     H  981   2.465   1.700  10.808  2.4602  1.9446 -0.6192
   64MPD2    H1  982   2.532   2.050  11.039  1.0067 -0.5522  1.5074
   64MPD2    H2  983   2.277   1.747  11.187  1.5685 -0.9349  0.8473
   64MPD2    H3  984   2.381   1.951  11.227 -0.3420 -3.0859  0.5165
   64MPD2     N  985   2.585   1.923  10.803 -0.5127 -0.1567 -0.2846
   64MPD2    H5  986   2.594   1.860  10.724  0.2645 -1.1959  0.6424
   64MPD2    N1  987   2.368   1.559  11.028 -0.1110  0.0591  0.7181
   64MPD2    H7  988   2.397   1.504  10.948  0.6058  0.2353  0.8514
   65MPD2     C  989   4.366   1.601  16.290  0.8183  0.3848 -0.5034
   65MPD2    C1  990   4.347   1.621  16.163 -0.2703 -1.4209 -0.1658
   65MPD2    C2  991   4.290   1.521  16.090 -1.0243  0.2587  0.0414
   65MPD2    C3  992   4.247   1.402  16.142 -0.7124  0.2250 -0.6457
   65MPD2    C4  993   4.282   1.384  16.275 -0.7706 -0.1629 -0.1985
   65MPD2    C5  994   4.335   1.486  16.349 -1.1106  0.0631 -0.2125
   65MPD2     H  995   4.260   1.550  15.990 -2.6294  0.8473  0.6893
   65MPD2    H1  996   4.261   1.290  16.324  1.4162  1.8290  4.6082
   65MPD2    H2  997   4.406   1.679  16.354  3.7204 -1.5041  0.0083
   65MPD2    H3  998   4.357   1.488  16.456  0.2053  1.3775 -0.5070
   65MPD2     N  999   4.178   1.302  16.071 -0.3992 -0.8035 -0.3371
   65MPD2    H5 1000   4.162   1.211  16.112  1.1129 -0.0874  1.8407
   65MPD2    N1 1001   4.377   1.733  16.092  0.1837  0.1319  0.1857
   65MPD2    H7 1002   4.358   1.733  15.992  1.4896 -0.0510 -0.0572
   66TCq2    C1 1003   4.420   1.860  16.138 -0.0301 -0.2926 -0.2963
   66TCq2    O2 1004   4.445   1.896  16.253  0.3305 -0.0290 -0.0844
   66TCq2    C2 1005   4.443   1.958  16.031 -0.1133 -0.3945 -0.6600
   66TCq2    C3 1006   4.409   1.923  15.900 -0.0193 -0.5915 -0.3071
   66TCq2    C4 1007   4.443   2.012  15.794 -0.6279 -0.0886 -0.2322
   66TCq2    C5 1008   4.485   2.136  15.822  0.2494 -0.5839  0.2131
   66TCq2    C6 1009   4.514   2.168  15.950  0.5585  0.3096 -0.5520
   66TCq2    C7 1010   4.495   2.081  16.054 -0.2976 -0.3716  0.6291
   66TCq2    C8 1011   4.528   2.310  15.972 -0.3772  0.5572  0.6678
   66TCq2    O4 1012   4.579   2.372  15.884 -0.2954  0.0959  0.1020
   66TCq2    C9 1013   4.422   1.961  15.661  0.1501 -0.3749 -0.0574
   66TCq2    O5 1014   4.515   1.978  15.579 -0.0768 -0.2036 -0.1257
   66TCq2    O6 1015   4.320   1.888  15.645  0.2804  0.1301  0.2115
   66TCq2    H2 1016   4.365   1.831  15.862 -0.0357 -1.3339  1.4932
   66TCq2    H3 1017   4.512   2.206  15.743  1.3859 -0.5157  0.6647
   66TCq2    H4 1018   4.521   2.107  16.156 -1.3925  0.4620  0.7005
   67MPD2     C 1019   3.701   0.844  14.350 -0.3067  0.2271 -0.1530
   67MPD2    C1 1020   3.663   0.961  14.414  0.1151  0.5685  0.2758
   67MPD2    C2 1021   3.568   1.044  14.349 -0.2633  0.2744 -0.0242
   67MPD2    C3 1022   3.505   1.009  14.226  0.4633 -0.0569 -0.0318
   67MPD2    C4 1023   3.544   0.889  14.173  0.2919 -0.2357 -1.0573
   67MPD2    C5 1024   3.643   0.812  14.231 -0.4120 -0.0548  0.3316
   67MPD2     H 1025   3.536   1.134  14.400 -1.8544 -1.1671  1.5318
   67MPD2    H1 1026   3.497   0.843  14.086  1.5205 -2.0343 -0.7876
   67MPD2    H2 1027   3.789   0.785  14.374 -1.8081 -1.2582  1.5918
   67MPD2    H3 1028   3.679   0.716  14.194 -1.5157 -1.0832  1.8871
   67MPD2     N 1029   3.409   1.083  14.153 -1.4082 -0.5110 -0.1933
   67MPD2    H5 1030   3.381   1.051  14.061  0.1426 -0.7973 -0.5611
   67MPD2    N1 1031   3.711   1.006  14.534  0.4958  0.2210 -0.2633
   67MPD2    H7 1032   3.677   1.092  14.576  1.4496 -0.2788  1.5186
   68TCq2    C1 1033   3.829   0.968  14.586 -0.1228  0.5505  0.3047
   68TCq2    O2 1034   3.921   0.909  14.527  0.3076 -0.4033 -0.8407
   68TCq2    C2 1035   3.851   1.015  14.724 -0.0259 -0.0946 -0.0084
   68TCq2    C3 1036   3.743   1.070  14.789  1.0472 -0.0253 -0.9562
   68TCq2    C4 1037   3.784   1.141  14.905 -0.7815 -0.1136 -1.1689
   68TCq2    C5 1038   3.919   1.157  14.941  0.8851  0.0613  0.1873
   68TCq2    C6 1039   4.013   1.089  14.864 -0.1637 -0.7104  0.0921
   68TCq2    C7 1040   3.978   1.008  14.761 -0.2973  0.2358  0.4623
   68TCq2    C8 1041   4.160   1.089  14.897  0.8423 -0.3989  0.1858
   68TCq2    O4 1042   4.229   1.033  14.806  0.0582  0.3385 -0.9332
   68TCq2    C9 1043   3.676   1.212  14.973 -0.1419  0.1441  0.2674
   68TCq2    O5 1044   3.701   1.297  15.065 -0.6492 -0.0739 -0.1792
   68TCq2    O6 1045   3.560   1.180  14.943 -0.9077 -0.4551  0.2459
   68TCq2    H2 1046   3.639   1.062  14.761 -0.0987  1.3196  2.9322
   68TCq2    H3 1047   3.943   1.214  15.029 -2.1434  1.2302  0.2528
   68TCq2    H4 1048   4.043   0.938  14.709 -0.5725  1.6517 -1.7574
   69TMC2    C1 1049   1.507   2.134  12.750  0.3959 -0.9930  0.0451
   69TMC2    C2 1050   1.396   2.220  12.762 -0.4908  0.3972 -0.9507
   69TMC2    C3 1051   1.407   2.347  12.717  0.0723  0.7287  0.9265
   69TMC2    C4 1052   1.632   2.181  12.708 -0.4524 -0.4311  0.2324
   69TMC2    C5 1053   1.635   2.308  12.661 -0.0426  0.2921 -0.1350
   69TMC2    C6 1054   1.524   2.389  12.653 -0.4399 -0.2804  0.9120
   69TMC2     C 1055   1.485   1.997  12.800  0.2187  0.7913  1.0677
   69TMC2     O 1056   1.440   1.978  12.912  0.0375 -0.1034  0.6491
   69TMC2     H 1057   1.300   2.177  12.788  0.3793  0.9117  3.0984
   69TMC2    H1 1058   1.721   2.120  12.713 -1.2809 -1.4309  2.8814
   69TMC2    H2 1059   1.540   2.492  12.625  0.8626 -0.3925  1.2376
   69TMC2    C7 1060   1.755   2.373  12.608  0.1210  0.8592  0.4993
   69TMC2    C8 1061   1.303   2.446  12.730 -0.5169  0.1453  0.2541
   69TMC2    O1 1062   1.741   2.468  12.536  0.2818  0.2238 -0.2976
   69TMC2    O2 1063   1.299   2.549  12.662  0.3327  0.2608 -0.0619
   69TMC2    O5 1064   1.187   2.391  12.789  0.1216 -0.1000 -0.5314
   69TMC2    H5 1065   1.208   2.326  12.860 -0.2000  0.2391 -0.1247
   70MPD2     C 1066   1.590   1.708  12.616  0.6767  0.1573  0.3431
   70MPD2    C1 1067   1.555   1.774  12.731  0.5994 -0.5096  0.1144
   70MPD2    C2 1068   1.520   1.697  12.840  0.3655 -0.1202  0.0115
   70MPD2    C3 1069   1.531   1.557  12.830 -0.4191 -0.0733  0.7087
   70MPD2    C4 1070   1.574   1.497  12.714 -0.3107 -1.0658  0.7662
   70MPD2    C5 1071   1.598   1.570  12.604  0.0219 -0.0604  0.6527
   70MPD2     H 1072   1.492   1.741  12.935  1.1440  0.8878 -0.2315
   70MPD2    H1 1073   1.603   1.393  12.718  2.6535 -0.1833  2.5547
   70MPD2    H2 1074   1.596   1.762  12.522 -1.8387  1.0312  0.6901
   70MPD2    H3 1075   1.645   1.531  12.514  1.3726 -1.4739  1.9506
   70MPD2     N 1076   1.506   1.469  12.941  0.4225  0.6225 -0.9960
   70MPD2    H5 1077   1.518   1.371  12.918  0.7717 -0.0610  2.0676
   70MPD2    N1 1078   1.554   1.913  12.722  0.3093  0.1169 -0.0784
   70MPD2    H7 1079   1.586   1.951  12.634  0.2616  0.6967  0.1518
   71TMC2    C1 1080   0.542   3.189   1.641 -0.1426  0.6671  0.0416
   71TMC2    C2 1081   0.669   3.232   1.659 -0.3016  0.9681  0.8214
   71TMC2    C3 1082   0.730   3.215   1.779 -1.0049 -0.3483 -0.3246
   71TMC2    C4 1083   0.466   3.131   1.743 -0.3010 -0.0409 -0.5178
   71TMC2    C5 1084   0.532   3.112   1.861 -0.0647  0.6727  0.0686
   71TMC2    C6 1085   0.662   3.147   1.879 -0.9326  0.5166  0.0876
   71TMC2     C 1086   0.495   3.167   1.506  0.1821  0.2908  0.2242
   71TMC2     O 1087   0.377   3.145   1.489  0.8016 -0.0850  0.4495
   71TMC2     H 1088   0.729   3.275   1.580  0.3605  0.7279  1.1933
   71TMC2    H1 1089   0.359   3.124   1.733 -0.6511  2.7233  1.3326
   71TMC2    H2 1090   0.716   3.123   1.970 -1.0428  0.5009  0.1484
   71TMC2    C7 1091   0.482   3.003   1.937  0.6058  0.3471 -0.8564
   71TMC2    C8 1092   0.857   3.288   1.804  0.7118  0.0297  0.0349
   71TMC2    O1 1093   0.520   2.999   2.049  0.1091  0.8688  0.0661
   71TMC2    O2 1094   0.860   3.409   1.788  0.5044  0.7484 -0.1160
   71TMC2    O5 1095   0.937   3.215   1.887  0.0894 -0.0329 -0.1408
   71TMC2    H5 1096   0.927   3.119   1.873 -0.4724  0.1429 -0.9302
   72MPD2     C 1097   0.540   3.134   1.006  0.5958 -0.9218  0.3764
   72MPD2    C1 1098   0.433   3.156   1.087 -0.0510 -0.2138 -0.4320
   72MPD2    C2 1099   0.450   3.139   1.220 -0.4759  0.0760  0.2243
   72MPD2    C3 1100   0.574   3.134   1.280  0.7438  0.4046  0.4819
   72MPD2    C4 1101   0.683   3.128   1.193  0.0366 -0.2141  0.4614
   72MPD2    C5 1102   0.665   3.135   1.061  0.2936  0.2007  0.6985
   72MPD2     H 1103   0.358   3.154   1.276 -1.4342 -1.3312 -0.9940
   72MPD2    H1 1104   0.785   3.106   1.219 -0.8971 -3.1285  1.7151
   72MPD2    H2 1105   0.534   3.152   0.900 -0.2585  1.3062  0.7821
   72MPD2    H3 1106   0.745   3.109   0.993  0.4097 -0.3734  1.0551
   72MPD2     N 1107   0.597   3.164   1.416  0.4324 -0.2518 -0.5615
   72MPD2    H5 1108   0.691   3.167   1.454  0.7560 -3.0572 -1.1742
   72MPD2    N1 1109   0.302   3.194   1.041 -0.3828 -0.2370 -0.3292
   72MPD2    H7 1110   0.236   3.221   1.113  0.8093  0.4061  0.5098
   73TMC2    C1 1111   4.074   4.335  13.756 -0.2750  0.2002 -0.3114
   73TMC2    C2 1112   3.956   4.367  13.809 -0.0910 -0.0386  0.1192
   73TMC2    C3 1113   3.916   4.495  13.808 -0.2295 -0.2930 -0.4485
   73TMC2    C4 1114   4.162   4.425  13.709 -0.4460  0.0925 -0.8093
   73TMC2    C5 1115   4.117   4.555  13.698  0.6213  0.7148  0.3114
   73TMC2    C6 1116   3.991   4.587  13.747  0.4891 -0.2081  0.1944
   73TMC2     C 1117   4.059   4.233  13.651 -0.2926  0.3317 -0.0537
   73TMC2     O 1118   4.167   4.206  13.591 -0.2058  0.1222  0.7440
   73TMC2     H 1119   3.903   4.294  13.868 -0.5112 -0.1313 -0.3722
   73TMC2    H1 1120   4.265   4.405  13.682 -0.6925  0.5805 -2.1023
   73TMC2    H2 1121   3.948   4.683  13.725 -1.3176 -1.2249 -0.7139
   73TMC2    C7 1122   4.148   4.609  13.568 -0.2665  0.6807  0.7858
   73TMC2    C8 1123   3.786   4.548  13.860 -1.2236  0.2473  0.1286
   73TMC2    O1 1124   4.123   0.007  13.554 -0.2364  0.1420 -0.6034
   73TMC2    O2 1125   3.757   4.665  13.838 -0.0007  0.0695 -0.1007
   73TMC2    O5 1126   3.741   4.482  13.963 -0.4972  1.1462  0.6793
   73TMC2    H5 1127   3.780   4.392  13.963 -2.1393  0.4460 -3.6400
   74MPD2     C 1128   3.795   3.940  13.322  0.1164 -0.1297 -0.2032
   74MPD2    C1 1129   3.925   3.978  13.324 -0.3432 -0.2781  0.4409
   74MPD2    C2 1130   3.974   4.051  13.430 -0.6852 -0.2098  0.2508
   74MPD2    C3 1131   3.895   4.101  13.533 -0.5066  0.7713  0.3069
   74MPD2    C4 1132   3.772   4.039  13.539 -0.2519 -0.3832  1.2703
   74MPD2    C5 1133   3.729   3.957  13.441  0.3516  0.1711 -0.5747
   74MPD2     H 1134   4.079   4.078  13.436 -0.9127  0.5861  0.7741
   74MPD2    H1 1135   3.706   4.042  13.624 -1.0255  0.9520  0.6204
   74MPD2    H2 1136   3.752   3.878  13.244 -0.7975 -1.0540  1.0420
   74MPD2    H3 1137   3.633   3.909  13.456  0.9743 -1.5909 -2.1814
   74MPD2     N 1138   3.930   4.193  13.633  0.6000 -0.3416  0.3011
   74MPD2    H5 1139   3.857   4.232  13.690 -0.3699  1.2805 -2.0444
   74MPD2    N1 1140   3.996   3.935  13.217  0.0390  0.4288 -0.4647
   74MPD2    H7 1141   3.945   3.907  13.134  0.7303 -0.1027 -0.7184
   75TCq2    C1 1142   3.362   1.208  14.196  0.8344 -0.1201 -0.4494
   75TCq2    O2 1143   3.361   1.257  14.307 -0.5155 -0.1716  0.7154
   75TCq2    C2 1144   3.318   1.305  14.091 -0.0598  0.0511 -0.4568
   75TCq2    C3 1145   3.244   1.415  14.126 -0.1081  0.5568  0.3379
   75TCq2    C4 1146   3.217   1.507  14.030 -0.0907 -0.0112  0.1511
   75TCq2    C5 1147   3.263   1.495  13.901  1.0829 -0.4529  0.4314
   75TCq2    C6 1148   3.339   1.383  13.873 -0.3608  0.0419  0.4730
   75TCq2    C7 1149   3.365   1.288  13.967 -0.2877 -0.2586 -0.2392
   75TCq2    C8 1150   3.400   1.361  13.741  0.3913 -0.2285  0.2978
   75TCq2    O4 1151   3.439   1.248  13.726 -0.2378  0.0338  0.2437
   75TCq2    C9 1152   3.134   1.623  14.058 -0.8074 -0.3870  0.2696
   75TCq2    O5 1153   3.049   1.605  14.150  0.4129 -0.6449  0.1198
   75TCq2    O6 1154   3.132   1.719  13.974  0.0060 -0.7170 -0.3254
   75TCq2    H2 1155   3.213   1.436  14.228 -1.1155  0.3276  0.0791
   75TCq2    H3 1156   3.232   1.568  13.827  1.4428 -1.8901 -1.1282
   75TCq2    H4 1157   3.435   1.206  13.958  0.5805  0.4719 -0.0232
   76MPD2     C 1158   2.792   1.983  12.227  0.2686 -0.3911  0.0268
   76MPD2    C1 1159   2.714   1.961  12.120 -0.4107  0.2415  0.4153
   76MPD2    C2 1160   2.763   1.855  12.044  0.1957  0.1207  0.2710
   76MPD2    C3 1161   2.865   1.772  12.085  0.2612  0.1463  0.0316
   76MPD2    C4 1162   2.945   1.805  12.192 -0.6845 -0.3096 -0.2857
   76MPD2    C5 1163   2.907   1.915  12.261 -0.6903 -0.1723  0.1397
   76MPD2     H 1164   2.715   1.839  11.948  2.0118 -2.7596 -0.1561
   76MPD2    H1 1165   3.018   1.736  12.234 -0.5091  0.6829  1.0361
   76MPD2    H2 1166   2.775   2.066  12.295  0.2801 -1.6011  1.4897
   76MPD2    H3 1167   2.952   1.936  12.357 -0.8788  0.3396  0.1170
   76MPD2     N 1168   2.905   1.664  12.011  0.0950 -0.2514 -0.4028
   76MPD2    H5 1169   3.002   1.639  12.024 -0.1645  0.2256  2.4304
   76MPD2    N1 1170   2.604   2.052  12.079  0.4289  0.5564 -0.5863
   76MPD2    H7 1171   2.545   2.026  12.001  0.1453 -1.1084  0.2023
   77TCq2    C1 1172   2.829   1.594  11.928 -0.5886  0.3357  0.4617
   77TCq2    O2 1173   2.713   1.607  11.886  0.3311  0.2309  0.0526
   77TCq2    C2 1174   2.888   1.459  11.909  0.1346 -0.0231  0.0058
   77TCq2    C3 1175   2.831   1.379  11.816 -1.1148 -0.4496 -0.1998
   77TCq2    C4 1176   2.850   1.243  11.827 -0.3198 -0.1793 -0.5425
   77TCq2    C5 1177   2.922   1.188  11.927  0.7625 -0.1614  0.2065
   77TCq2    C6 1178   2.991   1.276  12.010 -0.2197  0.2832 -0.1477
   77TCq2    C7 1179   2.974   1.410  12.007 -0.4179  0.5713 -0.2632
   77TCq2    C8 1180   3.067   1.221  12.124  0.3148 -0.7285 -0.1803
   77TCq2    O4 1181   3.151   1.291  12.184  0.0316 -0.0199 -0.3605
   77TCq2    C9 1182   2.807   1.161  11.718  0.2268  0.1503  0.2924
   77TCq2    O5 1183   2.756   1.214  11.615 -0.1656 -0.4197 -0.3535
   77TCq2    O6 1184   2.849   1.041  11.721  0.3349 -0.1727 -0.5182
   77TCq2    H2 1185   2.763   1.423  11.743 -0.1424  0.3761 -0.6085
   77TCq2    H3 1186   2.944   1.082  11.930 -0.4060 -0.3760  1.6025
   77TCq2    H4 1187   3.011   1.467  12.091  0.2929  0.9687 -0.8587
   78MPD1     C 1188   4.126   0.952   3.250 -0.0061 -0.4712  0.4085
   78MPD1    C1 1189   4.208   1.062   3.256 -0.2747  0.0274  0.4267
   78MPD1    C2 1190   4.313   1.077   3.164 -0.6866 -0.0982 -0.4977
   78MPD1    C3 1191   4.340   0.974   3.082  0.2505 -0.0082 -0.0308
   78MPD1    C4 1192   4.275   0.859   3.088  0.0358 -0.5377  0.9300
   78MPD1    C5 1193   4.163   0.853   3.168  0.3482 -0.5748  0.1743
   78MPD1     H 1194   4.356   1.176   3.164  1.3839 -1.0030  0.9501
   78MPD1    H1 1195   4.295   0.773   3.025  0.9383  0.3868 -0.0653
   78MPD1    H2 1196   4.047   0.928   3.320  0.5040  0.3103  1.2590
   78MPD1    H3 1197   4.105   0.762   3.168 -0.3364 -0.1341 -0.7540
   78MPD1     N 1198   4.437   0.987   2.974 -0.6056 -0.6851 -0.1455
   78MPD1    H5 1199   4.453   0.907   2.914  2.0521  0.8426 -1.4919
   78MPD1    N1 1200   4.176   1.175   3.336  0.5060  0.4103 -0.4945
   78MPD1    H6 1201   4.136   1.145   3.424  0.8075  0.7193 -0.2531
   78MPD1    H7 1202   4.262   1.221   3.366  0.1454 -0.2085  1.4495
   79TCq2    C1 1203   4.517   1.096   2.948  0.6749  0.3435  0.2119
   79TCq2    O2 1204   4.544   1.191   3.013 -0.2165  0.2720 -0.1334
   79TCq2    C2 1205   4.592   1.073   2.821  0.7672  0.3022  0.0370
   79TCq2    C3 1206   4.555   0.974   2.734 -0.5938 -0.0891  0.2114
   79TCq2    C4 1207   4.625   0.960   2.620  0.2348 -0.1209 -0.0351
   79TCq2    C5 1208   0.021   1.032   2.601  0.0957  0.0856 -0.3135
   79TCq2    C6 1209   0.055   1.119   2.701 -0.4803  0.1341  0.1203
   79TCq2    C7 1210   4.693   1.153   2.802 -0.6370 -0.2948  0.1766
   79TCq2    C8 1211   0.179   1.199   2.676 -0.0550 -0.8499 -0.3603
   79TCq2    O4 1212   0.232   1.188   2.564 -0.0480  1.0125  0.9090
   79TCq2    C9 1213   4.575   0.867   2.522  0.2916 -0.0813  0.3459
   79TCq2    O5 1214   4.510   0.768   2.565  0.2823  0.2970 -0.1008
   79TCq2    O6 1215   4.605   0.900   2.402 -0.0870 -0.0772 -0.0697
   79TCq2    H2 1216   4.460   0.922   2.738  0.3573 -1.7779  0.7563
   79TCq2    H3 1217   0.095   1.009   2.525  0.2002 -1.3657  0.2397
   79TCq2    H4 1218   0.002   1.237   2.864  1.3488 -1.0617  0.2004
   80MPD2     C 1219   1.692   1.498  11.517  0.2336 -0.0155  0.1744
   80MPD2    C1 1220   1.573   1.561  11.566 -0.0887  0.1246 -0.4965
   80MPD2    C2 1221   1.577   1.676  11.643  0.3585  0.1888  0.5104
   80MPD2    C3 1222   1.703   1.724  11.686  0.6834  0.3035 -0.1566
   80MPD2    C4 1223   1.818   1.671  11.640  0.1160 -0.7432  0.6078
   80MPD2    C5 1224   1.815   1.563  11.556  0.0198  0.2767 -0.2580
   80MPD2     H 1225   1.483   1.716  11.678  0.4903 -0.5180  1.6734
   80MPD2    H1 1226   1.916   1.707  11.667 -1.2525  1.1843  2.9475
   80MPD2    H2 1227   1.688   1.414  11.449 -0.7628 -1.2012  1.7202
   80MPD2    H3 1228   1.908   1.535  11.507 -0.0534 -1.2597  0.4670
   80MPD2     N 1229   1.718   1.822  11.784 -0.2998 -0.2318 -0.3079
   80MPD2    H5 1230   1.807   1.847  11.825 -0.2058  1.6606 -1.6398
   80MPD2    N1 1231   1.444   1.528  11.523 -0.3748 -0.2044 -0.1097
   80MPD2    H7 1232   1.371   1.587  11.561 -0.4418 -1.3374  1.5452
   81TCq2    C1 1233   1.414   1.409  11.458  0.5741  0.0507  0.0197
   81TCq2    O2 1234   1.484   1.318  11.422 -0.5530  0.0286 -0.2603
   81TCq2    C2 1235   1.270   1.377  11.456  0.9061 -0.1314  0.3612
   81TCq2    C3 1236   1.182   1.480  11.461 -0.4681  0.8468  0.5539
   81TCq2    C4 1237   1.046   1.450  11.478 -1.2624  0.3342  0.4824
   81TCq2    C5 1238   1.003   1.318  11.498 -0.2471 -0.2179 -0.4811
   81TCq2    C6 1239   1.099   1.223  11.489 -0.0634  0.2371 -0.0358
   81TCq2    C7 1240   1.235   1.244  11.473  0.3560  0.1844 -0.0190
   81TCq2    C8 1241   1.056   1.101  11.555  0.2582  0.8907 -0.3514
   81TCq2    O4 1242   0.942   1.054  11.532  0.2423  0.3201 -0.0403
   81TCq2    C9 1243   0.947   1.556  11.484  0.4116  0.1100  0.5213
   81TCq2    O5 1244   0.985   1.674  11.502 -0.3125  0.4157 -0.0703
   81TCq2    O6 1245   0.827   1.533  11.511 -0.4157 -0.3335  0.0793
   81TCq2    H2 1246   1.209   1.584  11.443 -0.2304  0.4370 -1.4211
   81TCq2    H3 1247   0.896   1.301  11.504 -0.2133 -0.0827  0.4930
   81TCq2    H4 1248   1.301   1.164  11.442  1.5478  1.1734 -0.0397
   82MPD2     C 1249   4.038   0.953  11.036 -0.6353  0.2079  0.2095
   82MPD2    C1 1250   4.021   0.818  11.013 -0.1295  0.2362  0.6221
   82MPD2    C2 1251   4.101   0.734  11.088  0.4399 -0.5353 -0.7029
   82MPD2    C3 1252   4.193   0.780  11.180 -0.2128 -0.3483  0.0311
   82MPD2    C4 1253   4.185   0.912  11.215  0.6464 -0.4098 -0.1629
   82MPD2    C5 1254   4.103   0.997  11.145 -0.3118 -1.3657  0.1569
   82MPD2     H 1255   4.104   0.629  11.063  2.5647 -0.5130 -0.6041
   82MPD2    H1 1256   4.244   0.946  11.300 -0.0543  0.9857 -0.2339
   82MPD2    H2 1257   3.969   1.014  10.978  0.4741 -0.3298 -1.6766
   82MPD2    H3 1258   4.095   1.102  11.171  1.2633 -1.8569  2.6914
   82MPD2     N 1259   4.278   0.698  11.253  0.5975  0.0957 -0.5614
   82MPD2    H5 1260   4.334   0.746  11.323  0.9616 -3.4510  1.5479
   82MPD2    N1 1261   3.939   0.775  10.907  0.1741  0.2796 -0.2572
   82MPD2    H7 1262   3.913   0.842  10.835 -0.0997 -1.5432 -1.8660
   83TCq2    C1 1263   4.283   0.564  11.248 -0.3285 -1.4117  0.0198
   83TCq2    O2 1264   4.220   0.487  11.183 -0.0242 -0.0418 -0.4529
   83TCq2    C2 1265   4.392   0.502  11.335 -0.9728 -0.0533  0.3713
   83TCq2    C3 1266   4.497   0.586  11.372  0.1051  0.4680  0.3957
   83TCq2    C4 1267   4.594   0.537  11.454 -0.2511  0.1107  0.6145
   83TCq2    C5 1268   4.586   0.408  11.498 -0.3170 -0.3652 -0.4390
   83TCq2    C6 1269   4.475   0.333  11.463  0.0770 -0.5733 -0.0163
   83TCq2    C7 1270   4.372   0.380  11.380 -0.3596 -0.9320 -0.5747
   83TCq2    C8 1271   4.456   0.206  11.528 -0.3558 -0.1143 -0.2096
   83TCq2    O4 1272   4.481   0.197  11.649  0.0099 -0.3152  0.3632
   83TCq2    C9 1273   4.708   0.618  11.473 -0.2184 -0.8067  0.0817
   83TCq2    O5 1274   0.086   0.557  11.509 -0.0547 -0.2506  0.0826
   83TCq2    O6 1275   4.705   0.723  11.402  0.1298  0.1134 -0.2422
   83TCq2    H2 1276   4.502   0.688  11.338  1.7814  1.1732  2.7058
   83TCq2    H3 1277   4.655   0.366  11.571  0.7969  1.0025 -0.7007
   83TCq2    H4 1278   4.283   0.321  11.362 -1.2528  0.8196 -1.9412
   84TCq2    C1 1279   0.805   4.504  10.469  0.3652 -0.3649 -0.2195
   84TCq2    O2 1280   0.761   4.619  10.457 -0.1693  0.6193 -0.0930
   84TCq2    C2 1281   0.796   4.442  10.604  0.1326 -0.5280  0.1221
   84TCq2    C3 1282   0.861   4.324  10.627 -0.0729 -0.1725  0.6303
   84TCq2    C4 1283   0.838   4.249  10.741  0.3525  0.6131  0.6775
   84TCq2    C5 1284   0.745   4.283  10.836  0.2717 -0.2158 -0.7268
   84TCq2    C6 1285   0.666   4.397  10.804 -0.0014  0.1671 -0.1192
   84TCq2    C7 1286   0.696   4.478  10.692  0.4978  0.2076 -0.3163
   84TCq2    C8 1287   0.585   4.456  10.908 -0.5156  0.7188 -0.9266
   84TCq2    O4 1288   0.565   4.577  10.897  0.5525  0.4496 -0.0770
   84TCq2    C9 1289   0.924   4.131  10.770  0.1741  0.4570  0.2779
   84TCq2    O5 1290   0.913   4.086  10.887  0.5431  0.2973  0.3184
   84TCq2    O6 1291   1.024   4.116  10.698  0.3761 -0.3224  0.1893
   84TCq2    H2 1292   0.953   4.306  10.572  0.2735  0.3136  1.0494
   84TCq2    H3 1293   0.717   4.222  10.921  0.5567 -2.0639 -1.9682
   84TCq2    H4 1294   0.639   4.565  10.662 -1.2025 -0.8601 -0.1913
   85MPD2     C 1295   1.483   2.424  16.630  0.9086 -0.2159  0.0214
   85MPD2    C1 1296   1.504   2.388  16.496  0.1319  0.7946  0.6782
   85MPD2    C2 1297   1.577   2.479  16.421 -0.4131 -0.2022  0.7284
   85MPD2    C3 1298   1.594   2.610  16.470  0.3004 -0.1138 -0.7520
   85MPD2    C4 1299   1.571   2.643  16.601  0.0409 -0.0642 -0.2929
   85MPD2    C5 1300   1.505   2.554  16.677  0.0699 -0.2296  0.0745
   85MPD2     H 1301   1.602   2.449  16.320  0.3913  1.6604  0.3585
   85MPD2    H1 1302   1.608   2.738  16.638  0.6280 -0.4312  0.0630
   85MPD2    H2 1303   1.434   2.369  16.710 -0.9336 -0.7744 -1.4961
   85MPD2    H3 1304   1.478   2.578  16.779  0.7385 -0.0382  0.2081
   85MPD2     N 1305   1.657   2.705  16.386 -0.5834  0.2959 -0.1945
   85MPD2    H5 1306   1.668   2.795  16.432  1.6191 -0.4171  0.7161
   85MPD2    N1 1307   1.460   2.267  16.437  0.0885 -0.1523  0.4126
   85MPD2    H7 1308   1.508   2.250  16.349  0.0560  2.7220 -0.1677
   86TCq2    C1 1309   1.722   2.687  16.266 -0.2617 -0.0181 -0.0640
   86TCq2    O2 1310   1.723   2.596  16.182 -1.0181 -0.1477 -0.2008
   86TCq2    C2 1311   1.775   2.816  16.223  0.2721 -0.6678 -0.5110
   86TCq2    C3 1312   1.716   2.935  16.252  0.6292  0.2221 -0.8571
   86TCq2    C4 1313   1.770   3.052  16.198 -0.4909  0.0192 -0.4295
   86TCq2    C5 1314   1.876   3.046  16.118 -0.8819  0.8812 -0.3998
   86TCq2    C6 1315   1.933   2.923  16.090  0.2764  0.1987  0.0474
   86TCq2    C7 1316   1.880   2.803  16.136  0.4926  0.2439  0.1472
   86TCq2    C8 1317   2.029   2.919  15.987 -0.3175 -0.6408  0.1576
   86TCq2    O4 1318   2.100   2.821  15.991  0.2758 -0.1941 -0.6362
   86TCq2    C9 1319   1.708   3.182  16.219  1.0993 -0.4634  0.5132
   86TCq2    O5 1320   1.772   3.278  16.167 -0.4802  0.0068 -0.2179
   86TCq2    O6 1321   1.585   3.184  16.242 -0.0516 -0.4429  0.6056
   86TCq2    H2 1322   1.624   2.939  16.310  2.8677  0.8661  2.6558
   86TCq2    H3 1323   1.937   3.134  16.101 -0.6140  0.7266 -0.2411
   86TCq2    H4 1324   1.915   2.705  16.106  0.7934  0.4416 -0.1434
   87MPD2     C 1325   3.961   0.799   1.546 -0.5586 -0.0436  0.1345
   87MPD2    C1 1326   4.033   0.890   1.613 -0.2382 -0.1318 -0.3807
   87MPD2    C2 1327   4.012   1.022   1.582 -0.3991 -0.2731 -1.2151
   87MPD2    C3 1328   3.914   1.059   1.490 -0.0468  0.4402  0.5107
   87MPD2    C4 1329   3.834   0.957   1.428 -0.3343  0.0168  0.0771
   87MPD2    C5 1330   3.859   0.827   1.464  0.2389  0.0220 -0.2353
   87MPD2     H 1331   4.075   1.099   1.625  1.4014 -1.3323 -1.9480
   87MPD2    H1 1332   3.763   0.978   1.349 -0.2271  0.8266  0.1973
   87MPD2    H2 1333   3.999   0.697   1.541 -1.6762 -0.3275 -2.2915
   87MPD2    H3 1334   3.826   0.747   1.398  1.9385 -0.2561 -0.7617
   87MPD2     N 1335   3.894   1.186   1.440 -0.0799 -0.2369 -0.6053
   87MPD2    H5 1336   3.836   1.195   1.357  0.7757  2.5217 -0.8977
   87MPD2    N1 1337   4.144   0.845   1.689 -0.2501  0.9617  0.3843
   87MPD2    H7 1338   4.168   0.748   1.673 -0.5149  0.8861  0.4559
   88TCq2    C1 1339   4.227   0.927   1.761 -0.1541  0.2567 -0.1677
   88TCq2    O2 1340   4.198   1.031   1.821  0.6660 -0.1977 -0.3643
   88TCq2    C2 1341   4.342   0.863   1.809 -0.4050 -0.1888  0.6134
   88TCq2    C3 1342   4.409   0.907   1.921 -0.2015 -0.8812 -0.2933
   88TCq2    C4 1343   4.540   0.884   1.925  0.4130 -0.0867  0.4982
   88TCq2    C5 1344   4.607   0.800   1.839 -0.0104  0.3146 -0.8731
   88TCq2    C6 1345   4.534   0.753   1.732  0.2643  0.2245  0.2542
   88TCq2    C7 1346   4.403   0.784   1.712  0.2753 -0.6863  0.4558
   88TCq2    C8 1347   4.607   0.701   1.622  0.6986  0.2317  0.3300
   88TCq2    O4 1348   0.002   0.730   1.616  0.2247  0.1772 -0.2058
   88TCq2    C9 1349   4.615   0.945   2.036  0.2529  0.1438 -0.5805
   88TCq2    O5 1350   0.016   0.919   2.036  0.0156 -0.0730  0.6923
   88TCq2    O6 1351   4.564   1.041   2.100  0.4375  0.1438 -0.3315
   88TCq2    H2 1352   4.363   0.975   1.992  0.7328  1.0672 -1.5600
   88TCq2    H3 1353   4.715   0.796   1.838  0.0671  1.3652  3.2553
   88TCq2    H4 1354   4.360   0.764   1.615  0.2907  0.5931  0.1892
   89MPD2     C 1355   0.765   3.947   2.332 -0.1179  0.1499  0.6192
   89MPD2    C1 1356   0.746   3.858   2.223 -0.4378  0.2810  0.0479
   89MPD2    C2 1357   0.811   3.896   2.110  0.7544 -0.7829 -0.1393
   89MPD2    C3 1358   0.903   4.003   2.098  0.0465 -0.4492  0.1926
   89MPD2    C4 1359   0.913   4.092   2.204 -0.5558 -0.0211  0.3276
   89MPD2    C5 1360   0.845   4.061   2.320 -0.0572 -1.0514 -0.1397
   89MPD2     H 1361   0.775   3.838   2.026 -0.1735  0.0154 -0.2981
   89MPD2    H1 1362   0.971   4.183   2.203  0.3975 -0.6218  0.6400
   89MPD2    H2 1363   0.709   3.938   2.424  0.2355  0.1237  0.8328
   89MPD2    H3 1364   0.847   4.140   2.394  1.1707 -0.2926 -0.9864
   89MPD2     N 1365   0.973   4.022   1.976 -0.0666  0.2538 -0.4016
   89MPD2    H5 1366   0.956   3.948   1.908 -1.0445  1.8170 -1.8583
   89MPD2    N1 1367   0.662   3.742   2.236  0.6453 -0.6999 -0.8664
   89MPD2    H7 1368   0.642   3.689   2.152  0.6030 -0.3789 -1.0594
   90TCq2    C1 1369   1.056   4.122   1.942  0.1708  0.3248  0.5046
   90TCq2    O2 1370   1.111   4.198   2.018  0.0127 -0.4525  0.3941
   90TCq2    C2 1371   1.118   4.108   1.811 -0.1672 -0.0445 -0.2899
   90TCq2    C3 1372   1.248   4.140   1.798  0.3705  0.3862  0.7746
   90TCq2    C4 1373   1.308   4.138   1.675  0.0054  0.6473 -0.2075
   90TCq2    C5 1374   1.240   4.091   1.564  0.3898 -0.0080 -0.6126
   90TCq2    C6 1375   1.113   4.058   1.586  0.0174  0.2932  0.4447
   90TCq2    C7 1376   1.050   4.070   1.709 -0.0953 -0.4511 -0.1227
   90TCq2    C8 1377   1.045   3.984   1.479  0.7066 -0.2690  0.0958
   90TCq2    O4 1378   1.112   3.928   1.400  0.1946 -0.2079  0.2108
   90TCq2    C9 1379   1.444   4.180   1.662 -0.8023 -0.9174 -0.2327
   90TCq2    O5 1380   1.499   4.162   1.551  0.3311 -0.1523 -0.1436
   90TCq2    O6 1381   1.506   4.229   1.760 -0.6326 -0.6720  0.2381
   90TCq2    H2 1382   1.313   4.150   1.885 -0.5757  0.5080  1.4720
   90TCq2    H3 1383   1.284   4.080   1.465  3.6797  0.2132  0.8250
   90TCq2    H4 1384   0.941   4.066   1.711 -0.0477 -1.4320  0.7701
   91TMC2    C1 1385   1.911   3.521  16.524  0.1965  0.1253 -0.0580
   91TMC2    C2 1386   1.931   3.521  16.387 -0.6437  0.0272  0.5758
   91TMC2    C3 1387   1.818   3.552  16.313 -0.2288 -0.2247  0.3486
   91TMC2    C4 1388   1.796   3.561  16.589  1.2085  0.3910  0.4265
   91TMC2    C5 1389   1.694   3.597  16.505 -0.6103 -0.0129  0.1448
   91TMC2    C6 1390   1.704   3.593  16.372  0.7462 -0.5901  0.8225
   91TMC2     C 1391   2.018   3.490  16.613  0.4046 -0.4655  0.3155
   91TMC2     O 1392   1.981   3.462  16.727 -0.2520 -0.3822 -0.1399
   91TMC2     H 1393   2.017   3.478  16.338  0.2324 -0.9902  3.0834
   91TMC2    H1 1394   1.784   3.537  16.694 -0.3688 -0.8120 -0.0312
   91TMC2    H2 1395   1.631   3.631  16.301  0.0677 -0.0086  1.8304
   91TMC2    C7 1396   1.576   3.639  16.575  0.2341 -0.7121  0.2449
   91TMC2    C8 1397   1.843   3.598  16.176 -0.4004  0.7728  0.2265
   91TMC2    O1 1398   1.587   3.698  16.678 -0.0279 -0.3117  0.3162
   91TMC2    O2 1399   1.860   3.718  16.160 -0.2367 -0.6441 -0.4798
   91TMC2    O5 1400   1.749   3.525  16.117  0.2469  0.0120  0.2576
   91TMC2    H5 1401   1.756   3.432  16.147  1.7489  0.4250  1.2278
   92MPD2     C 1402   2.298   3.450  16.756 -0.1121 -0.2979 -0.4795
   92MPD2    C1 1403   2.270   3.520  16.643  0.5340 -0.2462  0.0229
   92MPD2    C2 1404   2.377   3.593  16.593  1.0589  0.5263 -0.2562
   92MPD2    C3 1405   2.495   3.594  16.655  0.1962  0.4151  0.4362
   92MPD2    C4 1406   2.510   3.535  16.774  0.1980  0.5076  0.1599
   92MPD2    C5 1407   2.411   3.454  16.823  0.5141  0.0234  0.4330
   92MPD2     H 1408   2.361   3.635  16.495 -0.0730 -1.3337 -0.8642
   92MPD2    H1 1409   2.602   3.546  16.829 -0.1400 -1.1508  1.0484
   92MPD2    H2 1410   2.231   3.382  16.808 -2.9109  0.4222 -3.1359
   92MPD2    H3 1411   2.421   3.401  16.917  0.0193  2.0984  1.6566
   92MPD2     N 1412   2.588   3.688  16.609 -0.1581  0.6208 -0.3456
   92MPD2    H5 1413   2.551   3.757  16.544 -1.9620  1.1414  1.2313
   92MPD2    N1 1414   2.148   3.529  16.567 -0.4557 -0.7862 -0.4707
   92MPD2    H7 1415   2.147   3.581  16.479 -0.2749 -1.4541 -0.8695
   93MPD2     C 1416   3.456   3.618  13.645 -0.4179  0.2086 -0.5533
   93MPD2    C1 1417   3.451   3.724  13.735 -0.4572 -0.0947  0.5361
   93MPD2    C2 1418   3.330   3.776  13.773 -0.0756  0.2178  0.0053
   93MPD2    C3 1419   3.212   3.725  13.725 -0.0699 -0.2437  0.2966
   93MPD2    C4 1420   3.220   3.622  13.630  0.0033  0.3270  0.4275
   93MPD2    C5 1421   3.342   3.571  13.588 -0.0962  0.1466 -0.7766
   93MPD2     H 1422   3.331   3.849  13.854 -2.0076 -0.6664  0.8293
   93MPD2    H1 1423   3.131   3.570  13.596 -0.7839  3.7014 -2.6693
   93MPD2    H2 1424   3.552   3.573  13.623  0.4607  0.8131  1.9413
   93MPD2    H3 1425   3.353   3.486  13.522 -0.4214 -0.3483 -0.1854
   93MPD2     N 1426   3.081   3.774  13.758 -0.8324  0.6145  0.1456
   93MPD2    H5 1427   3.005   3.736  13.703  0.3058 -1.9392  0.3424
   93MPD2    N1 1428   3.562   3.771  13.808  0.3377 -0.2169  0.0602
   93MPD2    H7 1429   3.552   3.857  13.862  0.5974  0.0648 -0.3459
   94TCq2    C1 1430   3.700   3.743  13.782  0.2264  0.1568 -0.0562
   94TCq2    O2 1431   3.750   3.654  13.718  0.2473  0.4566  0.2331
   94TCq2    C2 1432   3.785   3.838  13.854  0.3159 -0.3264 -0.5650
   94TCq2    C3 1433   3.731   3.933  13.937  0.0326 -0.8748  0.5056
   94TCq2    C4 1434   3.813   4.036  13.977  0.1304 -0.0143 -0.3093
   94TCq2    C5 1435   3.943   4.045  13.940 -0.2162 -0.1805 -0.1961
   94TCq2    C6 1436   3.994   3.937  13.870 -0.2492 -0.0825 -0.0405
   94TCq2    C7 1437   3.918   3.837  13.826 -0.2733 -0.1443 -0.1081
   94TCq2    C8 1438   4.131   3.927  13.833  0.0370 -0.2901  0.1054
   94TCq2    O4 1439   4.165   3.832  13.764  0.6768  0.3189 -0.5424
   94TCq2    C9 1440   3.755   4.142  14.060  0.1888  0.0234 -0.0032
   94TCq2    O5 1441   3.820   4.246  14.088 -0.2531 -0.2812 -0.2986
   94TCq2    O6 1442   3.634   4.123  14.081 -0.6340  0.2873  0.1623
   94TCq2    H2 1443   3.626   3.943  13.961  0.1862 -2.9644  2.0251
   94TCq2    H3 1444   3.990   4.134  13.980 -1.6265  1.1392 -1.4991
   94TCq2    H4 1445   3.955   3.760  13.760 -3.6706 -1.2034 -0.7726
   95TMC2    C1 1446   3.422   0.542  16.279  0.2918 -0.3212  0.5433
   95TMC2    C2 1447   3.483   0.486  16.390  0.0856  0.1050 -0.2865
   95TMC2    C3 1448   3.413   0.422  16.477  0.1916 -0.1347 -0.4461
   95TMC2    C4 1449   3.288   0.519  16.257 -0.3376  0.1530  0.2478
   95TMC2    C5 1450   3.215   0.453  16.353 -0.1399 -0.0859  0.5901
   95TMC2    C6 1451   3.279   0.402  16.466 -0.1611 -0.5345  0.2002
   95TMC2     C 1452   3.510   0.617  16.192  0.0692 -0.5144  0.6919
   95TMC2     O 1453   3.614   0.664  16.238  0.4006  0.1073 -0.1475
   95TMC2     H 1454   3.588   0.505  16.409  0.5301  0.7227 -3.3615
   95TMC2    H1 1455   3.230   0.572  16.182  1.7966 -0.2419 -1.6847
   95TMC2    H2 1456   3.219   0.367  16.549 -1.6290 -1.3169 -1.1676
   95TMC2    C7 1457   3.082   0.400  16.327  0.0668 -0.3080 -0.1864
   95TMC2    C8 1458   3.480   0.409  16.607 -0.0195 -0.1531 -0.6205
   95TMC2    O1 1459   3.016   0.361  16.424  0.5871  0.5344  0.5394
   95TMC2    O2 1460   3.559   0.487  16.652 -0.1858  0.0897  0.3672
   95TMC2    O5 1461   3.453   0.297  16.667  0.1506  0.3923 -0.4164
   95TMC2    H5 1462   3.398   0.244  16.605  0.4621  0.9683 -1.1816
   96MPD2     C 1463   3.598   0.784  15.713  0.0213 -0.0331  0.4164
   96MPD2    C1 1464   3.657   0.818  15.836  0.0275 -0.1193  0.4137
   96MPD2    C2 1465   3.617   0.757  15.951 -0.1831  1.1876  0.2948
   96MPD2    C3 1466   3.515   0.662  15.950  0.5510 -0.1226  0.3396
   96MPD2    C4 1467   3.452   0.632  15.827  0.5219  0.2214 -0.0101
   96MPD2    C5 1468   3.495   0.698  15.713 -0.5976 -0.2528 -0.5322
   96MPD2     H 1469   3.666   0.792  16.041  0.7374  0.4168  0.0852
   96MPD2    H1 1470   3.380   0.553  15.813  0.7803  0.0078 -0.1461
   96MPD2    H2 1471   3.641   0.828  15.623 -2.5753 -0.1789 -0.8841
   96MPD2    H3 1472   3.434   0.678  15.625  0.0005 -1.0364 -0.7625
   96MPD2     N 1473   3.466   0.596  16.065 -0.9570 -0.1080  0.0152
   96MPD2    H5 1474   3.390   0.530  16.052 -2.0905  1.4142 -1.0645
   96MPD2    N1 1475   3.757   0.914  15.832  0.5194 -0.1039  0.1819
   96MPD2    H7 1476   3.777   0.963  15.745 -2.3661 -1.3206 -1.1634
   97MPD2     C 1477   1.363   2.448   0.900 -0.1940  0.3170  1.0147
   97MPD2    C1 1478   1.336   2.582   0.922  1.2610 -0.0242 -0.4132
   97MPD2    C2 1479   1.259   2.652   0.829 -0.2897 -0.2430 -0.0472
   97MPD2    C3 1480   1.224   2.591   0.711  0.5201  0.1597 -0.8541
   97MPD2    C4 1481   1.250   2.455   0.694  0.2998  0.1635  0.3886
   97MPD2    C5 1482   1.326   2.393   0.784  0.2172  0.4376 -0.5850
   97MPD2     H 1483   1.225   2.752   0.852  2.7322  0.7852 -0.0626
   97MPD2    H1 1484   1.230   2.400   0.603  1.3307 -0.5002  0.5586
   97MPD2    H2 1485   1.404   2.391   0.982 -2.2665  1.5510  2.9248
   97MPD2    H3 1486   1.352   2.289   0.765  1.0548  1.2549 -3.8061
   97MPD2     N 1487   1.181   2.660   0.601 -0.2540  0.0098  0.2061
   97MPD2    H5 1488   1.149   2.597   0.528 -2.6680  1.9530 -0.3973
   97MPD2    N1 1489   1.374   2.635   1.045  0.6485  0.0780 -0.7344
   97MPD2    H7 1490   1.440   2.576   1.094 -0.3428  0.3747  0.9346
   98TCq2    C1 1491   1.177   2.791   0.575  0.2337 -0.3098  0.3274
   98TCq2    O2 1492   1.241   2.880   0.636  0.0574  0.6416  0.5813
   98TCq2    C2 1493   1.107   2.833   0.454  0.1170  0.4364  0.1818
   98TCq2    C3 1494   1.013   2.743   0.410 -0.4703  0.2722  0.4252
   98TCq2    C4 1495   0.928   2.791   0.316  0.7768 -0.4017 -0.8379
   98TCq2    C5 1496   0.931   2.918   0.274 -1.0019 -0.0422  0.1718
   98TCq2    C6 1497   1.019   3.006   0.336 -0.0223  0.0234  1.0735
   98TCq2    C7 1498   1.115   2.962   0.416 -0.2214  0.6384  0.1826
   98TCq2    C8 1499   1.000   3.151   0.333  0.6652 -0.2313  0.0644
   98TCq2    O4 1500   1.089   3.227   0.375 -0.3759 -0.0080  0.2418
   98TCq2    C9 1501   0.830   2.701   0.255 -0.0513 -0.4266  0.0385
   98TCq2    O5 1502   0.803   2.595   0.313  0.2396  0.0471  0.3342
   98TCq2    O6 1503   0.778   2.737   0.147  0.0341 -0.1424  0.0696
   98TCq2    H2 1504   1.013   2.637   0.432 -0.9641 -0.1744 -1.7676
   98TCq2    H3 1505   0.863   2.953   0.197  2.8887  4.8980 -1.0186
   98TCq2    H4 1506   1.177   3.034   0.468 -0.3705  0.6154  0.3924
   99MPD2     C 1507   4.286   0.379   2.303 -0.1657  0.1032 -0.7252
   99MPD2    C1 1508   4.170   0.391   2.225  0.2911  0.6664 -0.1210
   99MPD2    C2 1509   4.174   0.336   2.099  0.1738 -0.1847  0.5617
   99MPD2    C3 1510   4.287   0.269   2.049  0.7253 -0.1246  0.2885
   99MPD2    C4 1511   4.396   0.247   2.129  0.7957 -0.1242 -0.1148
   99MPD2    C5 1512   4.392   0.299   2.257  0.1497  0.1551 -0.4471
   99MPD2     H 1513   4.094   0.362   2.031  0.6134 -1.7997 -0.5794
   99MPD2    H1 1514   4.491   0.206   2.094  0.4250 -0.5242 -0.6435
   99MPD2    H2 1515   4.294   0.420   2.403 -2.0166 -0.3619 -0.3879
   99MPD2    H3 1516   4.484   0.282   2.312 -0.6282 -2.3071  0.0590
   99MPD2     N 1517   4.284   0.231   1.909  0.4065  0.4286 -0.9060
   99MPD2    H5 1518   4.205   0.269   1.857 -0.0324  1.8986  0.7867
   99MPD2    N1 1519   4.056   0.453   2.269  0.1625 -0.2124 -0.2994
   99MPD2    H7 1520   3.973   0.436   2.215 -1.0473  1.6222  0.9926
  100TCq2    C1 1521   4.052   0.526   2.386  0.0691 -0.4118 -0.4590
  100TCq2    O2 1522   4.143   0.583   2.447 -0.1365  0.0773  0.3462
  100TCq2    C2 1523   3.915   0.574   2.419  0.4641  0.5135  0.6169
  100TCq2    C3 1524   3.911   0.654   2.530  0.3395  0.2736 -0.4328
  100TCq2    C4 1525   3.791   0.708   2.557 -0.2547  0.4892 -0.5884
  100TCq2    C5 1526   3.681   0.692   2.477 -0.5828  0.0699 -0.3896
  100TCq2    C6 1527   3.688   0.612   2.367  0.2164 -0.6367  0.0619
  100TCq2    C7 1528   3.808   0.559   2.332 -0.4704  0.2834 -0.4566
  100TCq2    C8 1529   3.583   0.629   2.263 -0.5572  0.8142 -0.1562
  100TCq2    O4 1530   3.503   0.717   2.294  0.4849  0.4223  0.1728
  100TCq2    C9 1531   3.777   0.779   2.682  0.2849 -0.4722 -0.5734
  100TCq2    O5 1532   3.664   0.832   2.704 -0.6059 -0.1407 -0.2425
  100TCq2    O6 1533   3.873   0.778   2.759  0.0232 -0.2975  0.4391
  100TCq2    H2 1534   3.992   0.669   2.601 -1.0806 -0.8861  1.4244
  100TCq2    H3 1535   3.588   0.737   2.508  0.1097  0.6991  0.7642
  100TCq2    H4 1536   3.819   0.503   2.240 -0.7998 -1.3464  0.5151
  101MPD2     C 1537   0.408   1.532  13.347 -0.0929  0.1198  0.2451
  101MPD2    C1 1538   0.319   1.480  13.252  0.6993  0.2885  0.1477
  101MPD2    C2 1539   0.236   1.375  13.290  0.8951  0.4074  0.5177
  101MPD2    C3 1540   0.245   1.322  13.419  0.4189 -0.5836 -0.3278
  101MPD2    C4 1541   0.327   1.386  13.511 -0.6599 -0.1544  0.7105
  101MPD2    C5 1542   0.397   1.495  13.472 -0.6018  0.4814 -0.6720
  101MPD2     H 1543   0.169   1.329  13.219  0.5772  0.8547  0.5235
  101MPD2    H1 1544   0.342   1.351  13.613 -0.5230 -2.0567  0.0353
  101MPD2    H2 1545   0.472   1.613  13.314 -0.0139  0.0438  0.2119
  101MPD2    H3 1546   0.456   1.547  13.546  3.3516 -1.6217 -2.3826
  101MPD2     N 1547   0.163   1.205  13.451 -0.6375  0.1177  0.4826
  101MPD2    H5 1548   0.093   1.167  13.388 -1.1068  2.7343 -0.5851
  101MPD2    N1 1549   0.309   1.543  13.130 -0.1342 -0.5460  0.0794
  101MPD2    H7 1550   0.394   1.591  13.103  0.9747 -0.5560  3.6931
  102TCq2    C1 1551   0.464   1.828  12.751  0.4118  0.1090  0.0652
  102TCq2    O2 1552   0.441   1.927  12.684 -0.2781  0.1908  0.0626
  102TCq2    C2 1553   0.349   1.751  12.780  0.4417 -0.0852  0.2369
  102TCq2    C3 1554   0.244   1.756  12.697 -0.3900  0.3589 -0.4665
  102TCq2    C4 1555   0.127   1.694  12.728  0.3035 -0.3232 -0.4887
  102TCq2    C5 1556   0.111   1.618  12.839  0.1729  0.0957  0.0620
  102TCq2    C6 1557   0.221   1.615  12.923 -0.0818  0.8551 -0.0263
  102TCq2    C7 1558   0.342   1.681  12.896 -0.1655 -0.3306 -0.1829
  102TCq2    C8 1559   0.201   1.532  13.042 -0.6158  0.2588  0.3608
  102TCq2    O4 1560   0.092   1.486  13.068 -0.9505  0.0340 -0.2266
  102TCq2    C9 1561   0.018   1.710  12.639 -0.3421 -0.6902  0.2109
  102TCq2    O5 1562   0.039   1.789  12.543 -0.0520  0.8081 -0.5044
  102TCq2    O6 1563   4.631   1.648  12.672  0.1059  0.3184 -0.3172
  102TCq2    H2 1564   0.258   1.805  12.601 -1.8813  0.1539 -0.7957
  102TCq2    H3 1565   0.012   1.580  12.862  1.3042 -2.1366  1.1951
  102TCq2    H4 1566   0.416   1.695  12.974  1.3118 -1.5164 -1.3894
  103TMC2    C1 1567   3.542   1.059  12.622 -0.0405  0.6956 -0.2793
  103TMC2    C2 1568   3.642   0.966  12.587  0.9781  0.0269 -0.5878
  103TMC2    C3 1569   3.763   0.981  12.641 -1.0277 -0.3598 -0.4255
  103TMC2    C4 1570   3.580   1.173  12.689  0.3151 -0.3474 -0.2527
  103TMC2    C5 1571   3.704   1.180  12.751 -0.2930  0.5812 -0.2701
  103TMC2    C6 1572   3.795   1.081  12.723  0.2936 -0.3427 -1.8254
  103TMC2     C 1573   3.430   1.082  12.531  0.2494  0.1421 -0.3509
  103TMC2     O 1574   3.388   1.196  12.510  0.1518 -0.2116  0.2728
  103TMC2     H 1575   3.630   0.888  12.513 -0.5679 -0.0069 -0.3065
  103TMC2    H1 1576   3.514   1.257  12.709 -0.0464  0.0768 -3.3260
  103TMC2    H2 1577   3.899   1.096  12.752  0.0556 -0.4688 -0.9051
  103TMC2    C7 1578   3.701   1.234  12.881  0.7009  0.5431  0.1759
  103TMC2    C8 1579   3.848   0.871  12.651  0.0472 -0.2943  0.6691
  103TMC2    O1 1580   3.737   1.158  12.974  0.0343 -0.5294 -0.2725
  103TMC2    O2 1581   3.971   0.870  12.667 -0.0943 -0.2679  0.0266
  103TMC2    O5 1582   3.761   0.761  12.655  0.3679 -0.0420  0.4073
  103TMC2    H5 1583   3.814   0.679  12.662 -2.2848 -1.9509 -1.5390
  104MPD2     C 1584   3.187   0.823  12.438  0.8142 -0.0463 -0.2216
  104MPD2    C1 1585   3.248   0.948  12.430 -0.1104  0.1347 -0.0601
  104MPD2    C2 1586   3.199   1.039  12.333  0.2835 -0.0716  0.3224
  104MPD2    C3 1587   3.090   1.007  12.249  0.1764  0.0476  0.5434
  104MPD2    C4 1588   3.025   0.889  12.276 -0.5079 -0.1302  0.3757
  104MPD2    C5 1589   3.074   0.801  12.368 -0.7152 -0.1376  0.2956
  104MPD2     H 1590   3.239   1.140  12.328  0.1802 -0.0687 -0.5231
  104MPD2    H1 1591   2.929   0.868  12.231  0.2526  0.1753 -1.3725
  104MPD2    H2 1592   3.228   0.747  12.503  0.0801 -0.3902 -0.1597
  104MPD2    H3 1593   3.017   0.713  12.396 -1.2518  0.0200 -0.3143
  104MPD2     N 1594   3.030   1.096  12.154 -0.0815  0.7768 -0.6009
  104MPD2    H5 1595   2.970   1.052  12.085 -1.0720 -1.3179  1.6302
  104MPD2    N1 1596   3.366   0.966  12.509  0.0727 -0.0908  0.3856
  104MPD2    H7 1597   3.414   0.884  12.545  0.0832 -0.8084 -1.2739
  105MPD2     C 1598   0.693   0.392   0.371  0.3050  0.4592  0.0497
  105MPD2    C1 1599   0.596   0.483   0.394 -0.9195  0.7452 -0.0020
  105MPD2    C2 1600   0.559   0.502   0.522 -0.1153 -0.6807 -0.2356
  105MPD2    C3 1601   0.625   0.436   0.623  0.4219  0.1387 -0.5118
  105MPD2    C4 1602   0.739   0.360   0.593 -0.1232  0.0760 -0.8642
  105MPD2    C5 1603   0.776   0.338   0.463 -0.0666 -1.0089 -0.3129
  105MPD2     H 1604   0.485   0.577   0.547  0.9144 -0.1796  1.3320
  105MPD2    H1 1605   0.790   0.285   0.653  0.4930  1.1928  0.0281
  105MPD2    H2 1606   0.717   0.367   0.268  1.2617  3.2685 -0.4246
  105MPD2    H3 1607   0.847   0.258   0.444  1.7984  0.9809 -1.8293
  105MPD2     N 1608   0.566   0.447   0.751  0.9386  0.1289  0.3155
  105MPD2    H5 1609   0.479   0.500   0.752  0.6115 -0.4175  2.1031
  105MPD2    N1 1610   0.541   0.563   0.290 -0.5709 -0.5890 -0.2890
  105MPD2    H7 1611   0.490   0.648   0.312 -1.0376 -0.7327 -0.8098
  106TCq2    C1 1612   0.625   0.405   0.870  0.4159  0.2032  0.4022
  106TCq2    O2 1613   0.737   0.368   0.893  0.3820 -0.0645 -0.3615
  106TCq2    C2 1614   0.555   0.442   0.985  0.7678  0.3494 -0.3238
  106TCq2    C3 1615   0.631   0.473   1.090  0.3603 -0.5129 -0.0967
  106TCq2    C4 1616   0.565   0.478   1.211 -0.7506  0.6754  0.7416
  106TCq2    C5 1617   0.433   0.452   1.227 -0.0247 -0.1440  0.1855
  106TCq2    C6 1618   0.362   0.432   1.112 -0.1007 -0.6685  0.2202
  106TCq2    C7 1619   0.422   0.422   0.989 -0.4506 -0.0592  0.3252
  106TCq2    C8 1620   0.215   0.443   1.098 -0.6651  0.4458  0.1646
  106TCq2    O4 1621   0.153   0.391   1.005  0.3211  0.0944  0.0729
  106TCq2    C9 1622   0.646   0.506   1.334  0.1176 -0.4255  0.3101
  106TCq2    O5 1623   0.587   0.499   1.444  0.2603  0.0114  0.4465
  106TCq2    O6 1624   0.769   0.534   1.317  0.3639  0.1355 -0.4116
  106TCq2    H2 1625   0.737   0.495   1.086  0.9099 -2.6217  2.9224
  106TCq2    H3 1626   0.388   0.455   1.325 -0.8029  2.1031 -0.2366
  106TCq2    H4 1627   0.362   0.383   0.908  1.6559  0.4055 -1.4633
  107TMC2    C1 1628   0.259   0.296  11.663  0.4976 -0.2131  0.2463
  107TMC2    C2 1629   0.292   0.388  11.568  0.2084 -0.1888  0.9540
  107TMC2    C3 1630   0.337   0.341  11.445  0.0692 -0.1177 -0.0420
  107TMC2    C4 1631   0.281   0.159  11.636  0.2851  0.3879  0.4696
  107TMC2    C5 1632   0.318   0.120  11.507  0.4000  0.0319  0.4695
  107TMC2    C6 1633   0.349   0.213  11.414  0.1954 -0.1414 -0.1383
  107TMC2     C 1634   0.196   0.333  11.788 -0.8180 -0.1480 -0.5627
  107TMC2     O 1635   0.197   0.243  11.873 -0.4204 -0.1389  0.2710
  107TMC2     H 1636   0.287   0.495  11.587 -0.1120 -0.3175  1.6120
  107TMC2    H1 1637   0.258   0.083  11.709  0.8417 -0.5828 -0.3779
  107TMC2    H2 1638   0.379   0.192  11.312 -0.4529  0.5826 -0.4793
  107TMC2    C7 1639   0.351   4.701  11.489  0.5856  0.1480 -0.2142
  107TMC2    C8 1640   0.337   0.420  11.321  0.2912 -0.5742 -0.1134
  107TMC2    O1 1641   0.267   4.630  11.544 -0.6726 -0.3390 -0.1792
  107TMC2    O2 1642   0.430   0.394  11.250 -0.2480 -0.0671 -0.7424
  107TMC2    O5 1643   0.269   0.533  11.342 -0.1666  0.3255 -0.2894
  107TMC2    H5 1644   0.196   0.516  11.405 -0.6475 -1.5562 -1.3310
  108MPD2     C 1645   0.006   0.637  11.871  0.0008 -0.0574  0.3572
  108MPD2    C1 1646   0.073   0.521  11.895 -0.4075  0.2378 -0.6236
  108MPD2    C2 1647   0.080   0.473  12.026 -0.1058  0.3120 -0.0761
  108MPD2    C3 1648   0.009   0.540  12.128  0.0245 -0.0306 -0.1331
  108MPD2    C4 1649   4.650   0.641  12.094  0.6839  0.3348  0.6097
  108MPD2    C5 1650   4.650   0.692  11.966 -0.2923  0.1868  0.3299
  108MPD2     H 1651   0.140   0.385  12.047 -0.0823  0.5711  0.9731
  108MPD2    H1 1652   4.591   0.688  12.172  0.2813 -1.1148  1.1735
  108MPD2    H2 1653   0.004   0.676  11.770  3.5885  2.5101  1.2949
  108MPD2    H3 1654   4.588   0.774  11.933 -1.5740 -1.9502 -2.5682
  108MPD2     N 1655   0.003   0.490  12.264  0.1560  0.0239  0.2236
  108MPD2    H5 1656   4.659   0.535  12.326 -1.1106  0.4957 -1.4656
  108MPD2    N1 1657   0.136   0.460  11.786  0.0377  0.4711  0.4024
  108MPD2    H7 1658   0.128   0.506  11.696  1.2548 -3.0857 -1.4815
  109MPD2     C 1659   1.324   1.652   2.533  0.0041  0.2112 -0.0434
  109MPD2    C1 1660   1.276   1.704   2.416 -0.5654  0.0471 -0.0917
  109MPD2    C2 1661   1.361   1.786   2.349  0.5885 -0.2993  0.2299
  109MPD2    C3 1662   1.476   1.829   2.399  0.6707 -0.2372 -0.2507
  109MPD2    C4 1663   1.522   1.776   2.513  0.6378  0.2057 -0.5657
  109MPD2    C5 1664   1.447   1.687   2.582 -0.2212  0.8056 -0.8439
  109MPD2     H 1665   1.324   1.851   2.271 -3.6053 -1.2134  1.4335
  109MPD2    H1 1666   1.617   1.790   2.564  1.1084 -1.7332 -0.9433
  109MPD2    H2 1667   1.268   1.590   2.602 -2.6020  0.1034 -2.2445
  109MPD2    H3 1668   1.464   1.660   2.685  0.0502 -0.8652 -1.3360
  109MPD2     N 1669   1.551   1.934   2.335  0.1674 -0.3637 -0.7185
  109MPD2    H5 1670   1.503   1.987   2.263 -1.1632 -1.7255 -0.8318
  109MPD2    N1 1671   1.144   1.671   2.368 -0.2458  0.0573 -1.1540
  109MPD2    H7 1672   1.116   1.726   2.288  0.0105  0.2163 -1.1363
  110TCq2    C1 1673   1.670   1.991   2.382 -0.2224  0.4269 -0.7431
  110TCq2    O2 1674   1.746   1.956   2.474  0.1617 -0.1678  0.2963
  110TCq2    C2 1675   1.731   2.065   2.273  0.7817 -0.3091  0.3175
  110TCq2    C3 1676   1.856   2.126   2.302 -0.3137 -0.9293  0.3717
  110TCq2    C4 1677   1.901   2.222   2.214  0.2942  1.1142 -0.0719
  110TCq2    C5 1678   1.831   2.266   2.110 -0.1406  0.0015  0.0977
  110TCq2    C6 1679   1.718   2.207   2.080 -0.2912  0.2869  0.2969
  110TCq2    C7 1680   1.662   2.104   2.161  0.2702  0.6104  0.2529
  110TCq2    C8 1681   1.629   2.275   1.981 -0.4000  0.6786 -0.8735
  110TCq2    O4 1682   1.643   2.397   1.956  0.1772  0.6002  0.4548
  110TCq2    C9 1683   2.036   2.276   2.245 -0.8208  0.7140 -0.4104
  110TCq2    O5 1684   2.090   2.355   2.163 -0.1530 -0.4272  0.1982
  110TCq2    O6 1685   2.089   2.251   2.358 -0.2554 -0.1976  0.0977
  110TCq2    H2 1686   1.906   2.110   2.397  1.1069  0.5825 -0.1306
  110TCq2    H3 1687   1.857   2.348   2.044  2.3275 -0.8709 -0.0302
  110TCq2    H4 1688   1.571   2.054   2.128  1.3017 -1.5046  0.6164
  111TMC2    C1 1689   0.184   2.390  11.623 -0.3639 -0.2938 -0.4313
  111TMC2    C2 1690   0.070   2.372  11.697  0.0695  0.5820 -0.8020
  111TMC2    C3 1691   0.068   2.419  11.824  0.0313  0.1067  0.8728
  111TMC2    C4 1692   0.295   2.446  11.682  0.6880 -0.0416 -0.5826
  111TMC2    C5 1693   0.287   2.498  11.803  0.4367  0.1917  0.0006
  111TMC2    C6 1694   0.172   2.490  11.877  0.5210  0.6361  0.2277
  111TMC2     C 1695   0.187   2.320  11.501 -0.2954  0.9322  0.3832
  111TMC2     O 1696   0.077   2.302  11.450  0.0980 -0.1712 -0.0832
  111TMC2     H 1697   4.715   2.315  11.648  1.3446 -2.5076  0.8154
  111TMC2    H1 1698   0.387   2.449  11.623 -0.6257 -0.0727 -2.6506
  111TMC2    H2 1699   0.171   2.513  11.983 -1.8217 -0.1380  0.3808
  111TMC2    C7 1700   0.408   2.533  11.875 -0.7504 -0.2367  0.3596
  111TMC2    C8 1701   4.669   2.404  11.904 -0.2920  0.0835 -0.2083
  111TMC2    O1 1702   0.414   2.515  11.996 -0.2481  0.7586 -0.3296
  111TMC2    O2 1703   4.554   2.390  11.862  0.1995  0.7721 -0.4704
  111TMC2    O5 1704   4.719   2.353  12.016 -0.8652  0.1570  0.3647
  111TMC2    H5 1705   0.095   2.353  12.014 -0.8692 -1.8719  0.3281
  112MPD2     C 1706   0.457   2.169  11.090 -0.1174  0.6728  0.6911
  112MPD2    C1 1707   0.321   2.200  11.104  0.0506 -0.1830  0.1775
  112MPD2    C2 1708   0.275   2.238  11.235  0.4866  0.0205  0.0247
  112MPD2    C3 1709   0.360   2.249  11.331 -0.7057 -0.0953  0.1938
  112MPD2    C4 1710   0.493   2.212  11.319 -0.1564  0.1112  0.5228
  112MPD2    C5 1711   0.538   2.168  11.199  0.0675  0.3486  0.1521
  112MPD2     H 1712   0.173   2.275  11.242  0.5100  0.6617 -3.0538
  112MPD2    H1 1713   0.559   2.230  11.404  0.1875  0.7226  0.1346
  112MPD2    H2 1714   0.491   2.134  10.993  0.2733 -0.8493  1.3711
  112MPD2    H3 1715   0.643   2.144  11.190 -0.2099 -1.5894  1.9932
  112MPD2     N 1716   0.322   2.288  11.461  0.1982 -0.0349 -0.2180
  112MPD2    H5 1717   0.390   2.287  11.536 -0.0815  0.4304  0.0453
  112MPD2    N1 1718   0.233   2.203  10.993 -0.9308  0.4801 -0.5098
  112MPD2    H7 1719   0.134   2.207  11.015 -0.9648 -2.2099 -0.2499
  113MPD2     C 1720   3.919   0.094   1.577 -0.5807 -0.5491 -0.0658
  113MPD2    C1 1721   3.808   0.168   1.550  0.0496  0.5356 -0.5635
  113MPD2    C2 1722   3.727   0.129   1.440  0.6894 -0.0583  0.7618
  113MPD2    C3 1723   3.752   0.013   1.370  0.3530 -0.1256  0.4438
  113MPD2    C4 1724   3.857   4.662   1.404  0.4947 -0.2457  0.4577
  113MPD2    C5 1725   3.946   4.701   1.501  0.7012  0.0647 -0.7492
  113MPD2     H 1726   3.634   0.186   1.432  0.1519 -1.2543 -1.6057
  113MPD2    H1 1727   3.873   4.559   1.375  1.1837 -0.6457  2.2173
  113MPD2    H2 1728   3.987   0.108   1.660 -2.2363 -3.4104  1.7903
  113MPD2    H3 1729   4.031   4.637   1.520 -0.9863 -1.9944 -0.0469
  113MPD2     N 1730   3.676   4.694   1.256  0.1327  0.2877  0.3647
  113MPD2    H5 1731   3.701   4.605   1.214  3.1705  1.0454  0.5831
  113MPD2    N1 1732   3.766   0.285   1.615 -0.6946 -0.1600 -0.1817
  113MPD2    H7 1733   3.686   0.340   1.584 -0.0505  1.5581  1.1842
  114TCq2    C1 1734   3.570   0.037   1.199 -0.2951 -0.4485 -0.6577
  114TCq2    O2 1735   3.541   0.155   1.222 -0.3023 -0.3861 -0.3053
  114TCq2    C2 1736   3.486   4.670   1.125 -0.5514  0.7686 -0.2110
  114TCq2    C3 1737   3.388   0.006   1.047  0.0422  1.0743 -0.3116
  114TCq2    C4 1738   3.318   4.644   0.970  0.0248 -0.2336  0.2681
  114TCq2    C5 1739   3.345   4.513   0.958 -0.4950 -0.1034  0.2824
  114TCq2    C6 1740   3.444   4.463   1.040 -0.9114 -0.1522  0.0791
  114TCq2    C7 1741   3.511   4.539   1.122  0.2298 -0.6939 -0.2700
  114TCq2    C8 1742   3.445   4.324   1.062  0.1923 -0.3301 -0.1569
  114TCq2    O4 1743   3.438   4.254   0.961  0.3284 -0.0454 -0.4138
  114TCq2    C9 1744   3.209   4.700   0.887 -0.6553 -0.6473 -0.0985
  114TCq2    O5 1745   3.166   0.085   0.923 -0.3385 -0.1543  0.6617
  114TCq2    O6 1746   3.174   4.639   0.785  0.3756 -0.0084 -0.1813
  114TCq2    H2 1747   3.369   0.112   1.037 -4.1931  0.6432  3.1138
  114TCq2    H3 1748   3.284   4.445   0.899 -2.2196 -0.3366  2.3404
  114TCq2    H4 1749   3.594   4.494   1.175  1.8651 -0.6442 -2.7834
  115TMC2    C1 1750   4.328   2.167   0.156  0.2076 -0.2497 -0.0257
  115TMC2    C2 1751   4.396   2.203   0.270 -0.0980  0.1979  0.5351
  115TMC2    C3 1752   4.395   2.338   0.301  0.2582  0.8365 -0.3619
  115TMC2    C4 1753   4.262   2.249   0.070  0.1705 -0.4184 -0.5539
  115TMC2    C5 1754   4.270   2.384   0.107  0.3146 -0.1190  0.1057
  115TMC2    C6 1755   4.335   2.427   0.220 -0.1584  0.4847 -0.1764
  115TMC2     C 1756   4.331   2.029   0.122 -0.3221  0.3513  0.0872
  115TMC2     O 1757   4.249   1.995   0.035  0.5141  0.0375 -0.4922
  115TMC2     H 1758   4.438   2.133   0.341 -1.1490  0.5780  1.5308
  115TMC2    H1 1759   4.224   2.220  17.664  1.7730  0.6165 -1.4873
  115TMC2    H2 1760   4.328   2.531   0.250  2.4260  0.4900  0.4368
  115TMC2    C7 1761   4.207   2.480   0.019  0.3707 -0.2611  0.4627
  115TMC2    C8 1762   4.431   2.395   0.426  0.1590  0.1154 -0.0575
  115TMC2    O1 1763   4.101   2.445  17.658  0.5972  0.1403 -0.0689
  115TMC2    O2 1764   4.418   2.516   0.434 -0.3392 -0.2701  0.1493
  115TMC2    O5 1765   4.528   2.323   0.490  0.0685  0.0681  0.2380
  115TMC2    H5 1766   4.557   2.235   0.458 -1.2805 -0.3294  0.1168
  116MPD2     C 1767   4.597   1.607   0.034  0.3365 -0.8711  0.2180
  116MPD2    C1 1768   4.464   1.628   0.016  0.2819 -1.0251  0.0124
  116MPD2    C2 1769   4.407   1.751   0.059  0.0266 -0.0075 -0.0762
  116MPD2    C3 1770   4.490   1.839   0.125  0.2452 -0.0977 -0.3911
  116MPD2    C4 1771   4.616   1.805   0.162 -0.7223  0.1244  0.8142
  116MPD2    C5 1772   4.670   1.686   0.117  0.5923 -0.2003 -0.3806
  116MPD2     H 1773   4.300   1.765   0.058  0.0141 -0.1189 -0.5328
  116MPD2    H1 1774   4.683   1.863   0.225  2.7604 -0.4438 -2.3193
  116MPD2    H2 1775   4.641   1.517  17.684 -0.6952 -0.5002 -1.7178
  116MPD2    H3 1776   0.051   1.660   0.136  0.3689 -1.1929 -0.5280
  116MPD2     N 1777   4.442   1.967   0.165  0.0664 -0.0165  0.1148
  116MPD2    H5 1778   4.513   2.014   0.220 -0.0221 -0.8655  0.9583
  116MPD2    N1 1779   4.408   1.529  17.628  0.2968  0.3262  0.4598
  116MPD2    H7 1780   4.468   1.459  17.585 -2.7991 -1.5675 -0.8055
  117TMC2    C1 1781   2.229   4.357  13.460  0.1158  0.2745 -0.4873
  117TMC2    C2 1782   2.262   4.396  13.334  0.2180 -0.3705  0.5692
  117TMC2    C3 1783   2.398   4.390  13.312  0.1885  0.2980  0.3946
  117TMC2    C4 1784   2.314   4.320  13.564 -0.3782 -0.1985 -0.0899
  117TMC2    C5 1785   2.447   4.318  13.531 -0.1563  0.4710  0.6517
  117TMC2    C6 1786   2.489   4.352  13.403 -0.2923  0.3864  0.8458
  117TMC2     C 1787   2.090   4.385  13.484  0.6974  0.3405  0.1046
  117TMC2     O 1788   2.012   4.387  13.390 -0.0024 -0.6165  0.4963
  117TMC2     H 1789   2.194   4.438  13.260  1.6287  0.0530 -0.4976
  117TMC2    H1 1790   2.289   4.284  13.663 -2.8165  0.3103 -0.5118
  117TMC2    H2 1791   2.594   4.359  13.376 -0.2733 -0.3244  0.7344
  117TMC2    C7 1792   2.533   4.305  13.651  0.3704 -0.2426 -0.6370
  117TMC2    C8 1793   2.459   4.437  13.189  0.2143 -0.6911  0.6617
  117TMC2    O1 1794   2.482   4.326  13.764  0.1750  0.1059 -0.0778
  117TMC2    O2 1795   2.567   4.494  13.184  0.4712 -0.5265  0.1561
  117TMC2    O5 1796   2.360   4.449  13.100  0.2141 -0.3869  0.6470
  117TMC2    H5 1797   2.274   4.408  13.122  0.3162  0.3604  2.4382
  118MPD2     C 1798   2.905   4.289  13.657 -0.2107 -1.1237  0.3099
  118MPD2    C1 1799   2.777   4.280  13.714 -0.0698 -0.1958  0.2702
  118MPD2    C2 1800   2.762   4.273  13.854 -0.5256  0.1386  0.3609
  118MPD2    C3 1801   2.879   4.271  13.929 -0.7972 -0.5457 -0.3336
  118MPD2    C4 1802   3.008   4.288  13.873 -0.4104 -0.3253  0.1127
  118MPD2    C5 1803   3.021   4.300  13.736 -0.2001 -1.5462  0.5642
  118MPD2     H 1804   2.665   4.262  13.900 -0.8970 -0.5102 -0.5669
  118MPD2    H1 1805   3.096   4.299  13.936 -1.0637  1.6263  0.6986
  118MPD2    H2 1806   2.916   4.307  13.550  0.5211  4.6031  1.3504
  118MPD2    H3 1807   3.118   4.327  13.696  0.6419  0.9604  4.2892
  118MPD2     N 1808   2.878   4.261  14.067  0.4955  0.3006  0.1774
  118MPD2    H5 1809   2.964   4.263  14.121  0.0317 -2.0974  1.0013
  118MPD2    N1 1810   2.672   4.288  13.623  0.5445 -0.4136  0.1242
  118MPD2    H7 1811   2.691   4.278  13.524 -1.7436  1.9470 -0.5499
  119MPD2     C 1812   1.822   0.780  13.983 -0.4714  0.1226  0.3133
  119MPD2    C1 1813   1.704   0.852  13.970  0.1998  0.4786 -0.0202
  119MPD2    C2 1814   1.602   0.812  13.886 -0.4239 -0.6243 -0.2489
  119MPD2    C3 1815   1.617   0.702  13.800 -0.1166  0.7357 -0.0423
  119MPD2    C4 1816   1.746   0.642  13.805 -0.6116 -0.5864 -0.3179
  119MPD2    C5 1817   1.839   0.680  13.893 -0.1761 -0.6198  0.6085
  119MPD2     H 1818   1.517   0.877  13.871  0.0234 -0.1361 -0.6599
  119MPD2    H1 1819   1.784   0.556  13.750  2.3484 -0.4043  1.5023
  119MPD2    H2 1820   1.903   0.801  14.052 -1.0469 -1.4313  1.4600
  119MPD2    H3 1821   1.927   0.618  13.907  0.8033  0.8647  1.0370
  119MPD2     N 1822   1.512   0.638  13.725 -1.4441 -0.2674 -0.6827
  119MPD2    H5 1823   1.530   0.540  13.709 -0.7916 -0.0525 -1.3058
  119MPD2    N1 1824   1.686   0.957  14.062  0.5659 -0.7896  0.4389
  119MPD2    H7 1825   1.767   0.996  14.109 -0.1501 -1.0895  1.8984
  120TCq2    C1 1826   1.386   0.689  13.698  0.6552  0.5691  0.0535
  120TCq2    O2 1827   1.343   0.801  13.717 -0.1260  0.3755 -0.8070
  120TCq2    C2 1828   1.295   0.585  13.645 -0.8033  0.3303  0.3171
  120TCq2    C3 1829   1.352   0.498  13.559  0.1013  0.4994 -0.2171
  120TCq2    C4 1830   1.275   0.420  13.479  1.2031 -0.0547 -0.3632
  120TCq2    C5 1831   1.140   0.418  13.501 -0.0362 -0.3926  0.8773
  120TCq2    C6 1832   1.080   0.501  13.595 -0.0891  1.0151  0.6264
  120TCq2    C7 1833   1.161   0.596  13.665 -0.1137  0.5969 -0.2791
  120TCq2    C8 1834   0.935   0.499  13.602 -0.0855  0.7983 -0.4844
  120TCq2    O4 1835   0.874   0.450  13.506  0.3265  0.6591 -0.3052
  120TCq2    C9 1836   1.332   0.342  13.373  0.4776  0.7045 -0.6390
  120TCq2    O5 1837   1.461   0.331  13.370  0.5303 -0.0188  0.1929
  120TCq2    O6 1838   1.262   0.270  13.299 -0.3191  0.1343 -0.5062
  120TCq2    H2 1839   1.459   0.490  13.546 -0.2859 -1.8013 -2.0906
  120TCq2    H3 1840   1.071   0.351  13.451  0.8494 -1.0632  0.5384
  120TCq2    H4 1841   1.131   0.683  13.722 -0.1084 -0.6559  1.6152
  121TMC2    C1 1842   2.409   2.296  14.331 -0.1901  0.3959  0.0963
  121TMC2    C2 1843   2.348   2.224  14.423  0.2235  0.1398  0.2762
  121TMC2    C3 1844   2.220   2.266  14.450  0.1941  0.1677 -0.0496
  121TMC2    C4 1845   2.341   2.402  14.258  0.0848  0.0188  0.2895
  121TMC2    C5 1846   2.212   2.427  14.278  0.7349 -0.2339  0.0678
  121TMC2    C6 1847   2.142   2.351  14.370 -0.4757  0.3001  0.3645
  121TMC2     C 1848   2.549   2.264  14.325  0.1531 -0.7301  0.1050
  121TMC2     O 1849   2.609   2.204  14.413 -0.0437  0.3526  0.0755
  121TMC2     H 1850   2.409   2.148  14.473 -1.0010 -1.8439 -1.2454
  121TMC2    H1 1851   2.402   2.465  14.194 -1.3169  0.5097 -0.5647
  121TMC2    H2 1852   2.035   2.364  14.382 -0.3084  0.7248  1.4468
  121TMC2    C7 1853   2.146   2.492  14.169  0.0814 -0.0639  0.2468
  121TMC2    C8 1854   2.155   2.230  14.580  0.1430  0.5307 -0.4642
  121TMC2    O1 1855   2.218   2.542  14.083 -0.0052  0.0551 -0.5784
  121TMC2    O2 1856   2.040   2.260  14.615  0.3173  0.2169  0.2123
  121TMC2    O5 1857   2.235   2.139  14.639 -0.3440  0.2759  0.3612
  121TMC2    H5 1858   2.323   2.128  14.598 -1.1353  0.3161 -1.3389
  122MPD2     C 1859   2.828   2.227  14.229  0.0078  0.1124 -0.5536
  122MPD2    C1 1860   2.734   2.297  14.158 -0.3722 -0.6334 -0.2583
  122MPD2    C2 1861   2.764   2.356  14.037 -0.1651  0.5248 -0.2719
  122MPD2    C3 1862   2.895   2.345  13.985 -0.1140 -0.1085 -0.1599
  122MPD2    C4 1863   2.986   2.275  14.055  0.7559 -0.6148  0.0351
  122MPD2    C5 1864   2.957   2.222  14.173  0.3078 -0.4197 -0.3039
  122MPD2     H 1865   2.680   2.405  13.989 -0.8843 -0.7033 -0.2811
  122MPD2    H1 1866   3.091   2.283  14.027  0.5192 -0.1235 -0.7123
  122MPD2    H2 1867   2.815   2.187  14.329  1.9494 -0.0926 -0.3847
  122MPD2    H3 1868   3.041   2.180  14.227  2.1589  2.1041 -1.2135
  122MPD2     N 1869   2.940   2.412  13.867  0.4751  0.5717  0.3656
  122MPD2    H5 1870   3.030   2.384  13.827  1.2723  0.8100  1.9859
  122MPD2    N1 1871   2.599   2.312  14.208  0.2064  0.3242 -0.1504
  122MPD2    H7 1872   2.531   2.362  14.151 -1.4521  0.3833  1.8504
  123MPD2     C 1873   0.504   4.355   9.463  0.1544  0.6830  0.0203
  123MPD2    C1 1874   0.459   4.485   9.447  0.6591 -0.9967  0.1969
  123MPD2    C2 1875   0.515   4.572   9.354 -0.4711 -0.5630 -0.1647
  123MPD2    C3 1876   0.616   4.523   9.276 -0.2497  0.3373 -0.2800
  123MPD2    C4 1877   0.653   4.387   9.284  0.0837  0.2289  0.0552
  123MPD2    C5 1878   0.592   4.302   9.371  0.1512 -0.1092  0.6925
  123MPD2     H 1879   0.487   4.677   9.349  0.3348 -0.3290  0.2744
  123MPD2    H1 1880   0.726   4.350   9.213 -0.8109 -0.8596 -0.2981
  123MPD2    H2 1881   0.461   4.283   9.532  1.5599 -0.7653 -0.6250
  123MPD2    H3 1882   0.609   4.195   9.361  2.3456  0.4490 -1.5815
  123MPD2     N 1883   0.672   4.622   9.188 -0.4580 -0.1055  0.0989
  123MPD2    H5 1884   0.629   4.714   9.193 -1.5682 -0.6585  0.9132
  123MPD2    N1 1885   0.338   4.515   9.516 -0.4469 -0.0493  0.9370
  123MPD2    H7 1886   0.289   4.438   9.561 -2.0889  0.1177 -0.5541
  124TCq2    C1 1887   0.777   4.605   9.099 -0.7163 -1.2749 -0.3047
  124TCq2    O2 1888   0.851   4.507   9.089  0.2997  0.2834  0.0355
  124TCq2    C2 1889   0.825   0.004   9.035  0.3190  0.3727  0.3011
  124TCq2    C3 1890   0.866   4.703   8.910  0.0653  0.2045  0.0425
  124TCq2    C4 1891   0.974   0.048   8.859 -0.7905 -0.1030 -0.5424
  124TCq2    C5 1892   1.032   0.149   8.930 -0.2252 -0.9551 -0.0855
  124TCq2    C6 1893   0.979   0.181   9.053 -1.2398  0.1790 -0.7300
  124TCq2    C7 1894   0.880   0.106   9.106  0.3578  0.1203  0.6146
  124TCq2    C8 1895   1.050   0.268   9.147  0.5676  0.4311 -1.1469
  124TCq2    O4 1896   1.020   0.268   9.265  0.0703  0.2995 -0.4804
  124TCq2    C9 1897   1.013   0.020   8.727  0.5152 -0.5346 -0.1384
  124TCq2    O5 1898   1.126   0.058   8.684 -0.1850 -0.5759  0.5160
  124TCq2    O6 1899   0.937   4.662   8.666  0.6145 -0.3474  0.4293
  124TCq2    H2 1900   0.815   4.629   8.850  0.0776 -1.4054  2.0198
  124TCq2    H3 1901   1.107   0.209   8.879  0.9008 -3.1183 -0.9444
  124TCq2    H4 1902   0.849   0.119   9.209 -1.4545  1.5260 -0.0896
  125TMC2    C1 1903   1.338   0.136   9.487  0.6720 -0.4261  0.1923
  125TMC2    C2 1904   1.280   0.049   9.397 -0.1362  0.4151 -0.1706
  125TMC2    C3 1905   1.338   0.037   9.277  0.5563 -0.2784 -1.1836
  125TMC2    C4 1906   1.447   0.210   9.457 -0.1052 -0.0015  0.3886
  125TMC2    C5 1907   1.501   0.195   9.333 -0.1333 -0.2265 -0.0626
  125TMC2    C6 1908   1.446   0.105   9.242  0.7034  0.4453  0.2729
  125TMC2     C 1909   1.301   0.127   9.626  0.3100  0.2365  0.2633
  125TMC2     O 1910   1.186   0.086   9.638  0.1547 -0.2269  0.0395
  125TMC2     H 1911   1.196   4.709   9.427 -1.0148  0.3573 -2.7985
  125TMC2    H1 1912   1.465   0.294   9.523  0.0707  2.3811 -2.7150
  125TMC2    H2 1913   1.475   0.090   9.139  1.7266  2.1955  0.3238
  125TMC2    C7 1914   1.590   0.303   9.283 -0.8850 -1.0145  0.5996
  125TMC2    C8 1915   1.277   4.680   9.179 -0.1934  0.0543 -0.1762
  125TMC2    O1 1916   1.598   0.313   9.163  0.3757 -0.3353 -0.2768
  125TMC2    O2 1917   1.283   4.699   9.061 -0.2193  0.0303  0.8108
  125TMC2    O5 1918   1.215   4.576   9.242 -0.3462 -0.0291 -0.4399
  125TMC2    H5 1919   1.240   4.575   9.337 -0.9368 -0.2366 -0.2871
  126MPD1     C 1920   1.361   0.053  10.134 -0.1627  0.0221  0.0159
  126MPD1    C1 1921   1.484   0.066  10.076 -0.9196 -0.7338  0.4521
  126MPD1    C2 1922   1.493   0.096   9.943  0.1212 -0.8172 -0.6487
  126MPD1    C3 1923   1.382   0.097   9.857 -0.2783  0.4750 -0.7634
  126MPD1    C4 1924   1.266   0.082   9.919 -0.0449 -0.0236 -0.5181
  126MPD1    C5 1925   1.255   0.066  10.052 -0.0697 -0.5474 -0.3907
  126MPD1     H 1926   1.587   0.121   9.894 -0.5289 -0.9656 -1.9820
  126MPD1    H1 1927   1.174   0.078   9.862 -2.3545  1.2330  3.1200
  126MPD1    H2 1928   1.354   0.038  10.241  0.6129  0.9490  0.1944
  126MPD1    H3 1929   1.152   0.052  10.084  0.3941 -2.3515  0.3288
  126MPD1     N 1930   1.405   0.133   9.718 -0.1557 -0.2963 -0.0770
  126MPD1    H5 1931   1.503   0.145   9.694 -0.2351 -1.4406 -0.9667
  126MPD1    N1 1932   1.595   0.092  10.163 -0.1065 -0.8230 -0.3402
  126MPD1    H6 1933   1.683   0.079  10.113 -0.5983  0.9934 -1.6688
  126MPD1    H7 1934   1.600   0.028  10.242 -1.6890  0.8779  1.1400
  127MPD2     C 1935   3.246   1.238   9.457 -0.5618 -0.3294 -0.3278
  127MPD2    C1 1936   3.109   1.213   9.476 -0.1214  0.1461 -0.3563
  127MPD2    C2 1937   3.043   1.279   9.573 -0.3440 -0.0493 -0.2408
  127MPD2    C3 1938   3.111   1.364   9.659  0.2648  0.0376  0.0170
  127MPD2    C4 1939   3.249   1.375   9.651  0.1862 -0.1775  0.0684
  127MPD2    C5 1940   3.315   1.317   9.542 -0.0742 -0.6182 -0.4092
  127MPD2     H 1941   2.935   1.267   9.579 -0.3286 -0.4815 -0.9286
  127MPD2    H1 1942   3.312   1.430   9.720  0.9989 -0.8188 -0.1631
  127MPD2    H2 1943   3.297   1.185   9.377  2.2904  0.3815  1.0082
  127MPD2    H3 1944   3.420   1.326   9.515 -0.4799  0.5920 -1.5421
  127MPD2     N 1945   3.025   1.432   9.747  0.4315  0.3069 -0.1661
  127MPD2    H5 1946   2.925   1.421   9.733  0.2500  1.1696  0.4533
  127MPD2    N1 1947   3.047   1.128   9.385 -0.4522  0.0650 -0.1697
  127MPD2    H7 1948   3.097   1.112   9.298 -0.5356  1.7154 -0.5325
  128TCq2    C1 1949   2.924   1.070   9.404 -0.3714 -0.1831  0.1977
  128TCq2    O2 1950   2.863   1.056   9.507 -0.0639 -0.4714 -0.5110
  128TCq2    C2 1951   2.874   1.003   9.286 -0.3668 -0.2259 -0.3145
  128TCq2    C3 1952   2.951   1.014   9.173  0.0978 -0.9074 -0.5190
  128TCq2    C4 1953   2.895   0.983   9.053  0.2153 -0.4444  0.2229
  128TCq2    C5 1954   2.762   0.947   9.040 -0.7183 -0.0550  0.1447
  128TCq2    C6 1955   2.687   0.946   9.153 -0.3658 -0.0564 -1.2316
  128TCq2    C7 1956   2.744   0.967   9.275  0.8120 -0.5410 -0.1086
  128TCq2    C8 1957   2.560   0.867   9.148  0.6551 -0.4203 -0.1725
  128TCq2    O4 1958   2.511   0.847   9.037 -0.4141 -0.3227 -0.7738
  128TCq2    C9 1959   2.971   0.986   8.935  0.6371  0.3114 -0.5784
  128TCq2    O5 1960   3.080   1.051   8.932  0.5264  0.2018 -0.2210
  128TCq2    O6 1961   2.929   0.918   8.835 -0.0258  0.1155 -0.3546
  128TCq2    H2 1962   3.057   1.034   9.172  0.0240 -0.4918 -0.1827
  128TCq2    H3 1963   2.721   0.899   8.952  0.1218  2.3796 -1.5512
  128TCq2    H4 1964   2.682   0.976   9.364 -2.4166 -0.1921 -2.3757
  129MPD2     C 1965   1.949   1.767   2.206 -0.4727  0.0237 -0.2261
  129MPD2    C1 1966   1.836   1.752   2.132 -0.4002 -0.2424 -0.1607
  129MPD2    C2 1967   1.818   1.829   2.018  0.2831  0.0481 -0.7960
  129MPD2    C3 1968   1.914   1.921   1.979 -0.5952  0.2765 -0.2719
  129MPD2    C4 1969   2.024   1.933   2.059  0.2920 -0.1676 -0.1502
  129MPD2    C5 1970   2.039   1.859   2.173  0.1850 -0.2721 -0.8780
  129MPD2     H 1971   1.731   1.828   1.953 -0.1657  0.4387 -0.2026
  129MPD2    H1 1972   2.102   2.007   2.041 -0.2416  0.8178  1.6063
  129MPD2    H2 1973   1.972   1.694   2.283  1.1832  0.0999 -0.6568
  129MPD2    H3 1974   2.129   1.868   2.232 -0.1485 -1.4212 -0.1939
  129MPD2     N 1975   1.895   1.998   1.856 -0.3299 -0.8665  0.5999
  129MPD2    H5 1976   1.823   1.961   1.795 -1.1461  1.9751 -0.1188
  129MPD2    N1 1977   1.734   1.665   2.173 -0.8986  0.7510  0.9604
  129MPD2    H7 1978   1.648   1.662   2.120 -0.9304 -1.0020  1.0981
  130TCq2    C1 1979   1.736   1.590   2.292  0.0418  0.0718  0.4085
  130TCq2    O2 1980   1.811   1.598   2.390  0.5063  0.2931  0.2778
  130TCq2    C2 1981   1.634   1.478   2.297  0.5679 -0.4347  0.7853
  130TCq2    C3 1982   1.600   1.415   2.182 -0.0842 -0.0416  0.2002
  130TCq2    C4 1983   1.512   1.312   2.190 -1.4248  0.0804 -0.5074
  130TCq2    C5 1984   1.472   1.259   2.306  0.1235  0.0789 -0.2148
  130TCq2    C6 1985   1.514   1.317   2.423  0.2843 -0.4992 -0.3281
  130TCq2    C7 1986   1.603   1.421   2.423  0.0055 -0.2549  0.0776
  130TCq2    C8 1987   1.455   1.259   2.548 -0.3080 -0.1343 -0.2062
  130TCq2    O4 1988   1.399   1.152   2.533  0.4030 -0.0198 -0.5153
  130TCq2    C9 1989   1.455   1.251   2.075  0.6822 -0.0285 -0.5372
  130TCq2    O5 1990   1.468   1.322   1.973 -0.1021 -0.3689 -0.0945
  130TCq2    O6 1991   1.435   1.126   2.082  0.4778  0.6310  0.1066
  130TCq2    H2 1992   1.654   1.440   2.092 -0.4508 -2.0735 -0.5767
  130TCq2    H3 1993   1.396   1.182   2.313 -0.3483  0.3699 -2.2432
  130TCq2    H4 1994   1.632   1.474   2.513 -1.1896 -0.2193  0.4411
  131MPD2     C 1995   4.650   0.672   9.818  0.5059  0.0778  0.9641
  131MPD2    C1 1996   0.048   0.619   9.858 -0.1796 -0.2042 -0.6881
  131MPD2    C2 1997   0.067   0.485   9.825  0.4564 -0.5912 -0.2025
  131MPD2    C3 1998   4.692   0.405   9.775 -0.2336  0.3278  0.2670
  131MPD2    C4 1999   4.566   0.453   9.753 -0.1143 -0.2272 -0.2475
  131MPD2    C5 2000   4.547   0.591   9.765 -0.2888 -0.0789  0.7050
  131MPD2     H 2001   0.159   0.435   9.853 -0.2634  0.1763  3.5799
  131MPD2    H1 2002   4.490   0.399   9.697  1.0410 -0.7535 -1.3092
  131MPD2    H2 2003   4.626   0.775   9.839  1.2411  0.1983  1.1971
  131MPD2    H3 2004   4.454   0.643   9.743 -0.8732 -1.0111  0.9682
  131MPD2     N 2005   0.007   0.270   9.756  0.9016 -0.3725  0.8720
  131MPD2    H5 2006   0.100   0.229   9.764  0.8780 -0.6006 -0.1018
  131MPD2    N1 2007   0.147   0.715   9.897 -0.2857 -0.2412  0.3619
  131MPD2    H7 2008   0.124   0.813   9.888 -0.1150 -0.0537  2.0992
  132TCq2    C1 2009   0.719   0.810  10.055  0.7684 -0.3251  0.2548
  132TCq2    O2 2010   0.743   0.687  10.071 -0.0946  0.6290 -0.1314
  132TCq2    C2 2011   0.581   0.844  10.030  0.4762 -0.0649  0.1030
  132TCq2    C3 2012   0.536   0.966  10.073 -0.0984 -0.3147  0.4335
  132TCq2    C4 2013   0.402   0.998  10.058 -0.1912 -0.0601  0.6018
  132TCq2    C5 2014   0.317   0.905  10.000  0.1716 -0.6180 -0.3216
  132TCq2    C6 2015   0.374   0.783   9.967 -0.1355 -0.2157 -0.4828
  132TCq2    C7 2016   0.506   0.749   9.979  0.7230 -0.0180 -0.3154
  132TCq2    C8 2017   0.278   0.681   9.931 -0.3731  0.0589 -0.3689
  132TCq2    O4 2018   0.318   0.565   9.935  0.3406  0.3646 -0.1676
  132TCq2    C9 2019   0.342   1.117  10.101  0.8205 -0.6132 -0.6704
  132TCq2    O5 2020   0.217   1.127  10.093 -0.3182  0.1009 -0.1394
  132TCq2    O6 2021   0.418   1.184  10.171  0.0812 -0.1842  0.7354
  132TCq2    H2 2022   0.595   1.047  10.114 -0.9435 -0.6351  2.3080
  132TCq2    H3 2023   0.216   0.933   9.972  0.8138 -0.6797 -2.6914
  132TCq2    H4 2024   0.551   0.656   9.949  1.0360  0.2039 -0.5371
  133MPD2     C 2025   0.120   2.068   9.379 -0.3444 -0.3280 -0.3742
  133MPD2    C1 2026   0.208   1.966   9.413  0.5557  0.3134  0.7968
  133MPD2    C2 2027   0.160   1.839   9.416  0.5981  0.3731 -0.5113
  133MPD2    C3 2028   0.031   1.817   9.389 -0.6728 -0.7637 -0.6582
  133MPD2    C4 2029   4.661   1.912   9.353 -0.0415 -0.8011  0.1994
  133MPD2    C5 2030   4.708   2.038   9.355 -0.0350  0.6974 -0.0960
  133MPD2     H 2031   0.227   1.754   9.431 -1.3962 -0.8964  1.1106
  133MPD2    H1 2032   4.557   1.891   9.332  0.1769  0.5722 -2.2687
  133MPD2    H2 2033   0.149   2.172   9.380 -1.3876 -0.0383 -0.1007
  133MPD2    H3 2034   4.640   2.119   9.330 -1.3614 -1.1711 -2.5391
  133MPD2     N 2035   4.698   1.683   9.381  0.4799  0.0639 -0.2255
  133MPD2    H5 2036   4.604   1.675   9.343  0.4365  1.8692 -0.5145
  133MPD2    N1 2037   0.341   2.002   9.460 -0.4443 -0.1973 -0.2931
  133MPD2    H7 2038   0.375   2.095   9.435  0.6596 -0.5541 -0.1260
  134TCq2    C1 2039   0.440   1.913   9.477  0.0003 -0.0775  0.7317
  134TCq2    O2 2040   0.444   1.792   9.491 -0.5393  0.3764 -0.1777
  134TCq2    C2 2041   0.576   1.977   9.484 -0.4872 -0.3547 -1.0242
  134TCq2    C3 2042   0.585   2.115   9.505 -0.4149 -0.5966  0.3691
  134TCq2    C4 2043   0.708   2.171   9.488  0.1246 -0.5955 -0.1790
  134TCq2    C5 2044   0.819   2.102   9.443 -0.1742  0.3257 -0.3136
  134TCq2    C6 2045   0.808   1.964   9.430 -0.5771 -0.1245 -0.3416
  134TCq2    C7 2046   0.688   1.901   9.444  0.7197  0.0961 -0.2687
  134TCq2    C8 2047   0.920   1.892   9.371 -0.2003  0.1732  0.7325
  134TCq2    O4 2048   0.897   1.806   9.284  0.3572  0.4271 -0.1056
  134TCq2    C9 2049   0.714   2.318   9.501 -0.0154 -0.1361  1.0643
  134TCq2    O5 2050   0.828   2.361   9.467  0.6187  0.5264 -0.1691
  134TCq2    O6 2051   0.606   2.379   9.477  0.4882 -0.4823  0.0335
  134TCq2    H2 2052   0.502   2.182   9.525  1.0621  1.7158 -1.2842
  134TCq2    H3 2053   0.912   2.153   9.420 -0.6089  0.4257 -1.8131
  134TCq2    H4 2054   0.682   1.797   9.414 -0.6193  1.0622 -3.3799
  135MPD2     C 2055   2.398   2.782   9.863  0.1042  0.0221 -0.2145
  135MPD2    C1 2056   2.277   2.725   9.825 -0.1283 -0.1618  0.2387
  135MPD2    C2 2057   2.283   2.598   9.772  0.0581  0.7149 -0.3902
  135MPD2    C3 2058   2.402   2.534   9.747 -0.3133 -0.1684  0.2224
  135MPD2    C4 2059   2.519   2.594   9.781 -0.1532 -0.0261 -0.2538
  135MPD2    C5 2060   2.517   2.723   9.834 -0.2676  0.0812  0.3065
  135MPD2     H 2061   2.188   2.550   9.752  1.0793 -1.3595 -0.2116
  135MPD2    H1 2062   2.616   2.557   9.752  0.1856 -0.2558  1.1844
  135MPD2    H2 2063   2.401   2.884   9.900  0.1926  0.0654 -0.3447
  135MPD2    H3 2064   2.614   2.769   9.849 -0.2828  0.2757 -0.2178
  135MPD2     N 2065   2.421   2.405   9.695 -0.1217  0.9598  0.0845
  135MPD2    H5 2066   2.517   2.378   9.673 -0.3594 -0.3651  0.6552
  135MPD2    N1 2067   2.150   2.780   9.862 -0.3048 -0.2320 -0.4070
  135MPD2    H7 2068   2.067   2.727   9.836 -1.1037  1.8779 -2.1558
  136TCq2    C1 2069   2.138   2.888   9.951 -0.0319  0.1079 -0.0512
  136TCq2    O2 2070   2.222   2.932  10.029 -0.3505  0.0110 -0.6311
  136TCq2    C2 2071   1.999   2.931   9.971  0.2110  0.5242 -0.2580
  136TCq2    C3 2072   1.917   2.860   9.884  0.2072  0.8656  0.3039
  136TCq2    C4 2073   1.791   2.814   9.939 -0.5574  0.2281  0.7270
  136TCq2    C5 2074   1.753   2.849  10.071 -0.1299 -0.1613  0.6106
  136TCq2    C6 2075   1.849   2.924  10.142 -0.1194 -0.4632  0.6226
  136TCq2    C7 2076   1.975   2.956  10.100  0.0084  0.9958 -0.4664
  136TCq2    C8 2077   1.828   2.926  10.287  0.4582 -0.8237 -0.2660
  136TCq2    O4 2078   1.881   3.017  10.344 -0.3690 -0.8397  0.5128
  136TCq2    C9 2079   1.701   2.742   9.854  0.9107  0.3645  0.3430
  136TCq2    O5 2080   1.743   2.715   9.741  0.3585  0.4760  0.2378
  136TCq2    O6 2081   1.591   2.713   9.907 -0.4636  0.5987 -0.0334
  136TCq2    H2 2082   1.932   2.856   9.777  0.5275  1.1297  0.3405
  136TCq2    H3 2083   1.655   2.827  10.109  0.6622 -1.3563  1.9394
  136TCq2    H4 2084   2.046   3.010  10.161 -1.3068  3.2663 -0.9325
  137MPD2     C 2085   2.526   1.977  10.250  0.6719 -0.0768 -0.0888
  137MPD2    C1 2086   2.460   1.867  10.313 -0.4355 -0.2817 -0.1728
  137MPD2    C2 2087   2.395   1.899  10.431 -0.2986 -0.4943 -0.2054
  137MPD2    C3 2088   2.394   2.020  10.484 -0.4157  0.6967 -0.4060
  137MPD2    C4 2089   2.450   2.131  10.418  0.3475 -0.7603 -0.1017
  137MPD2    C5 2090   2.515   2.104  10.303  0.8023  0.5544  0.2956
  137MPD2     H 2091   2.342   1.830  10.495 -2.3261 -0.4203 -1.8116
  137MPD2    H1 2092   2.445   2.232  10.456 -0.6175 -0.7832 -0.1698
  137MPD2    H2 2093   2.586   1.959  10.161  0.8486  0.1847 -0.0211
  137MPD2    H3 2094   2.537   2.196  10.250 -0.9103 -0.9964 -3.0790
  137MPD2     N 2095   2.325   2.033  10.612  0.3960 -0.4863 -1.0030
  137MPD2    H5 2096   2.279   1.950  10.648 -0.5260 -0.2143 -1.5620
  137MPD2    N1 2097   2.487   1.747  10.258  0.0856  0.3145 -0.9488
  137MPD2    H7 2098   2.531   1.743  10.166 -1.0122 -0.9911 -1.4158
  138TCq2    C1 2099   2.435   1.634  10.309  0.7090 -0.7713  0.1735
  138TCq2    O2 2100   2.351   1.615  10.394 -0.4948 -0.0077 -0.3289
  138TCq2    C2 2101   2.471   1.522  10.225  0.2708 -0.0042 -0.2132
  138TCq2    C3 2102   2.598   1.507  10.188 -0.0045  0.2870 -0.4418
  138TCq2    C4 2103   2.629   1.399  10.115  0.3332  0.8668  0.5997
  138TCq2    C5 2104   2.534   1.306  10.080 -0.3939 -0.0168  0.1219
  138TCq2    C6 2105   2.402   1.320  10.124  0.6704  0.1825 -0.5325
  138TCq2    C7 2106   2.372   1.428  10.199  0.4796 -0.0455  1.0147
  138TCq2    C8 2107   2.308   1.219  10.094  0.4582 -0.2691  0.6481
  138TCq2    O4 2108   2.350   1.123  10.035  0.1121 -0.2519 -0.0873
  138TCq2    C9 2109   2.768   1.380  10.076 -0.2795 -0.4830  0.0546
  138TCq2    O5 2110   2.849   1.464  10.121  0.0134 -0.2376  0.6708
  138TCq2    O6 2111   2.800   1.280  10.009 -0.1454  0.2952 -0.3054
  138TCq2    H2 2112   2.685   1.569  10.209  1.6471 -1.1073 -3.1376
  138TCq2    H3 2113   2.567   1.227  10.013  0.0148  0.8207 -0.6724
  138TCq2    H4 2114   2.270   1.450  10.229 -0.0588  1.0552 -1.5727
  139TMC2    C1 2115   2.766   4.696  13.686  0.0309 -0.6792  0.0378
  139TMC2    C2 2116   2.837   4.653  13.795 -0.1654  0.3863  0.1480
  139TMC2    C3 2117   2.792   4.697  13.912  0.4365 -0.4018  0.1577
  139TMC2    C4 2118   2.654   0.059  13.695 -0.9502 -0.3351  0.4942
  139TMC2    C5 2119   2.612   0.088  13.822 -0.4883  0.0766  0.0696
  139TMC2    C6 2120   2.683   0.045  13.923  0.0659 -0.0087 -0.3875
  139TMC2     C 2121   2.796   4.668  13.547  0.0160  0.1991  0.3928
  139TMC2     O 2122   2.710   4.684  13.460  0.7534  0.2650  0.1771
  139TMC2     H 2123   2.924   4.588  13.793  1.3574  2.4349 -0.1644
  139TMC2    H1 2124   2.599   0.101  13.612 -0.5850  2.2823  1.5912
  139TMC2    H2 2125   2.659   0.065  14.027 -1.6745 -0.5318 -0.6893
  139TMC2    C7 2126   2.514   0.196  13.841  0.5404 -0.2354 -0.1268
  139TMC2    C8 2127   2.830   4.617  14.019 -0.6085 -0.0361  0.1284
  139TMC2    O1 2128   2.439   0.219  13.749  0.0921  0.9002  0.1348
  139TMC2    O2 2129   2.762   4.565  14.104 -0.2532  0.7704  0.8801
  139TMC2    O5 2130   2.970   4.625  14.023  0.0302 -0.0629  0.3234
  139TMC2    H5 2131   3.011   4.691  13.963 -3.4838  0.9338 -1.0517
  140MPD2     C 2132   3.095   4.518  13.421 -0.2787  0.0271 -0.0020
  140MPD2    C1 2133   2.961   4.549  13.422  0.5084  0.1890 -0.4302
  140MPD2    C2 2134   2.885   4.507  13.312  0.2603  0.0233 -0.1302
  140MPD2    C3 2135   2.943   4.451  13.201  0.4983 -0.2961  0.5370
  140MPD2    C4 2136   3.081   4.429  13.200  0.0131  0.3653  0.5519
  140MPD2    C5 2137   3.151   4.456  13.313  0.0210  0.4272  0.2859
  140MPD2     H 2138   2.780   4.533  13.309  0.1873 -0.1528  0.8349
  140MPD2    H1 2139   3.134   4.385  13.117 -0.8553  1.9537 -0.8265
  140MPD2    H2 2140   3.147   4.541  13.513 -1.6018 -0.7726  0.9308
  140MPD2    H3 2141   3.255   4.425  13.319  0.0508  0.2689 -1.2442
  140MPD2     N 2142   2.855   4.401  13.102  0.6023  0.4511 -0.2071
  140MPD2    H5 2143   2.756   4.411  13.123  0.6767  0.1046  0.3209
  140MPD2    N1 2144   2.914   4.598  13.544  0.7957 -0.2778  0.2535
  140MPD2    H7 2145   2.971   4.601  13.628  1.5251 -0.2446 -0.2463
  141TCq2    C1 2146   3.408   1.950  14.160 -0.1198  0.3176 -0.2939
  141TCq2    O2 2147   3.434   1.947  14.039 -0.4033 -0.9245 -0.5950
  141TCq2    C2 2148   3.372   2.076  14.210 -0.0202 -1.0190  0.3042
  141TCq2    C3 2149   3.315   2.082  14.333 -0.4142  0.6236  1.0406
  141TCq2    C4 2150   3.298   2.203  14.391 -0.2422 -0.8439 -0.5549
  141TCq2    C5 2151   3.325   2.313  14.318  0.2557 -0.3384  0.3356
  141TCq2    C6 2152   3.373   2.306  14.188 -0.7641 -0.3558  0.2813
  141TCq2    C7 2153   3.402   2.187  14.132 -0.5538  0.0282  0.1194
  141TCq2    C8 2154   3.459   2.417  14.157  0.0764 -0.7795 -0.2374
  141TCq2    O4 2155   3.416   2.529  14.163 -0.2491  0.1668 -0.4005
  141TCq2    C9 2156   3.245   2.214  14.526 -0.4610  0.2119  0.2014
  141TCq2    O5 2157   3.247   2.333  14.566  0.4275 -0.0548 -0.5970
  141TCq2    O6 2158   3.180   2.111  14.562 -0.4327 -0.2639 -0.1132
  141TCq2    H2 2159   3.275   1.995  14.383 -2.0802  1.2258  0.7643
  141TCq2    H3 2160   3.314   2.413  14.360  2.2885  0.5032 -1.0844
  141TCq2    H4 2161   3.447   2.184  14.034 -0.5737  0.6018  0.0937
  142MPD2     C 2162   0.813   0.393  10.472  0.2462  0.4497  0.2211
  142MPD2    C1 2163   0.769   0.341  10.355 -0.3355 -0.0775 -0.2663
  142MPD2    C2 2164   0.843   0.357  10.237 -0.7636 -0.0042 -0.3703
  142MPD2    C3 2165   0.959   0.428  10.242  0.2120 -0.1865  0.1402
  142MPD2    C4 2166   1.002   0.486  10.357  0.7302 -0.0453  0.4300
  142MPD2    C5 2167   0.926   0.468  10.471  0.2627 -0.6072 -0.0549
  142MPD2     H 2168   0.818   0.313  10.141  0.7936 -0.5773 -0.5210
  142MPD2    H1 2169   1.092   0.545  10.366 -0.3044  1.4640  1.0222
  142MPD2    H2 2170   0.765   0.386  10.569 -0.8163 -0.4299 -0.3719
  142MPD2    H3 2171   0.970   0.500  10.565  0.9880  0.7839 -0.8782
  142MPD2     N 2172   1.056   0.434  10.138  0.0539  0.9926  0.4488
  142MPD2    H5 2173   1.143   0.481  10.161 -0.7168  2.0900  1.1134
  142MPD2    N1 2174   0.656   0.258  10.359  0.2414 -0.0231  0.2568
  142MPD2    H7 2175   0.601   0.245  10.443  1.5225  0.0009  1.1040
  143TCq2    C1 2176   1.041   0.405  10.004  0.0240  0.3284 -0.2411
  143TCq2    O2 2177   0.935   0.374   9.951 -0.6236 -0.4028 -0.3840
  143TCq2    C2 2178   1.157   0.430   9.926 -0.4124  0.0058  0.2063
  143TCq2    C3 2179   1.282   0.456   9.978  0.6269 -0.0691  0.8280
  143TCq2    C4 2180   1.378   0.498   9.894 -0.2606 -0.7751 -0.3537
  143TCq2    C5 2181   1.358   0.509   9.756  0.4331 -0.1586 -0.4127
  143TCq2    C6 2182   1.234   0.478   9.711 -0.9444  0.2347 -0.3764
  143TCq2    C7 2183   1.134   0.442   9.799 -0.6385  0.9645 -0.5024
  143TCq2    C8 2184   1.195   0.480   9.573  0.0244 -0.1703 -0.1404
  143TCq2    O4 2185   1.100   0.411   9.545 -0.0094 -0.5157  0.3533
  143TCq2    C9 2186   1.512   0.489   9.944 -0.2820  0.8748  0.2237
  143TCq2    O5 2187   1.533   0.474  10.066  0.3346  0.0780  0.0339
  143TCq2    O6 2188   1.610   0.498   9.865  1.2655 -0.0448 -0.2886
  143TCq2    H2 2189   1.306   0.456  10.084  0.5465 -0.1176  0.8459
  143TCq2    H3 2190   1.439   0.537   9.689 -0.9485 -0.1433 -2.0833
  143TCq2    H4 2191   1.035   0.424   9.758 -0.4129 -1.2538 -0.1014
  144MPD2     C 2192   3.330   3.864   0.723  0.0442 -0.0402  0.9406
  144MPD2    C1 2193   3.424   3.925   0.638  0.2254  0.0462 -0.3157
  144MPD2    C2 2194   3.536   3.975   0.697  0.1980 -0.0492  0.1924
  144MPD2    C3 2195   3.580   3.949   0.826 -0.0249 -0.0555  0.0693
  144MPD2    C4 2196   3.489   3.877   0.900 -0.6877  0.2374  0.2711
  144MPD2    C5 2197   3.362   3.844   0.858  0.2523  0.2828  0.1082
  144MPD2     H 2198   3.606   4.015   0.623  0.6652  1.5022  1.4772
  144MPD2    H1 2199   3.522   3.845   0.998 -1.8009  1.5485  1.0693
  144MPD2    H2 2200   3.235   3.830   0.684  0.6940 -1.1975  0.3899
  144MPD2    H3 2201   3.288   3.792   0.919  1.3682 -0.4004  0.8730
  144MPD2     N 2202   3.706   3.991   0.883 -0.5841  0.2350  0.6794
  144MPD2    H5 2203   3.739   3.958   0.973 -1.3064 -1.2979  0.3861
  144MPD2    N1 2204   3.411   3.936   0.495 -0.1324  0.8693  0.0816
  144MPD2    H7 2205   3.485   3.972   0.436 -1.1535 -0.9360 -2.2882
  145TCq2    C1 2206   3.802   4.076   0.830 -0.0318  0.0749 -0.5498
  145TCq2    O2 2207   3.781   4.150   0.729 -0.0321  0.0756 -0.5912
  145TCq2    C2 2208   3.906   4.126   0.918 -0.1583  0.2685 -0.2827
  145TCq2    C3 2209   4.008   4.195   0.855 -0.0743  0.0293  0.5739
  145TCq2    C4 2210   4.125   4.218   0.923 -0.1698  0.0457 -0.1878
  145TCq2    C5 2211   4.127   4.193   1.059 -0.3905  0.1629 -0.3576
  145TCq2    C6 2212   4.021   4.126   1.114 -0.0809 -0.1832  0.1118
  145TCq2    C7 2213   3.905   4.083   1.049  0.5984  0.8594 -0.0709
  145TCq2    C8 2214   4.018   4.153   1.257 -0.7434 -0.2138  0.3286
  145TCq2    O4 2215   4.121   4.124   1.317 -0.4545 -0.1754 -0.0462
  145TCq2    C9 2216   4.232   4.293   0.864 -0.1991 -0.4536 -0.0410
  145TCq2    O5 2217   4.196   4.366   0.769 -0.1472  0.3636  0.0184
  145TCq2    O6 2218   4.346   4.295   0.926  0.2549  0.2860 -0.4788
  145TCq2    H2 2219   3.995   4.211   0.749  0.9787  0.9470  0.5777
  145TCq2    H3 2220   4.214   4.227   1.115 -0.7186  0.4609 -0.0266
  145TCq2    H4 2221   3.823   4.058   1.115  2.0543 -0.3174  1.2613
  146TMC2    C1 2222   1.450   2.883  12.439  0.3620  0.3911  0.3818
  146TMC2    C2 2223   1.546   2.827  12.367  0.7090  0.5190 -0.1568
  146TMC2    C3 2224   1.649   2.765  12.434  0.1258  0.3507 -0.2610
  146TMC2    C4 2225   1.459   2.891  12.576 -0.0454  0.5620  0.2197
  146TMC2    C5 2226   1.560   2.829  12.641 -0.0400 -0.5415  0.0085
  146TMC2    C6 2227   1.649   2.758  12.571 -0.6044 -0.5174  0.6859
  146TMC2     C 2228   1.315   2.862  12.397 -0.1052 -0.2463  0.8007
  146TMC2     O 2229   1.305   2.846  12.274 -0.6499 -0.1300  0.1529
  146TMC2     H 2230   1.537   2.813  12.260 -0.3106 -0.4829  0.0725
  146TMC2    H1 2231   1.384   2.953  12.624  0.8410  1.6235  0.2560
  146TMC2    H2 2232   1.732   2.708  12.620 -0.0899  0.6490  0.9986
  146TMC2    C7 2233   1.518   2.773  12.769 -0.2108  0.2405  0.0669
  146TMC2    C8 2234   1.773   2.734  12.360  0.0416  0.4965  0.0143
  146TMC2    O1 2235   1.408   2.819  12.806 -0.5881 -0.7574 -0.1881
  146TMC2    O2 2236   1.804   2.803  12.267 -0.1618 -0.0496 -0.2906
  146TMC2    O5 2237   1.856   2.665  12.433  0.5442  0.3325  0.2845
  146TMC2    H5 2238   1.806   2.599  12.487  1.2436 -1.4567 -1.2540
  147MPD2     C 2239   1.448   2.430  13.129 -0.4929  0.4434  0.2847
  147MPD2    C1 2240   1.559   2.392  13.060  0.4796  0.1244 -0.7395
  147MPD2    C2 2241   1.612   2.477  12.966 -0.2078  0.3842  0.6307
  147MPD2    C3 2242   1.543   2.589  12.935  0.0096  0.1900  0.1483
  147MPD2    C4 2243   1.435   2.626  13.010  1.0176 -0.9260 -0.1580
  147MPD2    C5 2244   1.385   2.549  13.111  0.1717 -0.1378 -0.0010
  147MPD2     H 2245   1.698   2.448  12.907  0.0465  1.1584  0.6191
  147MPD2    H1 2246   1.394   2.726  13.005 -0.1509 -1.4023 -0.0632
  147MPD2    H2 2247   1.406   2.375  13.212 -0.9885  0.0258 -0.2412
  147MPD2    H3 2248   1.305   2.583  13.175  0.1358  0.0952 -0.1697
  147MPD2     N 2249   1.581   2.666  12.823 -0.0967  0.7506 -0.2528
  147MPD2    H5 2250   1.659   2.623  12.773 -0.0342  0.6558 -0.0720
  147MPD2    N1 2251   1.620   2.266  13.090  0.5750  0.1408 -0.0946
  147MPD2    H7 2252   1.567   2.216  13.161  0.0348 -1.1134 -1.3771
  148MPD2     C 2253   0.300   1.805  10.889 -0.3217  0.1411 -0.3529
  148MPD2    C1 2254   0.303   1.725  10.775 -0.0373 -0.2655  0.0302
  148MPD2    C2 2255   0.182   1.668  10.739 -0.1474  0.0614 -0.4568
  148MPD2    C3 2256   0.067   1.674  10.813 -0.1989 -0.1171  0.3854
  148MPD2    C4 2257   0.060   1.761  10.911  0.1820 -0.2981  0.0170
  148MPD2    C5 2258   0.177   1.821  10.950 -0.8315  0.2904 -0.6584
  148MPD2     H 2259   0.188   1.612  10.646 -0.4099 -0.5891 -0.0812
  148MPD2    H1 2260   4.694   1.781  10.971  0.6231  2.0112 -0.0957
  148MPD2    H2 2261   0.385   1.860  10.925 -1.6186  1.0295  1.3552
  148MPD2    H3 2262   0.175   1.869  11.047  1.3684  1.1405 -1.0279
  148MPD2     N 2263   4.678   1.596  10.776  0.1114 -0.7391  0.6614
  148MPD2    H5 2264   4.599   1.600  10.839 -0.1197  0.4213  0.2901
  148MPD2    N1 2265   0.421   1.697  10.704 -0.9851 -0.4651 -0.1335
  148MPD2    H7 2266   0.405   1.627  10.632 -3.6292  0.2072 -0.2173
  149TCq2    C1 2267   0.551   1.736  10.723 -0.0780 -0.1062  0.1385
  149TCq2    O2 2268   0.589   1.828  10.796  0.3992  0.2785  0.0027
  149TCq2    C2 2269   0.652   1.666  10.641 -0.5208 -0.4172  0.7755
  149TCq2    C3 2270   0.776   1.728  10.625  0.3619 -0.1373  0.4002
  149TCq2    C4 2271   0.870   1.653  10.561 -0.4831  0.1795  0.5533
  149TCq2    C5 2272   0.834   1.534  10.498 -0.8622 -0.3744 -0.5891
  149TCq2    C6 2273   0.714   1.474  10.526 -0.2310  0.4265 -0.4762
  149TCq2    C7 2274   0.623   1.534  10.605  0.9247  0.2079 -0.8048
  149TCq2    C8 2275   0.686   1.336  10.484  0.4378  0.1233  0.2302
  149TCq2    O4 2276   0.566   1.314  10.484  0.3623  0.3148  0.5048
  149TCq2    C9 2277   0.983   1.726  10.507 -0.7681 -0.0290  0.7427
  149TCq2    O5 2278   1.052   1.665  10.422 -0.3091  0.8226  0.0416
  149TCq2    O6 2279   1.024   1.826  10.564 -0.4959 -0.2969  0.5420
  149TCq2    H2 2280   0.795   1.835  10.631  0.9783 -0.1395 -1.4997
  149TCq2    H3 2281   0.912   1.484  10.442  0.1798 -0.6722  1.1541
  149TCq2    H4 2282   0.529   1.482  10.624 -0.3677  2.2047 -1.7465
  150MPD2     C 2283   1.658   0.514  12.229  0.1558 -0.2617  0.0064
  150MPD2    C1 2284   1.642   0.611  12.138  0.3646 -0.2871 -0.0360
  150MPD2    C2 2285   1.741   0.707  12.127  0.1723  0.6414  0.5710
  150MPD2    C3 2286   1.858   0.710  12.202 -0.7999  0.2232 -0.2567
  150MPD2    C4 2287   1.878   0.598  12.280  1.1184 -0.7796 -0.6450
  150MPD2    C5 2288   1.781   0.504  12.298 -0.0758 -0.1529 -0.8320
  150MPD2     H 2289   1.726   0.791  12.060  1.3069  1.0397  0.8026
  150MPD2    H1 2290   1.972   0.583  12.332  0.8840  3.4080  0.9994
  150MPD2    H2 2291   1.586   0.435  12.243  1.4056 -1.3704  0.2322
  150MPD2    H3 2292   1.793   0.428  12.373 -1.6881 -0.8446 -1.2810
  150MPD2     N 2293   1.945   0.823  12.196 -0.0038  0.4131  0.3247
  150MPD2    H5 2294   1.925   0.902  12.135  0.9309 -0.2077 -0.7971
  150MPD2    N1 2295   1.534   0.607  12.053  0.1404 -0.0802  0.2088
  150MPD2    H7 2296   1.463   0.541  12.083  1.3988 -0.6537  1.9525
  151TCq2    C1 2297   2.063   0.836  12.264  0.0242 -0.9963 -0.2072
  151TCq2    O2 2298   2.116   0.764  12.348 -0.0682 -0.6100 -0.0545
  151TCq2    C2 2299   2.145   0.949  12.226 -0.6311  0.0161  0.0476
  151TCq2    C3 2300   2.087   1.059  12.169  0.0614  0.0541  0.3879
  151TCq2    C4 2301   2.168   1.150  12.110 -0.5371  0.1840 -0.8568
  151TCq2    C5 2302   2.299   1.126  12.097 -0.6128 -0.9877 -0.2081
  151TCq2    C6 2303   2.353   1.010  12.142 -0.0483  0.2398  0.5436
  151TCq2    C7 2304   2.280   0.919  12.214  0.4978  0.1314 -0.4643
  151TCq2    C8 2305   2.488   0.976  12.104 -0.4494  0.1994  0.3376
  151TCq2    O4 2306   2.542   1.055  12.034  0.7699 -0.3577 -0.2933
  151TCq2    C9 2307   2.113   1.271  12.043 -0.7203 -0.8168 -0.6883
  151TCq2    O5 2308   2.202   1.346  11.992 -0.0974 -0.1160 -0.1463
  151TCq2    O6 2309   1.999   1.274  11.999 -0.7686 -0.0373  0.6163
  151TCq2    H2 2310   1.980   1.075  12.171  0.1322  0.7224 -0.8224
  151TCq2    H3 2311   2.357   1.190  12.032 -1.4276 -0.6561 -0.5984
  151TCq2    H4 2312   2.315   0.821  12.243 -2.2704 -1.2927 -1.9199
  152MPD2     C 2313   1.884   0.419  12.854  0.0561  0.0893  0.3167
  152MPD2    C1 2314   1.950   0.494  12.765  0.5973 -0.3541 -0.4634
  152MPD2    C2 2315   1.877   0.551  12.662 -0.0279 -0.5780  0.2186
  152MPD2    C3 2316   1.741   0.533  12.656 -0.3959 -0.7927  0.4862
  152MPD2    C4 2317   1.673   0.448  12.739 -0.3624 -0.3977  0.3035
  152MPD2    C5 2318   1.749   0.396  12.841 -1.0404 -0.3526 -0.3733
  152MPD2     H 2319   1.917   0.639  12.614 -1.6237  1.3236  2.3846
  152MPD2    H1 2320   1.565   0.433  12.741 -0.2336 -1.0618  2.9325
  152MPD2    H2 2321   1.943   0.369  12.931  2.0894  0.6457 -0.8797
  152MPD2    H3 2322   1.697   0.334  12.913 -0.2188 -0.6432 -0.0297
  152MPD2     N 2323   1.677   0.614  12.561  0.3351 -0.2338  1.1713
  152MPD2    H5 2324   1.736   0.684  12.518  0.8112 -0.6855  1.0799
  152MPD2    N1 2325   2.088   0.505  12.776 -0.4497 -1.1452 -0.0944
  152MPD2    H7 2326   2.129   0.475  12.863 -2.3827 -2.0944  0.5022
  153TCq2    C1 2327   2.167   0.555  12.672 -0.1549 -0.3629  0.1933
  153TCq2    O2 2328   2.127   0.558  12.553  0.0888 -0.6207  0.1942
  153TCq2    C2 2329   2.307   0.565  12.695 -0.7599 -0.4895 -0.2788
  153TCq2    C3 2330   2.368   0.501  12.797  1.1795  0.0847 -0.2493
  153TCq2    C4 2331   2.506   0.484  12.782 -0.1389 -0.7054 -0.3740
  153TCq2    C5 2332   2.577   0.546  12.683  0.3596 -0.6181  0.4383
  153TCq2    C6 2333   2.509   0.619  12.591 -0.1317  0.0591  0.2413
  153TCq2    C7 2334   2.374   0.617  12.593  0.0941  0.2709 -0.1072
  153TCq2    C8 2335   2.577   0.740  12.526 -0.2348 -0.0129  0.1362
  153TCq2    O4 2336   2.511   0.800  12.440  0.2425  0.2694 -0.1677
  153TCq2    C9 2337   2.579   0.430  12.893 -0.5023  0.5236  0.0482
  153TCq2    O5 2338   2.700   0.454  12.908 -0.5126 -0.5555  0.5956
  153TCq2    O6 2339   2.520   0.342  12.964 -0.2214 -0.1257 -0.5726
  153TCq2    H2 2340   2.320   0.468  12.889  1.3424 -1.1069 -0.5914
  153TCq2    H3 2341   2.682   0.522  12.670  0.3776  0.1436 -0.8589
  153TCq2    H4 2342   2.322   0.651  12.504 -0.6843  1.4836  0.8147
  154MPD2     C 2343   4.101   0.185   0.466  0.0036  0.2319  0.7653
  154MPD2    C1 2344   4.086   0.312   0.418 -0.1312  0.6024  0.2452
  154MPD2    C2 2345   3.990   0.397   0.469  0.4201 -0.1958  0.7761
  154MPD2    C3 2346   3.910   0.349   0.570 -0.2173  0.2033  0.1503
  154MPD2    C4 2347   3.924   0.219   0.618 -0.9079 -0.3187  0.4793
  154MPD2    C5 2348   4.012   0.141   0.559 -0.0743 -0.0573 -0.3433
  154MPD2     H 2349   3.964   0.497   0.437 -0.5635 -0.4089  0.8887
  154MPD2    H1 2350   3.851   0.174   0.684 -0.6261 -1.5189 -0.0393
  154MPD2    H2 2351   4.173   0.118   0.420 -0.4245 -0.5208  1.1897
  154MPD2    H3 2352   4.012   0.036   0.588 -2.9181 -0.1838 -0.7474
  154MPD2     N 2353   3.812   0.438   0.622 -0.2400  0.3086  0.4021
  154MPD2    H5 2354   3.785   0.512   0.557 -3.4031  0.1997  1.5859
  154MPD2    N1 2355   4.175   0.355   0.317  0.2248 -0.3321  0.2561
  154MPD2    H7 2356   4.234   0.280   0.284  0.9856 -0.1614  1.2442
  155TCq2    C1 2357   4.201   0.486   0.261  0.0796 -0.3742 -0.6931
  155TCq2    O2 2358   4.173   0.598   0.304  0.7643  0.1401 -0.1657
  155TCq2    C2 2359   4.307   0.476   0.159  0.1028  0.0430  0.1439
  155TCq2    C3 2360   4.393   0.582   0.140 -0.2553 -0.5923  0.1553
  155TCq2    C4 2361   4.494   0.577   0.052  0.1395  0.3655 -0.2240
  155TCq2    C5 2362   4.519   0.456  17.684 -0.2593  0.2774 -0.1073
  155TCq2    C6 2363   4.430   0.354   0.013 -0.6464  0.1924  0.3796
  155TCq2    C7 2364   4.319   0.364   0.092 -0.5510 -0.4295  0.2017
  155TCq2    C8 2365   4.451   0.225  17.644 -0.2048  0.1120 -0.2841
  155TCq2    O4 2366   4.402   0.132   0.020  0.2168  0.2206  0.1949
  155TCq2    C9 2367   4.574   0.697   0.031 -0.4007  0.2375 -0.0592
  155TCq2    O5 2368   4.547   0.794   0.103 -0.5390  0.0435 -0.4126
  155TCq2    O6 2369   4.645   0.703  17.617 -0.0455  0.2997 -0.2566
  155TCq2    H2 2370   4.374   0.672   0.196 -1.2944 -1.3668  1.0502
  155TCq2    H3 2371   4.605   0.447  17.618  0.3287  0.3488  0.6531
  155TCq2    H4 2372   4.250   0.281   0.105  1.0886 -1.2748  3.5539
  156MPD2     C 2373   2.477   3.150  12.435 -0.2272  0.3427  0.8868
  156MPD2    C1 2374   2.469   3.285  12.419 -0.4349 -0.0993  0.2480
  156MPD2    C2 2375   2.482   3.367  12.532  0.4389 -0.2146 -0.4909
  156MPD2    C3 2376   2.497   3.308  12.650 -0.0168 -0.1721 -0.5221
  156MPD2    C4 2377   2.509   3.177  12.671 -0.0569 -0.3296  0.2135
  156MPD2    C5 2378   2.498   3.100  12.563 -0.4142  0.5412 -0.5946
  156MPD2     H 2379   2.480   3.475  12.534 -0.3713 -0.2378 -0.1019
  156MPD2    H1 2380   2.518   3.138  12.771 -3.4136  0.5380  0.8506
  156MPD2    H2 2381   2.469   3.077  12.355 -0.1633  0.5661  0.6761
  156MPD2    H3 2382   2.503   2.993  12.581  0.8255  0.9306  1.3815
  156MPD2     N 2383   2.497   3.400  12.760  0.1090  0.0288 -0.0500
  156MPD2    H5 2384   2.463   3.495  12.749  2.5436  0.6914 -1.8798
  156MPD2    N1 2385   2.445   3.333  12.284  0.1312  0.5062 -0.4267
  156MPD2    H7 2386   2.460   3.264  12.211  1.0317 -0.1952  0.4119
  157TCq2    C1 2387   2.413   3.461  12.255  0.1447 -0.3137 -0.1762
  157TCq2    O2 2388   2.416   3.563  12.321  0.1396 -0.2359  0.1935
  157TCq2    C2 2389   2.415   3.486  12.118  0.2347 -0.2299  0.5012
  157TCq2    C3 2390   2.394   3.389  12.024  0.1502  0.3892 -0.4673
  157TCq2    C4 2391   2.385   3.420  11.890  0.7156  0.5538  0.2198
  157TCq2    C5 2392   2.392   3.546  11.844  0.1597 -0.7461 -0.0759
  157TCq2    C6 2393   2.409   3.645  11.935 -0.1535  1.0036 -0.4681
  157TCq2    C7 2394   2.429   3.613  12.071 -0.5278 -0.1144 -0.5491
  157TCq2    C8 2395   2.393   3.780  11.890 -0.2388  0.1901 -0.8277
  157TCq2    O4 2396   2.401   3.808  11.773  0.0039  0.0077  0.2357
  157TCq2    C9 2397   2.359   3.320  11.793 -0.3950  0.6456 -0.0022
  157TCq2    O5 2398   2.292   3.354  11.694 -0.0572 -0.0658 -0.0595
  157TCq2    O6 2399   2.382   3.200  11.828  0.2392  0.1279  0.4049
  157TCq2    H2 2400   2.378   3.287  12.058  2.5201 -0.1264 -0.9400
  157TCq2    H3 2401   2.395   3.570  11.739  0.7855 -2.1876 -0.3847
  157TCq2    H4 2402   2.452   3.690  12.144  3.1299 -1.3589 -0.3793
  158TMC2    C1 2403   2.281   2.012  13.448  0.3782  0.0528  0.7003
  158TMC2    C2 2404   2.222   2.114  13.372  0.3492  0.2322 -0.4028
  158TMC2    C3 2405   2.168   2.077  13.247 -1.1502 -0.3069  0.2339
  158TMC2    C4 2406   2.261   1.884  13.412  0.1618  0.0699 -0.2226
  158TMC2    C5 2407   2.193   1.856  13.297  0.0115  0.0248 -1.0298
  158TMC2    C6 2408   2.150   1.949  13.209  0.6800 -0.6200 -0.5683
  158TMC2     C 2409   2.369   2.050  13.558 -0.1407 -0.3795  0.1612
  158TMC2     O 2410   2.420   2.162  13.548  0.1311  0.4643  0.1014
  158TMC2     H 2411   2.236   2.218  13.399 -0.7846  0.0491  0.9467
  158TMC2    H1 2412   2.305   1.807  13.475  2.1598 -0.5498 -2.3640
  158TMC2    H2 2413   2.099   1.926  13.116  1.6457  1.4775 -1.6227
  158TMC2    C7 2414   2.194   1.728  13.241 -0.2110  0.2575  0.4889
  158TMC2    C8 2415   2.151   2.182  13.149  0.2255 -0.2233 -0.1174
  158TMC2    O1 2416   2.153   1.707  13.129  0.1407 -0.8243 -0.0264
  158TMC2    O2 2417   2.104   2.151  13.044 -0.2387 -0.0034 -0.1193
  158TMC2    O5 2418   2.255   2.272  13.153 -0.5223 -0.0132 -0.0281
  158TMC2    H5 2419   2.321   2.259  13.225 -1.3486 -0.4737  0.6390
  159MPD2     C 2420   2.572   1.971  14.023 -0.1557  0.7781 -0.2391
  159MPD2    C1 2421   2.463   1.889  14.003 -0.9511  0.6665 -1.0217
  159MPD2    C2 2422   2.403   1.880  13.878 -0.3598  0.9081  0.8952
  159MPD2    C3 2423   2.449   1.967  13.778 -0.5630  0.0775  0.2723
  159MPD2    C4 2424   2.566   2.047  13.793  0.0086 -0.4605 -0.1508
  159MPD2    C5 2425   2.626   2.050  13.916 -0.4213  0.4935  0.0002
  159MPD2     H 2426   2.317   1.816  13.861 -0.4343  1.1861  0.2277
  159MPD2    H1 2427   2.602   2.117  13.718  1.6890 -1.5572 -0.3522
  159MPD2    H2 2428   2.609   1.984  14.125 -1.3510  0.8078  0.1943
  159MPD2    H3 2429   2.702   2.124  13.940  0.1541  0.6390 -2.2342
  159MPD2     N 2430   2.388   1.954  13.656  0.3547  0.2299 -0.0004
  159MPD2    H5 2431   2.326   1.874  13.647 -1.5666  1.6831  0.1612
  159MPD2    N1 2432   2.422   1.817  14.117  0.1447 -0.3116  0.6519
  159MPD2    H7 2433   2.478   1.823  14.202 -0.5952  1.9377  0.9981
  160TMC2    C1 2434   3.119   4.247   1.340 -0.1496  0.1259 -0.2443
  160TMC2    C2 2435   3.148   4.118   1.369 -0.6299  0.1659 -0.3672
  160TMC2    C3 2436   3.181   4.032   1.267 -0.0372 -0.6893  0.3074
  160TMC2    C4 2437   3.119   4.293   1.209  0.7599 -0.2982  0.2912
  160TMC2    C5 2438   3.142   4.199   1.112  0.5819 -0.4384 -0.7262
  160TMC2    C6 2439   3.174   4.073   1.138 -0.8593  0.2835  0.7034
  160TMC2     C 2440   3.048   4.322   1.434  0.4560 -0.3112 -0.8490
  160TMC2     O 2441   3.064   4.281   1.547  0.5775 -0.2090  0.4021
  160TMC2     H 2442   3.150   4.093   1.475  3.1330 -2.6795 -1.1163
  160TMC2    H1 2443   3.139   4.397   1.186  1.9082 -0.6591 -0.3576
  160TMC2    H2 2444   3.171   3.997   1.061 -0.6762  1.5847 -0.6066
  160TMC2    C7 2445   3.066   4.213   0.989  0.0160  0.3293  0.0386
  160TMC2    C8 2446   3.209   3.888   1.290 -0.4231  0.5167 -0.1953
  160TMC2    O1 2447   3.079   4.120   0.908 -0.7851  0.3698  0.3003
  160TMC2    O2 2448   3.269   3.814   1.207 -0.3486  0.0564 -0.1167
  160TMC2    O5 2449   3.232   3.872   1.422  0.4743  0.0669 -0.0518
  160TMC2    H5 2450   3.201   3.950   1.473  0.3291  1.1173 -1.7163
  161MPD2     C 2451   2.864   4.504   1.580  0.4816  0.1774  0.4314
  161MPD2    C1 2452   2.870   4.500   1.441 -0.3077  0.0508 -0.4071
  161MPD2    C2 2453   2.762   4.533   1.366  0.2122 -0.3954 -0.3118
  161MPD2    C3 2454   2.648   4.584   1.427  0.3657  0.5311 -0.5581
  161MPD2    C4 2455   2.644   4.593   1.563  0.1675  0.5372  0.2350
  161MPD2    C5 2456   2.744   4.551   1.635 -0.1275 -0.9521 -0.0544
  161MPD2     H 2457   2.759   4.516   1.259 -0.9317 -1.7057 -0.0677
  161MPD2    H1 2458   2.561   4.637   1.617 -0.1644 -0.4600  0.5389
  161MPD2    H2 2459   2.943   4.465   1.644  1.4013 -0.4109 -1.0683
  161MPD2    H3 2460   2.737   4.557   1.743 -1.9471  2.0835 -0.3261
  161MPD2     N 2461   2.533   4.626   1.356 -0.3721  0.1808 -0.1974
  161MPD2    H5 2462   2.464   4.677   1.410 -0.7403 -0.2629 -0.2565
  161MPD2    N1 2463   2.971   4.423   1.378  0.8287 -0.2735  0.2199
  161MPD2    H7 2464   2.967   4.437   1.277 -0.3613  2.2984  0.6301
  162TMC2    C1 2465   0.718   1.601   1.562 -0.0221 -0.1215 -0.1295
  162TMC2    C2 2466   0.622   1.675   1.615 -0.5261 -0.1002  0.4347
  162TMC2    C3 2467   0.588   1.661   1.746  0.2614  0.4771  0.5208
  162TMC2    C4 2468   0.772   1.495   1.633  0.6576 -0.0538 -0.6036
  162TMC2    C5 2469   0.736   1.488   1.768 -0.0242 -1.3882 -0.3065
  162TMC2    C6 2470   0.639   1.569   1.826 -0.1266 -0.1311 -0.0637
  162TMC2     C 2471   0.779   1.626   1.432 -0.6986  0.5183  0.5522
  162TMC2     O 2472   0.867   1.554   1.384  0.0063 -0.2520  0.0330
  162TMC2     H 2473   0.572   1.753   1.559  0.1911 -0.7095 -1.0519
  162TMC2    H1 2474   0.855   1.446   1.583 -0.1641 -0.4961 -1.5392
  162TMC2    H2 2475   0.625   1.566   1.933 -2.1006  0.6553 -0.2989
  162TMC2    C7 2476   0.831   1.424   1.848  0.1232  0.0626 -0.1786
  162TMC2    C8 2477   0.486   1.754   1.790  1.1840  0.2655  0.3832
  162TMC2    O1 2478   0.941   1.409   1.800  0.5545 -0.0761  0.2197
  162TMC2    O2 2479   0.497   1.869   1.765  0.4702  0.0189 -0.4708
  162TMC2    O5 2480   0.434   1.693   1.899  0.1015  0.3057  0.0663
  162TMC2    H5 2481   0.439   1.599   1.873  3.9307  0.2622  0.9770
  163MPD2     C 2482   0.874   1.917   1.031  0.1111 -0.5156  0.0721
  163MPD2    C1 2483   0.894   1.779   1.050 -0.0381 -0.3692 -0.5399
  163MPD2    C2 2484   0.855   1.735   1.175  0.4584 -0.0281 -0.8644
  163MPD2    C3 2485   0.796   1.813   1.271  0.3792 -0.3866  0.2215
  163MPD2    C4 2486   0.786   1.940   1.251  0.0527  0.3382  0.2062
  163MPD2    C5 2487   0.819   1.993   1.127 -0.7596 -0.0109  0.6097
  163MPD2     H 2488   0.874   1.629   1.192 -2.7998 -0.5853 -0.7730
  163MPD2    H1 2489   0.736   2.011   1.316 -0.5377  0.7685 -0.7231
  163MPD2    H2 2490   0.909   1.965   0.941  0.5919 -3.0629 -1.0950
  163MPD2    H3 2491   0.800   2.097   1.103  1.1821 -0.0451 -1.0150
  163MPD2     N 2492   0.745   1.753   1.386 -0.4654  0.6323  0.5055
  163MPD2    H5 2493   0.685   1.805   1.449 -0.9955  0.5828  0.0352
  163MPD2    N1 2494   0.939   1.698   0.949 -0.2698 -0.7412 -0.4025
  163MPD2    H7 2495   0.976   1.741   0.865  2.5265 -2.4504 -0.0448
  164TCq2    C1 2496   0.587   1.526  11.022  0.1310 -0.4020 -0.4663
  164TCq2    O2 2497   0.478   1.470  11.001 -0.1534 -0.2101  0.2809
  164TCq2    C2 2498   0.582   1.628  11.128 -0.3570 -0.6930  0.0662
  164TCq2    C3 2499   0.696   1.692  11.156  0.7763  0.3967  0.0450
  164TCq2    C4 2500   0.691   1.802  11.234  0.2300 -0.0339 -0.5976
  164TCq2    C5 2501   0.570   1.845  11.285  0.1717 -0.1617 -0.1730
  164TCq2    C6 2502   0.458   1.771  11.261 -0.3551 -0.3493  0.4460
  164TCq2    C7 2503   0.464   1.665  11.170  0.1248 -0.2353 -0.4214
  164TCq2    C8 2504   0.334   1.804  11.316  0.1637  0.4925 -0.0069
  164TCq2    O4 2505   0.244   1.727  11.289  0.3238  0.7952 -0.2703
  164TCq2    C9 2506   0.806   1.860  11.286  0.5943 -0.5581 -0.8762
  164TCq2    O5 2507   0.807   1.871  11.410 -0.0708 -0.0730  0.7820
  164TCq2    O6 2508   0.913   1.854  11.218 -0.1258  0.4238  0.3960
  164TCq2    H2 2509   0.791   1.640  11.149  0.1049 -0.8541  0.1845
  164TCq2    H3 2510   0.570   1.932  11.350 -0.7450  0.3035 -0.8038
  164TCq2    H4 2511   0.377   1.612  11.133 -0.2441 -0.1451  0.3090
  165MPD2     C 2512   2.106   3.536   1.959 -0.2588 -0.3905  0.2644
  165MPD2    C1 2513   2.206   3.504   2.048  0.3497 -0.1735  0.0934
  165MPD2    C2 2514   2.297   3.602   2.090  0.0261 -0.1405 -0.2609
  165MPD2    C3 2515   2.276   3.727   2.034  0.0812  0.5025 -0.4768
  165MPD2    C4 2516   2.180   3.759   1.944  0.3831  0.4681 -0.4468
  165MPD2    C5 2517   2.101   3.659   1.906  0.1846  0.2949 -0.1693
  165MPD2     H 2518   2.367   3.582   2.170 -0.6308 -1.2496  0.0360
  165MPD2    H1 2519   2.182   3.856   1.895  1.3660  0.8712  0.3692
  165MPD2    H2 2520   2.031   3.466   1.923  0.9305 -0.6077 -1.8111
  165MPD2    H3 2521   2.017   3.672   1.838  0.4140  0.3305 -0.4434
  165MPD2     N 2522   2.361   3.836   2.063  0.0420  0.6285 -0.0635
  165MPD2    H5 2523   2.343   3.926   2.020  1.2678  0.6640 -0.5117
  165MPD2    N1 2524   2.211   3.359   2.081  0.2103 -0.3435  0.1552
  165MPD2    H7 2525   2.129   3.311   2.046  1.2941 -0.2359 -2.5225
  166TCq2    C1 2526   2.480   3.831   2.133 -0.1488 -0.8544  0.2558
  166TCq2    O2 2527   2.550   3.731   2.165  0.1607 -0.7922  0.0755
  166TCq2    C2 2528   2.543   3.963   2.148 -0.0486  0.6686 -0.0696
  166TCq2    C3 2529   2.471   4.078   2.166  0.6701  1.3292  0.4239
  166TCq2    C4 2530   2.530   4.196   2.207 -0.1863  0.0950 -0.2044
  166TCq2    C5 2531   2.662   4.192   2.224 -0.5054  0.2587  0.2084
  166TCq2    C6 2532   2.735   4.074   2.217  0.1418  0.6277 -0.3395
  166TCq2    C7 2533   2.678   3.960   2.171 -0.1682 -0.1087 -0.5792
  166TCq2    C8 2534   2.881   4.086   2.208  0.1250 -0.0800  0.6450
  166TCq2    O4 2535   2.942   4.003   2.147 -0.2666 -0.2331  0.0922
  166TCq2    C9 2536   2.451   4.313   2.238 -0.4043  0.3492 -1.3682
  166TCq2    O5 2537   2.336   4.306   2.182 -0.5347 -0.4193  0.0491
  166TCq2    O6 2538   2.499   4.410   2.302 -0.3743 -0.1848  0.1326
  166TCq2    H2 2539   2.365   4.079   2.143  1.2886  1.9887 -2.3134
  166TCq2    H3 2540   2.697   4.285   2.266  0.3267 -1.4149  3.2076
  166TCq2    H4 2541   2.750   3.881   2.157 -1.0043 -0.7801 -1.1552
  167TMC2    C1 2542   1.301   0.514  12.877  0.0691 -0.4400  0.0895
  167TMC2    C2 2543   1.381   0.431  12.944 -0.2712 -0.0000  0.2679
  167TMC2    C3 2544   1.334   0.308  12.997  0.1964 -0.5744 -0.4898
  167TMC2    C4 2545   1.173   0.484  12.858  0.7035 -0.4622  0.0151
  167TMC2    C5 2546   1.128   0.363  12.906  0.1982 -0.5380 -0.0729
  167TMC2    C6 2547   1.200   0.279  12.987 -0.6304 -0.5919  0.2419
  167TMC2     C 2548   1.345   0.650  12.858 -0.0390  0.8563 -0.0221
  167TMC2     O 2549   1.465   0.673  12.878  0.0947  0.0151 -0.0558
  167TMC2     H 2550   1.488   0.450  12.950 -0.3045 -0.3684  2.0114
  167TMC2    H1 2551   1.115   0.552  12.798  0.5142  0.1851  0.9358
  167TMC2    H2 2552   1.164   0.178  13.004 -3.3037  0.4845  0.8947
  167TMC2    C7 2553   0.987   0.345  12.903 -0.6837  0.8319  0.1802
  167TMC2    C8 2554   1.434   0.204  13.012  0.0170  1.1153  0.5594
  167TMC2    O1 2555   0.934   0.279  12.994  0.0788  0.4433  0.3320
  167TMC2    O2 2556   1.534   0.170  12.946 -0.3851 -0.7185 -0.2021
  167TMC2    O5 2557   1.406   0.147  13.128 -0.1774 -0.0807 -0.0478
  167TMC2    H5 2558   1.338   0.199  13.177 -1.7737  0.4643 -2.8771
  168MPD2     C 2559   1.348   0.937  12.822 -0.4491  0.4589  0.1514
  168MPD2    C1 2560   1.253   0.872  12.887  0.0429  0.3240 -0.0261
  168MPD2    C2 2561   1.147   0.939  12.941  0.8052 -0.4323 -0.0546
  168MPD2    C3 2562   1.145   1.078  12.939 -0.7084 -0.1081 -0.0505
  168MPD2    C4 2563   1.244   1.145  12.871 -0.2033  0.5848  0.0493
  168MPD2    C5 2564   1.339   1.067  12.808 -0.2372  0.6612  0.6972
  168MPD2     H 2565   1.070   0.884  12.993 -0.8838  1.6943 -0.3032
  168MPD2    H1 2566   1.270   1.251  12.869  0.7334  0.3783  1.7984
  168MPD2    H2 2567   1.419   0.871  12.772  0.0878  0.6509  0.6599
  168MPD2    H3 2568   1.423   1.111  12.756  1.4758 -2.4129  0.8618
  168MPD2     N 2569   1.053   1.162  13.009  0.9575 -0.2236 -0.5176
  168MPD2    H5 2570   1.064   1.261  12.993 -2.4963  0.2409  0.0845
  168MPD2    N1 2571   1.246   0.731  12.906 -0.2378 -0.1987  0.1683
  168MPD2    H7 2572   1.163   0.699  12.955  0.6926 -1.4190  0.9319
  169MPD1     C 2573   2.377   0.825   8.453 -1.0371  0.0740 -0.2560
  169MPD1    C1 2574   2.434   0.889   8.559  0.4549 -0.2296  0.8162
  169MPD1    C2 2575   2.435   0.827   8.686  0.1562 -0.3136  0.2795
  169MPD1    C3 2576   2.398   0.692   8.695 -0.2700 -0.2039 -0.5415
  169MPD1    C4 2577   2.354   0.631   8.586 -0.0511  1.1009  0.4753
  169MPD1    C5 2578   2.345   0.694   8.464  0.0539 -0.5090 -0.4626
  169MPD1     H 2579   2.486   0.870   8.772 -0.6154 -0.7311  0.9398
  169MPD1    H1 2580   2.326   0.526   8.596 -0.3438  1.1442  0.0785
  169MPD1    H2 2581   2.377   0.863   8.351 -1.1243  0.0253 -0.2742
  169MPD1    H3 2582   2.313   0.644   8.373  1.9139 -4.1156  0.8531
  169MPD1     N 2583   2.416   0.632   8.817  0.7050  0.2500 -0.1350
  169MPD1    H5 2584   2.477   0.678   8.885  0.8817 -0.6172  0.3057
  169MPD1    N1 2585   2.462   1.027   8.545  0.1594 -0.0695 -0.1079
  169MPD1    H6 2586   2.534   1.065   8.606  0.4357  0.7638 -0.9571
  169MPD1    H7 2587   2.488   1.052   8.451 -1.7544 -3.5060 -1.5641
  170MPD1     C 2588   1.592   3.257  13.128  0.5320 -0.1592  0.1134
  170MPD1    C1 2589   1.580   3.228  13.262  0.0118  0.2650 -0.1137
  170MPD1    C2 2590   1.513   3.317  13.345  0.1294  0.4608  0.2610
  170MPD1    C3 2591   1.453   3.429  13.294  0.3171  0.4166 -0.3093
  170MPD1    C4 2592   1.472   3.468  13.157 -0.7378  0.7062 -0.4372
  170MPD1    C5 2593   1.547   3.381  13.077  0.7145  0.4467  0.1993
  170MPD1     H 2594   1.506   3.288  13.449  0.3885 -1.0702 -0.1387
  170MPD1    H1 2595   1.427   3.556  13.112 -0.3580 -0.2180 -2.6194
  170MPD1    H2 2596   1.631   3.187  13.055  1.3157  0.2261  0.1658
  170MPD1    H3 2597   1.559   3.419  12.976  0.1586 -0.6725 -0.2881
  170MPD1     N 2598   1.377   3.508  13.379 -0.0471  0.2899  0.2936
  170MPD1    H5 2599   1.367   3.477  13.475  1.1507  0.9987  0.6613
  170MPD1    N1 2600   1.642   3.114  13.308 -0.1972 -0.9186  0.0750
  170MPD1    H6 2601   1.634   3.039  13.238 -3.1702  0.2494 -0.8496
  170MPD1    H7 2602   1.600   3.082  13.395 -0.2891  0.0927  0.3957
  171MPD1     C 2603   4.403   0.369  15.575 -0.2607 -0.4029 -0.4630
  171MPD1    C1 2604   4.425   0.245  15.517 -0.1628 -0.5824 -0.6869
  171MPD1    C2 2605   4.494   0.144  15.583  0.3537  0.6035 -1.1591
  171MPD1    C3 2606   4.547   0.173  15.709 -0.6141 -0.4872 -0.3573
  171MPD1    C4 2607   4.545   0.298  15.758 -0.2607  0.1075  0.2260
  171MPD1    C5 2608   4.469   0.391  15.696 -0.2614 -0.0242 -0.3384
  171MPD1     H 2609   4.503   0.050  15.531  2.9795  1.8702 -2.9627
  171MPD1    H1 2610   4.597   0.322  15.851 -0.5783  1.6279  0.0134
  171MPD1    H2 2611   4.338   0.445  15.535 -1.7140 -1.0246  0.7249
  171MPD1    H3 2612   4.460   0.488  15.744 -3.5181  0.3813 -1.7331
  171MPD1     N 2613   4.609   0.071  15.787  0.2145 -0.4047 -0.0194
  171MPD1    H5 2614   4.652   0.100  15.874 -0.9248  1.6966 -0.1317
  171MPD1    N1 2615   4.340   0.211  15.406  0.3546  0.1209 -0.0632
  171MPD1    H6 2616   4.303   0.290  15.353  1.1015 -0.4571 -1.4453
  171MPD1    H7 2617   4.385   0.148  15.340  1.5232  1.6600 -0.7476
  172MPD1     C 2618   3.751   3.531   0.586  0.2437  0.0451 -0.1222
  172MPD1    C1 2619   3.664   3.638   0.570  0.4967  0.0996 -0.8251
  172MPD1    C2 2620   3.719   3.761   0.530  1.0844 -0.1175  0.7259
  172MPD1    C3 2621   3.854   3.772   0.496 -0.0838  0.3462 -1.0531
  172MPD1    C4 2622   3.940   3.671   0.522 -0.2531 -0.5437 -0.2695
  172MPD1    C5 2623   3.889   3.555   0.568 -0.1587  0.1584 -0.1532
  172MPD1     H 2624   3.647   3.840   0.516  3.2052  1.8765  1.0602
  172MPD1    H1 2625   4.047   3.679   0.502 -0.2663 -1.3485 -0.6497
  172MPD1    H2 2626   3.728   3.426   0.600 -0.9518  0.2552 -0.5780
  172MPD1    H3 2627   3.947   3.469   0.597  2.7138  1.6059 -1.6049
  172MPD1     N 2628   3.910   3.891   0.458  0.2349 -0.1010  0.7062
  172MPD1    H5 2629   4.010   3.904   0.468  0.4521  0.8491 -2.5951
  172MPD1    N1 2630   3.523   3.619   0.578  0.1344  0.4988  0.4467
  172MPD1    H6 2631   3.497   3.543   0.641 -1.6325  0.3554 -0.4619
  172MPD1    H7 2632   3.468   3.703   0.596  0.8514  0.8457  1.0765
  173MPD1     C 2633   0.680   3.881  13.834 -0.8935 -0.4316  0.1857
  173MPD1    C1 2634   0.589   3.931  13.930 -0.2034  0.3750  0.1587
  173MPD1    C2 2635   0.581   3.853  14.048  0.1824  0.4919  0.1028
  173MPD1    C3 2636   0.646   3.732  14.060 -0.4886 -0.0501  0.2254
  173MPD1    C4 2637   0.710   3.684  13.953  0.3331 -0.0506  0.2427
  173MPD1    C5 2638   0.731   3.756  13.837  0.0790 -0.2720  0.3586
  173MPD1     H 2639   0.515   3.882  14.129  1.7084 -0.4085  1.6671
  173MPD1    H1 2640   0.756   3.585  13.958  0.3264  0.0547  2.2006
  173MPD1    H2 2641   0.721   3.945  13.756  0.9012 -1.5023  0.2430
  173MPD1    H3 2642   0.806   3.721  13.767  1.6830  0.3908  1.7491
  173MPD1     N 2643   0.642   3.656  14.183  0.4939  0.0759 -0.2044
  173MPD1    H5 2644   0.598   3.704  14.261  1.2200 -0.2985  0.4356
  173MPD1    N1 2645   0.550   4.066  13.930 -0.1501 -0.0263  0.0023
  173MPD1    H6 2646   0.473   4.095  13.989  0.7030 -1.1877  1.6810
  173MPD1    H7 2647   0.535   4.110  13.839  2.4650  1.9961  0.5234
  174MPD1     C 2648   1.044   3.054  15.001  0.1276  0.5885 -0.6124
  174MPD1    C1 2649   1.089   3.054  14.871 -0.5993  0.3038  0.0303
  174MPD1    C2 2650   1.006   3.111  14.774  0.1225  0.4936  0.1319
  174MPD1    C3 2651   0.887   3.174  14.803  0.3790 -0.8713  0.4026
  174MPD1    C4 2652   0.846   3.174  14.936  0.3099 -0.2105  0.4161
  174MPD1    C5 2653   0.927   3.115  15.033  0.5387  0.0476  0.8010
  174MPD1     H 2654   1.038   3.111  14.670 -4.3558  0.3169 -1.2347
  174MPD1    H1 2655   0.750   3.212  14.970  0.8401  0.2638  1.4009
  174MPD1    H2 2656   1.102   3.012  15.083 -2.7770  1.5480  1.9454
  174MPD1    H3 2657   0.898   3.120  15.138 -0.8660 -2.0721  0.5028
  174MPD1     N 2658   0.810   3.239  14.713  0.1950 -0.9246 -0.3193
  174MPD1    H5 2659   0.736   3.294  14.756  1.3807  0.8657 -0.5665
  174MPD1    N1 2660   1.212   2.996  14.839 -0.3523 -0.8117 -0.3908
  174MPD1    H6 2661   1.280   3.010  14.914 -2.8131 -1.5459  1.9796
  174MPD1    H7 2662   1.251   3.039  14.756 -2.4536  0.6847 -0.6106
  175MPD1     C 2663   3.783   0.285  15.665  0.3546 -0.4192 -0.8378
  175MPD1    C1 2664   3.667   0.217  15.636  0.2262  0.6535  0.2590
  175MPD1    C2 2665   3.632   0.135  15.742  0.1109  0.2846 -0.0142
  175MPD1    C3 2666   3.725   0.078  15.828 -0.1209  0.1982 -0.1939
  175MPD1    C4 2667   3.852   0.137  15.837  0.0362  0.0762  0.6310
  175MPD1    C5 2668   3.879   0.250  15.761  0.0068  0.6692  0.0989
  175MPD1     H 2669   3.530   0.099  15.739  0.7341 -1.7514  2.4675
  175MPD1    H1 2670   3.930   0.104  15.905 -0.3705 -2.2854 -0.0664
  175MPD1    H2 2671   3.807   0.374  15.608  0.2571 -0.2735 -0.6553
  175MPD1    H3 2672   3.970   0.308  15.768  1.4827 -1.3988 -2.0679
  175MPD1     N 2673   3.688   4.717  15.939  0.0262  1.0462  0.2067
  175MPD1    H5 2674   3.753   4.707  16.016 -0.2183  2.0968  0.5446
  175MPD1    N1 2675   3.574   0.260  15.540 -0.0493  0.0379  0.5246
  175MPD1    H6 2676   3.607   0.315  15.462  0.8435  0.3609  1.1299
  175MPD1    H7 2677   3.524   0.180  15.502 -0.7550  1.0307 -0.6162
  176MPD1     C 2678   0.478   1.102  17.214 -0.3078  0.0666  0.1426
  176MPD1    C1 2679   0.568   1.207  17.192  0.4649  0.1049 -0.3789
  176MPD1    C2 2680   0.534   1.332  17.238  0.3768  0.7682 -0.1135
  176MPD1    C3 2681   0.412   1.358  17.303  0.2471 -0.2455  0.4181
  176MPD1    C4 2682   0.328   1.257  17.336  0.8175 -0.0463 -0.0838
  176MPD1    C5 2683   0.362   1.133  17.286  0.2388  0.3134  0.3233
  176MPD1     H 2684   0.609   1.410  17.226 -0.3803  1.4481 -0.4145
  176MPD1    H1 2685   0.238   1.268  17.396  1.7175  2.5798  0.7904
  176MPD1    H2 2686   0.485   0.995  17.197 -1.2452 -0.0886  0.7382
  176MPD1    H3 2687   0.296   1.049  17.305  0.5894 -0.0789 -0.1706
  176MPD1     N 2688   0.390   1.488  17.343 -0.2345  0.4076 -0.6001
  176MPD1    H5 2689   0.452   1.567  17.326  0.1700  0.4175  0.9519
  176MPD1    N1 2690   0.705   1.183  17.176 -0.7848 -0.1338  0.6065
  176MPD1    H6 2691   0.754   1.251  17.118 -1.8163  0.8000  0.8211
  176MPD1    H7 2692   0.723   1.091  17.136 -2.1249  0.0380 -0.3567
  177MPD1     C 2693   3.246   2.244  10.282 -0.3805  0.5992 -0.2850
  177MPD1    C1 2694   3.279   2.117  10.327  0.4594 -0.6179  0.0975
  177MPD1    C2 2695   3.193   2.016  10.281  0.4313 -0.0619 -0.5266
  177MPD1    C3 2696   3.096   2.028  10.187  0.4403  0.4518 -0.7436
  177MPD1    C4 2697   3.070   2.159  10.138  0.1974 -0.6227  0.3298
  177MPD1    C5 2698   3.143   2.266  10.194 -0.6126 -0.3779 -0.1059
  177MPD1     H 2699   3.202   1.917  10.324  0.3526  0.4820  0.7417
  177MPD1    H1 2700   2.986   2.178  10.072 -0.8165 -1.8173  1.2876
  177MPD1    H2 2701   3.305   2.325  10.324 -0.7052 -0.3351  1.9623
  177MPD1    H3 2702   3.129   2.368  10.159  1.0842 -0.2246 -0.3466
  177MPD1     N 2703   3.025   1.918  10.146 -0.2226  0.3472  0.3598
  177MPD1    H5 2704   3.079   1.832  10.155  1.8783  1.5709 -0.7591
  177MPD1    N1 2705   3.357   2.100  10.443  0.7476 -0.1440  0.5351
  177MPD1    H6 2706   3.443   2.153  10.442  2.0442 -2.2224  2.0826
  177MPD1    H7 2707   3.373   2.002  10.465  0.7721 -0.8084 -2.3715
  178MPD1     C 2708   0.816   1.900   0.528  0.2186  0.4673 -0.9168
  178MPD1    C1 2709   0.843   2.020   0.587 -0.1807  0.0778  0.3983
  178MPD1    C2 2710   0.919   2.105   0.512  0.3593 -0.7503  0.3189
  178MPD1    C3 2711   0.976   2.073   0.391  0.2808  0.3572  0.7024
  178MPD1    C4 2712   0.955   1.946   0.339 -0.6569 -0.1108  0.5393
  178MPD1    C5 2713   0.863   1.863   0.409  0.6553  0.2132 -0.3929
  178MPD1     H 2714   0.931   2.208   0.544  2.3448 -0.6078 -0.8759
  178MPD1    H1 2715   1.004   1.919   0.247  0.2518  0.5553  0.8235
  178MPD1    H2 2716   0.763   1.821   0.580 -0.4334  1.6802  0.2841
  178MPD1    H3 2717   0.846   1.764   0.369 -1.6764  1.1904 -1.8456
  178MPD1     N 2718   1.053   2.161   0.313  0.5063  0.5193 -0.0803
  178MPD1    H5 2719   1.084   2.121   0.224 -2.2249 -2.2682  0.2340
  178MPD1    N1 2720   0.818   2.051   0.723  0.1446  0.6878  0.2353
  178MPD1    H6 2721   0.727   2.016   0.751 -0.3595  0.6861 -1.3837
  178MPD1    H7 2722   0.816   2.149   0.748  0.7667  0.3555  1.5785
  179MPD1     C 2723   0.620   0.961  15.068  0.3289  0.0510  0.6553
  179MPD1    C1 2724   0.731   0.885  15.067 -1.2843 -0.8756 -0.2146
  179MPD1    C2 2725   0.745   0.798  15.173 -0.2506 -0.9974 -0.1165
  179MPD1    C3 2726   0.653   0.797  15.283 -0.8756 -0.2197 -0.5304
  179MPD1    C4 2727   0.543   0.884  15.275  0.9558  0.4623  0.8841
  179MPD1    C5 2728   0.520   0.958  15.165 -0.0083  0.8931  0.5102
  179MPD1     H 2729   0.827   0.727  15.178 -0.2554 -0.9472  0.8485
  179MPD1    H1 2730   0.472   0.890  15.357 -1.1478 -0.0937 -0.9162
  179MPD1    H2 2731   0.608   1.028  14.984  2.2051  1.5459  1.5920
  179MPD1    H3 2732   0.435   1.026  15.159 -2.0077 -1.7276 -1.1254
  179MPD1     N 2733   0.664   0.719  15.397  0.1088  1.0349 -0.2371
  179MPD1    H5 2734   0.592   0.726  15.468  0.3399 -2.0987  0.3008
  179MPD1    N1 2735   0.832   0.913  14.979 -0.5100  0.6458  0.2498
  179MPD1    H6 2736   0.888   0.836  14.943 -0.6813  0.6962 -0.1257
  179MPD1    H7 2737   0.802   0.962  14.896 -0.9150  0.9945  0.6024
  180MPD1     C 2738   0.184   1.920  15.327 -0.2900 -1.1717  0.1637
  180MPD1    C1 2739   0.109   1.906  15.210  0.1950  0.4580  0.5840
  180MPD1    C2 2740   0.164   1.970  15.104 -0.1266 -1.3788 -1.0111
  180MPD1    C3 2741   0.262   2.064  15.105 -0.3337  0.2116 -0.3227
  180MPD1    C4 2742   0.323   2.094  15.229  0.8636 -0.2685  0.1230
  180MPD1    C5 2743   0.282   2.019  15.340  1.0213  0.2532 -0.4009
  180MPD1     H 2744   0.124   1.941  15.008 -3.3068  0.2172 -0.1473
  180MPD1    H1 2745   0.404   2.166  15.237 -0.6652  1.3904  0.8092
  180MPD1    H2 2746   0.157   1.859  15.412 -0.0308 -1.6214 -0.0762
  180MPD1    H3 2747   0.325   2.036  15.438  0.6443  0.6504 -0.3028
  180MPD1     N 2748   0.290   2.133  14.984 -0.2639  0.2214  0.8899
  180MPD1    H5 2749   0.230   2.112  14.905 -0.2166  0.7614  0.7100
  180MPD1    N1 2750   0.022   1.794  15.203  0.2592 -0.1014 -0.6290
  180MPD1    H6 2751   4.704   1.785  15.295 -1.0004 -0.1630 -1.1896
  180MPD1    H7 2752   4.668   1.821  15.141  0.8639  1.7512 -0.5635
  181MPD1     C 2753   2.073   3.341  10.120 -0.3472 -0.6844  0.4023
  181MPD1    C1 2754   2.083   3.465  10.183 -0.0312 -0.5911  1.2542
  181MPD1    C2 2755   2.192   3.540  10.152  0.1931 -0.1892 -0.2346
  181MPD1    C3 2756   2.288   3.497  10.063  0.0693  0.0222 -0.1240
  181MPD1    C4 2757   2.281   3.370  10.006 -0.0292 -0.0803  0.1330
  181MPD1    C5 2758   2.178   3.291  10.043  0.0967 -0.4347 -0.0071
  181MPD1     H 2759   2.184   3.643  10.187  0.8569  0.2656 -1.4237
  181MPD1    H1 2760   2.355   3.338   9.934  0.8491 -0.0997  1.0535
  181MPD1    H2 2761   1.992   3.273  10.145 -1.9972  1.0866 -0.1322
  181MPD1    H3 2762   2.163   3.194   9.998 -0.6186  0.2038 -1.1406
  181MPD1     N 2763   2.387   3.585  10.011  0.2669 -0.3600  0.1462
  181MPD1    H5 2764   2.448   3.548   9.938 -0.0855 -1.1105  0.2374
  181MPD1    N1 2765   1.972   3.505  10.260  0.1214  0.2431 -0.0241
  181MPD1    H6 2766   1.993   3.574  10.332  0.3028  0.5694 -0.3847
  181MPD1    H7 2767   1.936   3.425  10.311 -0.4484  0.5405  0.0414
  182MPD1     C 2768   4.713   2.681   1.815 -0.6394  0.1022  0.1151
  182MPD1    C1 2769   4.631   2.606   1.895  0.0411 -0.4742 -0.7982
  182MPD1    C2 2770   4.504   2.594   1.844 -0.6036  0.1949 -0.0407
  182MPD1    C3 2771   4.460   2.642   1.724 -0.8336 -0.2945 -0.2489
  182MPD1    C4 2772   4.544   2.724   1.655  0.6351  0.7631  0.6110
  182MPD1    C5 2773   4.667   2.752   1.703 -0.1938  0.0389  0.5956
  182MPD1     H 2774   4.437   2.532   1.903 -1.4493 -1.4800 -2.7432
  182MPD1    H1 2775   4.513   2.770   1.562  0.8239  0.9722  0.6509
  182MPD1    H2 2776   0.097   2.700   1.825 -0.6101  0.4448 -0.8939
  182MPD1    H3 2777   0.005   2.816   1.640 -1.6367  0.8741  0.0655
  182MPD1     N 2778   4.330   2.617   1.663 -0.2299 -0.2639  0.0214
  182MPD1    H5 2779   4.299   2.666   1.580 -0.3549 -1.1593 -0.4676
  182MPD1    N1 2780   4.677   2.545   2.013 -0.2108 -0.1294  0.1011
  182MPD1    H6 2781   0.050   2.510   2.009 -0.1542 -0.0138  0.4738
  182MPD1    H7 2782   4.610   2.476   2.045  0.5362 -0.3506  1.1791
  183MPD1     C 2783   2.990   2.705   9.167  0.0176 -0.1750 -0.7411
  183MPD1    C1 2784   3.123   2.712   9.205  0.3479 -0.7065 -0.0195
  183MPD1    C2 2785   3.169   2.838   9.231 -0.3329  0.0410  0.5587
  183MPD1    C3 2786   3.084   2.953   9.238  0.0199 -0.1074  1.1512
  183MPD1    C4 2787   2.949   2.934   9.206 -0.3868  0.0120  0.1128
  183MPD1    C5 2788   2.902   2.812   9.166 -0.6086 -0.9479 -0.5049
  183MPD1     H 2789   3.268   2.843   9.276 -0.6964 -0.3093  1.4107
  183MPD1    H1 2790   2.882   3.017   9.224 -0.3496 -0.0021  0.3202
  183MPD1    H2 2791   2.945   2.611   9.139  0.1567 -0.5129  0.1699
  183MPD1    H3 2792   2.795   2.798   9.150 -0.5655 -1.0136 -0.7433
  183MPD1     N 2793   3.130   3.077   9.287  0.4423 -0.6801 -0.1445
  183MPD1    H5 2794   3.230   3.079   9.300  0.3306 -2.7540  1.0643
  183MPD1    N1 2795   3.206   2.597   9.194  0.2367 -0.1997 -0.4463
  183MPD1    H6 2796   3.291   2.612   9.249 -0.5038 -0.3933  0.7378
  183MPD1    H7 2797   3.152   2.513   9.208  1.6613 -1.1325 -0.5388
  184MPD1     C 2798   2.466   0.888  11.408  0.7804  0.7868  0.5891
  184MPD1    C1 2799   2.360   0.817  11.364  0.1491 -0.6746 -0.0724
  184MPD1    C2 2800   2.357   0.784  11.227 -0.1682  0.0215  0.5451
  184MPD1    C3 2801   2.459   0.825  11.146  1.1489 -0.6643  0.5095
  184MPD1    C4 2802   2.568   0.887  11.185  0.3761 -0.0270  0.9414
  184MPD1    C5 2803   2.567   0.920  11.323  0.5140  0.1660 -0.4258
  184MPD1     H 2804   2.269   0.729  11.195 -0.4049  1.4393 -1.2552
  184MPD1    H1 2805   2.648   0.911  11.116 -0.4511  2.0092  0.7181
  184MPD1    H2 2806   2.469   0.921  11.511  1.1842 -2.7583  1.7000
  184MPD1    H3 2807   2.645   0.981  11.368  1.4599 -0.9429 -0.5586
  184MPD1     N 2808   2.453   0.802  11.011  0.3489  0.4258 -0.3460
  184MPD1    H5 2809   2.532   0.834  10.956 -0.0427  0.6527 -0.7752
  184MPD1    N1 2810   2.267   0.760  11.452 -0.0057  0.4565 -0.1879
  184MPD1    H6 2811   2.241   0.829  11.523  1.5340  0.4358  0.3943
  184MPD1    H7 2812   2.181   0.738  11.402 -0.6476 -1.3109  1.7019
  185MPD1     C 2813   2.150   4.634  10.635  0.6012 -0.0749 -0.2838
  185MPD1    C1 2814   2.132   4.694  10.756 -0.3603  0.4351 -0.3107
  185MPD1    C2 2815   2.190   0.097  10.781 -0.0532  0.3698  0.2824
  185MPD1    C3 2816   2.239   0.179  10.673  0.4072  0.1060  0.3187
  185MPD1    C4 2817   2.247   0.121  10.547  0.5287  0.0940 -0.3381
  185MPD1    C5 2818   2.213   4.711  10.539  0.1529  0.0457  0.3469
  185MPD1     H 2819   2.193   0.139  10.881  0.4881 -0.3675  0.5741
  185MPD1    H1 2820   2.274   0.165  10.451 -0.4949 -0.8232 -1.0580
  185MPD1    H2 2821   2.136   4.527  10.620 -0.8518 -0.0232  0.7586
  185MPD1    H3 2822   2.226   4.658  10.446  0.5381 -0.5204  0.7204
  185MPD1     N 2823   2.269   0.317  10.693 -0.5111 -0.0573  1.0213
  185MPD1    H5 2824   2.270   0.351  10.788 -2.2490 -0.1368  1.0571
  185MPD1    N1 2825   2.073   4.617  10.859  0.4317 -0.3368 -0.3800
  185MPD1    H6 2826   2.037   4.674  10.935 -0.5386 -0.0180 -1.0887
  185MPD1    H7 2827   2.001   4.553  10.825  2.0853 -2.3611 -0.1169
  186MPD1     C 2828   1.059   0.546  16.094 -0.0728 -0.7608 -0.0032
  186MPD1    C1 2829   1.057   0.651  16.007 -0.0602 -0.1067  0.3611
  186MPD1    C2 2830   1.105   0.771  16.058  0.1146 -0.3684  0.5709
  186MPD1    C3 2831   1.157   0.778  16.182  0.3255  0.7486  0.8165
  186MPD1    C4 2832   1.171   0.663  16.260 -0.0892 -0.5274  0.2398
  186MPD1    C5 2833   1.114   0.544  16.217 -0.0050 -0.3600  0.5175
  186MPD1     H 2834   1.115   0.855  15.991  4.0428  0.0234  1.6366
  186MPD1    H1 2835   1.213   0.674  16.360  0.7784 -0.3041 -0.1527
  186MPD1    H2 2836   1.015   0.454  16.059  0.6469 -1.2192  0.3084
  186MPD1    H3 2837   1.118   0.454  16.277 -1.3445 -0.9138 -0.2252
  186MPD1     N 2838   1.196   0.895  16.246 -0.0650  0.6751  0.1138
  186MPD1    H5 2839   1.203   0.901  16.347 -0.6115  1.1559  0.1252
  186MPD1    N1 2840   0.999   0.645  15.882 -0.0522 -0.5918  0.2877
  186MPD1    H6 2841   1.053   0.700  15.816 -0.5892 -0.6579 -0.2103
  186MPD1    H7 2842   1.004   0.553  15.839 -2.6706 -1.2246  1.3348
  187MPD1     C 2843   0.833   2.964   0.738  0.5183 -0.1084 -0.2477
  187MPD1    C1 2844   0.795   2.847   0.677 -0.3460  0.5630  0.0680
  187MPD1    C2 2845   0.722   2.861   0.558 -0.0929  0.4839 -0.4737
  187MPD1    C3 2846   0.696   2.987   0.501  0.0889 -0.0531 -0.2595
  187MPD1    C4 2847   0.745   3.103   0.560  0.9751  0.2209 -0.5442
  187MPD1    C5 2848   0.812   3.080   0.677  0.7357  0.2332  0.2606
  187MPD1     H 2849   0.685   2.771   0.512  0.4561  0.3312 -0.6195
  187MPD1    H1 2850   0.725   3.205   0.530 -1.7328 -0.0955  0.2105
  187MPD1    H2 2851   0.879   2.969   0.836 -0.3264  0.0068  0.1429
  187MPD1    H3 2852   0.842   3.171   0.728  1.9009  0.5566 -0.9977
  187MPD1     N 2853   0.610   3.007   0.392  0.4583  0.1875 -0.0978
  187MPD1    H5 2854   0.596   3.105   0.370 -1.5148 -0.3169 -1.0393
  187MPD1    N1 2855   0.813   2.724   0.741  0.3350  0.6447  0.2584
  187MPD1    H6 2856   0.899   2.729   0.794  0.7532 -1.1027 -0.2405
  187MPD1    H7 2857   0.831   2.656   0.667  0.6804  0.7038  0.2921
  188MPD1     C 2858   0.764   2.972   9.629 -0.1874  0.6697 -0.2006
  188MPD1    C1 2859   0.844   2.906   9.725 -0.5531 -0.6074  0.0395
  188MPD1    C2 2860   0.812   2.772   9.756  0.9581  0.0557  0.0023
  188MPD1    C3 2861   0.713   2.704   9.690  0.1583  0.5321 -0.7466
  188MPD1    C4 2862   0.645   2.772   9.593 -0.1724 -0.1123 -0.1249
  188MPD1    C5 2863   0.669   2.905   9.559  0.6494 -0.3937  0.1804
  188MPD1     H 2864   0.870   2.727   9.835 -0.3855 -1.0199  0.3773
  188MPD1    H1 2865   0.574   2.714   9.535  1.8623 -0.5950 -2.1410
  188MPD1    H2 2866   0.791   3.075   9.609  1.6600  0.1664 -0.2926
  188MPD1    H3 2867   0.609   2.952   9.482  0.5460 -0.2935  0.3217
  188MPD1     N 2868   0.666   2.569   9.728 -0.0574  0.0381  0.1111
  188MPD1    H5 2869   0.588   2.534   9.673  1.9470 -0.0062 -2.7102
  188MPD1    N1 2870   0.942   2.979   9.791 -0.4969  0.4392 -0.5340
  188MPD1    H6 2871   0.991   2.901   9.835  1.9942  4.0105  2.9078
  188MPD1    H7 2872   1.008   3.010   9.720 -0.9826 -0.7620 -1.5120
  189MPD1     C 2873   1.177   4.126   1.148 -1.0666 -0.7173 -0.0367
  189MPD1    C1 2874   1.059   4.105   1.085 -0.0199 -0.2703  0.5463
  189MPD1    C2 2875   1.050   4.049   0.958  0.4137  0.1547 -0.9383
  189MPD1    C3 2876   1.166   4.020   0.892  0.4800 -1.1931  0.2087
  189MPD1    C4 2877   1.288   4.046   0.959 -0.5192 -0.2717  0.1307
  189MPD1    C5 2878   1.290   4.081   1.088  0.5038  0.0081  0.2844
  189MPD1     H 2879   0.953   4.018   0.919  0.2065  0.0415 -0.3245
  189MPD1    H1 2880   1.380   4.014   0.912 -1.8575  0.7712 -3.2227
  189MPD1    H2 2881   1.169   4.176   1.244  1.0518  0.4802 -0.4814
  189MPD1    H3 2882   1.377   4.099   1.150  0.4828 -1.3069  0.6993
  189MPD1     N 2883   1.158   3.965   0.761  0.6130 -0.5285 -0.0453
  189MPD1    H5 2884   1.061   3.942   0.739  1.5787 -2.6612 -2.1493
  189MPD1    N1 2885   0.942   4.166   1.133 -0.1871  0.0160 -0.6271
  189MPD1    H6 2886   0.861   4.107   1.112 -2.2843  2.7721 -0.3483
  189MPD1    H7 2887   0.939   4.195   1.230  0.7081  0.4836 -0.7379
  190MPD1     C 2888   0.848   2.344  15.111  0.2062  0.4903  0.4931
  190MPD1    C1 2889   0.947   2.259  15.071 -0.6022 -0.1356 -0.2057
  190MPD1    C2 2890   1.039   2.219  15.174  0.6310 -0.2141  0.0297
  190MPD1    C3 2891   1.033   2.250  15.308  0.6996 -0.0047  0.1906
  190MPD1    C4 2892   0.916   2.320  15.339 -0.2928 -0.2151  0.3365
  190MPD1    C5 2893   0.833   2.371  15.246 -0.2079  0.2397 -0.7763
  190MPD1     H 2894   1.127   2.166  15.139  0.2382 -0.1205 -1.1047
  190MPD1    H1 2895   0.895   2.330  15.444 -0.7652 -3.5631  0.5653
  190MPD1    H2 2896   0.790   2.385  15.029  3.4720  1.0015 -1.5638
  190MPD1    H3 2897   0.744   2.425  15.279  0.2287  0.6657 -0.2939
  190MPD1     N 2898   1.132   2.196  15.392 -0.2459 -0.4158  0.9158
  190MPD1    H5 2899   1.200   2.133  15.350  0.7252  2.0204 -1.1685
  190MPD1    N1 2900   0.978   2.231  14.936 -0.2143  0.5861 -0.0524
  190MPD1    H6 2901   0.894   2.239  14.879 -1.3894  0.6112  1.7170
  190MPD1    H7 2902   1.013   2.135  14.937 -1.4181  0.1674  0.8471
  191MPD1     C 2903   0.079   3.016  12.834 -0.1131 -0.0855  0.3638
  191MPD1    C1 2904   4.678   3.073  12.858 -0.5193 -0.5765 -0.2717
  191MPD1    C2 2905   4.655   3.200  12.814  0.1140  0.4212  0.8346
  191MPD1    C3 2906   0.030   3.270  12.746  0.6656  0.1873  0.0667
  191MPD1    C4 2907   0.146   3.213  12.726  0.0154  0.4073  0.6386
  191MPD1    C5 2908   0.173   3.086  12.766  0.0060  0.1123  0.3256
  191MPD1     H 2909   4.554   3.238  12.824 -0.8600 -1.9188 -0.0472
  191MPD1    H1 2910   0.222   3.270  12.674 -0.3616  1.1745  0.9340
  191MPD1    H2 2911   0.107   2.919  12.873  0.1998 -0.3506 -0.5133
  191MPD1    H3 2912   0.275   3.051  12.750  0.4015 -0.0764  3.2788
  191MPD1     N 2913   4.714   3.395  12.698  0.1336 -0.2405 -0.3281
  191MPD1    H5 2914   4.619   3.429  12.710  0.0982 -0.2994 -0.4430
  191MPD1    N1 2915   4.567   2.994  12.892  0.1839  0.4450  0.3001
  191MPD1    H6 2916   4.586   2.903  12.933 -2.1662  0.0729  0.5805
  191MPD1    H7 2917   4.493   3.041  12.943  0.3357  1.1517 -0.1368
  192MPD1     C 2918   3.958   4.029  12.636 -0.0667 -0.2444  0.0365
  192MPD1    C1 2919   3.991   3.899  12.675  0.6185  0.1335  0.2454
  192MPD1    C2 2920   4.119   3.857  12.648 -0.1824 -0.4920  0.4078
  192MPD1    C3 2921   4.215   3.925  12.576 -0.2766  0.2696 -0.3339
  192MPD1    C4 2922   4.176   4.046  12.527  0.0889 -0.6049 -0.0540
  192MPD1    C5 2923   4.052   4.101  12.559  0.5362  0.0369  0.1136
  192MPD1     H 2924   4.147   3.764  12.698  1.0223 -0.5383 -0.3334
  192MPD1    H1 2925   4.240   4.108  12.465 -0.7792 -0.0900 -0.4273
  192MPD1    H2 2926   3.861   4.068  12.661  0.2637  1.2984 -1.0367
  192MPD1    H3 2927   4.016   4.197  12.525  3.9420  0.2774 -2.7387
  192MPD1     N 2928   4.345   3.872  12.549 -0.6015 -0.0074 -0.0517
  192MPD1    H5 2929   4.408   3.939  12.506 -0.3986 -0.4630 -0.4487
  192MPD1    N1 2930   3.887   3.832  12.746  0.0873 -0.2774  0.0422
  192MPD1    H6 2931   3.799   3.863  12.705 -0.1895  0.0263  0.8625
  192MPD1    H7 2932   3.904   3.732  12.742  1.4480  0.0245 -1.6969
  193MPD1     C 2933   4.308   4.135  16.665 -0.3327 -0.4369 -0.6991
  193MPD1    C1 2934   4.288   4.207  16.775  0.1034  0.4630 -0.0928
  193MPD1    C2 2935   4.389   4.295  16.814  0.6463 -0.8567 -0.2331
  193MPD1    C3 2936   4.498   4.331  16.734 -0.0706 -0.9959  0.0734
  193MPD1    C4 2937   4.513   4.267  16.611  0.1418 -0.5536  0.6284
  193MPD1    C5 2938   4.414   4.170  16.583 -0.7249  0.2960  0.1680
  193MPD1     H 2939   4.379   4.342  16.911 -1.5261 -1.0474 -0.3645
  193MPD1    H1 2940   4.590   4.291  16.538  2.6284 -1.9434  2.7940
  193MPD1    H2 2941   4.241   4.057  16.629 -1.0446 -0.8501  1.4670
  193MPD1    H3 2942   4.393   4.122  16.488  1.0632  1.5857 -0.8824
  193MPD1     N 2943   4.582   4.435  16.760  0.0223 -0.0717  0.2375
  193MPD1    H5 2944   4.653   4.449  16.688  0.7606 -0.7090  0.8358
  193MPD1    N1 2945   4.182   4.176  16.858  0.3115 -0.4087 -0.3719
  193MPD1    H6 2946   4.128   4.255  16.896  1.7128 -0.5705  1.9373
  193MPD1    H7 2947   4.113   4.124  16.805 -1.1387  1.2630 -0.1589
  194MPD1     C 2948   2.598   1.943  16.467 -0.0720 -0.1471 -0.2303
  194MPD1    C1 2949   2.476   1.878  16.444 -0.1704 -0.1237  0.3945
  194MPD1    C2 2950   2.458   1.754  16.498 -0.1000  0.3521 -0.1188
  194MPD1    C3 2951   2.551   1.701  16.587  0.4329  0.3223 -0.5798
  194MPD1    C4 2952   2.657   1.774  16.627  0.3342  0.0387 -0.6887
  194MPD1    C5 2953   2.687   1.891  16.561  0.1261  0.0109 -0.0094
  194MPD1     H 2954   2.375   1.694  16.463 -0.1197  0.0705  0.3972
  194MPD1    H1 2955   2.723   1.734  16.703  0.8835 -2.3179 -2.3807
  194MPD1    H2 2956   2.625   2.036  16.419  2.2255 -0.1284  1.1327
  194MPD1    H3 2957   2.777   1.942  16.592  1.2761 -0.6062 -2.3563
  194MPD1     N 2958   2.529   1.575  16.649  0.1261  0.7622 -0.1665
  194MPD1    H5 2959   2.604   1.560  16.715 -0.0098  1.1293  0.0729
  194MPD1    N1 2960   2.391   1.910  16.339 -0.1003 -0.1689  1.1023
  194MPD1    H6 2961   2.300   1.865  16.342 -0.6288  0.7729 -0.8353
  194MPD1    H7 2962   2.377   2.011  16.328 -1.7415 -0.5780 -0.5539
  195MPD1     C 2963   0.015   3.529   0.350 -0.1768  0.0480 -0.2352
  195MPD1    C1 2964   4.656   3.451   0.272  0.2849 -0.2040 -0.0946
  195MPD1    C2 2965   4.675   3.311   0.263  0.7194  0.3481 -0.6065
  195MPD1    C3 2966   0.060   3.251   0.335 -0.3330 -0.1626 -0.3676
  195MPD1    C4 2967   0.133   3.331   0.419  1.1575  0.2936  0.0050
  195MPD1    C5 2968   0.116   3.468   0.419 -0.4038 -0.3800  0.0335
  195MPD1     H 2969   4.611   3.256   0.195  3.1510 -3.2313 -0.0178
  195MPD1    H1 2970   0.211   3.287   0.481  3.5683  0.7261 -2.7120
  195MPD1    H2 2971   0.008   3.637   0.350 -2.3928 -0.0972 -0.1651
  195MPD1    H3 2972   0.178   3.524   0.488 -3.5268  1.2795  1.4733
  195MPD1     N 2973   0.090   3.117   0.326  0.3682 -0.0568 -1.0810
  195MPD1    H5 2974   0.153   3.080   0.396  0.9328  1.1596 -0.9559
  195MPD1    N1 2975   4.538   3.518   0.220 -0.4414  0.7264 -0.1386
  195MPD1    H6 2976   4.497   3.471   0.139 -0.4208 -0.3787  0.4881
  195MPD1    H7 2977   4.549   3.619   0.211 -3.9165  1.1296  0.1168
  196MPD1     C 2978   4.394   2.813   0.420  0.1431  0.2691 -0.5173
  196MPD1    C1 2979   4.333   2.932   0.449  0.1970 -0.6629  0.2745
  196MPD1    C2 2980   4.393   3.012   0.543 -0.6187 -0.5259 -0.5383
  196MPD1    C3 2981   4.523   2.993   0.583  0.2939 -0.6523  0.1291
  196MPD1    C4 2982   4.596   2.882   0.543 -0.9231  0.8234 -0.5331
  196MPD1    C5 2983   4.529   2.797   0.462 -0.7263 -0.3052 -0.2548
  196MPD1     H 2984   4.339   3.104   0.564 -2.6584 -2.0417  0.9818
  196MPD1    H1 2985   4.702   2.873   0.566 -1.2250 -1.2725  0.0565
  196MPD1    H2 2986   4.352   2.734   0.359  2.1730 -3.7501  3.2917
  196MPD1    H3 2987   4.582   2.708   0.431 -1.2257 -0.2686 -1.2105
  196MPD1     N 2988   4.587   3.085   0.671 -0.3441  0.3049  0.1870
  196MPD1    H5 2989   4.671   3.055   0.720  0.9443 -1.5858 -3.1328
  196MPD1    N1 2990   4.200   2.952   0.403 -0.4845  0.3675 -0.1821
  196MPD1    H6 2991   4.180   2.908   0.313 -3.1825 -2.4102  1.7494
  196MPD1    H7 2992   4.156   3.043   0.411 -0.3899  0.3975  0.0242
  197MPD1     C 2993   3.670   4.215   0.121 -0.8213 -0.1668 -0.0014
  197MPD1    C1 2994   3.575   4.314   0.092  0.2353  0.2369  0.2071
  197MPD1    C2 2995   3.603   4.408   0.000 -0.4043 -0.4450  0.0029
  197MPD1    C3 2996   3.735   4.424  17.641 -0.0548 -0.3275  0.1775
  197MPD1    C4 2997   3.828   4.327  17.663 -0.5739  0.1497 -0.0251
  197MPD1    C5 2998   3.792   4.223   0.060  0.1985 -0.1693  0.2430
  197MPD1     H 2999   3.524   4.478  17.668  2.8404  2.5301 -2.0308
  197MPD1    H1 3000   3.928   4.338  17.624  0.0768  0.3619  1.7300
  197MPD1    H2 3001   3.648   4.128   0.183  0.3573 -1.5011 -1.4598
  197MPD1    H3 3002   3.867   4.148   0.079  0.0349 -0.9934 -2.4191
  197MPD1     N 3003   3.767   4.523  17.546 -0.1492  0.2928 -0.2654
  197MPD1    H5 3004   3.850   4.520  17.488  1.6360 -0.1948  2.2938
  197MPD1    N1 3005   3.446   4.290   0.138  0.1094 -0.3437  0.2060
  197MPD1    H6 3006   3.445   4.241   0.227  0.0699 -0.4557  0.1438
  197MPD1    H7 3007   3.393   4.377   0.150  0.6591  0.2674 -1.8413
  198MPD1     C 3008   0.042   3.448  15.897 -0.0564  0.2917 -0.4646
  198MPD1    C1 3009   0.152   3.393  15.836 -0.1731  0.1643  0.2580
  198MPD1    C2 3010   0.276   3.438  15.876 -0.2980 -0.1539  0.5789
  198MPD1    C3 3011   0.300   3.509  15.994 -0.6066  0.0542 -0.2099
  198MPD1    C4 3012   0.186   3.553  16.060  0.7667 -0.7377  0.3947
  198MPD1    C5 3013   0.061   3.523  16.009  0.6387  0.0594 -0.0295
  198MPD1     H 3014   0.362   3.412  15.816  0.7611  1.9165  1.1832
  198MPD1    H1 3015   0.192   3.611  16.151 -2.1302 -0.3845  0.3680
  198MPD1    H2 3016   4.660   3.431  15.871  0.0001  1.1912 -1.2605
  198MPD1    H3 3017   4.693   3.546  16.065  0.5227  0.7318 -0.4857
  198MPD1     N 3018   0.431   3.533  16.028 -0.6135  0.1312 -0.3557
  198MPD1    H5 3019   0.498   3.487  15.967 -1.5029 -2.5033  0.6921
  198MPD1    N1 3020   0.140   3.320  15.717 -0.3800  0.0676  0.1766
  198MPD1    H6 3021   0.058   3.260  15.725  0.3651 -1.1604 -1.2850
  198MPD1    H7 3022   0.223   3.268  15.688 -0.4073  1.1242 -1.8208
  199MPD1     C 3023   3.739   4.343   9.719 -0.0270 -0.2996  0.0550
  199MPD1    C1 3024   3.666   4.460   9.705 -0.3936 -0.2325  0.7899
  199MPD1    C2 3025   3.530   4.457   9.688 -0.0105 -0.2208  0.4919
  199MPD1    C3 3026   3.463   4.337   9.724 -0.0564 -0.2257  0.4201
  199MPD1    C4 3027   3.533   4.222   9.749 -1.1334 -0.2255  0.9910
  199MPD1    C5 3028   3.665   4.227   9.738  0.6732 -0.2481 -0.2821
  199MPD1     H 3029   3.492   4.556   9.667 -2.3829 -1.0891  0.6499
  199MPD1    H1 3030   3.490   4.125   9.773  0.9242 -1.0731  1.2612
  199MPD1    H2 3031   3.846   4.355   9.715  0.0265 -1.0751 -0.7018
  199MPD1    H3 3032   3.720   4.136   9.759  1.1462  0.1753  0.3337
  199MPD1     N 3033   3.323   4.329   9.733 -0.7243  0.7291 -0.0211
  199MPD1    H5 3034   3.296   4.233   9.753 -0.0690  0.8138  1.2785
  199MPD1    N1 3035   3.737   4.580   9.672 -0.8171 -0.2822 -0.0648
  199MPD1    H6 3036   3.820   4.596   9.730 -0.5701 -1.5500 -0.0649
  199MPD1    H7 3037   3.680   4.663   9.681 -2.5440 -1.4992  0.2278
  200MPD1     C 3038   1.494   4.324  14.948  0.1881  1.0757  0.3376
  200MPD1    C1 3039   1.565   4.307  14.836  0.5837 -0.1441  0.4586
  200MPD1    C2 3040   1.701   4.298  14.839 -0.4554 -0.2780 -0.2670
  200MPD1    C3 3041   1.772   4.327  14.954 -0.0118  0.1549 -0.4794
  200MPD1    C4 3042   1.698   4.333  15.071  0.3420  0.4609 -0.6755
  200MPD1    C5 3043   1.562   4.325  15.067  0.7461 -0.1257  0.0060
  200MPD1     H 3044   1.757   4.277  14.749 -0.6717  2.2602 -0.9685
  200MPD1    H1 3045   1.749   4.338  15.167 -3.2894 -0.7794  1.3353
  200MPD1    H2 3046   1.386   4.330  14.944  0.1959  0.6553 -0.5277
  200MPD1    H3 3047   1.508   4.351  15.158  0.3628  0.8141 -0.4834
  200MPD1     N 3048   1.909   4.344  14.953  0.4521 -0.1967  0.4058
  200MPD1    H5 3049   1.951   4.317  14.865 -0.7501 -3.7575  0.9524
  200MPD1    N1 3050   1.496   4.279  14.716 -0.3650  0.5224 -0.2532
  200MPD1    H6 3051   1.554   4.309  14.639  2.7333 -1.0258  1.4640
  200MPD1    H7 3052   1.414   4.337  14.704 -1.1724 -1.0766 -2.3124
  201MPD1     C 3053   3.625   3.648  13.232 -0.7563 -0.6730 -0.4763
  201MPD1    C1 3054   3.650   3.564  13.116  0.3001 -0.3151 -0.3400
  201MPD1    C2 3055   3.726   3.453  13.146  0.4887 -0.1891  0.0028
  201MPD1    C3 3056   3.760   3.413  13.277  0.8448  0.0855  0.2695
  201MPD1    C4 3057   3.707   3.485  13.384  0.3587 -0.4613 -0.6549
  201MPD1    C5 3058   3.651   3.608  13.358  1.2778  0.2394 -0.9550
  201MPD1     H 3059   3.764   3.392  13.065 -0.2979 -2.6854  1.4750
  201MPD1    H1 3060   3.743   3.466  13.485  0.4736 -0.2866 -0.6622
  201MPD1    H2 3061   3.568   3.739  13.218 -0.1212 -0.5283 -2.1298
  201MPD1    H3 3062   3.618   3.671  13.439  1.6508  0.9859 -1.3884
  201MPD1     N 3063   3.845   3.300  13.300  0.0269 -0.0985 -0.1668
  201MPD1    H5 3064   3.854   3.230  13.227  1.7030  0.0454 -0.1027
  201MPD1    N1 3065   3.637   3.613  12.984 -0.6947  0.4749 -0.0356
  201MPD1    H6 3066   3.623   3.531  12.925  1.3471 -0.6799  1.1081
  201MPD1    H7 3067   3.555   3.672  12.970 -0.3498  0.9643 -0.0125
  202MPD1     C 3068   3.511   1.995   9.495  0.5435 -0.0884  0.6558
  202MPD1    C1 3069   3.463   2.124   9.492 -0.0863  0.0186  0.0065
  202MPD1    C2 3070   3.552   2.222   9.544 -0.2519  0.0160  0.7532
  202MPD1    C3 3071   3.649   2.194   9.634  0.0063  0.1005  0.3415
  202MPD1    C4 3072   3.681   2.062   9.644  0.9025  0.5321  0.5232
  202MPD1    C5 3073   3.617   1.958   9.581 -0.2476 -0.1317 -0.6418
  202MPD1     H 3074   3.527   2.327   9.533  0.3080  0.1258  0.5098
  202MPD1    H1 3075   3.745   2.041   9.729  0.8265  2.3032  1.0279
  202MPD1    H2 3076   3.476   1.913   9.433  0.1956 -0.8086  1.8037
  202MPD1    H3 3077   3.640   1.855   9.606 -0.3439  0.0293  0.1094
  202MPD1     N 3078   3.724   2.285   9.716 -0.0407 -0.0961 -0.2395
  202MPD1    H5 3079   3.801   2.245   9.769  1.0106  0.1772 -1.5663
  202MPD1    N1 3080   3.373   2.157   9.389  0.0961 -0.5327 -0.1815
  202MPD1    H6 3081   3.338   2.250   9.411 -0.4714 -0.9809  0.8386
  202MPD1    H7 3082   3.299   2.088   9.387 -1.2691  0.9437 -0.7475
  203MPD1     C 3083   2.602   3.931  12.582 -0.0300  0.5615 -0.1346
  203MPD1    C1 3084   2.594   3.806  12.517 -0.0357  0.2298  0.3643
  203MPD1    C2 3085   2.679   3.703  12.558  0.1890 -0.2793  0.6883
  203MPD1    C3 3086   2.756   3.712  12.672  0.2422 -0.0476  0.2571
  203MPD1    C4 3087   2.755   3.825  12.741 -0.5769 -0.3868  0.3718
  203MPD1    C5 3088   2.672   3.926  12.700 -0.3464 -0.7477 -0.2802
  203MPD1     H 3089   2.687   3.609  12.505 -0.3556  1.4382 -2.4172
  203MPD1    H1 3090   2.822   3.846  12.824  0.0775 -0.0160 -0.2483
  203MPD1    H2 3091   2.542   4.015  12.553 -1.0134 -0.0296  0.1873
  203MPD1    H3 3092   2.685   4.015  12.761 -0.0284 -1.2113  0.3325
  203MPD1     N 3093   2.830   3.601  12.710  0.1013 -0.4324  0.2642
  203MPD1    H5 3094   2.839   3.529  12.639 -1.0440  0.5915 -0.9234
  203MPD1    N1 3095   2.522   3.797  12.392  0.3089 -0.9390 -0.4373
  203MPD1    H6 3096   2.453   3.872  12.382  1.3737 -0.3428 -3.4052
  203MPD1    H7 3097   2.481   3.705  12.376 -2.5248 -0.3162  3.0373
  204MPD1     C 3098   1.936   4.322  17.509 -0.0122  0.2829  0.2125
  204MPD1    C1 3099   2.068   4.301  17.532 -0.8752 -0.3218 -0.3876
  204MPD1    C2 3100   2.139   4.222  17.439 -0.0489 -0.0884 -0.1576
  204MPD1    C3 3101   2.078   4.181  17.323 -0.6585  0.3112  0.2172
  204MPD1    C4 3102   1.946   4.203  17.302  0.0429  0.6408 -0.9645
  204MPD1    C5 3103   1.879   4.276  17.387  0.5303 -0.4846 -0.7240
  204MPD1     H 3104   2.239   4.191  17.470  0.2289  1.0929  0.1317
  204MPD1    H1 3105   1.890   4.155  17.222 -0.2308  0.5742 -0.7296
  204MPD1    H2 3106   1.874   4.374  17.582 -1.9273  0.3056 -1.4327
  204MPD1    H3 3107   1.772   4.280  17.376  0.5933 -2.7194 -2.1445
  204MPD1     N 3108   2.153   4.101  17.235 -0.1788 -0.1403 -0.6380
  204MPD1    H5 3109   2.241   4.073  17.277  0.7579  0.4075 -2.2275
  204MPD1    N1 3110   2.118   4.337  17.658  0.5001  0.2996  0.8662
  204MPD1    H6 3111   2.070   4.424  17.684 -2.4738 -0.9942 -0.2948
  204MPD1    H7 3112   2.219   4.348  17.649  0.5837 -0.7184  0.5909
  205MPD1     C 3113   3.754   3.558  17.502 -0.4874 -0.2984 -0.1053
  205MPD1    C1 3114   3.670   3.569  17.393 -0.3609  0.7353  0.2352
  205MPD1    C2 3115   3.539   3.512  17.394 -0.9084 -0.2929  0.0530
  205MPD1    C3 3116   3.487   3.451  17.509  0.0982  0.7419  0.4285
  205MPD1    C4 3117   3.564   3.469  17.623  0.1512  0.2882  0.8071
  205MPD1    C5 3118   3.686   3.533  17.617 -1.0697 -0.0734  0.0960
  205MPD1     H 3119   3.483   3.495  17.303 -0.0813 -0.6332 -0.3898
  205MPD1    H1 3120   3.528   3.433   0.028  0.8098 -2.7632 -0.1220
  205MPD1    H2 3121   3.857   3.591  17.505 -0.7524  0.6590 -1.3211
  205MPD1    H3 3122   3.746   3.526   0.016 -2.1010  0.8581  0.8541
  205MPD1     N 3123   3.367   3.378  17.520  0.1352 -0.6284 -0.0911
  205MPD1    H5 3124   3.337   3.341  17.609  2.1972 -0.4548  0.6816
  205MPD1    N1 3125   3.730   3.602  17.267  0.1023 -0.4617 -0.0343
  205MPD1    H6 3126   3.663   3.648  17.205 -1.2460 -0.5559  1.3282
  205MPD1    H7 3127   3.796   3.679  17.274 -0.6429  0.2770 -1.0822
  206MPD1     C 3128   3.097   2.178  16.337  0.0394 -0.9392  0.0837
  206MPD1    C1 3129   2.977   2.232  16.360 -0.4366 -0.3935 -0.0710
  206MPD1    C2 3130   2.861   2.198  16.283  0.1796  1.1407  0.3741
  206MPD1    C3 3131   2.887   2.097  16.188 -0.4847 -0.3671  0.5096
  206MPD1    C4 3132   3.007   2.036  16.172  0.3162  0.0835 -0.3822
  206MPD1    C5 3133   3.116   2.081  16.242  0.1129  0.3616  1.1846
  206MPD1     H 3134   2.770   2.255  16.296  0.4354  1.4334  0.8435
  206MPD1    H1 3135   3.026   1.954  16.103  1.8618  1.5230 -1.6626
  206MPD1    H2 3136   3.185   2.208  16.391 -0.4149 -1.3505  1.0481
  206MPD1    H3 3137   3.213   2.039  16.221 -0.6843 -0.2581 -1.3636
  206MPD1     N 3138   2.785   2.046  16.104 -0.2193  0.4583  0.2285
  206MPD1    H5 3139   2.815   1.980  16.033 -0.1610  0.0706  0.6131
  206MPD1    N1 3140   2.969   2.340  16.448 -0.1905 -0.4503  0.4096
  206MPD1    H6 3141   3.020   2.315  16.533  1.6587 -0.0332 -0.5775
  206MPD1    H7 3142   2.876   2.361  16.485 -0.2657 -0.4092  0.1965
  207MPD1     C 3143   4.538   0.467  10.222 -0.0931  0.0625 -0.6543
  207MPD1    C1 3144   4.537   0.383  10.326  0.2683 -0.3867 -0.5593
  207MPD1    C2 3145   4.658   0.322  10.362  0.0800  0.0184  0.8276
  207MPD1    C3 3146   0.050   0.336  10.277 -1.0305  1.3113  0.6795
  207MPD1    C4 3147   0.043   0.419  10.167 -0.5361 -0.3347  0.7877
  207MPD1    C5 3148   4.650   0.482  10.146 -0.2287  0.4021  0.6376
  207MPD1     H 3149   4.661   0.257  10.449 -1.7671  2.1377  2.4319
  207MPD1    H1 3150   0.119   0.414  10.090  1.1963 -0.5608  2.5059
  207MPD1    H2 3151   4.448   0.526  10.208  0.1579  0.6046  0.0256
  207MPD1    H3 3152   4.640   0.545  10.059 -1.6205 -1.0397 -0.2467
  207MPD1     N 3153   0.171   0.263  10.302 -0.3264  0.1822 -0.5725
  207MPD1    H5 3154   0.248   0.297  10.245 -0.2318 -0.5330 -0.8651
  207MPD1    N1 3155   4.430   0.380  10.416 -0.1042  0.2148 -0.4779
  207MPD1    H6 3156   4.435   0.300  10.479 -1.1541 -0.4158 -1.1908
  207MPD1    H7 3157   4.341   0.391  10.367  0.4751  1.5861 -1.2056
  208MPD1     C 3158   4.147   3.414   0.274 -0.8940  0.0246  0.3650
  208MPD1    C1 3159   4.209   3.363   0.388  0.5944  0.3241  0.4937
  208MPD1    C2 3160   4.134   3.273   0.463  0.6609  0.7804  0.7525
  208MPD1    C3 3161   4.009   3.220   0.421  1.2968 -0.1194 -0.0077
  208MPD1    C4 3162   3.953   3.271   0.304 -0.3402  0.9653  0.0047
  208MPD1    C5 3163   4.023   3.363   0.242  0.2477 -0.2397 -0.3787
  208MPD1     H 3164   4.177   3.246   0.559  0.9173  0.4990  0.5598
  208MPD1    H1 3165   3.850   3.266   0.271 -0.3023 -0.1989  0.0539
  208MPD1    H2 3166   4.185   3.501   0.223  1.4919 -1.5372 -0.4872
  208MPD1    H3 3167   3.970   3.418   0.165 -1.4580  1.2399  1.8380
  208MPD1     N 3168   3.940   3.121   0.498 -0.0316 -0.3732  0.1878
  208MPD1    H5 3169   3.971   3.091   0.590  2.3437  1.0480 -0.1549
  208MPD1    N1 3170   4.335   3.414   0.434  0.1156  0.1585 -0.1095
  208MPD1    H6 3171   4.391   3.426   0.350 -0.5560 -0.9509 -0.7140
  208MPD1    H7 3172   4.382   3.342   0.489 -0.2702  0.8235  1.0896
  209MPD1     C 3173   1.118   3.215  10.050 -0.9179 -0.1404 -0.0413
  209MPD1    C1 3174   1.195   3.329  10.040  0.3931 -0.4388 -0.4038
  209MPD1    C2 3175   1.158   3.438  10.118  0.4265 -0.6423 -1.0055
  209MPD1    C3 3176   1.047   3.434  10.195 -0.3165 -0.4967 -0.1120
  209MPD1    C4 3177   0.964   3.323  10.196  0.1855  0.5507  0.7135
  209MPD1    C5 3178   1.003   3.209  10.124 -0.2946 -0.8666  0.2000
  209MPD1     H 3179   1.214   3.530  10.115 -0.4666 -0.1255 -2.1704
  209MPD1    H1 3180   0.882   3.313  10.266 -1.2206 -2.6378 -1.3885
  209MPD1    H2 3181   1.148   3.120  10.008  1.3403  0.3305  0.4893
  209MPD1    H3 3182   0.940   3.121  10.130  0.2105 -1.3110 -0.9597
  209MPD1     N 3183   1.016   3.548  10.273  0.8959 -0.2143 -0.3511
  209MPD1    H5 3184   1.084   3.623  10.258  0.3437  0.2458 -0.5491
  209MPD1    N1 3185   1.309   3.336   9.963 -0.5501 -0.9915  0.2999
  209MPD1    H6 3186   1.373   3.412   9.983  1.2156 -2.6982  1.1695
  209MPD1    H7 3187   1.362   3.249   9.966  1.0976  0.0511  1.1047
  210MPD1     C 3188   1.264   4.495  10.356  0.6626 -0.1228 -0.3225
  210MPD1    C1 3189   1.240   4.409  10.246  0.3137  0.3939 -0.4745
  210MPD1    C2 3190   1.193   4.281  10.275 -0.8620  0.1447  0.6750
  210MPD1    C3 3191   1.164   4.242  10.404 -0.1606  0.7482 -0.6777
  210MPD1    C4 3192   1.195   4.325  10.510  0.0117  0.1221 -0.4081
  210MPD1    C5 3193   1.243   4.449  10.482  0.2108  0.1231  0.5338
  210MPD1     H 3194   1.163   4.217  10.193  0.4168 -1.5912  1.5677
  210MPD1    H1 3195   1.170   4.284  10.607  0.6660  1.6973  0.4210
  210MPD1    H2 3196   1.301   4.595  10.336 -0.7266  0.3476 -0.5695
  210MPD1    H3 3197   1.247   4.521  10.562 -2.4245 -0.6640  1.3972
  210MPD1     N 3198   1.087   4.128  10.433 -0.1870 -0.0874  0.3882
  210MPD1    H5 3199   1.056   4.113  10.529  0.4706  1.8499  0.8895
  210MPD1    N1 3200   1.260   4.440  10.109 -0.3813  0.5504  0.4354
  210MPD1    H6 3201   1.236   4.537  10.088  2.5796  1.5063  1.5288
  210MPD1    H7 3202   1.203   4.379  10.051  0.1439  1.3434 -0.9057
  211MPD1     C 3203   3.289   4.040  17.162 -0.2290 -0.1674 -0.6614
  211MPD1    C1 3204   3.331   3.929  17.097  0.7224  0.1832 -0.4073
  211MPD1    C2 3205   3.276   3.909  16.972 -0.0140 -0.0605  0.0603
  211MPD1    C3 3206   3.188   3.998  16.918 -0.0100  0.4621 -0.2901
  211MPD1    C4 3207   3.156   4.113  16.989  0.0879  0.7405  0.4301
  211MPD1    C5 3208   3.209   4.131  17.109  0.1298 -0.4554  0.0991
  211MPD1     H 3209   3.305   3.819  16.918  3.4060  0.6305  0.6927
  211MPD1    H1 3210   3.076   4.178  16.955 -0.4459 -1.2595 -2.1400
  211MPD1    H2 3211   3.317   4.053  17.267 -0.1530  1.7761 -0.9192
  211MPD1    H3 3212   3.174   4.213  17.171  1.3905 -0.2600  0.5404
  211MPD1     N 3213   3.123   3.962  16.793  0.7027 -0.2517 -0.3722
  211MPD1    H5 3214   3.150   3.874  16.751 -1.2754 -0.1444 -1.8548
  211MPD1    N1 3215   3.399   3.829  17.172 -0.2632 -0.0548 -0.0270
  211MPD1    H6 3216   3.434   3.758  17.108  0.6258 -0.8954  1.4104
  211MPD1    H7 3217   3.480   3.877  17.211  0.4434 -0.7240 -0.6674
  212MPD1     C 3218   2.256   2.011  16.706 -1.0139  0.1351 -0.5234
  212MPD1    C1 3219   2.117   2.047  16.711 -0.6003 -0.2552  1.0923
  212MPD1    C2 3220   2.025   1.951  16.753 -0.4300 -0.1781 -0.3669
  212MPD1    C3 3221   2.066   1.820  16.785 -0.0130  0.4619  0.3822
  212MPD1    C4 3222   2.200   1.792  16.778 -0.5022 -0.2978  0.7545
  212MPD1    C5 3223   2.295   1.890  16.750  0.3479  0.2609  0.2848
  212MPD1     H 3224   1.925   1.990  16.768 -0.4797 -0.1534 -0.7545
  212MPD1    H1 3225   2.235   1.697  16.815  0.0091  0.0436  1.1443
  212MPD1    H2 3226   2.335   2.076  16.669 -0.0721 -1.4560 -1.2762
  212MPD1    H3 3227   2.401   1.870  16.749  0.4863  0.9772  0.6775
  212MPD1     N 3228   1.987   1.716  16.828  0.0794  0.1996  0.2308
  212MPD1    H5 3229   2.040   1.633  16.853 -0.4726  0.5384  2.5224
  212MPD1    N1 3230   2.072   2.173  16.666  0.0427  0.0439 -0.0640
  212MPD1    H6 3231   2.011   2.219  16.733  2.0838 -0.0876  1.8874
  212MPD1    H7 3232   2.149   2.239  16.659  0.5542 -0.8126 -2.5529
  213MPD1     C 3233   4.562   3.168  16.247 -0.2196 -0.1125 -0.4025
  213MPD1    C1 3234   4.539   3.243  16.130 -0.0686 -0.3705  0.2989
  213MPD1    C2 3235   4.569   3.170  16.020 -0.1925  0.4687  0.4074
  213MPD1    C3 3236   4.643   3.052  16.015  0.6056  1.5023  0.0924
  213MPD1    C4 3237   4.675   2.988  16.135 -0.3705 -0.2406 -1.1293
  213MPD1    C5 3238   4.638   3.055  16.249  0.4573  0.2278 -0.1844
  213MPD1     H 3239   4.542   3.218  15.926  0.7141 -1.9374 -1.0905
  213MPD1    H1 3240   0.008   2.896  16.145 -0.6391 -0.3268 -0.4492
  213MPD1    H2 3241   4.555   3.216  16.344  0.0313 -3.9002  1.4905
  213MPD1    H3 3242   4.649   3.014  16.348  0.3582  0.0899 -0.2294
  213MPD1     N 3243   4.665   2.994  15.893 -0.2609  0.3191 -0.3127
  213MPD1    H5 3244   4.635   3.047  15.811  2.2068  1.4676 -0.5071
  213MPD1    N1 3245   4.428   3.328  16.117 -0.0421 -0.1984 -0.4194
  213MPD1    H6 3246   4.421   3.386  16.200 -1.6061 -0.1787 -0.5748
  213MPD1    H7 3247   4.426   3.400  16.045 -1.5004 -1.0706 -1.2538
  214MPD1     C 3248   4.147   2.244  15.560 -0.2363 -0.0041  0.5827
  214MPD1    C1 3249   4.235   2.260  15.459 -0.2100  0.4390 -0.0400
  214MPD1    C2 3250   4.343   2.339  15.487 -0.0255  0.1273 -0.4949
  214MPD1    C3 3251   4.370   2.389  15.611  0.1343 -0.2806 -0.0506
  214MPD1    C4 3252   4.280   2.367  15.709  0.5083 -0.1428  0.0257
  214MPD1    C5 3253   4.168   2.295  15.684 -0.5026  0.2125 -0.0318
  214MPD1     H 3254   4.409   2.368  15.406 -1.0334  1.3508 -0.8815
  214MPD1    H1 3255   4.288   2.400  15.812  0.9269  1.5295 -0.5369
  214MPD1    H2 3256   4.059   2.180  15.555 -0.1339 -0.0235 -1.0458
  214MPD1    H3 3257   4.092   2.283  15.761 -2.5842  0.5776 -2.0018
  214MPD1     N 3258   4.479   2.477  15.632  0.7111 -0.0865 -1.3389
  214MPD1    H5 3259   4.507   2.498  15.727 -2.6916 -2.0487  0.1032
  214MPD1    N1 3260   4.210   2.202  15.337 -0.2515 -0.7241 -0.3462
  214MPD1    H6 3261   4.291   2.171  15.285 -0.6325 -1.4349 -0.5189
  214MPD1    H7 3262   4.139   2.130  15.347 -0.2159 -1.0155 -2.2847
  215MPD1     C 3263   0.775   2.755  10.442  0.1724 -0.1342 -0.2230
  215MPD1    C1 3264   0.835   2.859  10.372  0.3214 -0.6634  0.9020
  215MPD1    C2 3265   0.840   2.983  10.430 -0.0852  0.1986 -0.7815
  215MPD1    C3 3266   0.801   2.999  10.559  0.2430  0.3757 -0.9959
  215MPD1    C4 3267   0.752   2.894  10.629  0.2886  0.1853 -0.1845
  215MPD1    C5 3268   0.720   2.777  10.564 -0.1318 -0.2574 -0.2797
  215MPD1     H 3269   0.878   3.070  10.377  0.1016  1.2082  0.9924
  215MPD1    H1 3270   0.714   2.903  10.730 -3.2422 -2.3986 -1.2915
  215MPD1    H2 3271   0.754   2.656  10.402 -1.2008  0.4687 -1.0079
  215MPD1    H3 3272   0.673   2.696  10.619  0.9515  1.2575  2.8812
  215MPD1     N 3273   0.815   3.130  10.612 -0.2204 -0.2966 -0.2345
  215MPD1    H5 3274   0.863   3.206  10.565 -1.8850 -0.8652 -2.8801
  215MPD1    N1 3275   0.865   2.852  10.235  0.7510  0.3675 -0.5958
  215MPD1    H6 3276   0.955   2.894  10.209  0.6022  0.4450 -0.9844
  215MPD1    H7 3277   0.882   2.754  10.214  0.4882  0.5046 -1.4421
  216MPD1     C 3278   2.320   0.277  16.404 -0.6116  0.3244 -0.3211
  216MPD1    C1 3279   2.306   0.244  16.534 -0.4747 -0.5329  0.4453
  216MPD1    C2 3280   2.195   0.291  16.597  0.1055  1.0921  0.4781
  216MPD1    C3 3281   2.092   0.357  16.534  0.2355 -0.5197  0.1895
  216MPD1    C4 3282   2.108   0.383  16.403  0.1586  0.0960  0.3652
  216MPD1    C5 3283   2.226   0.345  16.336  0.2441 -0.1254 -0.3255
  216MPD1     H 3284   2.186   0.282  16.705 -2.8354 -0.7449  0.0703
  216MPD1    H1 3285   2.039   0.441  16.343 -0.2851 -0.1214  0.6720
  216MPD1    H2 3286   2.400   0.232  16.347  1.2195  0.6802  1.9652
  216MPD1    H3 3287   2.239   0.356  16.229  0.1075 -1.5520 -0.4896
  216MPD1     N 3288   1.972   0.392  16.599  0.0480 -0.2436  0.2287
  216MPD1    H5 3289   1.970   0.374  16.699 -0.5296  1.7700  0.5692
  216MPD1    N1 3290   2.411   0.181  16.604 -0.3951 -0.1620  0.3306
  216MPD1    H6 3291   2.375   0.112  16.669  0.9605 -0.8901  0.3194
  216MPD1    H7 3292   2.492   0.152  16.549 -1.7801 -2.1199 -0.6627
  217MPD1     C 3293   1.777   1.753   9.288 -0.0515  0.1907 -0.6578
  217MPD1    C1 3294   1.836   1.692   9.394  0.5060 -0.1780  0.2322
  217MPD1    C2 3295   1.957   1.751   9.440  0.6353  0.6105 -0.1602
  217MPD1    C3 3296   2.012   1.869   9.392  0.0590 -0.1556 -0.1121
  217MPD1    C4 3297   1.934   1.931   9.303 -0.3222  0.1199  0.7773
  217MPD1    C5 3298   1.819   1.874   9.257  0.5812 -0.5948  0.3456
  217MPD1     H 3299   2.011   1.685   9.506 -1.6289 -1.3678 -0.2731
  217MPD1    H1 3300   1.963   2.028   9.264  0.1739  0.1010  1.1003
  217MPD1    H2 3301   1.689   1.710   9.243 -0.4346  1.1977 -0.8680
  217MPD1    H3 3302   1.766   1.935   9.185  1.0606  0.4183  0.8496
  217MPD1     N 3303   2.134   1.923   9.426 -0.6569 -0.2432 -0.2180
  217MPD1    H5 3304   2.155   2.018   9.399 -0.5651 -0.4765 -0.9623
  217MPD1    N1 3305   1.802   1.559   9.427  0.2695 -0.0878 -0.1896
  217MPD1    H6 3306   1.707   1.523   9.430  0.1626  0.2076  0.0050
  217MPD1    H7 3307   1.838   1.534   9.519 -0.4797 -2.2905 -0.5168
  218MPD1     C 3308   4.080   3.276  12.740  0.3991  0.3548 -0.2161
  218MPD1    C1 3309   4.166   3.381  12.707  0.0863 -0.1654 -0.0496
  218MPD1    C2 3310   4.278   3.349  12.634 -0.0554 -0.4735 -0.2174
  218MPD1    C3 3311   4.294   3.219  12.584 -0.5656  0.0094 -0.7296
  218MPD1    C4 3312   4.204   3.122  12.612  0.4869 -0.3457 -0.0861
  218MPD1    C5 3313   4.092   3.148  12.685 -0.1256 -0.2601  0.0856
  218MPD1     H 3314   4.352   3.424  12.610 -0.8753  0.8610  1.4105
  218MPD1    H1 3315   4.214   3.019  12.581 -1.8318 -1.4606  2.9326
  218MPD1    H2 3316   3.992   3.290  12.802  0.4289  1.5572 -0.4612
  218MPD1    H3 3317   4.008   3.081  12.700 -0.5671  0.1439 -0.5779
  218MPD1     N 3318   4.419   3.202  12.508  0.9871 -0.6978 -0.8258
  218MPD1    H5 3319   4.466   3.285  12.475  0.3934 -0.2522 -0.5481
  218MPD1    N1 3320   4.156   3.500  12.780  0.3200 -0.1853  0.3483
  218MPD1    H6 3321   4.214   3.576  12.744  0.0814  0.0199  0.3961
  218MPD1    H7 3322   4.058   3.528  12.783  0.3730  0.1639 -1.3281
  219MPD1     C 3323   0.348   3.676  11.936 -0.7803 -0.8219 -0.8384
  219MPD1    C1 3324   0.229   3.708  11.990  0.0086  0.4839 -0.1368
  219MPD1    C2 3325   0.158   3.602  12.053  0.0430 -0.1591 -0.7763
  219MPD1    C3 3326   0.209   3.475  12.064  0.1928  0.0708 -0.4649
  219MPD1    C4 3327   0.340   3.457  12.022  0.7474 -0.1574 -0.0722
  219MPD1    C5 3328   0.401   3.554  11.951  0.8774  0.1839 -0.1668
  219MPD1     H 3329   0.051   3.608  12.073  0.1511 -1.4180  0.1746
  219MPD1    H1 3330   0.387   3.361  12.041 -1.5468 -0.8369  2.1015
  219MPD1    H2 3331   0.396   3.741  11.864 -0.8745  1.4797  1.1866
  219MPD1    H3 3332   0.501   3.536  11.914  0.8995 -3.2377  1.6250
  219MPD1     N 3333   0.139   3.366  12.127 -0.1394  0.4921  0.3093
  219MPD1    H5 3334   0.186   3.276  12.137 -0.0528  0.2070 -2.6774
  219MPD1    N1 3335   0.158   3.822  11.958  0.1107 -0.1130 -0.3051
  219MPD1    H6 3336   0.098   3.849  12.035  0.5073 -0.7070  0.2095
  219MPD1    H7 3337   0.219   3.901  11.935 -0.2726  0.4578  0.6503
  220MPD1     C 3338   3.850   4.063  10.068 -1.1539 -0.0137  0.0648
  220MPD1    C1 3339   3.985   4.079  10.064  0.3189 -0.0523  0.3857
  220MPD1    C2 3340   4.067   3.996  10.137 -0.3977  0.6502 -0.4539
  220MPD1    C3 3341   4.014   3.889  10.209  0.1287 -0.0319  0.3481
  220MPD1    C4 3342   3.877   3.880  10.216  0.2805  0.5891 -0.4743
  220MPD1    C5 3343   3.794   3.957  10.141  0.5218  0.2353  0.9887
  220MPD1     H 3344   4.175   4.005  10.133 -0.2120 -1.2143  0.3357
  220MPD1    H1 3345   3.837   3.800  10.277  0.3013  1.4896  0.7095
  220MPD1    H2 3346   3.782   4.126  10.012 -0.5829  0.3657 -0.2025
  220MPD1    H3 3347   3.686   3.951  10.151  0.2306  2.8850 -0.5044
  220MPD1     N 3348   4.099   3.797  10.272 -0.9948 -0.0567 -0.1342
  220MPD1    H5 3349   4.197   3.809  10.250 -1.3929 -1.7634 -2.8618
  220MPD1    N1 3350   4.043   4.176   9.981  0.0915  0.2011  0.9240
  220MPD1    H6 3351   3.998   4.266   9.992 -0.4537 -0.1041  1.1977
  220MPD1    H7 3352   4.140   4.199   9.998  0.3770 -1.4343  1.4829
  221MPD1     C 3353   1.990   2.975  17.378  0.7179  1.0836 -0.1357
  221MPD1    C1 3354   2.106   3.006  17.307 -0.0750 -0.9101  0.9916
  221MPD1    C2 3355   2.101   3.038  17.176 -0.5937 -0.1592 -0.0474
  221MPD1    C3 3356   1.981   3.018  17.101  0.6369  0.0854 -0.1027
  221MPD1    C4 3357   1.869   2.992  17.176  0.0846 -0.3394  0.1243
  221MPD1    C5 3358   1.875   2.964  17.312  0.6233 -0.1525 -0.5111
  221MPD1     H 3359   2.194   3.046  17.122  0.4733 -1.2662  1.6259
  221MPD1    H1 3360   1.773   2.985  17.126  1.4982 -1.1559 -2.5177
  221MPD1    H2 3361   1.989   2.956  17.485  1.2391 -1.3249 -0.5462
  221MPD1    H3 3362   1.794   2.921  17.369  2.1399 -2.2108  0.1213
  221MPD1     N 3363   1.969   3.030  16.962 -0.4656  0.1794 -0.6110
  221MPD1    H5 3364   1.879   3.019  16.917 -1.0841 -0.1229  0.7205
  221MPD1    N1 3365   2.232   2.999  17.363  0.4442 -0.8382 -0.0960
  221MPD1    H6 3366   2.297   3.062  17.317  0.4558  0.0246  1.1196
  221MPD1    H7 3367   2.219   3.002  17.464 -0.1682 -3.8058 -0.0710
  222MPD1     C 3368   2.292   0.911  17.605  0.3111 -0.7014 -0.5729
  222MPD1    C1 3369   2.232   0.874   0.032  0.4655 -0.3230 -0.2374
  222MPD1    C2 3370   2.099   0.874   0.032  0.3805  0.3672 -0.1709
  222MPD1    C3 3371   2.026   0.909  17.612 -0.0722 -0.2582  0.0586
  222MPD1    C4 3372   2.086   0.949  17.501  0.7104 -0.4290  0.2248
  222MPD1    C5 3373   2.222   0.953  17.500  0.8917  0.3970  0.2161
  222MPD1     H 3374   2.055   0.844   0.127  0.1862  2.9831  0.5670
  222MPD1    H1 3375   2.022   0.977  17.418  0.0693 -1.6772  0.2922
  222MPD1    H2 3376   2.400   0.922  17.605  0.3295 -0.9608 -2.0294
  222MPD1    H3 3377   2.277   0.976  17.410 -1.2853 -0.1715 -1.2714
  222MPD1     N 3378   1.891   0.930  17.619 -0.0640 -0.9806 -0.1936
  222MPD1    H5 3379   1.855   0.999  17.554 -0.3746 -1.0485 -0.0920
  222MPD1    N1 3380   2.310   0.831   0.135  0.4549 -0.1379  0.2338
  222MPD1    H6 3381   2.261   0.832   0.225 -0.5909  1.8700 -0.3518
  222MPD1    H7 3382   2.381   0.902   0.148  0.7802 -0.4586  0.1933
  223MPD1     C 3383   1.051   0.669   0.597  0.8420  0.4188  0.0722
  223MPD1    C1 3384   1.117   0.784   0.639 -0.5744  0.4531 -0.1629
  223MPD1    C2 3385   1.194   0.853   0.546  0.2121 -0.3352  0.0107
  223MPD1    C3 3386   1.233   0.784   0.428  0.6648  0.9789 -0.1114
  223MPD1    C4 3387   1.186   0.658   0.401 -0.2573  0.3779  0.5070
  223MPD1    C5 3388   1.083   0.612   0.479 -0.8571  0.3910  0.3371
  223MPD1     H 3389   1.237   0.949   0.570  2.7308 -1.6405  0.6917
  223MPD1    H1 3390   1.220   0.594   0.320 -1.2203  1.8107 -1.0330
  223MPD1    H2 3391   0.980   0.618   0.661  0.8873  1.3403  0.8526
  223MPD1    H3 3392   1.036   0.516   0.460  0.2489 -0.1481  0.3822
  223MPD1     N 3393   1.329   0.854   0.347 -0.4961 -0.2417  0.4494
  223MPD1    H5 3394   1.348   0.950   0.374 -1.9035  0.6426 -1.6957
  223MPD1    N1 3395   1.072   0.850   0.758  0.2760  0.7548  0.0857
  223MPD1    H6 3396   1.147   0.912   0.787 -0.0904  1.1571  0.1698
  223MPD1    H7 3397   1.052   0.782   0.832  0.3622  2.0599  1.3190
  224MPD1     C 3398   2.291   2.797   9.397 -0.0206 -0.7749  0.6125
  224MPD1    C1 3399   2.377   2.682   9.400  0.2292  0.4969  0.2193
  224MPD1    C2 3400   2.517   2.701   9.417 -0.5558 -0.4096  0.2413
  224MPD1    C3 3401   2.559   2.827   9.462 -0.0372  0.0947  0.0925
  224MPD1    C4 3402   2.476   2.936   9.463  0.6591 -0.1567  0.1312
  224MPD1    C5 3403   2.344   2.921   9.432  0.3420  0.4566 -0.1584
  224MPD1     H 3404   2.593   2.626   9.399  2.8594  2.8411  1.0570
  224MPD1    H1 3405   2.503   3.033   9.503 -2.4071  0.7200  0.1212
  224MPD1    H2 3406   2.191   2.788   9.358  1.7376  2.9363 -4.7916
  224MPD1    H3 3407   2.279   3.008   9.433 -1.0234 -0.5519 -1.3065
  224MPD1     N 3408   2.695   2.859   9.487 -0.4978  0.3400 -0.4130
  224MPD1    H5 3409   2.720   2.957   9.494 -0.7827  0.3842 -0.0346
  224MPD1    N1 3410   2.324   2.554   9.367 -0.3780 -0.1098  0.1206
  224MPD1    H6 3411   2.227   2.547   9.398 -0.9652  0.9543 -1.4682
  224MPD1    H7 3412   2.379   2.476   9.401 -1.3423 -0.0626  1.8064
  225MPD1     C 3413   3.821   4.483  13.361  0.6598 -0.0629  0.3147
  225MPD1    C1 3414   3.862   4.593  13.285  0.3062 -0.1157  0.2310
  225MPD1    C2 3415   3.866   4.589  13.144 -0.0604  0.0184 -0.0556
  225MPD1    C3 3416   3.843   4.463  13.079  0.4437 -0.4619 -0.2580
  225MPD1    C4 3417   3.800   4.361  13.157 -0.2270 -1.0571  0.0315
  225MPD1    C5 3418   3.794   4.366  13.296  0.4651 -0.6391 -0.0878
  225MPD1     H 3419   3.893   4.678  13.090 -2.3134  0.8271  0.1485
  225MPD1    H1 3420   3.774   4.262  13.121 -0.6139 -0.7195 -0.6249
  225MPD1    H2 3421   3.818   4.487  13.469  0.1544 -0.1219  0.3055
  225MPD1    H3 3422   3.752   4.278  13.343 -1.7460 -0.3458 -1.5018
  225MPD1     N 3423   3.847   4.441  12.940 -0.5780 -0.1859 -0.2517
  225MPD1    H5 3424   3.788   4.365  12.908  0.1094 -0.8367  0.0368
  225MPD1    N1 3425   3.891   4.720  13.346 -0.4832  0.0312  0.5286
  225MPD1    H6 3426   3.949   0.063  13.293  2.0539 -2.6434 -0.0153
  225MPD1    H7 3427   3.935   4.711  13.438  0.4242  0.2101  0.1151
  226MPD1     C 3428   2.183   3.608   9.290 -0.4306  0.0775 -0.4243
  226MPD1    C1 3429   2.318   3.602   9.257 -0.6597 -0.1431  0.2420
  226MPD1    C2 3430   2.392   3.721   9.261 -0.4131  0.0714  0.4452
  226MPD1    C3 3431   2.342   3.839   9.308  0.1860 -0.0461  0.0897
  226MPD1    C4 3432   2.208   3.838   9.348 -0.0927 -0.3595 -0.2593
  226MPD1    C5 3433   2.127   3.722   9.344 -0.0948 -0.0026  0.3633
  226MPD1     H 3434   2.491   3.723   9.217  0.1001 -0.2153  1.5961
  226MPD1    H1 3435   2.158   3.927   9.386  1.8149  0.3310  0.6524
  226MPD1    H2 3436   2.129   3.517   9.267 -0.4063 -0.3989  1.4195
  226MPD1    H3 3437   2.020   3.726   9.357  0.0382  3.2642  0.4396
  226MPD1     N 3438   2.419   3.958   9.310 -0.0349 -0.1443 -0.1742
  226MPD1    H5 3439   2.511   3.957   9.268 -0.0989  0.2947 -0.3287
  226MPD1    N1 3440   2.377   3.489   9.211  0.5608  0.2132  0.0038
  226MPD1    H6 3441   2.322   3.406   9.232  0.1900  0.3276 -0.5197
  226MPD1    H7 3442   2.465   3.466   9.258  1.2335  1.2523 -0.7494
  227MPD1     C 3443   2.551   0.185   8.823  0.0669 -0.4680  0.2743
  227MPD1    C1 3444   2.669   0.165   8.892 -0.1022  0.8808  0.1781
  227MPD1    C2 3445   2.659   0.060   8.978 -0.4681 -0.5073 -0.5497
  227MPD1    C3 3446   2.551   4.696   9.001 -0.5486 -0.1138  0.3375
  227MPD1    C4 3447   2.430   0.006   8.936 -0.3138 -0.0152  0.1580
  227MPD1    C5 3448   2.437   0.109   8.846 -0.2041 -0.1219  0.2575
  227MPD1     H 3449   2.749   0.040   9.036 -1.1578 -0.3559  0.5727
  227MPD1    H1 3450   2.341   4.667   8.946 -0.3143  0.0894  0.7919
  227MPD1    H2 3451   2.555   0.271   8.756 -1.0046 -2.0965 -1.8714
  227MPD1    H3 3452   2.354   0.128   8.779  0.4371 -2.2043 -1.1245
  227MPD1     N 3453   2.563   4.596   9.097 -0.2494  0.5479  1.1921
  227MPD1    H5 3454   2.660   4.578   9.123  0.5464  0.6028 -1.8152
  227MPD1    N1 3455   2.791   0.238   8.862 -0.5843  0.0070  0.3475
  227MPD1    H6 3456   2.856   0.254   8.938  2.3427 -0.7486 -2.0115
  227MPD1    H7 3457   2.773   0.326   8.815 -2.8427 -1.6500 -1.8840
  228MPD1     C 3458   2.009   1.316  12.755 -1.5365 -0.0152  0.2318
  228MPD1    C1 3459   1.917   1.298  12.858 -0.1245  0.1360  0.2258
  228MPD1    C2 3460   1.889   1.421  12.923 -0.1078 -0.5651  0.3927
  228MPD1    C3 3461   1.915   1.545  12.875 -0.2698  0.7864  0.6151
  228MPD1    C4 3462   1.992   1.555  12.765  0.4696  0.5626 -0.5945
  228MPD1    C5 3463   2.031   1.439  12.698 -0.7454 -0.0307  0.6572
  228MPD1     H 3464   1.835   1.417  13.017 -2.9352 -0.5630 -1.2412
  228MPD1    H1 3465   2.023   1.649  12.721  1.6151  0.0179 -0.9380
  228MPD1    H2 3466   2.040   1.226  12.704  1.7041  0.1874  1.8085
  228MPD1    H3 3467   2.104   1.451  12.618  1.4772 -2.5854  2.2882
  228MPD1     N 3468   1.871   1.656  12.952 -0.2255  0.0584 -0.0564
  228MPD1    H5 3469   1.844   1.637  13.048 -0.2629  1.4082  0.1995
  228MPD1    N1 3470   1.867   1.170  12.902  0.4286 -0.1798  0.4039
  228MPD1    H6 3471   1.770   1.174  12.933  0.7723  1.9677  1.2254
  228MPD1    H7 3472   1.875   1.106  12.823 -0.8554  0.0467  0.0929
  229MPD1     C 3473   1.098   1.108  14.564  0.3836 -0.4159  0.3828
  229MPD1    C1 3474   1.070   1.132  14.697  0.6918 -0.3102  0.2224
  229MPD1    C2 3475   1.095   1.028  14.785 -0.1389 -0.1001 -0.4794
  229MPD1    C3 3476   1.151   0.907  14.743  0.3287  0.6921 -0.5991
  229MPD1    C4 3477   1.182   0.891  14.611  0.5650  0.0429 -0.7548
  229MPD1    C5 3478   1.156   0.992  14.522 -0.8393  0.1888  0.6352
  229MPD1     H 3479   1.069   1.033  14.890  2.8212  0.3350  0.2491
  229MPD1    H1 3480   1.226   0.802  14.569  1.5067  1.4013 -2.6689
  229MPD1    H2 3481   1.075   1.183  14.489 -0.0607  0.0673  1.0030
  229MPD1    H3 3482   1.183   0.980  14.417  2.1699  0.8985  1.3222
  229MPD1     N 3483   1.177   0.796  14.822  0.1115 -0.0890 -0.6334
  229MPD1    H5 3484   1.203   0.708  14.781 -0.9618  0.0457 -1.6138
  229MPD1    N1 3485   0.992   1.243  14.744  0.3497  0.8345 -0.0851
  229MPD1    H6 3486   1.004   1.327  14.688  1.5254 -0.2184 -1.4303
  229MPD1    H7 3487   1.024   1.273  14.836  1.0891 -0.5662  0.1124
  230MPD1     C 3488   1.337   0.370  15.808  0.4578  0.1576 -0.1485
  230MPD1    C1 3489   1.298   0.268  15.722  0.4162  0.5163  0.0003
  230MPD1    C2 3490   1.258   0.311  15.598  0.3570  0.3499  0.4699
  230MPD1    C3 3491   1.238   0.441  15.562 -0.2810 -0.2227 -0.0596
  230MPD1    C4 3492   1.256   0.538  15.662 -0.6500  0.2071 -0.0897
  230MPD1    C5 3493   1.307   0.501  15.779  0.3779  0.2292  0.1457
  230MPD1     H 3494   1.241   0.227  15.531 -3.2886  0.7303  0.9381
  230MPD1    H1 3495   1.232   0.639  15.632  2.3746  1.3966  1.5122
  230MPD1    H2 3496   1.386   0.352  15.903  0.3003 -2.6142 -0.5918
  230MPD1    H3 3497   1.325   0.585  15.845 -0.1943 -0.9836  1.8367
  230MPD1     N 3498   1.196   0.470  15.433 -0.2120 -0.3619  0.1461
  230MPD1    H5 3499   1.173   0.389  15.376  0.4409  0.3557 -1.1565
  230MPD1    N1 3500   1.304   0.133  15.761  0.6238 -0.2151 -0.4525
  230MPD1    H6 3501   1.295   0.114  15.861  0.9819 -2.8589 -0.9358
  230MPD1    H7 3502   1.221   0.093  15.720 -0.3774  3.2826 -1.8252
  231MPD1     C 3503   4.208   2.822  15.825  0.0204 -0.2442 -0.5153
  231MPD1    C1 3504   4.188   2.726  15.725  0.6007  0.3180 -0.1340
  231MPD1    C2 3505   4.241   2.745  15.604 -0.3193 -0.2237  0.6116
  231MPD1    C3 3506   4.322   2.857  15.580 -0.5215  0.1102  0.0956
  231MPD1    C4 3507   4.355   2.945  15.682 -0.0023  0.2455 -0.3909
  231MPD1    C5 3508   4.299   2.923  15.802 -0.3306 -0.4518 -0.2986
  231MPD1     H 3509   4.221   2.678  15.522  0.4504 -0.9630  1.0283
  231MPD1    H1 3510   4.415   3.033  15.664 -0.6120  0.2502 -2.5041
  231MPD1    H2 3511   4.158   2.816  15.922 -0.6328  2.1357 -0.6894
  231MPD1    H3 3512   4.331   2.985  15.885  1.2026 -2.0739  0.3269
  231MPD1     N 3513   4.342   2.885  15.448 -0.3678 -0.0818  0.3380
  231MPD1    H5 3514   4.303   2.825  15.375  2.5214 -1.3866 -0.1565
  231MPD1    N1 3515   4.090   2.631  15.751  0.2771  0.5119  0.1427
  231MPD1    H6 3516   4.090   2.611  15.851 -0.0373  1.5151  0.3422
  231MPD1    H7 3517   4.096   2.542  15.703 -0.3921  0.3385  0.3910
  232MPD1     C 3518   1.938   4.584   0.259  0.1513 -0.7836 -0.3075
  232MPD1    C1 3519   1.825   4.660   0.209 -1.2608  0.8988 -0.2916
  232MPD1    C2 3520   1.722   4.690   0.294  0.5415  0.0476 -0.0453
  232MPD1    C3 3521   1.734   4.677   0.428 -0.3293 -0.2792 -0.4476
  232MPD1    C4 3522   1.851   4.623   0.480 -0.5174 -0.3791 -0.0458
  232MPD1    C5 3523   1.950   4.570   0.396  0.2117  0.1799  0.0551
  232MPD1     H 3524   1.644   0.034   0.260  1.4208 -0.5252 -3.2266
  232MPD1    H1 3525   1.875   4.609   0.585  0.2595 -0.2154 -0.2059
  232MPD1    H2 3526   2.029   4.565   0.203  1.8048  0.1567  2.0665
  232MPD1    H3 3527   2.048   4.542   0.432  1.0235  0.0899 -2.2620
  232MPD1     N 3528   1.617   0.003   0.500 -0.2957 -1.5134 -0.1479
  232MPD1    H5 3529   1.533   0.031   0.451 -0.0529 -1.6181 -0.6211
  232MPD1    N1 3530   1.802   4.678   0.068 -0.0885  0.0100  0.2859
  232MPD1    H6 3531   1.890   4.691   0.019 -0.1662 -0.2506  0.0762
  232MPD1    H7 3532   1.742   0.038   0.055 -0.0148  0.0664  0.3075
  233MPD1     C 3533   3.902   1.148   2.493 -0.9791 -0.3973 -0.3214
  233MPD1    C1 3534   3.827   1.140   2.384  0.5118 -0.7312  0.6679
  233MPD1    C2 3535   3.870   1.207   2.268  0.9317  0.2033  0.2886
  233MPD1    C3 3536   3.989   1.284   2.265  0.4196 -0.2308 -0.1246
  233MPD1    C4 3537   4.061   1.282   2.381 -0.4929  0.4433 -0.2545
  233MPD1    C5 3538   4.025   1.215   2.491 -0.0510  0.2243  0.3351
  233MPD1     H 3539   3.801   1.212   2.185 -0.0753 -1.7173  0.9994
  233MPD1    H1 3540   4.149   1.345   2.379  0.3313 -0.6652  0.8714
  233MPD1    H2 3541   3.867   1.102   2.584 -0.5555 -0.4718 -0.1982
  233MPD1    H3 3542   4.086   1.224   2.580  0.3548 -0.7068  0.1596
  233MPD1     N 3543   4.040   1.360   2.154  0.0543  0.1071 -0.2337
  233MPD1    H5 3544   4.133   1.402   2.154 -0.3783  1.1011 -5.0372
  233MPD1    N1 3545   3.697   1.088   2.391  0.2341 -0.2315  0.7013
  233MPD1    H6 3546   3.690   1.000   2.443  1.0546 -0.6284  0.1416
  233MPD1    H7 3547   3.673   1.060   2.296  0.5469  0.4233  0.4347
  234MPD1     C 3548   3.564   1.208  10.096 -0.4024  1.1894  0.3676
  234MPD1    C1 3549   3.430   1.237  10.090 -0.2301 -0.5373  0.2377
  234MPD1    C2 3550   3.403   1.363  10.042  0.0149 -0.5872 -0.6735
  234MPD1    C3 3551   3.499   1.460  10.032  0.6256  0.6787  0.2784
  234MPD1    C4 3552   3.634   1.427  10.056  0.0595  0.1385  0.0109
  234MPD1    C5 3553   3.665   1.298  10.087 -0.5826  0.5540  0.9691
  234MPD1     H 3554   3.306   1.398  10.009  0.2078  0.4870 -0.0995
  234MPD1    H1 3555   3.725   1.487  10.052  1.0017 -1.1652  2.0309
  234MPD1    H2 3556   3.597   1.105  10.108 -0.2666  1.1615 -0.2631
  234MPD1    H3 3557   3.766   1.264  10.108 -1.2755 -0.5551  2.5620
  234MPD1     N 3558   3.450   1.591  10.004  0.0493  0.3559 -0.7488
  234MPD1    H5 3559   3.354   1.591   9.970 -0.2816 -0.6590  0.1759
  234MPD1    N1 3560   3.331   1.137  10.088 -0.1253  0.1563  0.5163
  234MPD1    H6 3561   3.243   1.185  10.106  0.7461  0.9882  2.5686
  234MPD1    H7 3562   3.352   1.070  10.162  2.1386  0.2923 -0.0060
  235MPD1     C 3563   4.584   3.924   9.902  0.6429 -0.4275  0.1563
  235MPD1    C1 3564   4.707   3.967   9.955 -0.7307  0.0015  0.7963
  235MPD1    C2 3565   0.021   4.099   9.938 -0.3244  0.5436  0.0260
  235MPD1    C3 3566   4.672   4.180   9.848 -0.5171  0.5666 -0.2828
  235MPD1    C4 3567   4.557   4.135   9.793 -0.2516  0.9567  0.4286
  235MPD1    C5 3568   4.504   4.015   9.835 -0.0834  0.2227  0.3295
  235MPD1     H 3569   0.103   4.135   9.998 -0.5691 -0.7215  1.1124
  235MPD1    H1 3570   4.502   4.187   9.715  0.5155  1.6928  0.3832
  235MPD1    H2 3571   4.539   3.829   9.926 -0.3356 -0.1934 -0.7806
  235MPD1    H3 3572   4.418   3.986   9.777  0.7037  0.4704 -0.9556
  235MPD1     N 3573   0.003   4.311   9.816  0.1319 -0.4967  0.4688
  235MPD1    H5 3574   0.098   4.332   9.844 -1.0330  3.4336  1.5360
  235MPD1    N1 3575   0.046   3.880  10.048 -0.1327  0.2324  0.2067
  235MPD1    H6 3576   0.025   3.781  10.042 -1.0385  0.4565 -0.3061
  235MPD1    H7 3577   0.145   3.901  10.061  0.0758 -0.3569 -0.4458
  236MPD1     C 3578   4.017   1.076  10.076 -1.0635 -0.1254 -0.5054
  236MPD1    C1 3579   4.143   1.117  10.040 -0.1613 -0.0913  0.7893
  236MPD1    C2 3580   4.226   1.165  10.142 -0.1745 -0.3719  0.2934
  236MPD1    C3 3581   4.183   1.179  10.275 -0.0621 -0.2232 -0.1878
  236MPD1    C4 3582   4.050   1.147  10.302 -0.1668  0.3023 -0.1191
  236MPD1    C5 3583   3.974   1.093  10.201  0.2180 -0.0296 -0.3622
  236MPD1     H 3584   4.327   1.195  10.117 -0.2520  0.6612  1.1585
  236MPD1    H1 3585   4.003   1.154  10.399 -0.8042  1.3401 -0.5084
  236MPD1    H2 3586   3.951   1.028  10.005 -1.7255 -0.0400  0.0522
  236MPD1    H3 3587   3.880   1.047  10.229  0.4684  0.4464  1.2540
  236MPD1     N 3588   4.255   1.225  10.385 -0.1584  0.1703  0.3292
  236MPD1    H5 3589   4.207   1.224  10.474  0.4730  3.4503  0.7185
  236MPD1    N1 3590   4.187   1.096   9.907 -0.5445 -0.7160 -0.1219
  236MPD1    H6 3591   4.229   1.186   9.884 -1.5097 -1.0356 -3.1127
  236MPD1    H7 3592   4.097   1.100   9.859 -0.7743 -3.0543  0.1442
  237MPD1     C 3593   4.344   0.114  15.982  0.1273  0.0346  0.1422
  237MPD1    C1 3594   4.365   0.013  16.067 -0.0290 -0.0610  0.3547
  237MPD1    C2 3595   4.324   4.604  16.026  0.8350  0.0724 -0.0843
  237MPD1    C3 3596   4.279   4.580  15.895  0.5186 -0.1658 -0.3003
  237MPD1    C4 3597   4.256   4.689  15.817  0.0694 -0.1215  0.7664
  237MPD1    C5 3598   4.280   0.090  15.860  0.0384 -0.7527  0.3209
  237MPD1     H 3599   4.324   4.523  16.098  3.7587  0.3546  0.2214
  237MPD1    H1 3600   4.217   4.675  15.717  0.7169  1.2554  0.3175
  237MPD1    H2 3601   4.371   0.215  16.013  2.0248 -0.5352  0.3793
  237MPD1    H3 3602   4.277   0.167  15.784 -0.6973 -1.6552 -0.5658
  237MPD1     N 3603   4.240   4.461  15.830  0.7895  1.4007 -0.2222
  237MPD1    H5 3604   4.225   4.471  15.730  1.5993 -1.8075 -0.6748
  237MPD1    N1 3605   4.369   0.046  16.206 -0.0502 -0.0562  0.5022
  237MPD1    H6 3606   4.426   0.124  16.236  0.0907 -0.8143  2.1962
  237MPD1    H7 3607   4.394   4.689  16.265  1.5671 -0.1521 -0.3175
  238MPD1     C 3608   1.501   2.375  15.353  0.5825  0.5747  0.4883
  238MPD1    C1 3609   1.439   2.482  15.410  0.6628  0.2394 -0.1201
  238MPD1    C2 3610   1.358   2.562  15.326  0.1123 -0.1006 -0.3368
  238MPD1    C3 3611   1.314   2.509  15.202  0.3562 -0.4768  0.2284
  238MPD1    C4 3612   1.376   2.389  15.153 -0.1475  0.2305  0.1078
  238MPD1    C5 3613   1.472   2.330  15.233 -0.0754 -0.3456 -0.3383
  238MPD1     H 3614   1.321   2.658  15.359 -1.7432 -1.0107  0.2433
  238MPD1    H1 3615   1.351   2.354  15.054 -0.7622  0.0192  0.3399
  238MPD1    H2 3616   1.588   2.329  15.398  1.5171 -0.3992 -2.3052
  238MPD1    H3 3617   1.528   2.245  15.196  0.6022 -1.1606  2.6075
  238MPD1     N 3618   1.214   2.569  15.125  0.3038  0.4159 -0.7979
  238MPD1    H5 3619   1.203   2.529  15.033 -1.3809 -0.1042 -0.3643
  238MPD1    N1 3620   1.491   2.530  15.536  0.1647  0.3306 -1.1869
  238MPD1    H6 3621   1.424   2.592  15.580  0.1533  0.9711 -2.1150
  238MPD1    H7 3622   1.505   2.441  15.585  0.2667  2.0873  1.9359
  239MPD1     C 3623   1.301   3.507  14.989 -0.2929  0.0351 -0.0867
  239MPD1    C1 3624   1.181   3.463  14.940 -0.0826 -0.7889 -0.3324
  239MPD1    C2 3625   1.133   3.511  14.819 -0.0429  0.3710  0.4505
  239MPD1    C3 3626   1.209   3.603  14.744  0.5299  0.6591  0.1495
  239MPD1    C4 3627   1.326   3.635  14.794 -0.0949  0.3023 -0.9396
  239MPD1    C5 3628   1.376   3.594  14.914  0.2078 -0.4451  0.8348
  239MPD1     H 3629   1.033   3.481  14.790  0.5877 -2.4382  1.1781
  239MPD1    H1 3630   1.387   3.706  14.738  0.4433  0.8527  0.3502
  239MPD1    H2 3631   1.339   3.474  15.085 -2.3726  0.0120  0.7256
  239MPD1    H3 3632   1.475   3.629  14.943  0.0997  0.8651 -0.3902
  239MPD1     N 3633   1.162   3.686  14.639 -0.1517 -0.2532  0.1485
  239MPD1    H5 3634   1.229   3.749  14.596 -0.0499  0.0459  0.7502
  239MPD1    N1 3635   1.100   3.382  15.019 -0.8092 -0.8150  0.0695
  239MPD1    H6 3636   1.045   3.318  14.962 -0.5201 -0.8079 -0.2147
  239MPD1    H7 3637   1.156   3.332  15.088  0.0071 -0.2733 -0.1988
  240MPD1     C 3638   0.837   3.336  13.336 -0.1108 -0.6716  0.5245
  240MPD1    C1 3639   0.741   3.328  13.425 -0.3781  0.2043 -0.4811
  240MPD1    C2 3640   0.775   3.318  13.561  0.3107 -0.1706  0.0921
  240MPD1    C3 3641   0.900   3.339  13.604 -0.8925 -0.1153 -0.5395
  240MPD1    C4 3642   0.997   3.374  13.509 -0.0407 -0.2420  1.1228
  240MPD1    C5 3643   0.959   3.374  13.378  0.6613  0.4690  0.0811
  240MPD1     H 3644   0.708   3.307  13.646  0.8063 -1.5285  0.2991
  240MPD1    H1 3645   1.102   3.385  13.534  0.4029  0.2142 -0.9213
  240MPD1    H2 3646   0.827   3.327  13.228  0.9981 -1.5599  0.4914
  240MPD1    H3 3647   1.041   3.381  13.307  1.0000  2.1838  0.6418
  240MPD1     N 3648   0.925   3.310  13.738  0.0116 -0.5979 -0.1367
  240MPD1    H5 3649   0.842   3.292  13.793 -0.6784 -0.1510 -1.0201
  240MPD1    N1 3650   0.616   3.298  13.379 -0.2238  0.1312 -0.0012
  240MPD1    H6 3651   0.602   3.345  13.289 -1.8095 -0.2705  0.0470
  240MPD1    H7 3652   0.537   3.327  13.436 -0.0592  0.3691  0.1073
  241MPD1     C 3653   1.482   3.180  14.663 -0.1426  0.2322  0.2701
  241MPD1    C1 3654   1.524   3.136  14.541 -0.6792  0.1700  0.3203
  241MPD1    C2 3655   1.432   3.144  14.439 -0.0860  0.3801 -0.1087
  241MPD1    C3 3656   1.313   3.216  14.458 -0.0279 -0.1747 -0.2424
  241MPD1    C4 3657   1.267   3.252  14.586 -0.4365 -0.5925 -0.3116
  241MPD1    C5 3658   1.357   3.240  14.690 -0.9900 -0.0100 -0.7757
  241MPD1     H 3659   1.452   3.101  14.341  0.0041 -0.1381  0.1381
  241MPD1    H1 3660   1.174   3.305  14.598 -1.1403 -1.5164 -1.6773
  241MPD1    H2 3661   1.536   3.160  14.755 -0.1266 -0.1494  0.1774
  241MPD1    H3 3662   1.334   3.298  14.779 -1.1833  0.6153 -1.2332
  241MPD1     N 3663   1.215   3.225  14.355  0.2793  0.8402 -0.0823
  241MPD1    H5 3664   1.119   3.255  14.365  0.2582  1.3853 -1.9083
  241MPD1    N1 3665   1.644   3.065  14.523  0.5156  0.0400 -0.1791
  241MPD1    H6 3666   1.683   3.065  14.429  2.0955 -1.1579  0.4712
  241MPD1    H7 3667   1.716   3.088  14.591  0.1115  0.0213  0.2599
  242MPD1     C 3668   0.588   2.296  15.618 -0.4780 -0.0937 -0.4480
  242MPD1    C1 3669   0.666   2.197  15.676 -0.2078  1.0906  0.4038
  242MPD1    C2 3670   0.727   2.106  15.593 -0.6139  0.4467  0.4722
  242MPD1    C3 3671   0.700   2.101  15.459 -0.1757 -0.2656  0.4053
  242MPD1    C4 3672   0.613   2.192  15.406  0.1256  0.5907 -0.1609
  242MPD1    C5 3673   0.554   2.290  15.486 -0.4970 -0.2174 -0.0976
  242MPD1     H 3674   0.784   2.029  15.645 -1.8490  0.0433  1.2275
  242MPD1    H1 3675   0.605   2.208  15.299  1.8347 -2.5605 -0.7367
  242MPD1    H2 3676   0.556   2.382  15.675 -0.3842 -0.0549 -0.4540
  242MPD1    H3 3677   0.501   2.376  15.446  2.6693  1.6789 -0.2049
  242MPD1     N 3678   0.760   2.015  15.370  0.2666 -0.6487 -0.1485
  242MPD1    H5 3679   0.733   2.015  15.272  0.6383  0.3713 -0.2529
  242MPD1    N1 3680   0.706   2.201  15.811  0.2882 -0.5577  0.1940
  242MPD1    H6 3681   0.649   2.257  15.873  0.4854  0.6463 -0.7055
  242MPD1    H7 3682   0.717   2.107  15.849 -1.3753 -0.3173  1.2491
  243MPD1     C 3683   2.733   0.621  17.194 -0.0612 -0.5940  0.1542
  243MPD1    C1 3684   2.672   0.618  17.071  0.4887  0.7393  0.1370
  243MPD1    C2 3685   2.570   0.526  17.046  0.6374 -0.2416  0.2474
  243MPD1    C3 3686   2.537   0.429  17.139  0.9197  1.0415 -0.5629
  243MPD1    C4 3687   2.611   0.427  17.259  0.3369  0.1849  0.0934
  243MPD1    C5 3688   2.703   0.521  17.284 -0.0285 -0.9996 -1.0266
  243MPD1     H 3689   2.508   0.527  16.957 -0.2117  1.3781  0.8466
  243MPD1    H1 3690   2.595   0.356  17.340 -1.2398  0.6164  0.1645
  243MPD1    H2 3691   2.809   0.691  17.227  0.1636 -1.3518  1.2244
  243MPD1    H3 3692   2.762   0.498  17.371  2.0561  1.0036 -1.9078
  243MPD1     N 3693   2.435   0.343  17.111  0.2731 -0.1923 -0.2961
  243MPD1    H5 3694   2.400   0.358  17.017  0.4486  1.8324 -0.0391
  243MPD1    N1 3695   2.683   0.731  16.984  0.0058 -0.3234  0.5245
  243MPD1    H6 3696   2.770   0.782  16.992 -0.4194  0.3218  1.0276
  243MPD1    H7 3697   2.651   0.714  16.889 -0.1803 -0.3725  0.5955
  244MPD1     C 3698   1.511   0.237  17.522  0.2252 -0.4665  0.3861
  244MPD1    C1 3699   1.625   0.238  17.596  0.1238  0.1213  0.1662
  244MPD1    C2 3700   1.749   0.221  17.529  0.5982 -1.2343  0.0811
  244MPD1    C3 3701   1.748   0.206  17.388  0.5261 -0.0690  0.2716
  244MPD1    C4 3702   1.631   0.202  17.320 -0.0034 -0.4194  0.0575
  244MPD1    C5 3703   1.510   0.224  17.386  0.3959 -0.1400 -0.0622
  244MPD1     H 3704   1.841   0.220  17.586 -0.2482  0.7272  1.4993
  244MPD1    H1 3705   1.623   0.182  17.214  4.5956  0.3815 -0.4488
  244MPD1    H2 3706   1.413   0.231  17.569  0.0981 -0.3196  0.1412
  244MPD1    H3 3707   1.418   0.224  17.328 -0.9804  1.9862  2.0898
  244MPD1     N 3708   1.870   0.177  17.331 -0.2723 -0.4388  1.3190
  244MPD1    H5 3709   1.950   0.177  17.394 -0.0615  1.1902  1.0678
  244MPD1    N1 3710   1.616   0.228   0.045 -0.3593  0.3326 -0.1853
  244MPD1    H6 3711   1.701   0.262   0.089 -0.4324 -0.4384  0.5397
  244MPD1    H7 3712   1.538   0.280   0.084 -0.6712 -0.1356 -0.1914
  245MPD1     C 3713   3.898   0.438  14.161 -0.7345 -0.4923 -0.1617
  245MPD1    C1 3714   3.940   0.503  14.272  0.2620 -0.5081 -0.3699
  245MPD1    C2 3715   4.014   0.618  14.253  0.5256  0.2914 -0.1066
  245MPD1    C3 3716   4.023   0.672  14.132 -0.0973 -0.0521 -0.7325
  245MPD1    C4 3717   3.950   0.622  14.024  0.1709  0.8373  0.2055
  245MPD1    C5 3718   3.906   0.495  14.037 -0.5984 -0.1657  0.9639
  245MPD1     H 3719   4.055   0.672  14.338 -0.1174  1.5488 -0.6092
  245MPD1    H1 3720   3.942   0.674  13.929 -1.5225  0.4566  0.1484
  245MPD1    H2 3721   3.855   0.339  14.177 -1.5019 -0.0966  0.2014
  245MPD1    H3 3722   3.861   0.447  13.951 -0.4902  0.2215  0.6923
  245MPD1     N 3723   4.090   0.796  14.123 -0.4335 -0.1816 -0.3930
  245MPD1    H5 3724   4.147   0.830  14.199  0.8364  2.0008 -2.2946
  245MPD1    N1 3725   3.944   0.434  14.394 -0.4651  0.6542  0.2509
  245MPD1    H6 3726   3.849   0.403  14.410 -0.1761 -0.5812 -0.3971
  245MPD1    H7 3727   3.968   0.501  14.466 -0.5789 -1.5557  2.3521
  246MPD1     C 3728   1.420   1.886   9.216 -0.1699 -0.4770  0.7016
  246MPD1    C1 3729   1.405   1.953   9.336 -0.3029 -0.4045 -0.3860
  246MPD1    C2 3730   1.278   1.985   9.388 -0.5395  0.1818 -0.3329
  246MPD1    C3 3731   1.163   1.935   9.327 -0.0845 -0.2410  0.5154
  246MPD1    C4 3732   1.180   1.860   9.212  0.3110  0.0580  0.1517
  246MPD1    C5 3733   1.303   1.855   9.151  0.3754  0.6377 -0.2881
  246MPD1     H 3734   1.270   2.040   9.481 -1.1632 -0.2842 -0.1164
  246MPD1    H1 3735   1.104   1.821   9.145  0.5201 -0.5172  0.2546
  246MPD1    H2 3736   1.515   1.867   9.166 -2.0796  0.7290 -3.3710
  246MPD1    H3 3737   1.315   1.795   9.062 -2.3128  0.3488 -0.4700
  246MPD1     N 3738   1.038   1.957   9.392  0.2916 -0.3557  0.0843
  246MPD1    H5 3739   1.035   2.020   9.471  2.2553  1.5566 -1.3422
  246MPD1    N1 3740   1.521   2.007   9.392 -0.4387  0.5522 -0.5128
  246MPD1    H6 3741   1.507   2.019   9.492  0.6809  0.0500 -0.2993
  246MPD1    H7 3742   1.588   1.930   9.387  0.9059  1.7946 -1.5729
  247MPD1     C 3743   2.735   0.200  16.002 -0.7243 -0.7935 -0.5696
  247MPD1    C1 3744   2.735   0.198  16.137 -0.6066 -0.2374 -0.0271
  247MPD1    C2 3745   2.834   0.261  16.207  0.3477  0.2496 -0.7146
  247MPD1    C3 3746   2.940   0.323  16.139 -0.2023 -0.1425  0.1282
  247MPD1    C4 3747   2.940   0.324  15.998 -0.1751 -0.1699 -0.1838
  247MPD1    C5 3748   2.841   0.253  15.930  0.0923 -0.0861 -0.4598
  247MPD1     H 3749   2.837   0.264  16.315  1.3814 -1.0502 -0.6992
  247MPD1    H1 3750   3.016   0.365  15.932 -0.5852  1.6116  0.4435
  247MPD1    H2 3751   2.661   0.145  15.945 -1.7913  1.7005 -1.5601
  247MPD1    H3 3752   2.840   0.242  15.822 -0.1157 -1.5455 -0.3018
  247MPD1     N 3753   3.060   0.387  16.193  0.5518 -0.4964 -0.1426
  247MPD1    H5 3754   3.123   0.423  16.123  1.2278 -0.6769  0.3729
  247MPD1    N1 3755   2.622   0.160  16.207  0.3235 -0.5646  0.4300
  247MPD1    H6 3756   2.576   0.084  16.159  0.2098  0.0124 -0.3655
  247MPD1    H7 3757   2.642   0.131  16.303 -0.3665  2.8014  1.6183
  248MPD1     C 3758   4.543   4.602  17.283 -0.3528 -0.0922  0.3799
  248MPD1    C1 3759   4.655   4.680  17.293  0.3896 -0.1774  0.3014
  248MPD1    C2 3760   4.642   0.073  17.369  0.2830  0.0470 -0.2894
  248MPD1    C3 3761   4.526   0.100  17.447  0.7614 -0.4664  0.0757
  248MPD1    C4 3762   4.420   0.024  17.435 -0.4373  0.4563 -0.8994
  248MPD1    C5 3763   4.427   4.633  17.352 -0.0516 -0.0381  0.5315
  248MPD1     H 3764   0.005   0.139  17.381 -0.0272  0.3597  0.2121
  248MPD1    H1 3765   4.328   0.043  17.488  1.3784 -1.5520  2.9827
  248MPD1    H2 3766   4.537   4.512  17.224  1.3260 -0.3467  0.5974
  248MPD1    H3 3767   4.335   4.580  17.331 -0.2845  0.6610 -0.2169
  248MPD1     N 3768   4.526   0.219  17.526 -0.4568  0.4410 -0.4734
  248MPD1    H5 3769   4.595   0.294  17.522 -1.1648  1.0475 -1.3490
  248MPD1    N1 3770   0.053   4.650  17.224 -0.2572 -0.3579 -0.4078
  248MPD1    H6 3771   0.128   4.691  17.280  0.2013  0.9805 -1.9884
  248MPD1    H7 3772   0.070   4.550  17.227 -0.0506 -0.3514 -1.3459
  249MPD1     C 3773   0.019   4.611  10.122  0.1100  0.0785 -0.0811
  249MPD1    C1 3774   0.123   4.521  10.088 -0.4507 -0.6126 -0.2684
  249MPD1    C2 3775   0.230   4.573  10.013  0.3398  0.4126 -0.1933
  249MPD1    C3 3776   0.236   4.702   9.971  0.0338  0.3750  0.2855
  249MPD1    C4 3777   0.127   0.065  10.005 -0.5049  0.1267 -0.5822
  249MPD1    C5 3778   0.018   0.019  10.076  0.5966  0.3520 -0.9167
  249MPD1     H 3779   0.315   4.512   9.986 -1.9643 -1.2645 -3.6606
  249MPD1    H1 3780   0.132   0.171   9.984  1.3952  0.2383  0.3516
  249MPD1    H2 3781   4.653   4.584  10.180 -1.0705  0.7213 -1.5932
  249MPD1    H3 3782   4.660   0.090  10.095 -0.3990 -1.3876  1.3586
  249MPD1     N 3783   0.350   0.021   9.893 -0.0107  0.0480 -0.3298
  249MPD1    H5 3784   0.426   4.679   9.873  0.1404 -0.1190  0.8128
  249MPD1    N1 3785   0.117   4.384  10.105 -0.1438  0.7468 -0.1188
  249MPD1    H6 3786   0.091   4.367  10.202 -0.4518 -1.0039 -0.5011
  249MPD1    H7 3787   0.202   4.336  10.076 -1.0273 -0.1633 -1.2203
  250MPD2     C 3788   1.718   4.443  13.241 -0.5296  0.1381  0.4407
  250MPD2    C1 3789   1.712   4.422  13.107  0.6785  0.4719 -0.6687
  250MPD2    C2 3790   1.657   4.304  13.049 -0.3683 -0.1298  0.3761
  250MPD2    C3 3791   1.605   4.207  13.135 -0.1937 -0.0369 -0.1122
  250MPD2    C4 3792   1.616   4.227  13.274 -1.3575  0.1161  0.2720
  250MPD2    C5 3793   1.671   4.345  13.328 -0.2103  0.1933 -0.1862
  250MPD2     H 3794   1.638   4.295  12.943  2.4253  3.5762 -0.4419
  250MPD2    H1 3795   1.595   4.144  13.341  0.1481 -0.9986 -0.6360
  250MPD2    H2 3796   1.758   4.539  13.270  1.0993 -0.4668  0.1891
  250MPD2    H3 3797   1.666   4.351  13.436  0.3694 -1.4630 -0.0606
  250MPD2     N 3798   1.567   4.078  13.094 -0.1558 -0.0764  0.5413
  250MPD2    H5 3799   1.554   4.004  13.162  1.1645 -0.0261  0.8450
  250MPD2    N1 3800   1.760   4.528  13.028 -0.4494 -0.1764  0.4807
  250MPD2    H7 3801   1.819   4.595  13.077 -2.2690 -0.1081  2.6293
  251TMC3    C1 3802   1.767   4.692  12.861  0.2109  0.7026 -0.1031
  251TMC3    C2 3803   1.796   0.047  12.971  1.2964 -0.2157 -0.2143
  251TMC3    C3 3804   1.917   0.114  12.975  0.2859 -0.0799  0.0501
  251TMC3    C4 3805   1.856   4.683  12.758 -0.6428 -0.0065 -1.1872
  251TMC3    C5 3806   1.964   0.047  12.750  0.5074 -0.8293  0.2817
  251TMC3    C6 3807   1.992   0.118  12.867  0.6163  0.3287  0.8574
  251TMC3     C 3808   1.734   4.555  12.894  0.2867  0.1547  0.4723
  251TMC3     O 3809   1.668   4.490  12.811 -0.5183 -0.4593 -0.0635
  251TMC3     H 3810   1.728   0.060  13.054 -0.0417  2.9503 -1.8301
  251TMC3    H1 3811   1.839   4.618  12.673  3.3390 -0.8209 -1.3460
  251TMC3    H2 3812   2.090   0.165  12.865 -0.2717  2.2076  1.9431
  251TMC3    C7 3813   2.088   4.710  12.707 -1.0535 -0.2202  0.4002
  251TMC3    C8 3814   1.978   0.119  13.106 -0.2035  0.3011  0.8507
  251TMC3    O1 3815   2.098   4.589  12.728 -0.3353  0.0065 -0.1113
  251TMC3    O2 3816   1.900   0.096  13.197  0.6973  0.6843 -1.2890
  252TMC3    C1 3817   2.437   0.476   8.987 -0.4763 -0.0038 -0.1798
  252TMC3    C2 3818   2.562   0.526   9.012 -0.5877  0.0732 -0.8731
  252TMC3    C3 3819   2.626   0.485   9.125 -1.1104  0.4955  0.9849
  252TMC3    C4 3820   2.376   0.381   9.067 -0.4893 -0.0777 -0.3970
  252TMC3    C5 3821   2.445   0.344   9.178 -0.2153 -0.7174 -0.3451
  252TMC3    C6 3822   2.575   0.383   9.212  0.7532 -0.0994  0.3751
  252TMC3     C 3823   2.375   0.507   8.860 -0.5452  0.4488  1.0156
  252TMC3     O 3824   2.297   0.421   8.812  0.3491 -0.0032 -0.4140
  252TMC3     H 3825   2.616   0.589   8.942 -0.2737 -1.2072 -1.7918
  252TMC3    H1 3826   2.281   0.339   9.037 -0.9759  0.9929 -0.3509
  252TMC3    H2 3827   2.624   0.350   9.303 -0.5149 -1.4692  0.5541
  252TMC3    C7 3828   2.384   0.236   9.259  0.3721 -0.3805 -0.3304
  252TMC3    C8 3829   2.758   0.537   9.142 -0.6880 -0.3786 -0.7978
  252TMC3    O1 3830   2.261   0.224   9.248  0.0026  0.5326  0.3630
  252TMC3    O2 3831   2.796   0.621   9.059 -0.1162 -0.2388 -0.5706
  253MPD2     C 3832   3.865   4.417  15.897 -0.0960  0.6221  0.0550
  253MPD2    C1 3833   3.787   4.319  15.832  0.7698 -0.6594 -1.0053
  253MPD2    C2 3834   3.786   4.197  15.887  0.2477  0.0517 -0.1814
  253MPD2    C3 3835   3.861   4.164  15.996 -0.0506  0.1298 -0.7019
  253MPD2    C4 3836   3.940   4.264  16.056 -0.2859 -0.5930  0.3937
  253MPD2    C5 3837   3.938   4.388  16.009 -0.3262  0.1358 -0.0727
  253MPD2     H 3838   3.726   4.123  15.835  1.3532 -0.4043 -0.8121
  253MPD2    H1 3839   4.011   4.228  16.131 -0.8964  0.6290  1.5621
  253MPD2    H2 3840   3.869   4.513  15.848 -2.6397  1.2779  1.1280
  253MPD2    H3 3841   4.005   4.462  16.053  0.6438 -1.4081  1.0420
  253MPD2     N 3842   3.859   4.030  16.057  0.5082  0.0070  0.4372
  253MPD2    H5 3843   3.919   4.024  16.139 -0.6167 -2.1181  1.1150
  253MPD2    N1 3844   3.685   4.345  15.733  0.0907 -0.5208 -0.0989
  253MPD2    H7 3845   3.614   4.274  15.725  1.8154 -2.0718 -1.7680
  254TMC3    C1 3846   3.775   3.820  16.128  0.3422 -0.1892  0.3542
  254TMC3    C2 3847   3.650   3.796  16.174 -0.3682  0.4785 -0.5027
  254TMC3    C3 3848   3.630   3.755  16.307 -0.6505 -0.1087 -0.4137
  254TMC3    C4 3849   3.883   3.813  16.211  0.6360 -0.3316  0.6092
  254TMC3    C5 3850   3.859   3.776  16.341 -0.2092 -0.2698 -0.5620
  254TMC3    C6 3851   3.737   3.753  16.393 -0.5742  0.4231  0.5797
  254TMC3     C 3852   3.775   3.924  16.023  0.3103  0.2991  0.1246
  254TMC3     O 3853   3.673   3.921  15.957 -0.4190 -0.3433  0.0112
  254TMC3     H 3854   3.574   3.806  16.098 -1.4529  2.5145  0.8543
  254TMC3    H1 3855   3.985   3.830  16.179  0.0637 -0.1809 -1.1360
  254TMC3    H2 3856   3.719   3.731  16.498 -1.3464 -1.6886 -0.0096
  254TMC3    C7 3857   3.970   3.758  16.438 -0.6490 -0.9651  0.3723
  254TMC3    C8 3858   3.513   3.805  16.367 -0.1296  0.0059 -0.2815
  254TMC3    O1 3859   3.935   3.756  16.551  0.3137 -0.0016  0.5386
  254TMC3    O2 3860   3.531   3.843  16.481 -0.5888  0.5900  0.0889
  255MPD2     C 3861   1.536   1.787  10.907 -0.3216  0.7592 -0.6654
  255MPD2    C1 3862   1.548   1.923  10.931  0.9342  0.3065  0.1631
  255MPD2    C2 3863   1.668   1.976  10.969  0.0640 -0.3970  0.0722
  255MPD2    C3 3864   1.781   1.896  10.985 -0.2878  0.1092  0.4800
  255MPD2    C4 3865   1.765   1.759  10.968  0.4592  0.5527 -0.3667
  255MPD2    C5 3866   1.642   1.711  10.933  0.1698 -0.2890 -0.1196
  255MPD2     H 3867   1.681   2.083  10.986 -1.1936 -0.7520  3.3111
  255MPD2    H1 3868   1.848   1.689  10.960 -0.8636 -0.9241 -1.1428
  255MPD2    H2 3869   1.442   1.751  10.867 -1.4222  0.8941  1.7918
  255MPD2    H3 3870   1.630   1.605  10.916  0.0515 -0.4203  0.7868
  255MPD2     N 3871   1.908   1.955  11.002  0.2197  0.1520  0.4048
  255MPD2    H5 3872   1.905   2.056  11.009 -2.1296  0.2914 -2.5420
  255MPD2    N1 3873   1.439   2.005  10.895  0.2760 -0.1112 -0.7852
  255MPD2    H7 3874   1.350   1.961  10.873 -0.5696  1.0995  0.1952
  256TMC3    C1 3875   1.322   2.200  10.870  0.2480 -0.5212 -0.1930
  256TMC3    C2 3876   1.339   2.336  10.867 -0.0971  1.1000 -0.4318
  256TMC3    C3 3877   1.345   2.401  10.746  0.6012 -0.0157 -0.4539
  256TMC3    C4 3878   1.299   2.131  10.750 -0.5521  0.7527  0.7073
  256TMC3    C5 3879   1.321   2.201  10.634 -0.4248  0.0685  0.8118
  256TMC3    C6 3880   1.335   2.335  10.626 -0.4331 -0.2494 -0.5939
  256TMC3     C 3881   1.435   2.142  10.935 -0.2906  0.0859 -0.0692
  256TMC3     O 3882   1.515   2.228  10.970  0.7249 -0.2981 -0.0835
  256TMC3     H 3883   1.337   2.396  10.957  1.7429  0.3043  0.1371
  256TMC3    H1 3884   1.258   2.030  10.754 -0.0298  0.5560  1.3376
  256TMC3    H2 3885   1.350   2.390  10.534  0.1727  1.2817  0.4257
  256TMC3    C7 3886   1.319   2.120  10.511  0.6533  0.5108  0.5871
  256TMC3    C8 3887   1.415   2.536  10.747  0.2863 -0.0352  0.0946
  256TMC3    O1 3888   1.261   2.017  10.511  0.2949 -0.1708  0.0821
  256TMC3    O2 3889   1.390   2.601  10.851  0.1570  0.6974  0.1037
  257MPD2     C 3890   0.879   4.355  13.215 -0.1670 -0.3331 -0.2801
  257MPD2    C1 3891   0.912   4.247  13.131 -0.3866  0.6955  0.3841
  257MPD2    C2 3892   0.949   4.123  13.177 -0.6775  0.5248  0.5434
  257MPD2    C3 3893   0.940   4.107  13.313 -0.0348  0.0706 -0.1663
  257MPD2    C4 3894   0.889   4.206  13.401  0.1984 -0.9444  0.2540
  257MPD2    C5 3895   0.870   4.332  13.350 -0.3108 -0.5715  0.0850
  257MPD2     H 3896   0.976   4.041  13.112 -0.1486  1.4779 -0.4323
  257MPD2    H1 3897   0.903   4.200  13.508  1.8882  0.1749  0.0909
  257MPD2    H2 3898   0.858   4.450  13.166  2.3163  0.0227 -0.6403
  257MPD2    H3 3899   0.842   4.413  13.417 -0.0904 -0.0966 -0.3951
  257MPD2     N 3900   0.972   3.978  13.360  0.0346  0.4435  0.1580
  257MPD2    H5 3901   1.004   3.916  13.285 -2.1202  0.6206 -0.9095
  257MPD2    N1 3902   0.890   4.273  12.996  0.1383  0.1862  0.2327
  257MPD2    H7 3903   0.877   4.367  12.959  0.6689 -0.1335 -0.7639
  258TMC3    C1 3904   1.039   3.813  13.507 -0.9869 -0.7027  0.4326
  258TMC3    C2 3905   1.131   3.767  13.414  0.0093  0.8823 -0.1731
  258TMC3    C3 3906   1.224   3.676  13.449 -0.1228  0.2452 -0.1987
  258TMC3    C4 3907   1.052   3.773  13.634 -0.2001 -0.1219  0.1338
  258TMC3    C5 3908   1.156   3.691  13.666  0.2003  0.0277 -0.0695
  258TMC3    C6 3909   1.248   3.645  13.577 -0.0803 -0.3646 -0.3161
  258TMC3     C 3910   0.966   3.933  13.493  0.1180 -0.2416  0.4543
  258TMC3     O 3911   0.951   3.993  13.598  0.1958  0.9462  0.0055
  258TMC3     H 3912   1.115   3.775  13.307  0.0885  3.2689 -0.0021
  258TMC3    H1 3913   0.970   3.799  13.699 -0.7104  2.2755 -1.4836
  258TMC3    H2 3914   1.324   3.577  13.613 -0.4719 -0.2964  0.6116
  258TMC3    C7 3915   1.144   3.643  13.799 -0.4902 -0.7236 -0.7765
  258TMC3    C8 3916   1.311   3.623  13.345 -0.5318 -0.6591 -0.6014
  258TMC3    O1 3917   1.038   3.665  13.852 -0.0073  0.1963  0.1253
  258TMC3    O2 3918   1.292   3.683  13.238  0.3178 -0.4701 -0.0402
  259MPD2     C 3919   0.361   0.008   2.140 -0.3044  0.0158  0.6007
  259MPD2    C1 3920   0.292   0.088   2.047  0.0757 -0.7021 -0.5013
  259MPD2    C2 3921   0.309   0.052   1.915 -0.0946 -0.1959 -0.2981
  259MPD2    C3 3922   0.395   4.665   1.882  0.0810 -0.4275 -0.0065
  259MPD2    C4 3923   0.442   4.587   1.981 -0.3019 -0.7220 -0.0426
  259MPD2    C5 3924   0.424   4.619   2.115 -0.8031 -0.1048 -0.0254
  259MPD2     H 3925   0.278   0.117   1.834  0.8612  1.4587  0.6782
  259MPD2    H1 3926   0.508   4.502   1.963  2.2067  1.0289  0.9229
  259MPD2    H2 3927   0.362   0.036   2.245 -1.2203 -4.6854  1.8564
  259MPD2    H3 3928   0.470   4.554   2.188  0.1899 -1.0465 -1.4799
  259MPD2     N 3929   0.432   4.643   1.747  0.1691  0.1279  0.4965
  259MPD2    H5 3930   0.389   4.709   1.684 -0.1640 -0.6249 -0.0711
  259MPD2    N1 3931   0.231   0.209   2.099 -0.2754 -0.0219  0.0913
  259MPD2    H7 3932   0.251   0.230   2.196  0.3459  1.4930 -0.3785
  260TMC3    C1 3933   0.597   4.662   1.599  0.3147  0.1773 -0.1812
  260TMC3    C2 3934   0.725   4.712   1.623  0.6548 -0.5362  0.2003
  260TMC3    C3 3935   0.778   0.067   1.517  0.4983 -0.3631  0.2704
  260TMC3    C4 3936   0.518   4.697   1.495  0.2012 -0.0409 -0.7108
  260TMC3    C5 3937   0.573   0.059   1.401 -0.5225  0.8125  0.5739
  260TMC3    C6 3938   0.701   0.097   1.408 -0.0779 -0.1122  0.3574
  260TMC3     C 3939   0.546   4.589   1.708 -0.1221  0.2502 -0.2497
  260TMC3     O 3940   0.626   4.520   1.771 -0.1571 -0.3753 -0.6393
  260TMC3     H 3941   0.782   4.689   1.712 -0.8954 -2.0232  0.8264
  260TMC3    H1 3942   0.418   4.657   1.493  0.6397 -1.1454 -0.0321
  260TMC3    H2 3943   0.729   0.158   1.323  1.8894 -1.9038 -0.2890
  260TMC3    C7 3944   0.502   0.071   1.271  0.4571  0.2602 -0.2648
  260TMC3    C8 3945   0.921   0.078   1.516  0.0339 -0.1258  0.3536
  260TMC3    O1 3946   0.563   0.110   1.168  0.5356 -0.6626 -0.0254
  260TMC3    O2 3947   0.977   0.064   1.623  0.0139 -0.3474  0.5692
  261MPD2     C 3948   1.346   3.681  12.377 -0.5340 -0.7744 -0.0373
  261MPD2    C1 3949   1.409   3.788  12.438 -0.3050  0.2624 -0.5744
  261MPD2    C2 3950   1.405   3.912  12.366  0.1152  0.0613  0.0055
  261MPD2    C3 3951   1.353   3.917  12.235 -0.3345  0.5818  0.0893
  261MPD2    C4 3952   1.295   3.804  12.178 -0.1343  0.6359  0.1000
  261MPD2    C5 3953   1.294   3.690  12.249  0.3879 -0.1645 -0.4262
  261MPD2     H 3954   1.429   4.009  12.408 -0.9334  0.8656 -1.2549
  261MPD2    H1 3955   1.248   3.806  12.081 -0.4916  1.3797  0.2813
  261MPD2    H2 3956   1.332   3.585  12.427 -0.9483  0.0036  1.3409
  261MPD2    H3 3957   1.254   3.595  12.215 -2.0766  1.0442 -0.9565
  261MPD2     N 3958   1.362   4.045  12.180  0.7840  0.8309 -0.2046
  261MPD2    H5 3959   1.414   4.121  12.223 -1.5380  2.0519  0.4708
  261MPD2    N1 3960   1.437   3.788  12.577  0.1988  0.0557  0.1908
  261MPD2    H7 3961   1.473   3.877  12.609 -0.0692  0.7559 -1.4570
  262TMC3    C1 3962   1.352   4.191  12.000 -0.1628 -0.3996  0.4148
  262TMC3    C2 3963   1.273   4.275  11.928  0.2714  0.0084 -0.4007
  262TMC3    C3 3964   1.339   4.380  11.859  0.6753  0.1544 -0.2676
  262TMC3    C4 3965   1.496   4.197  12.001  0.2453  0.1867 -0.2812
  262TMC3    C5 3966   1.553   4.292  11.925  0.5770 -0.3286  0.2317
  262TMC3    C6 3967   1.476   4.386  11.858 -0.2304 -1.3007  0.2441
  262TMC3     C 3968   1.285   4.080  12.071 -0.3862 -1.0714 -0.4113
  262TMC3     O 3969   1.177   4.036  12.039 -0.0785  0.3710  0.3100
  262TMC3     H 3970   1.165   4.265  11.926  0.2005  0.4713  1.3776
  262TMC3    H1 3971   1.562   4.126  12.049 -0.7486 -0.4644  0.1348
  262TMC3    H2 3972   1.525   4.449  11.785  0.4745 -1.0277  0.9550
  262TMC3    C7 3973   1.679   4.344  11.976  0.2000  0.2914  0.3699
  262TMC3    C8 3974   1.278   4.503  11.814  0.2392  0.6515  0.6224
  262TMC3    O1 3975   1.712   4.308  12.085  0.3076  0.0931  0.6521
  262TMC3    O2 3976   1.339   4.570  11.728  0.1975 -0.0402  0.0568
  263MPD2     C 3977   2.845   3.277  11.726 -0.0080  0.1033  0.4307
  263MPD2    C1 3978   2.922   3.193  11.651 -0.4586 -0.2528 -0.2014
  263MPD2    C2 3979   2.925   3.202  11.510  0.5560  0.6052 -0.1038
  263MPD2    C3 3980   2.846   3.297  11.442 -0.1848 -0.7275 -0.0315
  263MPD2    C4 3981   2.761   3.372  11.520 -0.5920  0.2159  0.1397
  263MPD2    C5 3982   2.759   3.361  11.657 -0.1925  1.0274 -0.0867
  263MPD2     H 3983   2.984   3.141  11.442  0.5937 -1.3863  1.7480
  263MPD2    H1 3984   2.690   3.441  11.476 -0.1309  1.2882  1.0823
  263MPD2    H2 3985   2.828   3.263  11.832 -0.3502  0.8103  0.4735
  263MPD2    H3 3986   2.693   3.422  11.716 -0.1413  1.3464 -0.3587
  263MPD2     N 3987   2.842   3.320  11.306  0.2394 -0.2212  0.7682
  263MPD2    H5 3988   2.781   3.395  11.276  0.8323  0.2063  0.6474
  263MPD2    N1 3989   3.003   3.108  11.726 -0.4501  0.2602 -0.4294
  263MPD2    H7 3990   2.964   3.089  11.818  0.0956 -1.3887 -0.5378
  264TMC3    C1 3991   2.923   3.335  11.099  0.1014  0.6959 -0.0879
  264TMC3    C2 3992   2.932   3.464  11.117 -0.5460 -0.2677  0.5370
  264TMC3    C3 3993   2.931   3.541  11.003  0.9785 -0.0823  0.6362
  264TMC3    C4 3994   2.921   3.271  10.976  0.6055  0.5422  0.1744
  264TMC3    C5 3995   2.914   3.352  10.860  0.1991 -0.5817  0.3119
  264TMC3    C6 3996   2.931   3.483  10.877 -0.0780  0.6519 -0.2886
  264TMC3     C 3997   2.915   3.246  11.215  0.1288 -0.5490  0.1727
  264TMC3     O 3998   2.992   3.153  11.220 -0.1120  0.7165  0.1839
  264TMC3     H 3999   2.941   3.512  11.213 -0.2548 -2.7792  1.7525
  264TMC3    H1 4000   2.911   3.164  10.970 -0.3390  0.6152  0.6376
  264TMC3    H2 4001   2.937   3.546  10.789  1.6473 -1.9104 -2.0145
  264TMC3    C7 4002   2.969   3.285  10.743  0.2630  0.3823 -0.1391
  264TMC3    C8 4003   2.948   3.686  11.021 -0.3523  0.1938  0.4817
  264TMC3    O1 4004   3.011   3.174  10.767  0.1509 -0.4617  0.4071
  264TMC3    O2 4005   3.010   3.744  10.934 -0.0789  0.0956  0.0383
  265MPD2     C 4006   4.641   3.926  15.801 -0.3989  0.3173 -1.1258
  265MPD2    C1 4007   4.679   4.031  15.720 -0.3155 -0.4430  0.2076
  265MPD2    C2 4008   4.714   4.004  15.588  0.2326  0.4439 -0.0647
  265MPD2    C3 4009   0.007   3.876  15.544 -0.4268 -0.0087  0.1608
  265MPD2    C4 4010   4.685   3.776  15.626  0.1418  1.0307 -0.0491
  265MPD2    C5 4011   4.639   3.802  15.749 -0.9255  0.2381 -0.3405
  265MPD2     H 4012   0.021   4.081  15.518  1.3330 -0.3767 -0.4903
  265MPD2    H1 4013   4.681   3.673  15.592  3.6822  1.6650 -2.3775
  265MPD2    H2 4014   4.611   3.938  15.905 -0.2028  0.3332 -1.0717
  265MPD2    H3 4015   4.608   3.721  15.814  1.4172 -1.6273 -1.5483
  265MPD2     N 4016   0.065   3.837  15.420  0.7016  0.0387 -0.2750
  265MPD2    H5 4017   0.099   3.741  15.421 -0.4111 -0.3539  0.2056
  265MPD2    N1 4018   4.681   4.166  15.766 -0.5133 -0.3823 -0.6049
  265MPD2    H7 4019   4.710   4.235  15.698 -0.6669  0.9493  0.6771
  266TMC3    C1 4020   4.678   4.348  15.920  0.2423  0.0503 -0.9292
  266TMC3    C2 4021   4.678   4.389  16.053  0.1314 -0.7573  0.1912
  266TMC3    C3 4022   4.647   4.520  16.086  0.0189 -0.4302 -0.1308
  266TMC3    C4 4023   4.655   4.434  15.820 -0.3666  0.0142 -0.2872
  266TMC3    C5 4024   4.652   4.572  15.856  0.3166 -0.3437  0.0102
  266TMC3    C6 4025   4.646   4.616  15.989 -1.4630  0.0937 -0.0188
  266TMC3     C 4026   4.664   4.205  15.896  0.6613  0.0968  0.7514
  266TMC3     O 4027   4.649   4.132  15.992 -0.3221 -0.1801 -0.1691
  266TMC3     H 4028   4.679   4.313  16.131 -1.3057 -0.6050  0.3495
  266TMC3    H1 4029   4.661   4.416  15.713 -0.1193  3.0717 -0.7821
  266TMC3    H2 4030   4.615   4.717  16.016  0.9467  0.1634  2.3370
  266TMC3    C7 4031   4.619   4.661  15.746 -0.0399  0.5209  0.0915
  266TMC3    C8 4032   4.634   4.549  16.228  1.3570 -0.2723 -0.5376
  266TMC3    O1 4033   4.603   4.612  15.634 -0.3049  0.0125 -0.3523
  266TMC3    O2 4034   4.599   4.453  16.298  0.5901  0.0915 -0.6414
  267MPD2     C 4035   1.769   0.570  17.481 -0.6437 -0.8770 -0.3156
  267MPD2    C1 4036   1.878   0.566  17.399  0.2134 -0.9590 -0.0216
  267MPD2    C2 4037   1.851   0.547  17.260 -0.2493 -1.1278 -0.2984
  267MPD2    C3 4038   1.720   0.541  17.219 -0.4697 -1.1650 -0.0594
  267MPD2    C4 4039   1.613   0.540  17.311 -0.1465 -0.2689 -0.3112
  267MPD2    C5 4040   1.641   0.556  17.443 -0.3260  0.5713 -0.1392
  267MPD2     H 4041   1.939   0.540  17.197 -1.7254  1.0662 -2.5908
  267MPD2    H1 4042   1.510   0.530  17.280  0.0654 -1.5304 -0.6254
  267MPD2    H2 4043   1.788   0.570  17.588 -0.7767  0.6498 -0.2930
  267MPD2    H3 4044   1.566   0.554  17.521 -0.0421  0.4442  0.1282
  267MPD2     N 4045   1.679   0.516  17.083  0.5592 -0.5567 -0.2514
  267MPD2    H5 4046   1.582   0.488  17.071  1.0417 -3.0183  1.5394
  267MPD2    N1 4047   2.002   0.559  17.459  0.4102 -0.2573  0.4196
  267MPD2    H7 4048   1.999   0.563  17.561 -0.0051  1.2567  0.3519
  268TMC3    C1 4049   2.237   0.560  17.489  0.0364  0.5595 -0.0704
  268TMC3    C2 4050   2.360   0.602  17.433 -0.8169 -0.0953 -0.2272
  268TMC3    C3 4051   2.474   0.593  17.512  0.2366 -0.0988 -0.3310
  268TMC3    C4 4052   2.221   0.522  17.621 -0.5272 -0.6096  0.3458
  268TMC3    C5 4053   2.340   0.508  17.688  0.2601  0.2598  0.3236
  268TMC3    C6 4054   2.467   0.551  17.640 -0.1351  0.1408  0.6052
  268TMC3     C 4055   2.123   0.575  17.398  0.2687 -0.1355  0.7690
  268TMC3     O 4056   2.141   0.600  17.281  0.0553  0.7588  0.1213
  268TMC3     H 4057   2.374   0.610  17.326 -1.4725  1.8485 -0.1535
  268TMC3    H1 4058   2.129   0.478  17.660  0.7533 -3.0671  0.5440
  268TMC3    H2 4059   2.551   0.566   0.015 -0.6028 -2.5836  1.8260
  268TMC3    C7 4060   2.334   0.471   0.135  0.1830  0.5142 -0.0537
  268TMC3    C8 4061   2.556   0.716  17.505 -0.8167  0.4154  0.1087
  268TMC3    O1 4062   2.427   0.415   0.186 -0.3087 -0.4470 -0.4025
  268TMC3    O2 4063   2.625   0.747  17.603  0.1526 -0.0728 -0.1580
  269MPD2     C 4064   2.757   4.370  15.940  0.5421 -0.2410  0.1495
  269MPD2    C1 4065   2.626   4.352  15.911  0.1506  0.5993  0.1390
  269MPD2    C2 4066   2.557   4.460  15.850  0.5733 -0.0156 -0.0732
  269MPD2    C3 4067   2.621   4.581  15.822 -0.4698 -0.3992 -0.4967
  269MPD2    C4 4068   2.761   4.591  15.843  0.0770  0.6451 -0.8703
  269MPD2    C5 4069   2.817   4.489  15.913 -0.0808 -0.3909  0.8324
  269MPD2     H 4070   2.455   4.456  15.813  0.4165 -0.6764  0.4210
  269MPD2    H1 4071   2.807   4.688  15.829  1.3857  0.2103  0.4726
  269MPD2    H2 4072   2.812   4.293  15.991 -1.3131 -2.6933 -1.5705
  269MPD2    H3 4073   2.922   4.486  15.937  0.5170  0.3741 -1.6974
  269MPD2     N 4074   2.548   4.687  15.765  0.1025  0.1155  1.0738
  269MPD2    H5 4075   2.448   4.672  15.768  0.1770 -0.3680  1.2647
  269MPD2    N1 4076   2.564   4.232  15.945  0.0501  0.3103  1.3363
  269MPD2    H7 4077   2.627   4.161  15.982 -0.6873 -0.2176  1.5957
  270TMC3    C1 4078   2.393   4.077  15.979  0.4736 -0.2357  0.0417
  270TMC3    C2 4079   2.306   4.006  15.900  0.0831 -0.8152  0.2967
  270TMC3    C3 4080   2.337   3.873  15.880  0.2949 -0.2376  0.3909
  270TMC3    C4 4081   2.473   4.015  16.064 -0.4458  0.4002 -0.2947
  270TMC3    C5 4082   2.488   3.880  16.058  1.1082  1.2637  0.1689
  270TMC3    C6 4083   2.429   3.811  15.957 -0.3682  0.5616  0.4788
  270TMC3     C 4084   2.435   4.201  15.918  0.5633  0.5599  0.4101
  270TMC3     O 4085   2.350   4.265  15.851  0.3680 -0.0489 -0.2987
  270TMC3     H 4086   2.261   4.060  15.817  1.1465 -0.4650 -0.0544
  270TMC3    H1 4087   2.544   4.061  16.132 -0.4531  1.2185 -0.8459
  270TMC3    H2 4088   2.421   3.703  15.969 -1.2149  0.4531 -1.0734
  270TMC3    C7 4089   2.572   3.812  16.153  0.4888 -0.0819 -0.0773
  270TMC3    C8 4090   2.316   3.823  15.749  1.0499  0.6291  0.5098
  270TMC3    O1 4091   2.591   3.850  16.267 -0.2682 -0.6230  0.1764
  270TMC3    O2 4092   2.407   3.761  15.698  0.2830 -0.0960  0.0008
  271MPD2     C 4093   1.797   4.173  13.915  0.5078  0.6931 -0.0537
  271MPD2    C1 4094   1.731   4.150  14.038  0.0597  0.6950  0.5257
  271MPD2    C2 4095   1.609   4.205  14.065  0.2957 -0.9913  0.4635
  271MPD2    C3 4096   1.541   4.276  13.971  0.4348 -0.3087  0.0894
  271MPD2    C4 4097   1.603   4.287  13.850 -0.6271  0.5268  0.2337
  271MPD2    C5 4098   1.725   4.240  13.820  0.8563  0.5978 -0.3654
  271MPD2     H 4099   1.568   4.195  14.164  1.7001  0.9904  1.2444
  271MPD2    H1 4100   1.555   4.330  13.762  0.7364 -0.6892 -1.1050
  271MPD2    H2 4101   1.891   4.127  13.887  0.2179  1.4016 -2.1227
  271MPD2    H3 4102   1.756   4.234  13.716  0.4687  1.9092 -0.5584
  271MPD2     N 4103   1.410   4.334  13.995 -0.2090 -0.0567  0.4234
  271MPD2    H5 4104   1.349   4.357  13.917  0.1105  0.9482  0.4697
  271MPD2    N1 4105   1.786   4.080  14.143 -0.2663  0.1618  0.0143
  271MPD2    H7 4106   1.738   4.081  14.232  0.5756 -0.6717  0.4899
  272TMC3    C1 4107   1.968   3.991  14.274  0.0912  0.1000  0.2532
  272TMC3    C2 4108   2.098   3.937  14.272 -0.3368  0.6287  0.5095
  272TMC3    C3 4109   2.149   3.895  14.391 -0.0740 -0.3206 -0.0489
  272TMC3    C4 4110   1.893   4.010  14.390 -0.9807 -0.2764 -0.7366
  272TMC3    C5 4111   1.957   3.965  14.503 -0.5217 -0.2543  0.5297
  272TMC3    C6 4112   2.078   3.901  14.507 -0.3028  0.8981  0.3846
  272TMC3     C 4113   1.910   4.016  14.139  0.1617 -0.3330 -0.0503
  272TMC3     O 4114   1.983   3.995  14.042 -0.4553  0.7191 -0.3401
  272TMC3     H 4115   2.150   3.920  14.178 -0.6179 -0.5510  0.5730
  272TMC3    H1 4116   1.806   4.072  14.399 -1.4316 -1.2432  1.5483
  272TMC3    H2 4117   2.124   3.873  14.602  1.4147  1.5946 -0.2376
  272TMC3    C7 4118   1.877   3.958  14.626 -0.8546 -0.1209  0.4639
  272TMC3    C8 4119   2.279   3.839  14.386 -0.2142  0.3493  0.1583
  272TMC3    O1 4120   1.755   3.944  14.604  0.2916  0.4648 -0.1427
  272TMC3    O2 4121   2.353   3.863  14.292  0.2458  0.1689 -0.3213
  273MPD2     C 4122   2.721   2.546  11.997 -0.2345  0.6541 -0.0113
  273MPD2    C1 4123   2.775   2.423  11.970 -0.1667 -0.2086  0.8803
  273MPD2    C2 4124   2.723   2.360  11.861  0.6869  0.5181  0.1571
  273MPD2    C3 4125   2.614   2.404  11.787  0.0395 -0.0013  0.1633
  273MPD2    C4 4126   2.560   2.523  11.821  0.4282 -0.2415  0.8652
  273MPD2    C5 4127   2.613   2.598  11.931 -0.3577 -0.1598  0.1026
  273MPD2     H 4128   2.766   2.265  11.832  0.2286  1.4577 -3.5045
  273MPD2    H1 4129   2.493   2.573  11.752 -0.5481 -2.2776  0.3440
  273MPD2    H2 4130   2.758   2.597  12.086  1.6861  1.0768 -1.0494
  273MPD2    H3 4131   2.575   2.697  11.957  0.5401  0.2013  0.0223
  273MPD2     N 4132   2.562   2.341  11.671 -0.1497 -0.2740 -0.0712
  273MPD2    H5 4133   2.493   2.394  11.618 -0.9580  0.1709  1.4294
  273MPD2    N1 4134   2.883   2.379  12.054  0.2916 -0.2856 -0.3483
  273MPD2    H7 4135   2.915   2.443  12.126  1.1219 -1.3946  0.2609
  274TMC3    C1 4136   2.575   2.175  11.502 -0.4247  0.3114 -0.7616
  274TMC3    C2 4137   2.507   2.266  11.424  0.3062  0.4017  0.6116
  274TMC3    C3 4138   2.559   2.277  11.299  0.1311  0.2880  0.1751
  274TMC3    C4 4139   2.696   2.123  11.470  0.5682  0.1218 -0.4071
  274TMC3    C5 4140   2.748   2.161  11.352 -1.0068 -0.4582  0.2413
  274TMC3    C6 4141   2.677   2.228  11.259  0.2032 -0.5735 -0.4397
  274TMC3     C 4142   2.581   2.212  11.644  0.0291 -0.2535  0.4527
  274TMC3     O 4143   2.633   2.125  11.716 -0.3550 -0.3065  0.5757
  274TMC3     H 4144   2.408   2.306  11.446  0.2241 -0.2696  1.5027
  274TMC3    H1 4145   2.764   2.075  11.540 -0.2789  1.5461  1.3789
  274TMC3    H2 4146   2.736   2.276  11.181  0.2794  1.3904  0.8434
  274TMC3    C7 4147   2.893   2.184  11.341 -0.0903  0.2461  0.6866
  274TMC3    C8 4148   2.483   2.376  11.217 -0.1493  0.0123 -0.5912
  274TMC3    O1 4149   2.954   2.137  11.244 -0.5894 -0.1428 -0.0012
  274TMC3    O2 4150   2.394   2.441  11.274 -0.1062  0.1681 -0.2416
  275MPD2     C 4151   3.325   0.453  14.626  0.2685  0.0210  0.2929
  275MPD2    C1 4152   3.276   0.418  14.752 -0.3707  0.2881 -0.0432
  275MPD2    C2 4153   3.170   0.326  14.766  0.6113  0.3653 -0.1957
  275MPD2    C3 4154   3.120   0.266  14.656  0.0189 -0.0172  0.4751
  275MPD2    C4 4155   3.176   0.289  14.534 -0.2082 -0.1588 -0.5418
  275MPD2    C5 4156   3.273   0.388  14.516  0.0042  0.2228 -0.3763
  275MPD2     H 4157   3.140   0.303  14.868 -0.1022 -2.2514 -0.9921
  275MPD2    H1 4158   3.136   0.233  14.450 -0.1232 -0.8144 -0.1492
  275MPD2    H2 4159   3.400   0.530  14.613 -0.1407  0.5492  1.0695
  275MPD2    H3 4160   3.308   0.413  14.416 -0.6840 -1.3883 -1.0140
  275MPD2     N 4161   3.000   0.183  14.656  0.3864  0.0286 -0.2204
  275MPD2    H5 4162   3.001   0.121  14.576  1.1633  0.6868 -0.7209
  275MPD2    N1 4163   3.312   0.488  14.869 -0.2739 -0.0730  0.5317
  275MPD2    H7 4164   3.256   0.476  14.953  0.9793 -0.7319  1.2668
  276TMC3    C1 4165   3.397   0.658  15.012 -0.2375  1.0160  0.1254
  276TMC3    C2 4166   3.317   0.614  15.109 -0.1571  0.1339  0.4692
  276TMC3    C3 4167   3.306   0.695  15.221 -0.3364  0.0122  0.6733
  276TMC3    C4 4168   3.487   0.765  15.030 -0.1917 -0.9808 -0.6148
  276TMC3    C5 4169   3.470   0.844  15.132 -0.0316 -0.0795 -0.7275
  276TMC3    C6 4170   3.376   0.815  15.233 -0.2148  0.1811 -0.6717
  276TMC3     C 4171   3.407   0.586  14.884  0.1533 -0.6999  0.2275
  276TMC3     O 4172   3.500   0.615  14.812  0.1034 -0.5986 -0.1966
  276TMC3     H 4173   3.234   0.547  15.089 -0.3108 -0.3100  2.5898
  276TMC3    H1 4174   3.562   0.784  14.954  0.0662 -0.5991 -0.2651
  276TMC3    H2 4175   3.371   0.870  15.326  0.5840 -0.7035 -0.1031
  276TMC3    C7 4176   3.599   0.901  15.186 -0.7144 -0.2114  0.2536
  276TMC3    C8 4177   3.239   0.650  15.339  0.1846 -0.1530  0.2094
  276TMC3    O1 4178   3.578   0.959  15.289 -0.0286  0.2707 -0.1290
  276TMC3    O2 4179   3.207   0.734  15.422  0.3912  0.3230 -0.7550
  277MPD2     C 4180   0.735   3.780  13.262  0.4860  0.0282 -0.0848
  277MPD2    C1 4181   0.643   3.886  13.278 -0.0698  0.1717 -0.1441
  277MPD2    C2 4182   0.562   3.876  13.389  0.0483  0.4964 -0.2040
  277MPD2    C3 4183   0.567   3.773  13.476  0.1774 -0.4249  0.1845
  277MPD2    C4 4184   0.660   3.665  13.452  0.1764 -0.1889  0.3300
  277MPD2    C5 4185   0.743   3.674  13.343  0.3240  0.6407  0.0572
  277MPD2     H 4186   0.472   3.932  13.408 -0.3197 -0.9197  2.1613
  277MPD2    H1 4187   0.674   3.594  13.533  0.9395  1.4370  1.6438
  277MPD2    H2 4188   0.817   3.791  13.192 -2.0600 -0.1459 -3.0785
  277MPD2    H3 4189   0.820   3.599  13.329  2.3746  3.3353 -3.0550
  277MPD2     N 4190   0.474   3.772  13.582  0.2626  0.6565  0.3120
  277MPD2    H5 4191   0.405   3.846  13.582  1.3234  1.6426 -0.0435
  277MPD2    N1 4192   0.648   3.995  13.189 -0.1448 -0.5815 -0.2365
  277MPD2    H7 4193   0.695   3.983  13.099  0.4266 -2.4396  0.2953
  278TMC3    C1 4194   0.356   3.700  13.775 -0.5274 -0.4643 -0.1472
  278TMC3    C2 4195   0.302   3.585  13.829  0.4757  0.5658  0.8881
  278TMC3    C3 4196   0.163   3.580  13.850 -0.2532 -0.2610  0.3933
  278TMC3    C4 4197   0.285   3.812  13.765  0.3353  0.1415 -0.4200
  278TMC3    C5 4198   0.148   3.807  13.780 -0.7677 -1.3700  0.9833
  278TMC3    C6 4199   0.082   3.688  13.819  0.5918 -0.0009  0.4871
  278TMC3     C 4200   0.448   3.665  13.668 -0.7996 -0.6170 -0.8448
  278TMC3     O 4201   0.510   3.556  13.673 -0.2224  0.5679 -0.0531
  278TMC3     H 4202   0.354   3.490  13.832 -1.5851 -0.6915 -3.4705
  278TMC3    H1 4203   0.332   3.909  13.758  0.9712 -0.1198  0.2037
  278TMC3    H2 4204   4.700   3.685  13.847  0.2740  0.4504 -0.6425
  278TMC3    C7 4205   0.079   3.937  13.784  0.6572 -0.3400 -0.0375
  278TMC3    C8 4206   0.109   3.450  13.866  0.0701  0.3649 -0.2217
  278TMC3    O1 4207   0.147   4.038  13.792  0.8731 -0.0285  0.0887
  278TMC3    O2 4208   0.180   3.384  13.942 -0.1511  0.0866  0.1587
  279MPD2     C 4209   4.549   3.983   0.493 -0.7028  0.8513  0.2856
  279MPD2    C1 4210   4.480   4.100   0.450  0.2833 -0.4361 -0.8158
  279MPD2    C2 4211   4.549   4.200   0.381  0.4754  0.1713 -0.4503
  279MPD2    C3 4212   4.681   4.177   0.342  0.0662  0.7184 -0.2784
  279MPD2    C4 4213   0.027   4.071   0.383  0.0024 -1.2069  0.5180
  279MPD2    C5 4214   4.685   3.969   0.456 -0.0809  0.6204  0.2273
  279MPD2     H 4215   4.502   4.295   0.358 -0.6815 -0.3964 -0.4347
  279MPD2    H1 4216   0.132   4.056   0.360 -0.3283  0.7718 -2.3901
  279MPD2    H2 4217   4.504   3.909   0.557  1.5933  0.7228  1.7220
  279MPD2    H3 4218   0.026   3.887   0.486 -1.0604 -1.1088 -2.4817
  279MPD2     N 4219   0.034   4.267   0.264  0.0929 -0.5041 -0.9264
  279MPD2    H5 4220   0.122   4.230   0.229  0.2856 -1.5806  0.6899
  279MPD2    N1 4221   4.344   4.117   0.478 -0.5071  0.2718  0.3629
  279MPD2    H7 4222   4.292   4.040   0.519 -1.6585  1.1896  0.6469
  280TMC3    C1 4223   4.129   4.228   0.469 -0.6152 -0.2298 -0.2705
  280TMC3    C2 4224   4.064   4.113   0.433  0.3769 -0.2093 -0.1806
  280TMC3    C3 4225   3.926   4.116   0.406 -0.0612 -0.2380 -0.0512
  280TMC3    C4 4226   4.061   4.348   0.489  0.4227  0.1742 -0.0597
  280TMC3    C5 4227   3.930   4.350   0.444 -0.5720  0.7557 -0.8573
  280TMC3    C6 4228   3.860   4.237   0.405 -0.1041 -0.8694  0.0648
  280TMC3     C 4229   4.274   4.238   0.452  0.4930  0.4349  0.6345
  280TMC3     O 4230   4.309   4.354   0.435  0.6400 -0.0689 -0.2729
  280TMC3     H 4231   4.133   4.031   0.418 -0.3912 -1.2323  1.9149
  280TMC3    H1 4232   4.115   4.436   0.521  1.7736  0.0618 -2.0324
  280TMC3    H2 4233   3.752   4.232   0.419  0.1296 -0.0232  2.0972
  280TMC3    C7 4234   3.858   4.464   0.482 -0.3247  0.1284 -0.5614
  280TMC3    C8 4235   3.839   4.002   0.421  0.2076  0.0786  0.0915
  280TMC3    O1 4236   3.886   4.512   0.590 -0.3187  0.0402 -0.0076
  280TMC3    O2 4237   3.718   4.018   0.395 -0.7312 -0.2743  0.1296
  281TMC3    C1 4238   2.770   4.286  12.909 -0.1167 -0.4012 -0.2783
  281TMC3    C2 4239   2.729   4.345  12.789  0.2938 -0.3444 -0.0800
  281TMC3    C3 4240   2.599   4.314  12.754 -0.2441 -0.4814  0.9598
  281TMC3    C4 4241   2.686   4.223  12.996  0.0639  0.4365 -0.1683
  281TMC3    C5 4242   2.558   4.200  12.950 -0.1468  0.5932  0.5427
  281TMC3    C6 4243   2.514   4.241  12.831  0.5474  0.2519  0.7664
  281TMC3     C 4244   2.890   4.338  12.982 -0.1153 -0.0981  0.4616
  281TMC3     O 4245   2.995   4.348  12.920 -0.5396 -0.1281 -0.3335
  281TMC3     H 4246   2.799   4.397  12.726  0.1717 -2.3379 -1.8468
  281TMC3    H1 4247   2.731   4.176  13.082  1.2687 -0.8042 -1.4632
  281TMC3    H2 4248   2.410   4.225  12.808  1.2112 -0.0844 -1.9218
  281TMC3    C7 4249   2.465   4.122  13.036 -0.0704 -0.0849 -0.1501
  281TMC3    C8 4250   2.526   4.405  12.662 -0.3239  0.4004 -0.2282
  281TMC3    O1 4251   2.349   4.118  13.000  0.4324  0.8978 -0.3665
  281TMC3    O2 4252   2.411   4.370  12.632  0.8567 -0.1924  0.1565
  282MPD2     C 4253   4.583   1.138  15.182  0.4979 -0.5138 -0.3052
  282MPD2    C1 4254   4.475   1.128  15.266  0.2108  0.1069 -0.2160
  282MPD2    C2 4255   4.345   1.133  15.214  0.3322  0.0106 -0.6619
  282MPD2    C3 4256   4.325   1.130  15.078 -1.0256 -0.5009  0.3062
  282MPD2    C4 4257   4.440   1.130  14.995 -0.3550 -0.1793  0.4110
  282MPD2    C5 4258   4.562   1.147  15.047 -0.3609  0.4879 -0.3942
  282MPD2     H 4259   4.260   1.117  15.278 -0.3720  0.3882 -1.4957
  282MPD2    H1 4260   4.428   1.131  14.887  0.8285  0.9856  0.2949
  282MPD2    H2 4261   4.683   1.159  15.218  0.9876  0.2308 -2.1106
  282MPD2    H3 4262   4.649   1.161  14.984  0.0405 -1.4126 -0.2696
  282MPD2     N 4263   4.194   1.121  15.026  0.7009 -0.0531 -0.3876
  282MPD2    H5 4264   4.120   1.146  15.091 -1.0463 -1.0976 -2.0132
  282MPD2    N1 4265   4.491   1.136  15.408 -0.0016  0.6546  0.1884
  282MPD2    H7 4266   4.404   1.115  15.455 -1.1618  1.1985 -1.7100
  283TMC3    C1 4267   4.573   1.179  15.620  0.3203 -0.7215  0.4361
  283TMC3    C2 4268   4.627   1.276  15.699 -0.1041  0.3573 -0.5304
  283TMC3    C3 4269   4.602   1.265  15.830  0.4542 -0.5719 -0.5743
  283TMC3    C4 4270   4.494   1.074  15.666  0.2569 -0.2876 -0.5964
  283TMC3    C5 4271   4.469   1.065  15.805 -0.3276  0.8931  0.2651
  283TMC3    C6 4272   4.518   1.166  15.886 -0.3189 -0.7413 -0.1378
  283TMC3     C 4273   4.598   1.182  15.484 -0.5897 -0.3316 -0.2128
  283TMC3     O 4274   4.696   1.244  15.445  0.6148  0.4663 -0.0226
  283TMC3     H 4275   4.707   1.342  15.667 -0.6721  2.2723  1.9889
  283TMC3    H1 4276   4.471   0.990  15.601  1.7639 -2.5942  1.8736
  283TMC3    H2 4277   4.495   1.164  15.992 -1.9251 -0.2632 -0.4719
  283TMC3    C7 4278   4.388   0.961  15.865 -0.2964  0.6209  0.1885
  283TMC3    C8 4279   4.625   1.381  15.909  0.0152  0.4496 -0.2482
  283TMC3    O1 4280   4.355   0.978  15.979  0.3984  0.1883  0.1738
  283TMC3    O2 4281   4.612   1.365  16.028  0.4799 -0.5414  0.5598
  284MPD2     C 4282   2.885   4.463  11.932  0.5891  0.6814 -0.2495
  284MPD2    C1 4283   2.912   4.503  11.805  0.0599 -0.4377  0.2314
  284MPD2    C2 4284   2.926   4.409  11.704 -0.4181  0.2745  0.3458
  284MPD2    C3 4285   2.898   4.274  11.732 -0.7957  0.9456  1.0568
  284MPD2    C4 4286   2.871   4.232  11.857  0.2700 -0.4899  0.2556
  284MPD2    C5 4287   2.866   4.327  11.956  0.6974  0.3832 -0.0440
  284MPD2     H 4288   2.930   4.443  11.601 -0.3893 -0.2205  0.1812
  284MPD2    H1 4289   2.847   4.130  11.881  0.7251 -0.9471 -1.2158
  284MPD2    H2 4290   2.892   4.532  12.016 -1.4511 -0.7907  1.1314
  284MPD2    H3 4291   2.849   4.291  12.057 -1.0038 -0.2536 -0.5533
  284MPD2     N 4292   2.903   4.165  11.642  0.4140 -0.0678  0.3401
  284MPD2    H5 4293   2.866   4.080  11.684 -0.2324 -0.5902 -1.2869
  284MPD2    N1 4294   2.957   4.635  11.773 -0.1084  0.2820  0.7282
  284MPD2    H7 4295   3.010   4.639  11.687  0.5251 -0.5908  1.0665
  285TMC3    C1 4296   3.003   0.145  11.805  0.3128  0.7761  0.7744
  285TMC3    C2 4297   3.057   0.137  11.679 -0.0721 -0.4330  0.0261
  285TMC3    C3 4298   3.157   0.221  11.639 -0.3071  0.3579  0.1923
  285TMC3    C4 4299   3.048   0.240  11.895 -0.2705 -0.4142 -0.1963
  285TMC3    C5 4300   3.150   0.319  11.851 -0.8138 -0.2456 -0.9205
  285TMC3    C6 4301   3.198   0.318  11.726  0.6074  0.5756  0.4457
  285TMC3     C 4302   2.946   0.019  11.859 -0.0345 -0.4009 -0.6585
  285TMC3     O 4303   2.876   0.032  11.954 -0.8430 -0.4655  0.8113
  285TMC3     H 4304   3.014   0.072  11.603 -0.9893 -0.1529  0.2987
  285TMC3    H1 4305   3.012   0.239  11.997 -0.0010  3.4997 -0.0634
  285TMC3    H2 4306   3.286   0.374  11.697  1.0063  0.7580  1.9863
  285TMC3    C7 4307   3.190   0.415  11.941 -0.2173 -0.7140 -0.3144
  285TMC3    C8 4308   3.241   0.175  11.533 -0.1146 -0.5366 -0.1923
  285TMC3    O1 4309   3.194   0.385  12.062 -0.1483  0.6836  0.1486
  285TMC3    O2 4310   3.189   0.127  11.433 -0.0875  0.3471 -0.0907
  286MPD2     C 4311   4.191   4.106   1.947 -0.4364 -0.4196 -0.7769
  286MPD2    C1 4312   4.115   4.027   1.869 -0.7011  0.3507  0.3969
  286MPD2    C2 4313   4.188   3.940   1.783 -0.3258  0.0040 -0.3946
  286MPD2    C3 4314   4.325   3.916   1.792 -0.3570 -0.0297  0.2140
  286MPD2    C4 4315   4.388   3.977   1.899  0.0303  0.2201 -0.2004
  286MPD2    C5 4316   4.325   4.079   1.965  0.1511 -0.0719 -0.1744
  286MPD2     H 4317   4.141   3.898   1.695 -1.1134  1.2625 -0.5684
  286MPD2    H1 4318   4.494   3.960   1.916 -0.3043 -1.3235  0.2872
  286MPD2    H2 4319   4.160   4.188   2.011 -0.6248 -0.0858 -1.2991
  286MPD2    H3 4320   4.387   4.136   2.033  0.6611 -0.0614 -0.6502
  286MPD2     N 4321   4.408   3.827   1.719  0.1305 -0.1156 -0.0880
  286MPD2    H5 4322   4.503   3.808   1.750 -0.2632  0.5424  1.4911
  286MPD2    N1 4323   3.976   4.039   1.861 -0.4877  0.7405 -0.1146
  286MPD2    H7 4324   3.920   3.990   1.792 -1.5326 -0.4515  1.5764
  287TMC3    C1 4325   4.453   3.653   1.570  0.3577 -0.9330  0.2062
  287TMC3    C2 4326   4.419   3.595   1.454  0.2208 -0.4574  0.0213
  287TMC3    C3 4327   4.483   3.477   1.418 -0.1083 -0.4027  0.3031
  287TMC3    C4 4328   4.540   3.592   1.654  0.0278  0.7214  0.3130
  287TMC3    C5 4329   4.598   3.473   1.623  0.4858  0.7389  0.4502
  287TMC3    C6 4330   4.568   3.412   1.504 -0.1626 -0.6904 -0.1168
  287TMC3     C 4331   4.366   3.755   1.612  0.0029  0.0518  0.1883
  287TMC3     O 4332   4.257   3.752   1.557  0.2744  0.6948 -0.0476
  287TMC3     H 4333   4.343   3.647   1.396 -0.2678 -0.5576  0.5740
  287TMC3    H1 4334   4.545   3.622   1.759  0.5773  2.7051 -0.2779
  287TMC3    H2 4335   4.626   3.327   1.469  1.7843  0.8306 -0.5733
  287TMC3    C7 4336   4.698   3.414   1.710  0.6514 -0.9683 -1.0454
  287TMC3    C8 4337   4.428   3.394   1.311 -0.8578 -0.6964 -0.3923
  287TMC3    O1 4338   0.012   3.499   1.790 -0.6584 -0.2547  0.3548
  287TMC3    O2 4339   4.487   3.292   1.282 -0.0459 -0.1625  0.9637
  288TMC3    C1 4340   0.741   3.348  14.509  0.0559 -0.5784 -0.4910
  288TMC3    C2 4341   0.614   3.335  14.553 -0.6947 -0.1476 -0.3534
  288TMC3    C3 4342   0.522   3.401  14.476  0.7055 -0.0168 -0.1275
  288TMC3    C4 4343   0.774   3.426  14.405 -0.0032 -0.2689  0.3341
  288TMC3    C5 4344   0.684   3.498  14.334  0.6410 -0.0192  0.4771
  288TMC3    C6 4345   0.552   3.488  14.365  0.2383  0.1132 -0.8467
  288TMC3     C 4346   0.841   3.264  14.577 -0.1345 -0.3760 -0.4939
  288TMC3     O 4347   0.940   3.238  14.514  0.6535  0.1077 -0.2424
  288TMC3     H 4348   0.583   3.271  14.635 -2.8370  1.1495 -0.1587
  288TMC3    H1 4349   0.880   3.425  14.384 -0.4475  0.2907 -1.9354
  288TMC3    H2 4350   0.475   3.542  14.310 -0.0834 -2.1225 -2.5679
  288TMC3    C7 4351   0.725   3.550  14.215  0.0025  0.0668 -0.1081
  288TMC3    C8 4352   0.394   3.437  14.541  0.5120 -0.2533  0.1647
  288TMC3    O1 4353   0.836   3.510  14.178  0.0932  0.1767  0.4389
  288TMC3    O2 4354   0.341   3.538  14.500 -0.7076  0.5171 -0.5211
  289MPD2     C 4355   0.687   2.979  14.495  0.4689  0.3551 -0.0785
  289MPD2    C1 4356   0.656   3.039  14.374  0.4529  0.4331 -0.2389
  289MPD2    C2 4357   0.522   3.054  14.340 -0.0425  0.1292  0.4335
  289MPD2    C3 4358   0.421   3.010  14.420  0.6022  0.1732  0.0738
  289MPD2    C4 4359   0.452   2.944  14.537  0.4888 -0.3718  0.6199
  289MPD2    C5 4360   0.583   2.937  14.571 -0.3282 -0.1146  0.5960
  289MPD2     H 4361   0.497   3.113  14.253 -0.4489  0.3209  0.6827
  289MPD2    H1 4362   0.377   2.898  14.599  1.5366 -0.6843  1.6480
  289MPD2    H2 4363   0.787   2.974  14.537 -0.7882 -1.3124  2.6834
  289MPD2    H3 4364   0.611   2.880  14.658  0.8622 -0.4637 -0.0196
  289MPD2     N 4365   0.286   3.019  14.381 -0.4476 -0.2279  0.8893
  289MPD2    H5 4366   0.218   2.959  14.426  0.3195 -2.9011 -1.4802
  289MPD2    N1 4367   0.762   3.085  14.289  0.2765  0.0203 -0.5128
  289MPD2    H7 4368   0.857   3.075  14.322  2.0902  3.6611 -4.6426
  290TMC3    C1 4369   0.103   3.095  14.244  0.5903  0.5458  1.4977
  290TMC3    C2 4370   0.029   3.208  14.211  0.6491 -0.3127 -0.3832
  290TMC3    C3 4371   4.616   3.198  14.208  0.5115 -0.5280  0.6981
  290TMC3    C4 4372   0.044   2.973  14.259  0.0077 -0.5377  0.9690
  290TMC3    C5 4373   4.632   2.964  14.254  0.3680 -0.1012  0.4598
  290TMC3    C6 4374   4.554   3.078  14.242 -0.6820 -0.1076  0.1893
  290TMC3     C 4375   0.242   3.121  14.296  0.2291 -0.6760 -0.6063
  290TMC3     O 4376   0.292   3.227  14.265  0.3633 -0.2400  0.1982
  290TMC3     H 4377   0.081   3.301  14.190 -0.4527  0.6929  1.3154
  290TMC3    H1 4378   0.105   2.883  14.265  0.4417 -0.1143  2.9139
  290TMC3    H2 4379   4.447   3.064  14.255 -1.0092  2.0686 -0.1402
  290TMC3    C7 4380   4.565   2.832  14.247  0.2483 -0.2549  0.7368
  290TMC3    C8 4381   4.526   3.308  14.182  0.1514  0.4706 -0.0803
  290TMC3    O1 4382   4.459   2.827  14.188 -0.3029  0.1644  0.3425
  290TMC3    O2 4383   4.408   3.285  14.177  0.2239 -0.4009 -0.1873
  291MPD2     C 4384   0.286   2.682   0.965 -0.0645  0.4959 -0.7253
  291MPD2    C1 4385   0.188   2.622   0.894 -0.1472  0.6660 -0.4757
  291MPD2    C2 4386   0.190   2.638   0.759 -0.3666 -0.2688 -1.0891
  291MPD2    C3 4387   0.287   2.716   0.692  0.1677 -0.0916 -0.3334
  291MPD2    C4 4388   0.382   2.782   0.767  0.4410 -0.1346  0.7567
  291MPD2    C5 4389   0.375   2.769   0.905  0.0720  0.1003 -0.1430
  291MPD2     H 4390   0.118   2.588   0.695 -3.6362 -0.6546  2.8681
  291MPD2    H1 4391   0.460   2.836   0.715  1.2625 -1.5092  0.5474
  291MPD2    H2 4392   0.297   2.661   1.071 -3.2299 -2.5011 -0.9790
  291MPD2    H3 4393   0.450   2.819   0.965  0.6694 -0.8354 -0.1219
  291MPD2     N 4394   0.289   2.736   0.552 -0.2172  0.3668  0.0150
  291MPD2    H5 4395   0.322   2.830   0.532  2.2226 -0.5401 -0.2155
  291MPD2    N1 4396   0.092   2.534   0.952 -0.5445  0.9272  0.4208
  291MPD2    H7 4397   0.034   2.488   0.882  0.6315  1.1116 -0.6774
  292TMC3    C1 4398   4.696   2.399   1.100 -0.3547  0.1271  0.3452
  292TMC3    C2 4399   0.000   2.304   1.194 -0.9710 -0.1082  0.4880
  292TMC3    C3 4400   4.646   2.192   1.174  0.7971  0.0132  0.1720
  292TMC3    C4 4401   4.597   2.389   1.009  0.9733  0.1185 -0.1963
  292TMC3    C5 4402   4.524   2.275   0.999  0.8414 -0.5388  0.3677
  292TMC3    C6 4403   4.547   2.172   1.082 -0.7123  0.5066  0.8428
  292TMC3     C 4404   0.074   2.501   1.081  0.8206  0.8017  0.1171
  292TMC3     O 4405   0.151   2.530   1.174 -0.0436  0.1251 -0.3086
  292TMC3     H 4406   0.074   2.321   1.271 -1.2445  2.0898  0.2459
  292TMC3    H1 4407   4.579   2.475   0.945  0.8744 -0.1454 -0.5192
  292TMC3    H2 4408   4.480   2.088   1.065 -1.0685  1.1318 -0.9008
  292TMC3    C7 4409   4.443   2.267   0.878  0.5285  0.0614 -0.0733
  292TMC3    C8 4410   4.661   2.101   1.286 -0.3442  0.2727  0.0224
  292TMC3    O1 4411   4.413   2.366   0.813  0.4147 -0.1001 -0.0239
  292TMC3    O2 4412   0.028   2.107   1.372  0.3772  0.0945 -0.3652
  293MPD2     C 4413   1.293   4.439  12.700 -0.1409  0.5874 -0.4377
  293MPD2    C1 4414   1.253   4.314  12.731  0.4075  0.0383 -0.8691
  293MPD2    C2 4415   1.251   4.263  12.860 -0.2084  0.0166  0.5120
  293MPD2    C3 4416   1.299   4.345  12.960 -0.1209  0.8226  0.7948
  293MPD2    C4 4417   1.339   4.471  12.920  0.2147 -0.1017  0.6619
  293MPD2    C5 4418   1.346   4.517  12.798  0.7077  0.3212 -0.2258
  293MPD2     H 4419   1.229   4.158  12.875  1.9973 -0.5884 -0.4821
  293MPD2    H1 4420   1.370   4.547  12.990  1.0306 -0.4205  0.6588
  293MPD2    H2 4421   1.281   4.489  12.604 -0.4111  0.8596 -0.2648
  293MPD2    H3 4422   1.368   4.622  12.781  2.3024 -0.2417 -1.6590
  293MPD2     N 4423   1.289   4.304  13.097  0.3240 -0.0885  0.7236
  293MPD2    H5 4424   1.261   4.209  13.117 -0.5032 -0.3726 -1.6963
  293MPD2    N1 4425   1.210   4.244  12.619 -0.1532 -0.8752 -0.0093
  293MPD2    H7 4426   1.201   4.289  12.528 -0.0936 -2.6632 -0.9077
  294TMC3    C1 4427   1.115   4.073  12.477  0.3074  0.2781 -0.3732
  294TMC3    C2 4428   1.100   3.938  12.472  0.3266 -0.4831 -0.2064
  294TMC3    C3 4429   1.010   3.896  12.376 -0.5669  0.3796  0.5591
  294TMC3    C4 4430   1.051   4.160  12.402 -0.5260  0.2190 -0.4878
  294TMC3    C5 4431   0.983   4.109  12.298  0.1410 -0.2192  0.1671
  294TMC3    C6 4432   0.952   3.979  12.283  0.0083 -0.1117 -0.9322
  294TMC3     C 4433   1.164   4.110  12.614 -0.0033  0.2213  0.0941
  294TMC3     O 4434   1.165   4.023  12.700 -0.2981  0.2849 -0.4036
  294TMC3     H 4435   1.161   3.878  12.539  1.3321 -0.7086 -1.3410
  294TMC3    H1 4436   1.065   4.267  12.404  0.9000 -0.0047  1.5786
  294TMC3    H2 4437   0.882   3.945  12.208 -1.0448  3.1752 -1.4525
  294TMC3    C7 4438   0.907   4.192  12.208  0.6402  0.4106  0.1207
  294TMC3    C8 4439   0.971   3.763  12.394 -0.2112 -0.1837 -0.1056
  294TMC3    O1 4440   0.862   4.294  12.249  0.1126  0.4568 -0.0936
  294TMC3    O2 4441   0.977   3.715  12.506  0.3471 -0.2517 -0.5651
  295MPD2     C 4442   1.655   1.650   1.121  0.0504 -0.7272 -0.4575
  295MPD2    C1 4443   1.688   1.780   1.088 -0.2647 -0.1104 -0.9469
  295MPD2    C2 4444   1.704   1.876   1.184 -1.1632 -0.1509 -0.2193
  295MPD2    C3 4445   1.679   1.838   1.319 -0.2673  0.0975  0.5179
  295MPD2    C4 4446   1.648   1.705   1.351 -0.0507  1.3209  0.2639
  295MPD2    C5 4447   1.629   1.616   1.247 -0.7131  0.5251 -1.0073
  295MPD2     H 4448   1.741   1.976   1.163  4.2280 -2.1330 -0.3689
  295MPD2    H1 4449   1.639   1.672   1.453 -1.4189 -1.4618 -0.7660
  295MPD2    H2 4450   1.639   1.571   1.048  1.4757  0.4934 -2.0706
  295MPD2    H3 4451   1.596   1.516   1.273  0.2816  0.2397 -0.8582
  295MPD2     N 4452   1.706   1.931   1.421 -0.9021 -0.0321  0.2325
  295MPD2    H5 4453   1.716   1.898   1.516 -0.5403 -0.3468  0.0879
  295MPD2    N1 4454   1.694   1.829   0.954 -0.0275  0.4197 -0.2177
  295MPD2    H7 4455   1.703   1.927   0.930  0.6456  0.0991 -1.2782
  296TMC3    C1 4456   1.774   2.142   1.507  0.0539 -0.1622 -0.0683
  296TMC3    C2 4457   1.748   2.276   1.507 -0.4558  0.0627  0.0254
  296TMC3    C3 4458   1.818   2.351   1.597 -1.1737 -0.6335  0.0674
  296TMC3    C4 4459   1.858   2.083   1.607  0.7381  0.3051 -0.0051
  296TMC3    C5 4460   1.912   2.166   1.704 -0.5802 -0.9148  0.2279
  296TMC3    C6 4461   1.891   2.302   1.703 -0.2746 -0.4523  0.3227
  296TMC3     C 4462   1.716   2.069   1.398 -0.1006  0.3094  0.1986
  296TMC3     O 4463   1.662   2.136   1.314 -0.8021  0.7803 -0.0734
  296TMC3     H 4464   1.691   2.324   1.429  0.0712 -0.7833 -0.8785
  296TMC3    H1 4465   1.890   1.980   1.601 -1.6563 -0.3441 -1.8491
  296TMC3    H2 4466   1.939   2.361   1.780 -0.0639 -1.4253  0.9388
  296TMC3    C7 4467   1.956   2.108   1.827  0.3607  0.8912  0.1644
  296TMC3    C8 4468   1.801   2.495   1.596  0.2385  0.9190  0.4915
  296TMC3    O1 4469   2.040   2.173   1.887 -0.1501 -0.3502  0.0308
  296TMC3    O2 4470   1.751   2.533   1.492  0.4427  0.3211 -0.0953
  297MPD2     C 4471   3.970   4.441  16.534  0.4662  0.6820  0.1809
  297MPD2    C1 4472   3.957   4.526  16.425  0.0590  0.5359  1.1510
  297MPD2    C2 4473   4.035   4.631  16.406 -0.0056 -0.1079 -0.4925
  297MPD2    C3 4474   4.111   4.673  16.507  0.3853  0.1678 -0.2582
  297MPD2    C4 4475   4.141   4.584  16.606  0.5359  0.3232 -0.0918
  297MPD2    C5 4476   4.078   4.463  16.618  0.0038  0.2508 -0.7743
  297MPD2     H 4477   4.020   4.691  16.317  0.0261 -1.1085 -1.1808
  297MPD2    H1 4478   4.207   4.619  16.685  1.7219  1.9748 -1.8217
  297MPD2    H2 4479   3.909   4.358  16.569 -1.1117  1.7914  0.0831
  297MPD2    H3 4480   4.108   4.399  16.700 -2.4949  0.4063  0.2498
  297MPD2     N 4481   4.155   0.084  16.497  0.4654  0.6346  0.6520
  297MPD2    H5 4482   4.134   0.124  16.406 -0.2238  1.0134  0.9786
  297MPD2    N1 4483   3.858   4.505  16.329 -0.2002 -0.3417 -0.6221
  297MPD2    H7 4484   3.856   4.572  16.253 -4.6299  1.3270  1.0058
  298TMC3    C1 4485   3.635   4.477  16.266 -0.5409 -0.0830  0.1060
  298TMC3    C2 4486   3.660   4.547  16.153  0.1772 -0.1555 -0.5038
  298TMC3    C3 4487   3.549   4.592  16.081  0.1584 -0.5850 -0.0124
  298TMC3    C4 4488   3.510   4.462  16.320 -0.4866  0.5253 -0.8632
  298TMC3    C5 4489   3.405   4.511  16.249  0.1881  0.1106 -0.0136
  298TMC3    C6 4490   3.420   4.576  16.129 -0.7061  0.2312 -0.1637
  298TMC3     C 4491   3.753   4.420  16.338  0.0964 -0.1543  0.5377
  298TMC3     O 4492   3.715   4.358  16.435  0.2863  0.3487 -0.0426
  298TMC3     H 4493   3.753   4.539  16.098  1.6318  0.1105  1.9593
  298TMC3    H1 4494   3.496   4.417  16.418  0.5458  1.7571 -0.1465
  298TMC3    H2 4495   3.336   4.620  16.076 -0.5413 -0.7156 -1.2049
  298TMC3    C7 4496   3.280   4.536  16.327  0.0150  0.5158 -0.3158
  298TMC3    C8 4497   3.561   4.658  15.954  0.0355  0.7523 -0.1925
  298TMC3    O1 4498   3.297   4.578  16.440 -0.2679  0.0730 -0.2138
  298TMC3    O2 4499   3.468   4.669  15.880 -0.4952 -0.0981  0.1546
  299MPD2     C 4500   0.121   4.011  10.935  0.2904  0.1141 -0.0971
  299MPD2    C1 4501   0.075   4.137  10.898  0.2031 -0.5773  0.0295
  299MPD2    C2 4502   4.704   4.145  10.799 -1.0578 -0.1837 -0.7681
  299MPD2    C3 4503   4.668   4.034  10.727 -0.1818 -0.4317  0.1217
  299MPD2    C4 4504   4.713   3.908  10.760 -0.0051 -0.1074  0.2870
  299MPD2    C5 4505   0.079   3.896  10.867  0.1002 -0.1710 -0.0983
  299MPD2     H 4506   4.665   4.243  10.777 -0.4025  0.0172 -1.0376
  299MPD2    H1 4507   4.679   3.818  10.709 -2.4264 -0.9605  3.4011
  299MPD2    H2 4508   0.197   4.000  11.012  0.9631  1.2939 -0.5854
  299MPD2    H3 4509   0.114   3.796  10.886 -1.7636 -0.5451  1.2778
  299MPD2     N 4510   4.575   4.039  10.616  0.8679  0.1321 -0.6005
  299MPD2    H5 4511   4.555   3.954  10.564 -0.4398 -0.2801  0.5594
  299MPD2    N1 4512   0.106   4.247  10.976  0.0091  0.2276 -0.2977
  299MPD2    H7 4513   0.138   4.218  11.068  0.3025  0.9747 -0.1670
  300TMC3    C1 4514   4.412   4.146  10.481  0.7801  0.0096  0.4150
  300TMC3    C2 4515   4.379   4.260  10.407  0.3714 -0.0447  0.6132
  300TMC3    C3 4516   4.243   4.266  10.375 -0.4564  0.1727 -0.4468
  300TMC3    C4 4517   4.321   4.048  10.526  0.7953  0.2187  0.1201
  300TMC3    C5 4518   4.190   4.076  10.505 -0.2317 -0.2944 -0.8976
  300TMC3    C6 4519   4.143   4.181  10.422  0.3080 -0.3073  0.3007
  300TMC3     C 4520   4.533   4.159  10.564  0.0205  0.5303 -0.3187
  300TMC3     O 4521   4.579   4.271  10.572 -0.3757 -0.1052 -0.4477
  300TMC3     H 4522   4.445   4.345  10.398  0.0318  0.1825  0.3118
  300TMC3    H1 4523   4.342   3.964  10.591  2.1346  0.3048 -0.1996
  300TMC3    H2 4524   4.038   4.194  10.401 -0.3532 -3.6342  1.6310
  300TMC3    C7 4525   4.097   3.986  10.576 -0.2641 -0.7508  0.0411
  300TMC3    C8 4526   4.202   4.399  10.345  0.5268  0.2310  0.1207
  300TMC3    O1 4527   4.134   3.875  10.605  0.0527 -0.6545  0.1891
  300TMC3    O2 4528   4.091   4.424  10.390  0.2940 -0.1971  0.1552
  301MPD2     C 4529   1.936   0.477   1.640  0.3572  0.6623 -0.0327
  301MPD2    C1 4530   1.905   0.487   1.511  0.3091 -1.2355 -0.3206
  301MPD2    C2 4531   1.978   0.421   1.421 -0.7831  0.3726 -0.6770
  301MPD2    C3 4532   2.073   0.324   1.463  0.2036  0.0505 -0.1398
  301MPD2    C4 4533   2.096   0.309   1.598 -0.1558 -0.1723  0.4660
  301MPD2    C5 4534   2.032   0.393   1.687  0.6032 -0.2477 -0.6278
  301MPD2     H 4535   1.962   0.443   1.316 -0.0901  0.1753 -0.8221
  301MPD2    H1 4536   2.174   0.248   1.642  1.3920 -0.2733 -2.4496
  301MPD2    H2 4537   1.883   0.540   1.711 -1.4066 -0.6983 -0.1324
  301MPD2    H3 4538   2.057   0.400   1.792  1.1960  3.2393 -1.0041
  301MPD2     N 4539   2.160   0.249   1.378  0.7989 -0.2378  0.5377
  301MPD2    H5 4540   2.228   0.183   1.414  0.2973  0.0847  2.0680
  301MPD2    N1 4541   1.810   0.576   1.462  0.5501 -0.0890 -0.2818
  301MPD2    H7 4542   1.804   0.579   1.361 -0.8595 -1.4134 -0.2524
  302TMC3    C1 4543   2.210   0.122   1.185  0.0894  0.6730 -0.0011
  302TMC3    C2 4544   2.319   0.061   1.248 -0.1917 -0.3289  0.3880
  302TMC3    C3 4545   2.380   4.680   1.178  0.0061  0.4557 -0.5507
  302TMC3    C4 4546   2.153   0.082   1.065 -0.0151  0.1773 -0.2387
  302TMC3    C5 4547   2.226   4.702   0.994  0.3294  0.3752 -0.1127
  302TMC3    C6 4548   2.333   4.638   1.056 -1.0239  0.3317 -0.3542
  302TMC3     C 4549   2.141   0.237   1.245  0.6802  0.2081  0.1056
  302TMC3     O 4550   2.066   0.296   1.171  0.5124 -0.2726  0.4200
  302TMC3     H 4551   2.379   0.118   1.318  2.7019 -3.0936  0.1467
  302TMC3    H1 4552   2.067   0.134   1.024  1.8178  2.2914 -1.4198
  302TMC3    H2 4553   2.383   4.566   0.993 -1.8640 -0.3733 -0.2178
  302TMC3    C7 4554   2.209   4.695   0.845 -0.4230  0.2436 -0.3979
  302TMC3    C8 4555   2.507   4.619   1.217 -0.3150  0.1810 -0.3060
  302TMC3    O1 4556   2.282   4.627   0.774  0.2143 -0.9802 -0.0478
  302TMC3    O2 4557   2.578   4.594   1.120 -0.3350  0.0774 -0.0049
  303MPD2     C 4558   2.071   4.183  10.410 -0.1218  0.6805 -0.2983
  303MPD2    C1 4559   1.954   4.128  10.361  0.2917 -0.1050 -0.1618
  303MPD2    C2 4560   1.956   4.036  10.260 -0.3343 -0.0630 -0.4651
  303MPD2    C3 4561   2.081   3.996  10.208 -0.4011  0.0384  0.1023
  303MPD2    C4 4562   2.194   4.053  10.261 -0.3783 -0.0957  0.3405
  303MPD2    C5 4563   2.189   4.143  10.357  0.6320 -0.2119 -0.3230
  303MPD2     H 4564   1.860   3.996  10.230 -1.3661  2.0107  0.0830
  303MPD2    H1 4565   2.293   4.022  10.231  0.2772  2.4446 -0.0871
  303MPD2    H2 4566   2.080   4.257  10.488 -0.3951 -0.5026  0.8729
  303MPD2    H3 4567   2.279   4.189  10.398  2.5277 -2.7547 -1.6929
  303MPD2     N 4568   2.100   3.903  10.104  0.1036  0.0497  0.5717
  303MPD2    H5 4569   2.195   3.872  10.088  0.0912  1.8719 -3.1431
  303MPD2    N1 4570   1.836   4.163  10.432 -0.3218  0.3955  0.8369
  303MPD2    H7 4571   1.846   4.235  10.503  2.0273 -1.7431  2.6750
  304TMC3    C1 4572   1.616   4.146  10.520  0.1502  0.3223 -1.0262
  304TMC3    C2 4573   1.488   4.107  10.502  0.4483  0.0088  0.1515
  304TMC3    C3 4574   1.412   4.062  10.610  0.1001 -0.5277  0.4100
  304TMC3    C4 4575   1.664   4.155  10.646  0.7901  1.1586 -0.0410
  304TMC3    C5 4576   1.591   4.113  10.756  0.3214 -0.5775 -0.0116
  304TMC3    C6 4577   1.454   4.076  10.737  0.2683 -0.7771 -0.1653
  304TMC3     C 4578   1.705   4.117  10.410  0.3001 -0.5941  0.7248
  304TMC3     O 4579   1.655   4.055  10.317 -0.2101  0.1760 -0.0363
  304TMC3     H 4580   1.445   4.106  10.403 -1.9271  0.4093  1.1691
  304TMC3    H1 4581   1.768   4.182  10.660  0.8681  0.3089  1.0475
  304TMC3    H2 4582   1.403   4.038  10.824 -0.6572  2.7732  0.8364
  304TMC3    C7 4583   1.670   4.006  10.814  0.2532  0.8842 -0.0278
  304TMC3    C8 4584   1.334   3.949  10.574 -0.7923 -0.0675 -0.0033
  304TMC3    O1 4585   1.782   4.025  10.865 -0.0622  0.3752  0.5157
  304TMC3    O2 4586   1.371   3.896  10.470 -0.1406 -0.0110 -0.1230
  305MPD2     C 4587   4.456   0.756  14.361 -0.0183 -0.3049 -0.3893
  305MPD2    C1 4588   4.535   0.868  14.338  0.2761 -1.1174  0.6035
  305MPD2    C2 4589   4.568   0.907  14.209  0.4327  0.6499  0.3675
  305MPD2    C3 4590   4.532   0.829  14.106 -0.0485 -0.3291 -0.4923
  305MPD2    C4 4591   4.463   0.713  14.129 -0.4892 -0.3561  0.3409
  305MPD2    C5 4592   4.413   0.688  14.253 -0.0734  0.1106 -0.3078
  305MPD2     H 4593   4.643   0.981  14.184 -0.1484  0.6072 -1.5041
  305MPD2    H1 4594   4.438   0.647  14.046 -2.2195 -0.0778  0.6224
  305MPD2    H2 4595   4.434   0.722  14.461  2.2861 -1.4853 -0.2707
  305MPD2    H3 4596   4.345   0.604  14.255  0.2324 -0.1099  0.8121
  305MPD2     N 4597   4.572   0.848  13.976 -0.4605  0.1399 -0.0520
  305MPD2    H5 4598   4.548   0.770  13.915 -1.2487  0.9186 -0.7336
  305MPD2    N1 4599   4.583   0.936  14.455  0.0331  0.3691  0.1920
  305MPD2    H7 4600   4.569   0.903  14.550 -0.3549 -0.3397 -0.1122
  306TMC3    C1 4601   0.001   1.089  14.570  0.2035 -0.3901  0.2093
  306TMC3    C2 4602   0.006   0.999  14.674 -0.2041  0.3853 -0.1980
  306TMC3    C3 4603   0.086   1.023  14.781 -0.4488  0.3423 -0.4843
  306TMC3    C4 4604   0.083   1.196  14.570 -0.4548  0.2789  0.0661
  306TMC3    C5 4605   0.142   1.231  14.688 -0.1236  0.1317  0.5155
  306TMC3    C6 4606   0.150   1.144  14.792 -0.3199 -0.1075 -1.3172
  306TMC3     C 4607   4.674   1.041  14.444  0.4785  0.3174 -1.1104
  306TMC3     O 4608   4.714   1.099  14.347 -0.1459  0.0580 -0.3120
  306TMC3     H 4609   4.687   0.899  14.667  1.3438 -0.2437 -0.3694
  306TMC3    H1 4610   0.076   1.261  14.485 -0.7082 -1.1303 -0.9879
  306TMC3    H2 4611   0.214   1.159  14.878  1.4081  1.1559 -2.8100
  306TMC3    C7 4612   0.195   1.372  14.695  0.2776  0.2608  0.3768
  306TMC3    C8 4613   0.121   0.925  14.880  0.7564  0.0068 -0.2748
  306TMC3    O1 4614   0.174   1.447  14.601  0.3109 -0.3363  0.0721
  306TMC3    O2 4615   0.080   0.808  14.858 -0.2595 -0.1395 -0.1814
  307MPD2     C 4616   3.053   3.627   0.892  0.7127  0.4919 -0.7308
  307MPD2    C1 4617   3.001   3.678   0.778  0.3992 -0.9075  0.7509
  307MPD2    C2 4618   2.909   3.781   0.786  0.1180 -0.9263 -0.1041
  307MPD2    C3 4619   2.882   3.843   0.912 -0.6342 -0.7699 -0.1841
  307MPD2    C4 4620   2.941   3.791   1.024 -0.1878 -0.3903  0.3380
  307MPD2    C5 4621   3.027   3.682   1.013 -0.5042 -0.0244  0.4818
  307MPD2     H 4622   2.858   3.819   0.698  0.5489 -0.5356 -0.1841
  307MPD2    H1 4623   2.917   3.823   1.125 -2.5356 -1.7772  0.2082
  307MPD2    H2 4624   3.134   3.555   0.885  0.1036 -0.3419  0.8483
  307MPD2    H3 4625   3.066   3.650   1.109 -0.3830 -0.2520  0.3578
  307MPD2     N 4626   2.798   3.956   0.900  0.0194  0.2034  0.4109
  307MPD2    H5 4627   2.761   3.979   0.808  2.0428  0.2539 -0.3740
  307MPD2    N1 4628   3.040   3.642   0.651  0.3929  0.3239  0.4332
  307MPD2    H7 4629   3.000   3.695   0.574 -1.2258  0.0709  1.0906
  308TMC3    C1 4630   2.472   4.267   1.037 -0.0231 -0.1001  0.5078
  308TMC3    C2 4631   2.449   4.306   0.907 -1.0601  0.4462 -0.1406
  308TMC3    C3 4632   2.544   4.268   0.817  0.2567  0.0976  0.1800
  308TMC3    C4 4633   2.570   4.181   1.075 -0.1359 -0.6640 -0.7498
  308TMC3    C5 4634   2.649   4.131   0.974  0.2487 -0.3741 -0.8895
  308TMC3    C6 4635   2.640   4.177   0.847  0.0983  0.2848 -0.5732
  308TMC3     C 4636   2.380   4.311   1.135  0.0089  0.9471  0.1493
  308TMC3     O 4637   2.408   4.303   1.255  0.6659 -0.3416  0.0397
  308TMC3     H 4638   2.357   4.355   0.877  0.0107  2.6450  0.1821
  308TMC3    H1 4639   2.589   4.159   1.179 -0.4471 -0.8162 -0.7274
  308TMC3    H2 4640   2.712   4.143   0.773  2.3321  2.8228  0.4436
  308TMC3    C7 4641   2.752   4.030   1.007 -0.5683  0.0471 -0.6631
  308TMC3    C8 4642   2.506   4.274   0.676 -0.0098  0.2407  0.2522
  308TMC3    O1 4643   2.776   4.015   1.126 -0.2841  0.6056 -0.6531
  308TMC3    O2 4644   2.528   4.167   0.616 -0.0580 -0.5558  0.5239
  309MPD2     C 4645   1.751   4.537  17.260 -0.6825 -0.2001 -0.7701
  309MPD2    C1 4646   1.671   4.438  17.193  0.1256  0.4680 -0.2925
  309MPD2    C2 4647   1.554   4.398  17.252 -0.0149 -0.1403 -0.7574
  309MPD2    C3 4648   1.520   4.446  17.381  0.1876  0.2149  0.0984
  309MPD2    C4 4649   1.603   4.535  17.449  0.0403  0.5951 -0.0191
  309MPD2    C5 4650   1.724   4.575  17.389  0.2775  0.3013 -0.5106
  309MPD2     H 4651   1.494   4.322  17.203 -0.1983 -0.0754 -0.6340
  309MPD2    H1 4652   1.574   4.580  17.544 -3.5320  1.8940 -1.7062
  309MPD2    H2 4653   1.843   4.583  17.227 -0.4358 -0.8574 -1.0003
  309MPD2    H3 4654   1.791   4.648  17.434  1.2244 -1.3631  0.7694
  309MPD2     N 4655   1.394   4.412  17.446 -0.2466  0.1610 -0.1799
  309MPD2    H5 4656   1.378   4.447  17.539  3.9066  2.2934 -0.2334
  309MPD2    N1 4657   1.710   4.391  17.069  0.4501 -0.2424 -0.2546
  309MPD2    H7 4658   1.647   4.321  17.031 -3.8155  1.7132  3.2128
  310TMC3    C1 4659   1.832   4.365  16.862  0.0722  0.0844  1.2189
  310TMC3    C2 4660   1.720   4.385  16.786 -0.5872 -0.0888  0.0849
  310TMC3    C3 4661   1.735   4.365  16.650 -0.4213 -0.6144 -0.6493
  310TMC3    C4 4662   1.950   4.350  16.809  0.7839 -0.3818  0.5929
  310TMC3    C5 4663   1.970   4.350  16.680 -0.7415 -0.9647 -0.0446
  310TMC3    C6 4664   1.864   4.350  16.595 -0.3953 -0.2629  0.4250
  310TMC3     C 4665   1.829   4.421  16.999  0.3514  0.2213 -0.3775
  310TMC3     O 4666   1.921   4.495  17.022  0.8739  0.4318  0.3451
  310TMC3     H 4667   1.623   4.405  16.829 -1.1913 -1.5623 -0.5914
  310TMC3    H1 4668   2.031   4.344  16.881  2.0707  2.2061 -0.6243
  310TMC3    H2 4669   1.873   4.338  16.488 -0.6211 -0.0346  0.3809
  310TMC3    C7 4670   2.100   4.308  16.644  0.7014  0.2674 -0.2761
  310TMC3    C8 4671   1.624   4.336  16.558 -0.3282 -0.0717 -0.4733
  310TMC3    O1 4672   2.185   4.305  16.731  0.8569 -0.3910  0.3508
  310TMC3    O2 4673   1.647   4.352  16.439  0.3537 -0.1648 -0.7027
  311MPD2     C 4674   4.016   0.660  13.114 -0.4995  0.5507  0.4320
  311MPD2    C1 4675   4.012   0.797  13.083 -0.6054  0.1108  0.5107
  311MPD2    C2 4676   3.883   0.858  13.080 -0.5306 -0.2461 -0.2228
  311MPD2    C3 4677   3.770   0.775  13.088 -0.5871 -0.4554  0.4258
  311MPD2    C4 4678   3.781   0.636  13.113  0.3392  0.0484  0.5272
  311MPD2    C5 4679   3.905   0.583  13.135 -0.9317  0.7578 -0.2214
  311MPD2     H 4680   3.873   0.965  13.066  1.6969  0.0259  0.3020
  311MPD2    H1 4681   3.695   0.570  13.103  0.3778  0.0835 -0.0456
  311MPD2    H2 4682   4.112   0.613  13.131 -0.2557  0.7574 -0.3779
  311MPD2    H3 4683   3.921   0.477  13.153  1.5865  0.6414 -3.1555
  311MPD2     N 4684   3.647   0.844  13.094 -0.6286 -0.1067  0.2875
  311MPD2    H5 4685   3.666   0.944  13.096 -0.2863 -0.2289  2.3075
  311MPD2    N1 4686   4.125   0.886  13.062 -0.2271 -0.4330 -0.2740
  311MPD2    H7 4687   4.103   0.982  13.038  2.0877 -0.2210 -1.5591
  312TMC3    C1 4688   3.433   0.895  13.013 -0.7130 -0.2998 -0.0542
  312TMC3    C2 4689   3.336   0.862  12.912  0.2777  0.0409 -0.7234
  312TMC3    C3 4690   3.256   0.967  12.866  0.3122  0.2000  0.0618
  312TMC3    C4 4691   3.430   1.016  13.076  0.1521 -0.0714  0.1120
  312TMC3    C5 4692   3.340   1.112  13.031 -0.7600 -0.2008 -0.2044
  312TMC3    C6 4693   3.257   1.090  12.930 -0.2835  0.0055 -1.1699
  312TMC3     C 4694   3.531   0.792  13.045  0.7614 -0.5718 -0.2409
  312TMC3     O 4695   3.510   0.681  13.005 -0.2266 -0.8125  0.2448
  312TMC3     H 4696   3.334   0.760  12.875 -1.1088  0.1765 -0.9965
  312TMC3    H1 4697   3.489   1.025  13.167 -0.6925 -1.2971  0.7831
  312TMC3    H2 4698   3.187   1.167  12.900 -0.2560  0.6779  0.4609
  312TMC3    C7 4699   3.323   1.244  13.092  0.9292  0.4248  0.9491
  312TMC3    C8 4700   3.138   0.931  12.783 -0.9713 -0.8482  0.3020
  312TMC3    O1 4701   3.283   1.327  13.020 -0.3031  0.0529 -0.0547
  312TMC3    O2 4702   3.118   0.810  12.779 -0.3620 -0.1078 -0.2372
  313MPD2     C 4703   3.752   0.272  10.497 -0.0922  0.3850 -0.1149
  313MPD2    C1 4704   3.657   0.178  10.541  0.0382  0.2181 -0.2321
  313MPD2    C2 4705   3.631   0.069  10.462 -0.4261 -0.3599 -0.8825
  313MPD2    C3 4706   3.722   0.037  10.360 -0.2003 -0.8128  0.1670
  313MPD2    C4 4707   3.825   0.124  10.329 -0.2422 -0.6037  0.0080
  313MPD2    C5 4708   3.833   0.247  10.394 -0.2443 -0.0449 -0.5396
  313MPD2     H 4709   3.563   4.717  10.504  0.6114 -0.5299  0.4783
  313MPD2    H1 4710   3.896   0.112  10.247 -1.3927 -0.7431 -0.9699
  313MPD2    H2 4711   3.768   0.367  10.546  0.2811  1.3821 -2.2045
  313MPD2    H3 4712   3.898   0.321  10.350 -0.2058  1.2485  1.7235
  313MPD2     N 4713   3.710   4.633  10.302 -0.7027 -0.2417 -0.6450
  313MPD2    H5 4714   3.649   4.565  10.347  1.6127 -1.6264  0.4002
  313MPD2    N1 4715   3.556   0.206  10.640  0.4586 -0.1517 -0.1075
  313MPD2    H7 4716   3.473   0.149  10.628  0.6115 -0.7201  1.6349
  314TMC3    C1 4717   3.444   0.318  10.828  0.5080  0.3187 -0.1966
  314TMC3    C2 4718   3.468   0.372  10.951  0.2226  0.7807 -0.4512
  314TMC3    C3 4719   3.353   0.404  11.025 -0.6720 -0.5046  0.4366
  314TMC3    C4 4720   3.323   0.294  10.767  0.4234 -0.3715  1.1283
  314TMC3    C5 4721   3.215   0.331  10.846  1.0097  0.0844 -0.3312
  314TMC3    C6 4722   3.235   0.389  10.973 -0.3562  0.3126 -0.6098
  314TMC3     C 4723   3.562   0.296  10.745  0.3963  0.1452 -0.1362
  314TMC3     O 4724   3.657   0.369  10.773  0.1432 -0.2723 -0.0120
  314TMC3     H 4725   3.568   0.403  10.979  0.6630 -1.4565  0.4422
  314TMC3    H1 4726   3.320   0.245  10.670 -1.0518 -1.0030  1.5036
  314TMC3    H2 4727   3.144   0.422  11.023  1.9892  2.2837  2.3175
  314TMC3    C7 4728   3.081   0.326  10.792  0.3347 -0.8240 -0.0405
  314TMC3    C8 4729   3.352   0.434  11.165 -0.5237 -0.2291  0.2462
  314TMC3    O1 4730   2.995   0.320  10.877 -0.2193 -0.0552 -0.1080
  314TMC3    O2 4731   3.260   0.497  11.217 -0.2200 -0.3072  0.0915
  315MPD2     C 4732   3.013   4.217  17.519 -0.3084  0.0390 -0.5693
  315MPD2    C1 4733   3.131   4.237  17.590  0.2009  0.0535 -0.0909
  315MPD2    C2 4734   3.192   4.362  17.597 -0.5131 -0.3311 -0.4477
  315MPD2    C3 4735   3.152   4.460  17.518  0.6392 -0.0636  0.1022
  315MPD2    C4 4736   3.036   4.439  17.446  0.5163  0.0013  0.1979
  315MPD2    C5 4737   2.961   4.327  17.451  0.3421 -1.0707  0.0174
  315MPD2     H 4738   3.285   4.381  17.649 -1.3975  0.6592  0.7432
  315MPD2    H1 4739   2.997   4.527  17.396  0.0940 -0.7287 -0.7667
  315MPD2    H2 4740   2.955   4.125  17.519 -1.6358  0.8770 -0.4970
  315MPD2    H3 4741   2.866   4.323  17.400 -0.2539  0.2437  1.0139
  315MPD2     N 4742   3.234   4.581  17.518 -0.0687  0.3928  0.8285
  315MPD2    H5 4743   3.312   4.568  17.583  0.3877 -1.3597 -0.0692
  315MPD2    N1 4744   3.186   4.141  17.679 -0.0668 -0.9140  0.3110
  315MPD2    H7 4745   3.273   4.157   0.037 -1.0599  2.8069  0.9099
  316TMC3    C1 4746   3.283   0.094  17.497 -0.2511  0.8168  0.3270
  316TMC3    C2 4747   3.335   0.085  17.625 -0.5433 -0.5666 -0.6353
  316TMC3    C3 4748   3.370   0.206  17.683  0.3032 -0.2119  0.3448
  316TMC3    C4 4749   3.265   0.210  17.423  0.1794 -0.8360 -0.1152
  316TMC3    C5 4750   3.297   0.323  17.489 -0.1483 -0.3880  0.0673
  316TMC3    C6 4751   3.343   0.319  17.621  0.5271  0.4875  0.3105
  316TMC3     C 4752   3.201   4.703  17.459  0.4660  0.2399  1.0510
  316TMC3     O 4753   3.103   0.004  17.389 -0.4309  0.0117  0.5952
  316TMC3     H 4754   3.335   4.715  17.682 -0.2001  0.1528  0.5283
  316TMC3    H1 4755   3.223   0.200  17.324 -0.4128  0.7468 -0.0209
  316TMC3    H2 4756   3.368   0.413  17.670 -0.6918  1.6392 -1.2509
  316TMC3    C7 4757   3.290   0.451  17.429 -0.0604  0.5176 -0.9048
  316TMC3    C8 4758   3.449   0.218   0.113  0.0553 -1.4065  0.1094
  316TMC3    O1 4759   3.297   0.551  17.503 -0.1945 -0.3132  0.1975
  316TMC3    O2 4760   3.450   0.324   0.176  0.8176 -0.7949 -0.2005
  317MPD2     C 4761   1.049   2.720  12.357 -0.1839 -0.7730 -0.3068
  317MPD2    C1 4762   1.111   2.748  12.480 -0.1958 -0.9052  0.3455
  317MPD2    C2 4763   1.061   2.694  12.596  0.5432 -0.3568  0.5774
  317MPD2    C3 4764   0.943   2.622  12.591  0.6093 -0.6117 -0.0573
  317MPD2    C4 4765   0.866   2.613  12.477  0.0684 -0.6533  0.0679
  317MPD2    C5 4766   0.922   2.662  12.360 -0.3340  0.2168  0.1930
  317MPD2     H 4767   1.120   2.703  12.687  0.4219  0.2628  0.5946
  317MPD2    H1 4768   0.767   2.570  12.473 -0.6977  1.2479 -0.9783
  317MPD2    H2 4769   1.080   2.763  12.263 -0.3584  0.9510  0.4279
  317MPD2    H3 4770   0.862   2.648  12.271 -0.8921 -3.5351  1.1294
  317MPD2     N 4771   0.911   2.566  12.714 -0.8060 -0.1040  0.2715
  317MPD2    H5 4772   0.988   2.571  12.780 -0.0993 -0.2151 -0.5373
  317MPD2    N1 4773   1.240   2.804  12.495  0.0054  0.1277 -0.2835
  317MPD2    H7 4774   1.268   2.800  12.592 -0.2182  3.1888 -0.1027
  318TMC3    C1 4775   0.829   2.410  12.864  0.4619  0.3796 -0.5925
  318TMC3    C2 4776   0.765   2.285  12.877 -0.0138  0.7545 -0.1252
  318TMC3    C3 4777   0.800   2.217  12.989 -0.4311  0.3719 -0.6273
  318TMC3    C4 4778   0.906   2.471  12.959  0.0707  0.0144 -0.5320
  318TMC3    C5 4779   0.924   2.394  13.077 -0.0180 -0.3675 -0.4352
  318TMC3    C6 4780   0.884   2.265  13.093 -0.1670 -0.4064  0.5342
  318TMC3     C 4781   0.814   2.473  12.738 -0.1431 -0.3221 -0.1892
  318TMC3     O 4782   0.742   2.417  12.658  0.0864 -0.4000  0.7534
  318TMC3     H 4783   0.718   2.234  12.794  1.9182 -0.1432 -0.6893
  318TMC3    H1 4784   0.935   2.575  12.964  0.1826 -0.0198 -0.4660
  318TMC3    H2 4785   0.883   2.214  13.188 -0.5631  1.7346  1.6843
  318TMC3    C7 4786   0.969   2.477  13.190  0.2696  1.1380  0.1815
  318TMC3    C8 4787   0.702   2.119  13.034 -0.1064 -0.1222  0.0553
  318TMC3    O1 4788   0.980   2.596  13.171 -0.3690  0.3137  0.5702
  318TMC3    O2 4789   0.744   2.020  13.097 -0.2276 -0.5325  0.2633
  319MPD2     C 4790   1.128   4.020  17.058  0.1585 -0.0958 -0.0253
  319MPD2    C1 4791   1.041   3.919  17.089  0.3981  0.4991  0.4620
  319MPD2    C2 4792   0.932   3.894  17.010 -0.2419 -0.7460  0.5434
  319MPD2    C3 4793   0.921   3.958  16.889 -0.2583 -0.0593 -0.4172
  319MPD2    C4 4794   1.017   4.053  16.851  0.2353 -0.8962  0.2668
  319MPD2    C5 4795   1.107   4.095  16.942  0.1416 -1.0736 -0.1472
  319MPD2     H 4796   0.859   3.826  17.053 -1.1175  0.8947  1.6397
  319MPD2    H1 4797   1.016   4.099  16.753 -1.4620  1.6856  1.4726
  319MPD2    H2 4798   1.213   4.052  17.117  0.2296 -0.7150  0.2101
  319MPD2    H3 4799   1.190   4.162  16.921  0.6487 -1.8890 -0.7668
  319MPD2     N 4800   0.826   3.928  16.794 -0.1796  0.5967  0.2613
  319MPD2    H5 4801   0.825   3.984  16.710  1.0287  0.7483  0.3511
  319MPD2    N1 4802   1.059   3.844  17.206  0.1839  0.2163 -0.6596
  319MPD2    H7 4803   0.983   3.783  17.235  0.8447  0.1125  0.8548
  320TMC3    C1 4804   0.645   3.813  16.696 -0.4704 -0.6624 -0.2050
  320TMC3    C2 4805   0.608   3.923  16.623 -0.0725  0.2564 -0.4690
  320TMC3    C3 4806   0.508   3.907  16.529  0.3423  0.2984 -0.1451
  320TMC3    C4 4807   0.582   3.698  16.689  0.1123 -0.3717 -0.1577
  320TMC3    C5 4808   0.486   3.681  16.592  0.0966  0.1313  0.1340
  320TMC3    C6 4809   0.444   3.785  16.512 -0.4903  0.4294  0.4916
  320TMC3     C 4810   0.744   3.816  16.805  0.4649 -0.2137  0.3731
  320TMC3     O 4811   0.733   3.737  16.898  0.1573 -0.0328  0.3056
  320TMC3     H 4812   0.645   4.024  16.633 -0.0048  0.1969 -0.1139
  320TMC3    H1 4813   0.630   3.607  16.724 -0.0990 -1.1928 -2.0057
  320TMC3    H2 4814   0.364   3.763  16.443 -1.2389  2.0703  0.8533
  320TMC3    C7 4815   0.492   3.549  16.536  0.0105  0.0468 -0.0227
  320TMC3    C8 4816   0.478   4.017  16.437  0.0250 -0.0463  0.3051
  320TMC3    O1 4817   0.593   3.483  16.537  0.0477  0.0000  0.3070
  320TMC3    O2 4818   0.501   4.130  16.480 -0.1036 -0.3399 -0.2171
  321TMC3    C1 4819   1.134   3.778  17.426  0.2296 -0.0927  0.5084
  321TMC3    C2 4820   1.056   3.669  17.417 -0.1891  0.6384 -0.2180
  321TMC3    C3 4821   1.021   3.612  17.537 -0.2944  0.0899  0.3197
  321TMC3    C4 4822   1.210   3.801  17.540  0.8887 -0.5039 -0.8897
  321TMC3    C5 4823   1.173   3.744  17.654 -0.0880  0.3866 -0.4286
  321TMC3    C6 4824   1.073   3.651  17.657  0.1622  0.8264 -0.3787
  321TMC3     C 4825   1.154   3.860  17.304 -0.2769  0.2778  0.2672
  321TMC3     O 4826   1.245   3.946  17.311  0.1319 -0.1221 -0.3612
  321TMC3     H 4827   1.003   3.648  17.325  2.3956 -0.6171 -1.4178
  321TMC3    H1 4828   1.272   3.890  17.537  1.0330 -0.5073  3.0321
  321TMC3    H2 4829   1.052   3.605   0.061 -0.8354  0.2241 -0.8880
  321TMC3    C7 4830   1.284   3.699   0.048 -0.6617 -0.4982 -0.4776
  321TMC3    C8 4831   0.988   3.480  17.536 -0.5721  0.0501  0.8795
  321TMC3    O1 4832   1.252   3.648   0.154  0.2749  0.2501  0.3320
  321TMC3    O2 4833   0.934   3.451  17.429 -0.0199 -0.7676 -0.2531
  322MPD2     C 4834   0.190   0.600  13.501 -0.4763  0.2152 -0.3778
  322MPD2    C1 4835   0.182   0.574  13.641 -0.5220 -0.3547 -0.1429
  322MPD2    C2 4836   0.143   0.454  13.680 -0.1055  0.4851 -0.3081
  322MPD2    C3 4837   0.122   0.346  13.596  0.6185  1.0796 -0.4530
  322MPD2    C4 4838   0.130   0.377  13.456 -0.1673 -0.1160 -0.8854
  322MPD2    C5 4839   0.163   0.499  13.416 -0.3223 -0.1539 -0.5800
  322MPD2     H 4840   0.152   0.431  13.785  0.6100 -1.0069 -0.6958
  322MPD2    H1 4841   0.123   0.302  13.378  0.8967 -1.0243 -0.1220
  322MPD2    H2 4842   0.218   0.693  13.455  1.8163 -0.3834 -0.2034
  322MPD2    H3 4843   0.178   0.521  13.311  0.9213  0.4640 -0.2822
  322MPD2     N 4844   0.098   0.227  13.657 -0.0792  0.5248 -0.3211
  322MPD2    H5 4845   0.115   0.224  13.757  0.3840 -2.0970 -0.4984
  322MPD2    N1 4846   0.225   0.671  13.731 -0.1641 -0.1122  0.2609
  322MPD2    H7 4847   0.276   0.750  13.694  0.5041 -1.2076 -1.1619
  323TMC3    C1 4848   0.241   0.798  13.923  0.1233 -0.0214 -0.5750
  323TMC3    C2 4849   0.367   0.843  13.894  0.0728  0.5066 -0.3389
  323TMC3    C3 4850   0.433   0.928  13.981  0.0167 -0.1678 -0.0109
  323TMC3    C4 4851   0.191   0.830  14.045 -0.2129 -0.0404 -0.0391
  323TMC3    C5 4852   0.245   0.915  14.135  0.2019  0.6558  0.4987
  323TMC3    C6 4853   0.371   0.965  14.093  0.2538  0.2690 -0.0750
  323TMC3     C 4854   0.185   0.680  13.865  0.0796  0.3308 -1.0304
  323TMC3     O 4855   0.104   0.616  13.923  0.1739 -0.5161  0.4346
  323TMC3     H 4856   0.427   0.794  13.818  1.2411  0.3607  0.6778
  323TMC3    H1 4857   0.098   0.780  14.073 -0.0615 -1.4205 -1.9786
  323TMC3    H2 4858   0.429   1.023  14.164  0.4682  1.3961 -1.1694
  323TMC3    C7 4859   0.231   0.860  14.264  0.0138 -0.3299 -0.3028
  323TMC3    C8 4860   0.577   0.917  13.986  0.4686  1.2761  0.0490
  323TMC3    O1 4861   0.175   0.753  14.286  0.5471 -0.0393  0.0709
  323TMC3    O2 4862   0.632   0.935  14.094 -0.1102 -0.4018  0.6871
  324MPD2     C 4863   2.000   1.330  14.660 -0.3391 -0.3614 -0.9102
  324MPD2    C1 4864   2.003   1.467  14.662 -0.2032  1.0321 -0.2782
  324MPD2    C2 4865   1.889   1.533  14.629  0.0170 -0.0567  0.5676
  324MPD2    C3 4866   1.768   1.464  14.619  0.5022 -0.6444  0.1073
  324MPD2    C4 4867   1.770   1.326  14.632 -0.4912  0.6790 -0.8317
  324MPD2    C5 4868   1.887   1.261  14.646  0.2280  0.1843  0.6454
  324MPD2     H 4869   1.895   1.641  14.641  0.0410  0.0465 -0.4033
  324MPD2    H1 4870   1.679   1.268  14.636 -0.6771  0.8820 -2.0232
  324MPD2    H2 4871   2.095   1.278  14.667  0.0902  0.3689 -1.2595
  324MPD2    H3 4872   1.881   1.153  14.650 -1.6439  0.2310 -1.0190
  324MPD2     N 4873   1.641   1.526  14.594 -0.7983 -0.2789  0.2268
  324MPD2    H5 4874   1.560   1.466  14.602 -1.2508  0.3776  0.6153
  324MPD2    N1 4875   2.121   1.542  14.684 -0.3495 -0.6240 -0.0991
  324MPD2    H7 4876   2.124   1.643  14.687  0.6158 -0.7309  2.8087
  325TMC3    C1 4877   1.477   1.705  14.564 -0.9127 -0.4760  0.6456
  325TMC3    C2 4878   1.383   1.629  14.631 -0.4370  0.0279 -0.5727
  325TMC3    C3 4879   1.255   1.679  14.639  0.4030 -0.4767  0.0767
  325TMC3    C4 4880   1.442   1.837  14.528 -0.7905  0.3618 -0.3133
  325TMC3    C5 4881   1.308   1.883  14.539  0.7810  0.6943 -0.2386
  325TMC3    C6 4882   1.217   1.799  14.599  0.0360  0.7003  1.1009
  325TMC3     C 4883   1.620   1.656  14.564 -0.0107  0.6733  0.1979
  325TMC3     O 4884   1.703   1.732  14.520 -0.1646  0.4590  0.4632
  325TMC3     H 4885   1.403   1.530  14.670  2.0582 -0.5089 -3.1966
  325TMC3    H1 4886   1.519   1.902  14.489  0.7826 -0.8072  0.8334
  325TMC3    H2 4887   1.111   1.822  14.590 -0.3669 -1.2201  0.8956
  325TMC3    C7 4888   1.271   2.015  14.481 -0.3574  0.2038  0.3535
  325TMC3    C8 4889   1.142   1.582  14.642  0.6688  0.2022 -0.1860
  325TMC3    O1 4890   1.354   2.066  14.405 -0.1279 -0.5799 -0.0433
  325TMC3    O2 4891   1.175   1.463  14.640  0.0891 -0.1304  0.3916
  326MPD2     C 4892   2.552   3.091  11.556 -0.4105  0.3903  0.6440
  326MPD2    C1 4893   2.580   3.054  11.425  0.1044 -0.4520 -0.4837
  326MPD2    C2 4894   2.679   2.968  11.400  0.6213 -0.4323 -0.0370
  326MPD2    C3 4895   2.739   2.896  11.506 -0.6645 -0.1510  0.1600
  326MPD2    C4 4896   2.708   2.929  11.635 -0.6544  0.1724 -0.2586
  326MPD2    C5 4897   2.620   3.024  11.659  0.1249  0.2044 -0.1868
  326MPD2     H 4898   2.709   2.951  11.297  1.7338  1.3005 -0.0170
  326MPD2    H1 4899   2.765   2.893  11.720 -2.9025 -3.3563 -0.2813
  326MPD2    H2 4900   2.483   3.170  11.582  1.8451  2.5245  0.1447
  326MPD2    H3 4901   2.594   3.058  11.759 -0.6857 -2.8454  0.6193
  326MPD2     N 4902   2.820   2.783  11.485 -0.4358 -0.5826  0.3817
  326MPD2    H5 4903   2.856   2.747  11.572  1.2246 -0.6366 -0.3304
  326MPD2    N1 4904   2.520   3.106  11.308 -0.2695 -0.6340 -0.9057
  326MPD2    H7 4905   2.557   3.072  11.220  0.4852 -0.8809 -0.4969
  327TMC3    C1 4906   2.338   3.171  11.176 -0.6765  0.1532 -0.0976
  327TMC3    C2 4907   2.281   3.286  11.125  0.2372 -0.5139  0.7380
  327TMC3    C3 4908   2.250   3.287  10.995  0.0984 -0.3157  0.6209
  327TMC3    C4 4909   2.363   3.061  11.104 -0.6034  0.2200 -0.4607
  327TMC3    C5 4910   2.323   3.064  10.977 -0.3818  0.5096 -0.2031
  327TMC3    C6 4911   2.276   3.179  10.916 -0.1261 -0.5575  0.2961
  327TMC3     C 4912   2.411   3.186  11.302  0.4067  0.1968  0.8259
  327TMC3     O 4913   2.380   3.275  11.381  0.0545  0.5926 -0.5624
  327TMC3     H 4914   2.278   3.374  11.188  1.4818 -1.1958  1.7460
  327TMC3    H1 4915   2.402   2.970  11.148  2.0550  1.7913  0.3896
  327TMC3    H2 4916   2.252   3.189  10.811  1.5904  0.8380  0.0446
  327TMC3    C7 4917   2.363   2.954  10.893 -0.2465 -0.3493 -0.0868
  327TMC3    C8 4918   2.232   3.417  10.926  0.6075 -0.3314  0.0321
  327TMC3    O1 4919   2.403   2.986  10.780 -0.5524 -0.3072 -0.7786
  327TMC3    O2 4920   2.293   3.429  10.818 -0.1754  0.2535 -0.1200
  328MPD2     C 4921   0.610   2.117   0.187  0.0807 -0.0635  0.7948
  328MPD2    C1 4922   0.599   2.082   0.052 -0.2242 -0.1778 -0.1790
  328MPD2    C2 4923   0.650   2.162  17.640  0.0750  0.2206  0.2426
  328MPD2    C3 4924   0.703   2.285  17.681  0.2081 -0.3534  0.5515
  328MPD2    C4 4925   0.738   2.310   0.122  0.5298  0.2325  0.3698
  328MPD2    C5 4926   0.685   2.226   0.214  0.6223  0.2781 -0.0152
  328MPD2     H 4927   0.629   2.130  17.539 -2.8474 -0.0561  0.9325
  328MPD2    H1 4928   0.790   2.401   0.151 -0.0596  0.1070  1.8286
  328MPD2    H2 4929   0.576   2.058   0.271  2.5785 -1.4618  0.8277
  328MPD2    H3 4930   0.694   2.239   0.321 -3.0271  2.2420  0.0721
  328MPD2     N 4931   0.758   2.381  17.585  0.2390 -0.2223 -0.2528
  328MPD2    H5 4932   0.811   2.457  17.625 -0.3337  1.7434 -3.2291
  328MPD2    N1 4933   0.523   1.965   0.022  0.1491  0.0221  0.0612
  328MPD2    H7 4934   0.466   1.926   0.096  1.2928 -0.3190  0.7636
  329TMC3    C1 4935   0.393   1.825  17.589 -1.3842  0.3396 -0.4712
  329TMC3    C2 4936   0.279   1.877  17.636  0.3713  0.4018  0.2234
  329TMC3    C3 4937   0.167   1.821  17.578  0.7920 -0.1034 -0.0366
  329TMC3    C4 4938   0.393   1.722  17.494 -0.6973  0.3858  0.4154
  329TMC3    C5 4939   0.279   1.674  17.444 -0.4388  0.5307 -0.0570
  329TMC3    C6 4940   0.164   1.725  17.490 -0.1221 -0.0507  0.5725
  329TMC3     C 4941   0.505   1.909  17.590 -0.5057 -0.2423 -0.2365
  329TMC3     O 4942   0.564   1.930  17.484 -0.2554 -0.2839 -0.0899
  329TMC3     H 4943   0.279   1.961   0.013  0.8582  0.6925 -0.1414
  329TMC3    H1 4944   0.485   1.671  17.468 -2.3032 -1.1953 -2.1505
  329TMC3    H2 4945   0.072   1.685  17.449  0.1616  0.3220 -0.4333
  329TMC3    C7 4946   0.268   1.537  17.395 -0.7845 -0.3229 -0.2176
  329TMC3    C8 4947   0.040   1.886  17.584  0.0742  0.2017 -1.2742
  329TMC3    O1 4948   0.167   1.474  17.428  0.9016  0.2869 -0.0107
  329TMC3    O2 4949   4.670   1.850  17.510  0.3285 -0.4423 -0.2576
  330TMC3    C1 4950   2.729   1.673   9.879  0.2491  0.2236  0.4948
  330TMC3    C2 4951   2.828   1.590   9.827  1.1114  0.0314 -0.3492
  330TMC3    C3 4952   2.957   1.605   9.877 -0.3176 -0.3419  0.4750
  330TMC3    C4 4953   2.757   1.768   9.972  0.8256  0.9425  0.0143
  330TMC3    C5 4954   2.887   1.774  10.015  0.3899 -0.1452  0.5607
  330TMC3    C6 4955   2.991   1.697   9.970 -0.0041  0.3858 -0.3295
  330TMC3     C 4956   2.590   1.638   9.869  0.1103 -0.8736 -0.8060
  330TMC3     O 4957   2.512   1.711   9.931  0.0295 -0.3534  0.6457
  330TMC3     H 4958   2.801   1.524   9.745  2.6672  0.9700 -1.6040
  330TMC3    H1 4959   2.680   1.832  10.014 -0.2200 -0.7008  0.5653
  330TMC3    H2 4960   3.093   1.725   9.991 -0.0408 -0.6045  1.1808
  330TMC3    C7 4961   2.914   1.911  10.062 -0.4848  0.8835  0.0309
  330TMC3    C8 4962   3.070   1.525   9.834  0.3042  0.2843  0.4149
  330TMC3    O1 4963   2.825   1.997  10.047 -0.4452 -0.1350  0.0649
  330TMC3    O2 4964   3.185   1.549   9.871  0.3607 -0.2144  0.1741
  331MPD2     C 4965   1.890   1.503  12.320  0.5168  0.2714 -0.2802
  331MPD2    C1 4966   1.760   1.523  12.277  0.4612  0.6626  0.4495
  331MPD2    C2 4967   1.684   1.409  12.272 -0.1544  0.0248  0.5406
  331MPD2    C3 4968   1.719   1.282  12.327 -0.2785  0.1921 -0.3288
  331MPD2    C4 4969   1.848   1.272  12.361 -0.3911 -0.8596  0.5640
  331MPD2    C5 4970   1.931   1.376  12.353 -0.2175 -0.0656  0.2680
  331MPD2     H 4971   1.578   1.418  12.250  0.0315  2.1140  0.5099
  331MPD2    H1 4972   1.901   1.180  12.384 -1.8144 -1.1969  2.5004
  331MPD2    H2 4973   1.957   1.588  12.318 -0.3744  1.0294  1.8829
  331MPD2    H3 4974   2.029   1.372  12.400 -0.0077  1.4314 -0.0318
  331MPD2     N 4975   1.634   1.167  12.320  0.0316  0.6115 -0.5647
  331MPD2    H5 4976   1.541   1.179  12.281  0.4540  2.8037 -0.8855
  331MPD2    N1 4977   1.712   1.651  12.238 -0.3728 -0.1401 -0.5721
  331MPD2    H7 4978   1.774   1.730  12.249 -0.8934 -0.0824  2.0501
  332TMC3    C1 4979   1.572   0.934  12.358 -0.1630  0.5194  0.0050
  332TMC3    C2 4980   1.469   0.927  12.272 -0.1258 -0.4762  0.1130
  332TMC3    C3 4981   1.384   0.815  12.281  0.5405  0.2545 -0.6745
  332TMC3    C4 4982   1.587   0.836  12.455  0.3818 -0.4810 -0.3136
  332TMC3    C5 4983   1.498   0.733  12.468 -0.0822 -0.1115  0.1783
  332TMC3    C6 4984   1.390   0.719  12.376  0.1822 -0.2622  0.6251
  332TMC3     C 4985   1.672   1.040  12.360  0.4253 -0.8639 -0.5939
  332TMC3     O 4986   1.784   1.005  12.389 -0.2392 -0.4054 -0.4241
  332TMC3     H 4987   1.458   0.999  12.192 -2.7857 -0.0207  0.8641
  332TMC3    H1 4988   1.668   0.851  12.525 -1.3148  2.5870  1.0053
  332TMC3    H2 4989   1.315   0.643  12.398  1.7668 -2.3760 -1.2496
  332TMC3    C7 4990   1.542   0.614  12.538 -0.2448 -0.0261  0.3318
  332TMC3    C8 4991   1.278   0.806  12.190  0.4895 -0.1301  0.6226
  332TMC3    O1 4992   1.453   0.536  12.559  0.0552  0.0707  0.0605
  332TMC3    O2 4993   1.205   0.708  12.209 -0.5110  0.0901 -0.5763
  333MPD2     C 4994   0.896   0.802  10.784  0.7408 -0.0932  0.5681
  333MPD2    C1 4995   1.022   0.749  10.807  0.0654 -0.2259  0.3351
  333MPD2    C2 4996   1.029   0.623  10.859 -0.9158  0.2531  0.1063
  333MPD2    C3 4997   0.922   0.543  10.895  0.2707  0.1916 -0.4623
  333MPD2    C4 4998   0.801   0.594  10.861  0.3417  0.4055 -0.6172
  333MPD2    C5 4999   0.794   0.721  10.808  0.0082  0.0662  0.3515
  333MPD2     H 5000   1.125   0.587  10.894  0.0110  1.5842 -1.0257
  333MPD2    H1 5001   0.708   0.537  10.863  0.3084  0.4911  0.2112
  333MPD2    H2 5002   0.875   0.898  10.739  1.2221  0.1330  0.8188
  333MPD2    H3 5003   0.698   0.762  10.777  0.3104  0.3892 -0.1609
  333MPD2     N 5004   0.942   0.423  10.969 -0.0245  0.0660  0.3379
  333MPD2    H5 5005   1.038   0.394  10.981 -0.3472 -1.5836 -1.1800
  333MPD2    N1 5006   1.135   0.833  10.785 -0.1843 -0.5388 -1.0148
  333MPD2    H7 5007   1.124   0.930  10.755  1.4269 -0.3763 -1.0803
  334TMC3    C1 5008   1.361   0.898  10.787  0.7113 -0.7434  0.6482
  334TMC3    C2 5009   1.483   0.875  10.725 -0.2167  0.0454 -0.9841
  334TMC3    C3 5010   1.586   0.969  10.742  0.3595 -0.0747  0.0722
  334TMC3    C4 5011   1.341   1.002  10.869 -0.3147 -0.0295  0.2139
  334TMC3    C5 5012   1.441   1.094  10.885  0.0460  0.0327  0.4917
  334TMC3    C6 5013   1.565   1.080  10.823 -0.1071 -0.4820  0.6841
  334TMC3     C 5014   1.268   0.789  10.783 -0.1899  0.1652  0.0157
  334TMC3     O 5015   1.304   0.675  10.765  0.1178 -0.0760  0.1641
  334TMC3     H 5016   1.496   0.791  10.658 -0.1286 -0.0613 -0.8353
  334TMC3    H1 5017   1.249   1.019  10.925 -0.8251 -1.4429 -0.1973
  334TMC3    H2 5018   1.638   1.160  10.832 -0.3549 -0.2442  0.5920
  334TMC3    C7 5019   1.431   1.209  10.980  0.2301 -0.2599 -0.0766
  334TMC3    C8 5020   1.711   0.943  10.669 -0.9078 -0.3048  0.2048
  334TMC3    O1 5021   1.542   1.256  11.008  0.3920 -0.0262 -0.7283
  334TMC3    O2 5022   1.712   0.846  10.595 -0.1462 -0.3104  0.4871
  335TMC3    C1 5023   1.154   2.358   0.240  0.2608  0.1606  1.2801
  335TMC3    C2 5024   1.125   2.323   0.111  0.0917  0.4565 -0.6833
  335TMC3    C3 5025   1.210   2.375   0.013  0.0836 -1.2794  0.4442
  335TMC3    C4 5026   1.252   2.451   0.268  0.0924 -1.1613  0.3714
  335TMC3    C5 5027   1.337   2.487   0.163  0.5136 -0.6933  0.2903
  335TMC3    C6 5028   1.324   2.450   0.033 -0.8300 -0.4741  0.6807
  335TMC3     C 5029   1.089   2.289   0.344 -0.0654  0.4407  1.1880
  335TMC3     O 5030   1.073   2.355   0.449  0.1429 -0.9389  0.6432
  335TMC3     H 5031   1.035   2.269   0.086 -0.2642  0.0263  1.5282
  335TMC3    H1 5032   1.272   2.479   0.371  1.4809  2.2557 -0.8281
  335TMC3    H2 5033   1.386   2.486  17.643 -0.1992 -1.3330  0.7808
  335TMC3    C7 5034   1.461   2.548   0.204 -0.0916  0.9103  0.9148
  335TMC3    C8 5035   1.186   2.344  17.574  0.1238 -0.4055  1.0909
  335TMC3    O1 5036   1.503   2.526   0.317 -0.4822 -0.6644 -1.0254
  335TMC3    O2 5037   1.241   2.414  17.490  0.0267  0.2658 -0.0943
  336MPD2     C 5038   1.050   0.206  15.988  0.3306 -0.0755  0.6695
  336MPD2    C1 5039   0.927   0.153  15.956  0.0141  0.1153  0.1434
  336MPD2    C2 5040   0.885   0.032  16.010  0.2356 -0.2919 -0.0357
  336MPD2    C3 5041   0.968   4.685  16.097  0.4217  0.2552  0.1601
  336MPD2    C4 5042   1.082   0.025  16.145 -0.0907  0.9937 -0.4371
  336MPD2    C5 5043   1.120   0.142  16.085  0.6106 -0.3307  0.3828
  336MPD2     H 5044   0.784   4.720  15.991 -0.3342  1.4990 -0.1399
  336MPD2    H1 5045   1.158   4.709  16.212 -1.5129 -2.3827 -0.7499
  336MPD2    H2 5046   1.088   0.298  15.944 -0.6436 -1.1075 -2.3310
  336MPD2    H3 5047   1.221   0.177  16.104  1.3014 -2.5113  0.7550
  336MPD2     N 5048   0.937   4.555  16.142  0.1703 -0.0379  0.1585
  336MPD2    H5 5049   0.985   4.530  16.228  0.0688 -1.0793 -0.0885
  336MPD2    N1 5050   0.842   0.217  15.857 -0.3466  0.3467  0.9009
  336MPD2    H7 5051   0.753   0.171  15.838  1.9748 -3.7258 -0.3081
  337TMC3    C1 5052   0.772   0.372  15.691  0.6615 -0.5450 -0.5459
  337TMC3    C2 5053   0.645   0.369  15.728 -0.4063  0.2045  0.2000
  337TMC3    C3 5054   0.545   0.426  15.646  0.1513  0.2025  0.0481
  337TMC3    C4 5055   0.809   0.456  15.590  0.8543 -0.4839  0.3620
  337TMC3    C5 5056   0.717   0.533  15.521 -0.0795  0.2033 -0.5616
  337TMC3    C6 5057   0.584   0.507  15.536 -0.1147  0.5475 -0.0034
  337TMC3     C 5058   0.871   0.329  15.785 -0.0015  0.4011  0.0401
  337TMC3     O 5059   0.968   0.401  15.785 -0.2662  0.1247 -0.2942
  337TMC3     H 5060   0.606   0.307  15.808  0.8929  0.9371  1.3785
  337TMC3    H1 5061   0.915   0.468  15.571  0.9501 -2.9713 -0.7059
  337TMC3    H2 5062   0.505   0.567  15.491 -3.0287 -2.3790  1.2318
  337TMC3    C7 5063   0.764   0.627  15.420  0.7602  0.0661 -0.0114
  337TMC3    C8 5064   0.426   0.461  15.717  0.0565 -0.4285 -0.3595
  337TMC3    O1 5065   0.879   0.627  15.377 -0.6879 -0.4877 -0.0858
  337TMC3    O2 5066   0.435   0.470  15.839 -0.0138 -0.4445  0.3365
  338MPD2     C 5067   1.057   4.431   1.349  0.7275 -0.1887 -1.0919
  338MPD2    C1 5068   1.059   4.493   1.219 -0.1875  0.1611  0.0497
  338MPD2    C2 5069   0.928   4.515   1.173  0.2204 -0.0585 -0.8742
  338MPD2    C3 5070   0.816   4.494   1.249 -0.1692  0.3441 -0.3200
  338MPD2    C4 5071   0.821   4.444   1.378 -0.2607  0.0290 -0.4304
  338MPD2    C5 5072   0.946   4.418   1.429 -0.3021  0.7189  0.7218
  338MPD2     H 5073   0.917   4.558   1.074 -0.2354  0.4098 -0.6161
  338MPD2    H1 5074   0.735   4.423   1.440 -0.6232  3.7332  0.3165
  338MPD2    H2 5075   1.153   4.410   1.394  0.7690 -0.4133 -1.2872
  338MPD2    H3 5076   0.944   4.366   1.523 -0.9385 -1.3285 -0.4257
  338MPD2     N 5077   0.692   4.513   1.177  0.1931  0.1897  0.0524
  338MPD2    H5 5078   0.702   4.531   1.078 -1.5903 -1.4516 -0.4278
  338MPD2    N1 5079   1.172   4.506   1.134  0.1708 -0.4642  0.0515
  338MPD2    H7 5080   1.155   4.548   1.043 -0.1208 -0.6015  0.0429
  339TMC3    C1 5081   0.466   4.465   1.129 -0.2694 -0.2123 -0.1240
  339TMC3    C2 5082   0.414   4.344   1.148  0.2504 -0.7068 -0.7625
  339TMC3    C3 5083   0.408   4.255   1.038 -0.2916 -0.6266 -0.3004
  339TMC3    C4 5084   0.502   4.513   1.009  0.1571 -0.4029  0.3711
  339TMC3    C5 5085   0.493   4.433   0.904  0.7095 -1.4890  0.1284
  339TMC3    C6 5086   0.445   4.305   0.914  0.4715 -0.3595 -0.7807
  339TMC3     C 5087   0.566   4.477   1.231 -0.6231  0.4035 -0.0353
  339TMC3     O 5088   0.535   4.428   1.341 -0.7575 -0.1619 -0.3066
  339TMC3     H 5089   0.385   4.307   1.246 -1.2672 -2.0944 -1.7426
  339TMC3    H1 5090   0.543   4.613   1.001  2.3532 -1.3302 -0.1503
  339TMC3    H2 5091   0.448   4.234   0.832 -0.5552  0.0039 -1.1306
  339TMC3    C7 5092   0.608   4.462   0.824  0.1625  0.5750 -0.3013
  339TMC3    C8 5093   0.467   4.125   1.071 -0.3119 -0.2547  0.0004
  339TMC3    O1 5094   0.709   4.470   0.892 -0.4835 -0.6392  0.0493
  339TMC3    O2 5095   0.447   4.029   0.996  0.3988  0.6206 -0.8967
  340MPD2     C 5096   1.491   2.047  10.035 -0.8494 -0.3872  0.6079
  340MPD2    C1 5097   1.416   1.963  10.121  0.3996  0.5288  0.0854
  340MPD2    C2 5098   1.368   2.014  10.239 -1.0617 -0.0404  0.2167
  340MPD2    C3 5099   1.401   2.138  10.279  0.1673 -0.8178  0.7754
  340MPD2    C4 5100   1.469   2.225  10.196 -0.0589  0.9823  0.4222
  340MPD2    C5 5101   1.521   2.180  10.074  0.5622 -0.1241  0.4088
  340MPD2     H 5102   1.317   1.949  10.309  0.5828 -0.9795  0.5563
  340MPD2    H1 5103   1.490   2.330  10.215  0.8611  0.8948 -0.0813
  340MPD2    H2 5104   1.535   2.014   9.942  2.0278  1.2093  1.4146
  340MPD2    H3 5105   1.573   2.246  10.006 -0.7686 -0.5473 -1.0355
  340MPD2     N 5106   1.369   2.189  10.406  0.3758 -0.2381  0.5812
  340MPD2    H5 5107   1.403   2.282  10.428 -0.2449 -0.0608  0.7789
  340MPD2    N1 5108   1.407   1.826  10.083 -0.0912  0.6570 -0.5282
  340MPD2    H7 5109   1.445   1.789   9.995  1.8540  1.2510  0.0633
  341TMC3    C1 5110   1.356   1.602  10.095 -0.2763 -0.6712 -0.3365
  341TMC3    C2 5111   1.252   1.504  10.093  0.4960  0.1668 -0.6610
  341TMC3    C3 5112   1.291   1.373  10.083 -0.3707 -0.6838 -0.1148
  341TMC3    C4 5113   1.487   1.565  10.091  0.4061 -0.5934  0.1071
  341TMC3    C5 5114   1.523   1.435  10.075 -0.4167  0.0534  0.1835
  341TMC3    C6 5115   1.423   1.335  10.073  0.5308  0.5928  0.1180
  341TMC3     C 5116   1.341   1.730  10.155 -0.2047 -0.1214 -0.4377
  341TMC3     O 5117   1.271   1.732  10.257  0.3439  0.1986 -0.3589
  341TMC3     H 5118   1.146   1.520  10.106  0.9961  2.0180  1.1252
  341TMC3    H1 5119   1.562   1.641  10.108 -0.5329  0.3966 -0.1075
  341TMC3    H2 5120   1.449   1.235  10.105  0.8879  0.8325  0.6005
  341TMC3    C7 5121   1.662   1.403  10.077  0.0857  0.9458 -0.7527
  341TMC3    C8 5122   1.180   1.281  10.082  0.7106  0.2399 -0.0680
  341TMC3    O1 5123   1.742   1.496  10.099  0.5564 -0.1514 -0.2685
  341TMC3    O2 5124   1.069   1.313  10.045 -0.1824 -0.5443  0.3595
  342MPD2     C 5125   3.882   0.928   0.213 -0.0792 -0.3991  0.3864
  342MPD2    C1 5126   4.021   0.912   0.179  0.0583 -0.0546 -0.3464
  342MPD2    C2 5127   4.115   1.003   0.221 -0.4976  1.0634  0.3606
  342MPD2    C3 5128   4.074   1.120   0.281  0.0257 -0.7590 -0.0711
  342MPD2    C4 5129   3.939   1.130   0.321 -0.1548 -0.0159  0.0665
  342MPD2    C5 5130   3.846   1.038   0.276 -0.1039 -0.6676 -0.4038
  342MPD2     H 5131   4.222   0.993   0.205 -0.9342 -0.8130 -1.3609
  342MPD2    H1 5132   3.892   1.215   0.370  0.5260 -0.0361  0.7431
  342MPD2    H2 5133   3.805   0.866   0.169  0.9256 -0.7856 -0.8040
  342MPD2    H3 5134   3.741   1.056   0.297  0.0943 -0.4803  0.4405
  342MPD2     N 5135   4.168   1.227   0.297 -0.1862  0.5812  0.3526
  342MPD2    H5 5136   4.131   1.313   0.337 -1.2861  1.1384 -1.8516
  342MPD2    N1 5137   4.071   0.810   0.095  0.3862  0.4392  0.3050
  342MPD2    H7 5138   4.158   0.827   0.045 -0.4018  1.0082 -0.8553
  343TMC3    C1 5139   4.048   0.617  17.654 -0.4425 -0.1693 -1.0049
  343TMC3    C2 5140   4.117   0.678  17.551 -0.0727 -0.7070 -0.3423
  343TMC3    C3 5141   4.153   0.601  17.440 -0.1038 -0.5912 -0.0740
  343TMC3    C4 5142   4.013   0.488  17.659  0.0470 -0.3059  0.2270
  343TMC3    C5 5143   4.043   0.423  17.539  0.2275  0.0489  0.8908
  343TMC3    C6 5144   4.119   0.472  17.435  0.0612 -0.4382  0.2788
  343TMC3     C 5145   3.997   0.695   0.072  0.3398 -0.2880 -0.3055
  343TMC3     O 5146   3.899   0.663   0.134 -0.0049  0.1011 -0.3476
  343TMC3     H 5147   4.130   0.785  17.546  0.4320 -0.7753 -0.4036
  343TMC3    H1 5148   3.950   0.448   0.046  1.0269 -0.8525  0.7409
  343TMC3    H2 5149   4.119   0.420  17.340  1.0297  3.7795 -2.0485
  343TMC3    C7 5150   4.046   0.280  17.546  0.2966  0.2300 -0.8050
  343TMC3    C8 5151   4.288   0.627  17.395 -0.2683  0.3983  0.8354
  343TMC3    O1 5152   4.098   0.224  17.449 -0.0268 -0.1891  0.1059
  343TMC3    O2 5153   4.340   0.725  17.452  0.0895 -0.2751  0.4708
  344MPD2     C 5154   0.027   0.364  11.139 -0.3232  0.0277 -0.2357
  344MPD2    C1 5155   0.095   0.269  11.064  0.5298 -0.0837 -0.1370
  344MPD2    C2 5156   0.145   0.315  10.933  0.1680  0.2453 -0.2286
  344MPD2    C3 5157   0.131   0.447  10.893 -0.1272 -0.2521  0.0519
  344MPD2    C4 5158   0.065   0.532  10.977  0.7651 -0.1959  0.1481
  344MPD2    C5 5159   0.012   0.490  11.098 -0.2871  0.2000  0.0019
  344MPD2     H 5160   0.198   0.244  10.872 -1.5391 -2.7786  1.8325
  344MPD2    H1 5161   0.050   0.636  10.953 -0.2870 -0.8510 -2.1050
  344MPD2    H2 5162   4.696   0.346  11.231  1.5898 -0.7945  0.7232
  344MPD2    H3 5163   4.676   0.551  11.165 -1.1548  1.1733 -1.6571
  344MPD2     N 5164   0.164   0.490  10.759 -0.2507  0.3989  0.4632
  344MPD2    H5 5165   0.131   0.585  10.746 -1.3391 -0.0672 -0.1814
  344MPD2    N1 5166   0.120   0.139  11.099  0.4587  0.1354 -0.1064
  344MPD2    H7 5167   0.178   0.087  11.034  1.6022 -0.4168  1.3588
  345TMC3    C1 5168   0.263   0.514  10.559 -0.0453 -0.4739 -0.3996
  345TMC3    C2 5169   0.402   0.538  10.543 -0.2216  1.3233  0.3549
  345TMC3    C3 5170   0.441   0.650  10.474 -0.2064 -1.1046 -0.0251
  345TMC3    C4 5171   0.168   0.603  10.506 -0.4271 -0.2464 -0.4390
  345TMC3    C5 5172   0.223   0.706  10.430  0.1404 -0.5889  0.1334
  345TMC3    C6 5173   0.352   0.734  10.416  0.1582  1.0566  0.5941
  345TMC3     C 5174   0.242   0.429  10.667  0.1436 -0.1373 -0.0604
  345TMC3     O 5175   0.288   0.317  10.654  0.4154 -0.0145 -0.1376
  345TMC3     H 5176   0.471   0.479  10.602 -0.7147  2.0946  1.7156
  345TMC3    H1 5177   0.062   0.590  10.527 -0.3981  1.7187  0.8976
  345TMC3    H2 5178   0.393   0.806  10.346 -0.4857  0.0676 -0.8075
  345TMC3    C7 5179   0.137   0.803  10.374 -0.1159  0.6565  0.9831
  345TMC3    C8 5180   0.573   0.697  10.493 -0.5731  0.0182 -0.0218
  345TMC3    O1 5181   0.184   0.911  10.359  0.1787 -0.8181  0.0609
  345TMC3    O2 5182   0.649   0.619  10.554 -0.2576  0.3086 -0.0419
  346MPD2     C 5183   0.553   1.649  14.229  0.5265  0.6522  0.0656
  346MPD2    C1 5184   0.594   1.766  14.174 -0.1353 -0.0607 -0.2441
  346MPD2    C2 5185   0.567   1.887  14.242 -0.0199  0.2564 -0.2498
  346MPD2    C3 5186   0.483   1.893  14.353  0.9212 -0.7578  0.2391
  346MPD2    C4 5187   0.445   1.769  14.409  0.0478  0.6325  0.4487
  346MPD2    C5 5188   0.482   1.649  14.346  0.2383  0.1718 -0.8045
  346MPD2     H 5189   0.584   1.984  14.195 -0.5681  0.2724 -0.4153
  346MPD2    H1 5190   0.395   1.766  14.504  1.2325 -0.7492  1.0393
  346MPD2    H2 5191   0.570   1.552  14.184 -1.2412  0.0675  0.6643
  346MPD2    H3 5192   0.466   1.552  14.393  2.2531  0.2379 -0.0008
  346MPD2     N 5193   0.449   2.020  14.415  0.4423 -0.0744 -0.4779
  346MPD2    H5 5194   0.485   2.107  14.378 -1.9940  0.8796 -0.6553
  346MPD2    N1 5195   0.662   1.773  14.050  0.8329  0.1724 -0.2944
  346MPD2    H7 5196   0.680   1.865  14.010 -0.6407  0.1673 -0.9780
  347TMC3    C1 5197   0.409   2.159  14.608  0.1549  0.0397  0.4005
  347TMC3    C2 5198   0.533   2.226  14.584 -0.3984 -0.4481  0.4455
  347TMC3    C3 5199   0.571   2.329  14.672 -1.0328 -0.4596  0.5326
  347TMC3    C4 5200   0.347   2.173  14.728 -0.1331 -0.3158 -0.5525
  347TMC3    C5 5201   0.398   2.262  14.818 -0.2780  0.0774 -0.1831
  347TMC3    C6 5202   0.507   2.342  14.792  0.0617  0.1718 -0.4745
  347TMC3     C 5203   0.375   2.037  14.531 -0.3714  0.5661 -0.2893
  347TMC3     O 5204   0.297   1.969  14.593  0.0554 -0.4746 -0.7112
  347TMC3     H 5205   0.584   2.220  14.489 -0.1107  1.2329  0.5072
  347TMC3    H1 5206   0.251   2.125  14.746 -1.3753  3.0051  1.7794
  347TMC3    H2 5207   0.550   2.416  14.858 -2.2795  1.7031 -0.6682
  347TMC3    C7 5208   0.378   2.235  14.962  0.3420  0.8377 -0.7802
  347TMC3    C8 5209   0.714   2.314  14.694 -0.3899  0.2376 -0.3354
  347TMC3    O1 5210   0.450   2.292  15.045  0.5133  0.0202 -0.0084
  347TMC3    O2 5211   0.751   2.228  14.770  0.2898 -0.6331 -0.1658
  348MPD2     C 5212   3.472   1.514  12.417 -0.2449  0.1508  0.0142
  348MPD2    C1 5213   3.553   1.612  12.373 -0.1484  0.0325 -0.5823
  348MPD2    C2 5214   3.518   1.678  12.253 -0.0469  0.2616 -0.0275
  348MPD2    C3 5215   3.398   1.664  12.191  0.1203  0.0126 -0.6090
  348MPD2    C4 5216   3.321   1.558  12.231  0.3924 -0.3630  0.2587
  348MPD2    C5 5217   3.358   1.481  12.340  0.0881 -0.3973 -0.4624
  348MPD2     H 5218   3.589   1.747  12.209 -0.6068  0.3925 -0.7202
  348MPD2    H1 5219   3.230   1.538  12.175  0.4850 -0.9328  0.3118
  348MPD2    H2 5220   3.508   1.437  12.483 -0.5373  0.6757  0.7815
  348MPD2    H3 5221   3.317   1.381  12.353  1.7156 -0.9632  0.3170
  348MPD2     N 5222   3.365   1.763  12.094  0.0192  0.0771  0.2945
  348MPD2    H5 5223   3.430   1.840  12.080  1.6386 -1.4742 -0.8221
  348MPD2    N1 5224   3.678   1.640  12.431  0.0397  0.4137 -0.7001
  348MPD2    H7 5225   3.732   1.714  12.387  0.5860  0.6121  0.3113
  349TMC3    C1 5226   3.876   1.617  12.547  0.4222 -0.0092  0.1461
  349TMC3    C2 5227   3.934   1.500  12.589  0.2520 -0.0272 -0.2377
  349TMC3    C3 5228   4.041   1.452  12.519  0.8691 -0.0113  0.1064
  349TMC3    C4 5229   3.918   1.675  12.435 -0.5311  0.0863  0.2302
  349TMC3    C5 5230   4.008   1.613  12.353  0.4711 -0.7020  0.1159
  349TMC3    C6 5231   4.075   1.503  12.399 -0.0102  0.7915  0.0255
  349TMC3     C 5232   3.730   1.595  12.553 -0.0813  0.3743  0.4111
  349TMC3     O 5233   3.671   1.522  12.635  0.1319 -0.2021 -0.6988
  349TMC3     H 5234   3.900   1.440  12.672  1.3108  1.2014  1.1034
  349TMC3    H1 5235   3.882   1.772  12.401  0.2361  0.8651  1.6475
  349TMC3    H2 5236   4.134   1.443  12.331  0.5872 -0.0046  1.2435
  349TMC3    C7 5237   3.954   1.601  12.219 -0.1089 -0.0373  0.2525
  349TMC3    C8 5238   4.092   1.326  12.568  0.2615  0.3516 -0.0653
  349TMC3    O1 5239   3.945   1.487  12.166 -0.0001 -0.5688  0.0101
  349TMC3    O2 5240   4.016   1.234  12.589 -0.2925 -0.5645  0.1948
  350MPD2     C 5241   2.912   4.302  10.049  0.3687 -0.9094  0.4437
  350MPD2    C1 5242   2.967   4.179  10.057  0.5867  0.3117  0.4743
  350MPD2    C2 5243   3.104   4.173  10.065  0.2079  0.0737  0.0508
  350MPD2    C3 5244   3.187   4.284  10.068 -0.6363  0.7361 -0.5763
  350MPD2    C4 5245   3.124   4.410  10.061 -0.1000 -0.1472  0.5695
  350MPD2    C5 5246   2.992   4.411  10.058 -0.0799  0.1827  0.1010
  350MPD2     H 5247   3.147   4.073  10.068 -0.6148 -0.3360 -1.6471
  350MPD2    H1 5248   3.173   4.506  10.069  0.1824 -0.4047  1.9732
  350MPD2    H2 5249   2.803   4.304  10.051  0.4001  0.8115  0.5335
  350MPD2    H3 5250   2.944   4.507  10.070  0.0352  0.8823 -5.0003
  350MPD2     N 5251   3.326   4.260  10.078 -0.4121  0.1744 -0.0923
  350MPD2    H5 5252   3.363   4.166  10.085 -0.7341 -0.0669 -1.7811
  350MPD2    N1 5253   2.894   4.059  10.041 -0.3827  0.2852 -0.0031
  350MPD2    H7 5254   2.953   3.977  10.034 -0.1938  0.1753  2.9635
  351TMC3    C1 5255   2.716   3.916   9.993 -0.3401  0.1788  0.6065
  351TMC3    C2 5256   2.804   3.826   9.937  0.2367  0.4070 -0.2303
  351TMC3    C3 5257   2.757   3.704   9.900  0.2096  0.5344 -0.4996
  351TMC3    C4 5258   2.576   3.888  10.005 -0.7263 -0.0209  0.2663
  351TMC3    C5 5259   2.535   3.759   9.973  0.3649 -0.1518 -0.2597
  351TMC3    C6 5260   2.627   3.671   9.927  0.3321 -0.3326 -0.1549
  351TMC3     C 5261   2.760   4.048  10.031 -0.0339 -0.0158 -1.1205
  351TMC3     O 5262   2.669   4.124  10.062  0.5319 -0.2417 -0.0108
  351TMC3     H 5263   2.906   3.855   9.914 -0.5484  1.3963 -2.4979
  351TMC3    H1 5264   2.509   3.950  10.063  0.9812  0.6090  1.5711
  351TMC3    H2 5265   2.604   3.566   9.931 -1.0315 -0.0204  0.2923
  351TMC3    C7 5266   2.411   3.716  10.038  0.1144 -0.7416  0.5574
  351TMC3    C8 5267   2.851   3.599   9.853  0.2137  0.2624 -0.1502
  351TMC3    O1 5268   2.340   3.793  10.094  0.2937  0.0922 -0.6806
  351TMC3    O2 5269   2.793   3.509   9.795 -0.1533  0.0127  0.0180
  352MPD2     C 5270   0.961   1.244   1.413 -0.4286 -0.3555  0.8086
  352MPD2    C1 5271   1.089   1.275   1.367  0.1555 -0.7284 -0.4714
  352MPD2    C2 5272   1.176   1.170   1.349  0.6097 -0.5359  0.0630
  352MPD2    C3 5273   1.141   1.044   1.392  0.5707  0.3336  0.1122
  352MPD2    C4 5274   1.016   1.024   1.454  0.2920  0.0103  0.0432
  352MPD2    C5 5275   0.919   1.122   1.453 -0.5026 -0.5103 -0.5875
  352MPD2     H 5276   1.272   1.178   1.300 -0.0293  0.3038 -1.0460
  352MPD2    H1 5277   0.981   0.928   1.489  1.0790 -0.3890 -0.2661
  352MPD2    H2 5278   0.894   1.329   1.427 -0.0689  0.0318  0.1809
  352MPD2    H3 5279   0.829   1.108   1.511  0.0795 -0.7511  0.2608
  352MPD2     N 5280   1.227   0.924   1.378  0.3984  0.0659 -0.4703
  352MPD2    H5 5281   1.183   0.843   1.421  1.2609  0.9365  2.0430
  352MPD2    N1 5282   1.110   1.411   1.342  0.5369 -0.1389  0.2341
  352MPD2    H7 5283   1.029   1.470   1.358  2.1918  1.3960  3.0189
  353TMC3    C1 5284   1.419   0.804   1.388  0.1281  0.8409 -0.0082
  353TMC3    C2 5285   1.542   0.793   1.441 -0.0801  0.5934 -0.4925
  353TMC3    C3 5286   1.596   0.671   1.446 -0.1508  0.9110  0.3068
  353TMC3    C4 5287   1.344   0.696   1.345 -0.0222  0.0753 -0.3115
  353TMC3    C5 5288   1.408   0.573   1.341  0.0572 -0.4278 -0.1309
  353TMC3    C6 5289   1.537   0.562   1.390 -0.5532  0.1149 -0.6732
  353TMC3     C 5290   1.358   0.930   1.370 -0.1281  0.2747 -0.4814
  353TMC3     O 5291   1.430   1.032   1.358 -0.2512  0.3922 -0.3455
  353TMC3     H 5292   1.598   0.881   1.472  2.0266 -1.3345  1.1488
  353TMC3    H1 5293   1.251   0.704   1.290 -0.0121  0.3681 -0.2847
  353TMC3    H2 5294   1.587   0.466   1.392 -1.8029 -0.5428 -0.9482
  353TMC3    C7 5295   1.383   0.482   1.225 -0.0004 -0.2923 -0.1703
  353TMC3    C8 5296   1.708   0.646   1.537 -0.1494  0.4384  0.3157
  353TMC3    O1 5297   1.487   0.453   1.166  0.5279  0.0145  0.0402
  353TMC3    O2 5298   1.684   0.649   1.653 -0.2126  0.1974  0.2099
  354TMC3    C1 5299   2.927   2.554  13.681 -0.4036  0.2478 -0.3512
  354TMC3    C2 5300   2.884   2.671  13.635 -0.5342 -0.2524 -0.3124
  354TMC3    C3 5301   2.916   2.701  13.502  0.5576  0.5281 -0.3361
  354TMC3    C4 5302   3.007   2.476  13.611 -0.5335 -0.0371  0.6221
  354TMC3    C5 5303   3.023   2.501  13.483 -0.6396 -0.8776 -0.3030
  354TMC3    C6 5304   2.980   2.610  13.422  0.3219  0.6689  0.5663
  354TMC3     C 5305   2.870   2.514  13.806  0.0750 -0.1871  0.3944
  354TMC3     O 5306   2.768   2.569  13.846 -0.2848 -0.0362  0.9232
  354TMC3     H 5307   2.826   2.742  13.694  3.0899  0.2128  2.6686
  354TMC3    H1 5308   3.039   2.377  13.642 -1.0911 -0.1898  0.7185
  354TMC3    H2 5309   2.976   2.624  13.315 -0.4362  1.2003  0.6655
  354TMC3    C7 5310   3.127   2.428  13.409 -0.0272  0.9837  0.0306
  354TMC3    C8 5311   2.956   2.833  13.466  0.0450  1.0076  0.2832
  354TMC3    O1 5312   3.156   2.314  13.456 -0.0184 -0.3477  0.7134
  354TMC3    O2 5313   3.041   2.840  13.378 -0.4629  0.4468  0.1338
  355MPD2     C 5314   3.242   3.381  11.765  0.2233 -0.1783 -0.3217
  355MPD2    C1 5315   3.370   3.353  11.763 -0.3652 -0.0496 -0.1159
  355MPD2    C2 5316   3.430   3.317  11.884  0.1726 -0.5593  0.0051
  355MPD2    C3 5317   3.361   3.315  12.004  0.1392 -0.6369 -0.6293
  355MPD2    C4 5318   3.232   3.347  12.004  0.3510  1.1696  0.4520
  355MPD2    C5 5319   3.172   3.371  11.883 -0.1876 -0.1147  0.0915
  355MPD2     H 5320   3.537   3.301  11.872  0.0394 -2.1736  0.9956
  355MPD2    H1 5321   3.175   3.343  12.096  0.8928  0.0632  0.7378
  355MPD2    H2 5322   3.185   3.413  11.678 -0.0204 -0.3077 -0.2082
  355MPD2    H3 5323   3.067   3.394  11.877 -0.2276 -0.5568 -0.8744
  355MPD2     N 5324   3.421   3.285  12.130 -0.0609  0.3691 -0.1694
  355MPD2    H5 5325   3.388   3.321  12.219  3.0391  0.9905  0.7476
  355MPD2    N1 5326   3.447   3.362  11.645  0.5312  0.0046  0.0347
  355MPD2    H7 5327   3.546   3.339  11.648  0.7229  0.6174 -1.6970
  356TMC3    C1 5328   3.631   3.313  12.208 -0.1626  0.3126  0.8129
  356TMC3    C2 5329   3.732   3.359  12.126 -0.9796  0.0490 -0.1999
  356TMC3    C3 5330   3.779   3.489  12.144  0.2040  0.5940  0.2802
  356TMC3    C4 5331   3.579   3.390  12.303  0.0243  0.0634 -0.1773
  356TMC3    C5 5332   3.635   3.510  12.324 -1.2487  0.0957  0.6624
  356TMC3    C6 5333   3.731   3.564  12.241 -0.4897 -0.2682  0.3519
  356TMC3     C 5334   3.545   3.222  12.138 -0.0737  1.1551  1.2969
  356TMC3     O 5335   3.600   3.152  12.056 -0.1495 -0.0223  0.0176
  356TMC3     H 5336   3.754   3.296  12.040 -1.8196  0.4458 -0.7095
  356TMC3    H1 5337   3.503   3.345  12.365 -0.3452  2.5654  1.1918
  356TMC3    H2 5338   3.782   3.654  12.273 -0.6529  0.6161 -1.8500
  356TMC3    C7 5339   3.576   3.581  12.439  0.1109 -0.1396  0.4551
  356TMC3    C8 5340   3.836   3.548  12.025  1.1081 -0.2551 -0.4790
  356TMC3    O1 5341   3.506   3.518  12.518 -0.7924 -0.5773  0.1839
  356TMC3    O2 5342   3.826   3.492  11.916 -0.1165  0.0205  0.0597
  357MPD2     C 5343   3.737   1.975   1.372 -0.3192  0.1329  0.5768
  357MPD2    C1 5344   3.833   2.014   1.457 -0.6073 -0.1015 -0.4888
  357MPD2    C2 5345   3.874   1.929   1.553 -0.3734  0.6566 -0.4597
  357MPD2    C3 5346   3.824   1.801   1.561 -0.0286  0.4884  0.3709
  357MPD2    C4 5347   3.744   1.763   1.460  0.4967  0.4604  0.6440
  357MPD2    C5 5348   3.690   1.848   1.368 -0.4891  0.2310  0.1905
  357MPD2     H 5349   3.965   1.956   1.605 -0.5519  1.0383 -0.3486
  357MPD2    H1 5350   3.709   1.661   1.462  1.6114  0.1602  4.8258
  357MPD2    H2 5351   3.697   2.043   1.298 -2.7865 -1.5959  0.3169
  357MPD2    H3 5352   3.629   1.817   1.283 -0.3556  1.5461 -0.3805
  357MPD2     N 5353   3.864   1.704   1.660  0.1642  0.2475 -0.3364
  357MPD2    H5 5354   3.835   1.610   1.636  1.5092 -0.4176  0.6320
  357MPD2    N1 5355   3.871   2.153   1.464  0.0566 -0.4798 -0.2148
  357MPD2    H7 5356   3.860   2.219   1.388  2.2561  0.4157  0.2458
  358TMC3    C1 5357   3.976   2.343   1.548  0.8079  0.9272  0.1387
  358TMC3    C2 5358   3.923   2.434   1.450 -0.1965 -0.1805  0.0456
  358TMC3    C3 5359   3.969   2.560   1.451 -1.1840  0.6271 -0.0118
  358TMC3    C4 5360   4.070   2.378   1.642 -0.2471  0.1719 -0.0948
  358TMC3    C5 5361   4.125   2.504   1.628  0.0856 -0.0092  0.1708
  358TMC3    C6 5362   4.087   2.593   1.528  0.1563  0.5953 -0.1726
  358TMC3     C 5363   3.922   2.212   1.571 -0.0511 -0.1898 -0.4876
  358TMC3     O 5364   3.929   2.169   1.686 -0.2226 -0.2175 -0.1764
  358TMC3     H 5365   3.838   2.402   1.390 -0.0565 -4.2846  2.0290
  358TMC3    H1 5366   4.099   2.305   1.717  0.3771  2.0400  1.4920
  358TMC3    H2 5367   4.129   2.693   1.527  1.1291  0.2240  3.1970
  358TMC3    C7 5368   4.254   2.512   1.700  1.1530 -0.5720  0.5192
  358TMC3    C8 5369   3.920   2.654   1.349  0.1670  0.3193 -0.4860
  358TMC3    O1 5370   4.282   2.420   1.776  0.3243 -0.3366  0.0223
  358TMC3    O2 5371   3.834   2.609   1.271  0.2136  0.0999 -0.3680
  359MPD2     C 5372   3.364   1.857  12.503 -0.3898 -0.3604  0.0442
  359MPD2    C1 5373   3.243   1.892  12.465  0.3402 -1.0136 -0.1998
  359MPD2    C2 5374   3.136   1.853  12.542 -0.8883 -0.3095  0.6207
  359MPD2    C3 5375   3.147   1.787  12.664 -0.2064  0.5014  0.6094
  359MPD2    C4 5376   3.275   1.746  12.702  0.0492 -0.1227 -0.7567
  359MPD2    C5 5377   3.381   1.776  12.619 -0.3452 -0.5854 -0.1744
  359MPD2     H 5378   3.035   1.884  12.517 -1.5402 -2.0238  1.1003
  359MPD2    H1 5379   3.290   1.697  12.797 -0.0827  3.1759  0.9409
  359MPD2    H2 5380   3.456   1.891  12.458 -1.2100  0.1632 -1.2406
  359MPD2    H3 5381   3.478   1.740  12.651  0.2150  0.2753 -0.9047
  359MPD2     N 5382   3.036   1.759  12.748 -0.1750  0.1053  0.3565
  359MPD2    H5 5383   3.055   1.707  12.833 -0.8182  0.0337  0.4534
  359MPD2    N1 5384   3.219   1.994  12.367 -0.4146 -0.2478 -0.6625
  359MPD2    H7 5385   3.123   2.024  12.354 -0.1101 -0.1734 -2.7008
  360TMC3    C1 5386   3.257   2.152  12.204 -0.4425  0.1080  0.3543
  360TMC3    C2 5387   3.327   2.270  12.208 -0.0503  0.2201 -0.1537
  360TMC3    C3 5388   3.271   2.382  12.158 -0.3785 -0.4082 -0.1682
  360TMC3    C4 5389   3.124   2.153  12.174  0.2342 -1.1623  0.4296
  360TMC3    C5 5390   3.065   2.274  12.134  0.1114 -0.2376 -0.4522
  360TMC3    C6 5391   3.140   2.392  12.139 -0.1548 -0.3021  0.1506
  360TMC3     C 5392   3.313   2.045  12.280  0.3290 -0.0833 -0.8037
  360TMC3     O 5393   3.433   2.023  12.264 -0.5219  0.5549 -0.3976
  360TMC3     H 5394   3.432   2.253  12.229 -0.4271 -1.1673  0.6506
  360TMC3    H1 5395   3.070   2.060  12.164 -0.0018 -0.7353 -2.1619
  360TMC3    H2 5396   3.107   2.490  12.109 -0.2505 -0.3772  0.0082
  360TMC3    C7 5397   2.957   2.264  12.037  0.7599  0.6889  0.3013
  360TMC3    C8 5398   3.359   2.490  12.112 -0.3851 -0.8312  0.1670
  360TMC3    O1 5399   2.945   2.163  11.970 -0.1008  0.4177  0.0522
  360TMC3    O2 5400   3.317   2.604  12.132  1.0856 -0.1361  0.2204
  361MPD2     C 5401   0.597   1.096  16.663 -0.5937  0.4006 -0.2218
  361MPD2    C1 5402   0.492   1.013  16.706  0.6653 -0.1207  0.0264
  361MPD2    C2 5403   0.510   0.937  16.826 -0.7217  0.1099  0.1562
  361MPD2    C3 5404   0.630   0.938  16.899  0.6740 -0.9101 -0.2640
  361MPD2    C4 5405   0.729   1.029  16.853 -0.7304 -0.2379 -0.6418
  361MPD2    C5 5406   0.712   1.097  16.736 -0.0074  0.4448 -0.5493
  361MPD2     H 5407   0.432   0.868  16.852 -1.4170  0.1068 -1.8982
  361MPD2    H1 5408   0.826   1.035  16.902 -0.4421 -1.2618 -1.0980
  361MPD2    H2 5409   0.593   1.154  16.572 -1.1926  0.6434 -0.0366
  361MPD2    H3 5410   0.794   1.162  16.708  2.2220 -1.8534  0.5899
  361MPD2     N 5411   0.644   0.853  17.011 -0.7267  0.5411 -0.4607
  361MPD2    H5 5412   0.580   0.774  17.007  1.6243 -1.4674  1.4835
  361MPD2    N1 5413   0.366   0.997  16.643  0.9752 -0.2495  0.1963
  361MPD2    H7 5414   0.299   0.936  16.690  0.4438 -2.1853 -3.0393
  362TMC3    C1 5415   0.187   1.020  16.490  0.3426 -0.6027 -0.0130
  362TMC3    C2 5416   0.118   0.919  16.554 -0.0060  0.7294  0.1358
  362TMC3    C3 5417   4.707   0.939  16.572 -0.2961  0.0133 -0.7166
  362TMC3    C4 5418   0.124   1.139  16.461  0.3936 -0.4258  0.2941
  362TMC3    C5 5419   4.714   1.155  16.487  0.0217 -0.1104  0.5153
  362TMC3    C6 5420   4.642   1.052  16.529  0.0337  0.4196  0.1059
  362TMC3     C 5421   0.330   1.039  16.515  0.0492 -0.1561  0.4120
  362TMC3     O 5422   0.393   1.125  16.453  0.6816  0.8942 -0.4294
  362TMC3     H 5423   0.164   0.821  16.568 -0.8383  0.0806 -1.5639
  362TMC3    H1 5424   0.188   1.226  16.454  0.6471 -0.8606 -3.1282
  362TMC3    H2 5425   4.534   1.059  16.538 -0.1576  2.0895 -3.4462
  362TMC3    C7 5426   4.668   1.279  16.532  0.0666 -0.3929  0.0666
  362TMC3    C8 5427   4.642   0.870  16.683 -0.4521 -0.2517  0.7715
  362TMC3    O1 5428   4.603   1.277  16.635  0.1280 -0.4372  0.2230
  362TMC3    O2 5429   4.655   0.751  16.697 -0.1179  0.0736  1.2446
  363TMC3    C1 5430   3.146   3.300   9.354 -0.0115 -0.9818 -0.2655
  363TMC3    C2 5431   3.255   3.273   9.439  0.4438 -0.4238  0.0112
  363TMC3    C3 5432   3.333   3.383   9.478  0.0418  1.1659 -0.3895
  363TMC3    C4 5433   3.107   3.433   9.326 -0.2519 -0.1191  0.1764
  363TMC3    C5 5434   3.173   3.532   9.387 -0.7045 -0.2989 -0.1112
  363TMC3    C6 5435   3.286   3.514   9.460 -0.1345  0.5651 -0.5688
  363TMC3     C 5436   3.056   3.190   9.315 -0.4265  0.3431  0.2958
  363TMC3     O 5437   2.945   3.219   9.278 -0.2869 -0.0165 -0.1764
  363TMC3     H 5438   3.275   3.168   9.459  2.5773 -0.5511 -2.7912
  363TMC3    H1 5439   3.032   3.439   9.249 -0.0221  0.2071 -0.0229
  363TMC3    H2 5440   3.341   3.600   9.496  0.2413  1.1520 -2.5595
  363TMC3    C7 5441   3.125   3.669   9.366 -0.1021 -0.0721 -0.2028
  363TMC3    C8 5442   3.427   3.367   9.590  0.4367 -0.6161 -0.0695
  363TMC3    O1 5443   3.014   3.678   9.313 -0.2442 -0.7040 -0.8483
  363TMC3    O2 5444   3.454   3.469   9.649  0.0571  0.3256  0.4353
  364MPD2     C 5445   2.122   3.922  10.922  0.4949  0.4026  0.4018
  364MPD2    C1 5446   2.187   3.843  10.829 -0.2614  0.6524 -0.2799
  364MPD2    C2 5447   2.207   3.709  10.862  0.2106  0.2870  0.0279
  364MPD2    C3 5448   2.157   3.648  10.977 -0.3170 -0.4539  0.3464
  364MPD2    C4 5449   2.085   3.724  11.068 -0.6414 -0.5644  0.4145
  364MPD2    C5 5450   2.070   3.858  11.035 -0.1868 -0.0475  0.0529
  364MPD2     H 5451   2.255   3.642  10.791  0.1150  0.2718 -0.0214
  364MPD2    H1 5452   2.031   3.687  11.155 -0.8778  0.3664  0.6634
  364MPD2    H2 5453   2.114   4.030  10.917 -0.7822  0.1903 -2.4437
  364MPD2    H3 5454   2.018   3.922  11.105  0.4398 -0.4752  0.9082
  364MPD2     N 5455   2.165   3.508  11.005  0.1598  0.3752 -0.1505
  364MPD2    H5 5456   2.116   3.486  11.091 -1.3881  0.5771 -0.9694
  364MPD2    N1 5457   2.263   3.912  10.732  0.2252  0.1140 -0.0133
  364MPD2    H7 5458   2.275   4.012  10.740 -2.2251  0.4313 -0.2839
  365TMC3    C1 5459   2.413   3.935  10.546 -0.0201 -0.1587 -0.0519
  365TMC3    C2 5460   2.454   3.903  10.422  0.6171 -0.2137  0.4089
  365TMC3    C3 5461   2.580   3.940  10.373 -0.4250 -0.5002 -0.3823
  365TMC3    C4 5462   2.489   4.022  10.613 -0.0195 -0.0390  1.0235
  365TMC3    C5 5463   2.609   4.067  10.563 -0.3678  0.1002 -0.4136
  365TMC3    C6 5464   2.658   4.026  10.446 -0.0674  0.3934 -0.1342
  365TMC3     C 5465   2.317   3.851  10.621 -0.1274  0.5365  0.8003
  365TMC3     O 5466   2.299   3.738  10.575 -0.2789  0.2849  0.1753
  365TMC3     H 5467   2.394   3.830  10.368 -0.8966  1.2935  0.0256
  365TMC3    H1 5468   2.469   4.032  10.719  1.8639  0.3895  1.3295
  365TMC3    H2 5469   2.760   4.037  10.410  0.3814 -0.9407  0.7173
  365TMC3    C7 5470   2.699   4.160  10.638  0.0228 -0.0699  0.2781
  365TMC3    C8 5471   2.653   3.826  10.321 -0.5572 -0.1780  0.1757
  365TMC3    O1 5472   2.816   4.159  10.607  0.5419  0.0441  0.3573
  365TMC3    O2 5473   2.757   3.833  10.264 -0.1488  0.1132 -0.4408
  366MPD2     C 5474   0.331   4.080  15.631  0.3029 -0.6984 -0.3004
  366MPD2    C1 5475   0.409   4.168  15.554  0.3787  0.0575  0.8523
  366MPD2    C2 5476   0.508   4.111  15.470 -0.3511 -0.1145  0.1638
  366MPD2    C3 5477   0.517   3.976  15.447 -0.4113  0.1454  0.3340
  366MPD2    C4 5478   0.443   3.892  15.523 -0.1715 -0.2051 -0.5349
  366MPD2    C5 5479   0.348   3.945  15.613 -0.5265 -0.4131 -0.2214
  366MPD2     H 5480   0.573   4.184  15.423 -0.3511 -0.3113 -0.1424
  366MPD2    H1 5481   0.457   3.785  15.508  0.3360 -0.3723  1.1530
  366MPD2    H2 5482   0.246   4.114  15.688  0.4226 -1.9323  0.6033
  366MPD2    H3 5483   0.277   3.880  15.663  0.7046 -0.8153  0.9909
  366MPD2     N 5484   0.604   3.918  15.355  0.2206 -0.1153  0.0091
  366MPD2    H5 5485   0.610   3.816  15.356  0.2590 -0.1073  0.8210
  366MPD2    N1 5486   0.403   4.305  15.576  0.3469  0.1135 -0.1927
  366MPD2    H7 5487   0.479   4.358  15.536 -0.7863  1.8379 -0.0601
  367TMC3    C1 5488   0.309   4.512  15.609 -0.2960 -0.3870 -0.7123
  367TMC3    C2 5489   0.430   4.560  15.654  0.4123 -0.2922  0.1863
  367TMC3    C3 5490   0.456   4.694  15.643  0.3459 -0.3266  0.3563
  367TMC3    C4 5491   0.219   4.597  15.562  0.5586  0.5846  0.2654
  367TMC3    C5 5492   0.254   0.006  15.534  0.0708 -0.4357  0.6637
  367TMC3    C6 5493   0.382   0.049  15.564  0.1882 -0.2370 -0.2098
  367TMC3     C 5494   0.287   4.369  15.614  0.1438  0.4762  0.2843
  367TMC3     O 5495   0.168   4.332  15.616 -0.1103  0.5056  0.0755
  367TMC3     H 5496   0.505   4.494  15.697 -0.1197 -1.1377 -0.1706
  367TMC3    H1 5497   0.116   4.569  15.577 -0.1340  3.0314  0.0772
  367TMC3    H2 5498   0.406   0.153  15.548  1.6774 -0.1138  2.8417
  367TMC3    C7 5499   0.167   0.086  15.452 -0.2284  0.0130  0.1199
  367TMC3    C8 5500   0.582   0.021  15.697 -0.7598 -0.0846 -0.5616
  367TMC3    O1 5501   0.186   0.203  15.434  0.0078  0.0176  0.3693
  367TMC3    O2 5502   0.608   0.003  15.816  0.5849 -0.2229  0.1826
  368MPD2     C 5503   1.716   0.837  13.450  0.3242  0.0390  0.2466
  368MPD2    C1 5504   1.716   0.911  13.333  0.3845  0.2744  0.7136
  368MPD2    C2 5505   1.831   0.903  13.251 -0.3697  0.4208 -0.4742
  368MPD2    C3 5506   1.945   0.831  13.287 -0.6558 -0.3710  0.1241
  368MPD2    C4 5507   1.945   0.768  13.410 -0.0690  0.2585 -0.0613
  368MPD2    C5 5508   1.829   0.766  13.481 -0.4698  0.1098  0.3855
  368MPD2     H 5509   1.837   0.966  13.163  2.5721  0.3211 -0.3352
  368MPD2    H1 5510   2.030   0.714  13.450 -1.8963 -1.8506  1.0014
  368MPD2    H2 5511   1.635   0.832  13.522 -0.7065 -0.0766 -0.9146
  368MPD2    H3 5512   1.836   0.719  13.579 -1.6863 -1.7537 -0.4286
  368MPD2     N 5513   2.056   0.816  13.199 -0.8094 -0.3174 -0.2064
  368MPD2    H5 5514   2.146   0.785  13.234 -1.0485 -0.2536  0.4669
  368MPD2    N1 5515   1.596   0.982  13.298  0.2765  0.5489 -0.0166
  368MPD2    H7 5516   1.523   0.996  13.367 -0.4932  0.3530 -0.7883
  369TMC3    C1 5517   1.480   1.167  13.200 -0.0092 -0.3731  0.5991
  369TMC3    C2 5518   1.518   1.274  13.128 -0.7869  0.2033  0.1964
  369TMC3    C3 5519   1.446   1.392  13.158  0.1041 -0.2593  1.2318
  369TMC3    C4 5520   1.376   1.169  13.288  0.2166 -0.0369 -0.2606
  369TMC3    C5 5521   1.310   1.286  13.310  0.6241 -0.5703 -0.2066
  369TMC3    C6 5522   1.349   1.404  13.256  0.3246 -0.7135  0.2004
  369TMC3     C 5523   1.577   1.056  13.183 -0.1318 -0.1202  0.0391
  369TMC3     O 5524   1.643   1.041  13.082 -0.6322 -0.0634 -0.0417
  369TMC3     H 5525   1.604   1.275  13.062  0.0946  1.1254  1.3567
  369TMC3    H1 5526   1.359   1.080  13.346  0.8918  0.8609  1.3102
  369TMC3    H2 5527   1.293   1.495  13.277  0.2025 -0.7273 -0.0648
  369TMC3    C7 5528   1.203   1.279  13.405 -0.3004  0.0619  0.4437
  369TMC3    C8 5529   1.455   1.502  13.066  0.1379 -1.0027  0.3611
  369TMC3    O1 5530   1.213   1.194  13.491 -0.5648 -0.4521 -0.4646
  369TMC3    O2 5531   1.411   1.613  13.099 -0.3124  0.0798 -0.3159
  370TMC3    C1 5532   1.371   2.051  16.444 -0.7458 -0.4392  0.2722
  370TMC3    C2 5533   1.358   1.952  16.541  0.1433 -0.6393 -0.2407
  370TMC3    C3 5534   1.327   1.830  16.495 -0.7285  0.4359  0.3219
  370TMC3    C4 5535   1.356   2.026  16.309  0.2285 -0.4415 -0.1229
  370TMC3    C5 5536   1.342   1.895  16.274 -0.5226 -0.1800  0.6013
  370TMC3    C6 5537   1.331   1.793  16.365 -0.6676 -0.0708 -0.4456
  370TMC3     C 5538   1.369   2.183  16.497 -0.3095  0.0637 -0.0641
  370TMC3     O 5539   1.321   2.189  16.613 -0.2187 -0.2326  0.0888
  370TMC3     H 5540   1.357   1.978  16.646 -1.7296 -0.4316 -0.3222
  370TMC3    H1 5541   1.378   2.105  16.239  2.1782  0.3542  1.3765
  370TMC3    H2 5542   1.296   1.693  16.339  0.2208 -0.6339  0.5253
  370TMC3    C7 5543   1.391   1.874  16.138  0.2850  0.2478 -0.8170
  370TMC3    C8 5544   1.307   1.732  16.602 -0.9429  0.4998  0.3069
  370TMC3    O1 5545   1.418   1.963  16.058 -0.3524  0.4872  0.2029
  370TMC3    O2 5546   1.320   1.612  16.565  0.6034 -0.0354 -0.2408
  371TMC3    C1 5547   2.518   0.156  15.633  0.5007  0.1306 -0.1417
  371TMC3    C2 5548   2.387   0.156  15.666  0.4545 -0.8366 -0.2571
  371TMC3    C3 5549   2.319   0.267  15.663 -0.0985  0.0507 -0.3699
  371TMC3    C4 5550   2.571   0.264  15.579  0.0863 -0.0796 -0.0696
  371TMC3    C5 5551   2.501   0.382  15.584 -0.7895  0.8871 -0.7486
  371TMC3    C6 5552   2.373   0.387  15.630 -0.3348 -0.4104  0.3182
  371TMC3     C 5553   2.610   0.051  15.671 -0.2790  0.0918  0.0365
  371TMC3     O 5554   2.727   0.062  15.638 -0.4397  0.7202  0.2238
  371TMC3     H 5555   2.337   0.062  15.688  1.2391 -0.8266  1.6583
  371TMC3    H1 5556   2.678   0.266  15.559  0.3853  0.9793  1.6376
  371TMC3    H2 5557   2.317   0.479  15.621 -1.4142 -1.1328 -0.1837
  371TMC3    C7 5558   2.561   0.500  15.527 -0.5808 -0.5789  0.6323
  371TMC3    C8 5559   2.208   0.266  15.758  0.3079 -0.1103 -0.0549
  371TMC3    O1 5560   2.515   0.608  15.562 -0.0864 -0.8303  0.0418
  371TMC3    O2 5561   2.181   0.163  15.815 -0.1044 -0.0629  0.2825
  372MPD2     C 5562   2.241   1.447  13.160  0.0200  0.0665 -0.0492
  372MPD2    C1 5563   2.222   1.489  13.292 -0.0233 -0.3707  0.0946
  372MPD2    C2 5564   2.219   1.398  13.391 -0.5463 -0.2308  0.2763
  372MPD2    C3 5565   2.228   1.265  13.366  0.2504 -0.1490  0.2556
  372MPD2    C4 5566   2.240   1.221  13.233 -0.1221  0.2378 -0.1225
  372MPD2    C5 5567   2.253   1.312  13.129  0.0115 -0.7648  0.4237
  372MPD2     H 5568   2.215   1.434  13.493 -1.5978 -4.1862  1.6182
  372MPD2    H1 5569   2.244   1.116  13.205 -2.1201  0.7571 -2.3726
  372MPD2    H2 5570   2.253   1.509  13.072 -0.5120  0.7369  0.3547
  372MPD2    H3 5571   2.257   1.284  13.025 -1.0473  1.2956 -0.1811
  372MPD2     N 5572   2.226   1.172  13.476 -0.4844 -0.5236 -0.4549
  372MPD2    H5 5573   2.214   1.208  13.570 -0.6585 -1.7138 -0.0196
  372MPD2    N1 5574   2.219   1.624  13.331  0.0284 -0.1622 -0.0707
  372MPD2    H7 5575   2.204   1.639  13.430  0.3979 -0.7979  0.0766
  373TMC3    C1 5576   2.182   0.960  13.581  0.0777  0.0724 -0.1054
  373TMC3    C2 5577   2.088   1.029  13.661 -0.2196  0.1511 -0.5278
  373TMC3    C3 5578   2.052   0.965  13.778 -0.2568  0.2605  1.1105
  373TMC3    C4 5579   2.249   0.849  13.622 -0.1225  0.2578  0.1892
  373TMC3    C5 5580   2.208   0.790  13.741  0.5641 -0.4411  0.0213
  373TMC3    C6 5581   2.109   0.847  13.819 -0.2715 -0.4165 -0.3051
  373TMC3     C 5582   2.238   1.033  13.468 -0.0063 -0.1283 -0.2042
  373TMC3     O 5583   2.280   0.956  13.379  0.6947  0.3795  0.5403
  373TMC3     H 5584   2.054   1.128  13.635  1.0725  1.0155  1.0838
  373TMC3    H1 5585   2.330   0.815  13.560  1.1499  0.9276  1.4957
  373TMC3    H2 5586   2.075   0.792  13.906  0.4600 -2.7785 -1.4956
  373TMC3    C7 5587   2.290   0.684  13.797  0.4006 -0.4941 -0.2512
  373TMC3    C8 5588   2.009   1.046  13.888 -0.9042 -0.2159  0.7543
  373TMC3    O1 5589   2.359   0.624  13.712  0.5885 -0.3240  0.3720
  373TMC3    O2 5590   2.048   1.019  14.001 -0.2740  0.4994  0.2884
  374TMC3    C1 5591   2.384   0.690  10.818  0.1334  0.4431 -0.0026
  374TMC3    C2 5592   2.491   0.758  10.754 -0.8488  0.0532 -0.0054
  374TMC3    C3 5593   2.516   0.712  10.625  0.0148 -0.4854  1.0669
  374TMC3    C4 5594   2.336   0.566  10.774 -0.1183  0.2294  0.3316
  374TMC3    C5 5595   2.371   0.521  10.645  0.2736 -0.2343 -0.8279
  374TMC3    C6 5596   2.465   0.596  10.579 -1.0972  0.4560 -0.4774
  374TMC3     C 5597   2.346   0.733  10.946  0.0877 -0.6837  0.3973
  374TMC3     O 5598   2.248   0.680  10.991  0.2170  0.2199 -0.0504
  374TMC3     H 5599   2.533   0.848  10.799  1.1131 -1.0962  0.4851
  374TMC3    H1 5600   2.254   0.521  10.828  0.8043  0.2390  1.7297
  374TMC3    H2 5601   2.485   0.579  10.474 -0.4909  1.1057 -0.4706
  374TMC3    C7 5602   2.330   0.398  10.596 -0.0311  0.0116 -0.7886
  374TMC3    C8 5603   2.602   0.779  10.532 -0.5085 -0.1396  0.4226
  374TMC3    O1 5604   2.354   0.388  10.476  0.6153 -0.3986 -0.3970
  374TMC3    O2 5605   2.646   0.727  10.431  0.2222  0.2641 -0.0444
  375MPD2     C 5606   2.851   2.584   0.154  0.6701  0.5018  0.2806
  375MPD2    C1 5607   2.754   2.574   0.053 -0.0264  0.2366 -0.6411
  375MPD2    C2 5608   2.791   2.587  17.614 -0.3628 -0.3837 -0.8984
  375MPD2    C3 5609   2.925   2.621  17.571 -0.6729  0.2689  0.2843
  375MPD2    C4 5610   3.016   2.624  17.676  0.8700 -0.0336  0.5995
  375MPD2    C5 5611   2.981   2.605   0.118 -0.0278 -0.1642 -0.3955
  375MPD2     H 5612   2.713   2.570  17.541 -1.3326  0.8541 -0.1514
  375MPD2    H1 5613   3.121   2.645  17.656  0.8623  0.8474  1.4954
  375MPD2    H2 5614   2.831   2.554   0.256  1.6819 -1.1176 -0.0066
  375MPD2    H3 5615   3.060   2.588   0.189 -0.4072  1.4138  0.3980
  375MPD2     N 5616   2.968   2.637  17.434 -0.0997 -0.2234 -0.8146
  375MPD2    H5 5617   3.063   2.648  17.400  0.8452 -1.0991  1.5534
  375MPD2    N1 5618   2.622   2.528   0.077 -0.3178 -0.2032 -0.3879
  375MPD2    H7 5619   2.560   2.514  17.689  0.0481 -0.4649 -0.6275
  376TMC3    C1 5620   2.933   2.653  17.192  0.5478 -0.1451 -0.4384
  376TMC3    C2 5621   3.067   2.639  17.171 -0.0796 -0.6901  0.4678
  376TMC3    C3 5622   3.122   2.671  17.046  0.1178  0.1396  0.6794
  376TMC3    C4 5623   2.849   2.702  17.091 -0.0767 -0.1408 -1.0512
  376TMC3    C5 5624   2.904   2.728  16.971  0.7900  0.1153  0.1344
  376TMC3    C6 5625   3.038   2.711  16.943 -0.9790 -0.4229 -0.1257
  376TMC3     C 5626   2.879   2.643  17.329  0.0432 -0.3594  0.0025
  376TMC3     O 5627   2.757   2.654  17.330  0.1167 -0.3525  0.1743
  376TMC3     H 5628   3.134   2.585  17.237  0.8404  0.6419  0.6207
  376TMC3    H1 5629   2.746   2.725  17.117 -0.1321 -0.8712 -0.6411
  376TMC3    H2 5630   3.076   2.745  16.848 -0.8271 -0.5524 -0.1107
  376TMC3    C7 5631   2.822   2.777  16.857  0.4900  0.8978 -0.5837
  376TMC3    C8 5632   3.261   2.640  17.002  0.2219  0.2704  0.2784
  376TMC3    O1 5633   2.875   2.847  16.768  0.2546  0.1703 -0.6014
  376TMC3    O2 5634   3.281   2.602  16.890 -0.0192  1.0832 -0.7015
  377MPD2     C 5635   0.984   1.915  12.792  0.2527  0.2868 -0.6252
  377MPD2    C1 5636   0.881   1.979  12.721  0.0195  0.0944 -0.2388
  377MPD2    C2 5637   0.753   1.939  12.722 -1.2124  0.4815  0.2249
  377MPD2    C3 5638   0.716   1.817  12.779  0.1408  0.3619 -0.6174
  377MPD2    C4 5639   0.819   1.749  12.845 -0.4013  0.7344 -0.0337
  377MPD2    C5 5640   0.949   1.795  12.852 -0.1860 -0.8788 -0.6095
  377MPD2     H 5641   0.671   1.988  12.670 -1.0844  0.8046  0.3254
  377MPD2    H1 5642   0.787   1.661  12.899  1.2535  0.4048  0.4191
  377MPD2    H2 5643   1.089   1.939  12.795  0.5874 -1.4476  1.4229
  377MPD2    H3 5644   1.030   1.736  12.892 -0.1930  0.0784  0.8043
  377MPD2     N 5645   0.584   1.770  12.795  0.4119 -0.2926 -0.0346
  377MPD2    H5 5646   0.571   1.686  12.850 -1.7048  0.5613  0.7606
  377MPD2    N1 5647   0.926   2.090  12.644  0.2341  0.4124 -0.3247
  377MPD2    H7 5648   1.020   2.123  12.664 -0.5610  2.1676  0.4967
  378TMC3    C1 5649   0.933   2.341  12.244 -0.4722  0.2569  0.1295
  378TMC3    C2 5650   0.869   2.272  12.339 -0.0574  0.1866 -0.5259
  378TMC3    C3 5651   0.932   2.234  12.455 -0.5223  0.3361 -0.6183
  378TMC3    C4 5652   1.063   2.387  12.268  0.2162  0.2875 -0.3001
  378TMC3    C5 5653   1.125   2.348  12.387 -0.2259  0.5568  0.2842
  378TMC3    C6 5654   1.062   2.269  12.476 -0.4296  0.1415 -0.4631
  378TMC3     C 5655   0.849   2.411  12.148 -1.4313 -0.0949  0.0533
  378TMC3     O 5656   0.736   2.424  12.185 -0.2852 -0.7638  0.1473
  378TMC3     H 5657   0.768   2.239  12.320 -0.9164  0.1932  4.0816
  378TMC3    H1 5658   1.115   2.451  12.197  0.8499  0.0162 -0.0874
  378TMC3    H2 5659   1.120   2.251  12.566  1.1186  1.2272 -1.2480
  378TMC3    C7 5660   1.268   2.330  12.372 -0.7733  0.7600  1.0060
  378TMC3    C8 5661   0.853   2.151  12.547  0.5401 -0.6609 -0.1438
  378TMC3    O1 5662   1.312   2.237  12.439  0.0383  0.2435  0.3541
  378TMC3    O2 5663   0.746   2.113  12.505 -0.3478 -0.1923 -0.0396
  379MPD2     C 5664   1.221   4.041  16.446  0.0867  0.5755 -0.0675
  379MPD2    C1 5665   1.284   4.143  16.371  0.5025  0.8109  0.3195
  379MPD2    C2 5666   1.375   4.229  16.424 -0.4048 -1.0685 -0.3863
  379MPD2    C3 5667   1.415   4.209  16.554 -0.1275 -0.1798 -0.1621
  379MPD2    C4 5668   1.341   4.118  16.634  0.3613 -0.0099  0.3887
  379MPD2    C5 5669   1.252   4.037  16.574 -0.2812  0.9486 -0.3118
  379MPD2     H 5670   1.424   4.297  16.355 -0.3211  0.5586  1.2498
  379MPD2    H1 5671   1.362   4.103  16.739  0.7497  2.1688  0.6167
  379MPD2    H2 5672   1.140   3.980  16.408 -0.6223  0.3916  1.7338
  379MPD2    H3 5673   1.195   3.966  16.634 -0.0162 -0.2115 -1.4360
  379MPD2     N 5674   1.516   4.276  16.624 -0.4177 -0.0233  0.2590
  379MPD2    H5 5675   1.540   4.259  16.721  0.6463  1.8041  0.3235
  379MPD2    N1 5676   1.260   4.142  16.232  0.7139 -0.2449 -0.2059
  379MPD2    H7 5677   1.225   4.051  16.202  1.9920 -0.7790 -0.0551
  380TMC3    C1 5678   1.228   4.222  16.011 -0.2243  0.2922 -0.4701
  380TMC3    C2 5679   1.313   4.128  15.951  0.3562  0.1576  0.4722
  380TMC3    C3 5680   1.323   4.125  15.816 -0.1597 -0.9297  1.2030
  380TMC3    C4 5681   1.155   4.317  15.944  0.5446 -0.1865  0.1425
  380TMC3    C5 5682   1.149   4.304  15.807 -0.9334 -0.1844  0.1087
  380TMC3    C6 5683   1.235   4.209  15.745 -0.5660 -0.3338 -0.0439
  380TMC3     C 5684   1.261   4.248  16.150  0.2850  0.3480  0.1795
  380TMC3     O 5685   1.281   4.367  16.181  0.3251  0.0908  0.3169
  380TMC3     H 5686   1.371   4.071  16.021 -0.9789 -0.8749  0.7397
  380TMC3    H1 5687   1.101   4.400  15.989  2.3472  0.2354  1.5162
  380TMC3    H2 5688   1.230   4.197  15.637  1.7749  0.3826 -0.2284
  380TMC3    C7 5689   1.145   4.425  15.730  0.1112 -0.6131 -0.2093
  380TMC3    C8 5690   1.443   4.077  15.750 -0.3172  0.0557  0.1109
  380TMC3    O1 5691   1.218   4.433  15.631  0.3970  0.6323 -0.0552
  380TMC3    O2 5692   1.450   4.075  15.628 -0.4437 -0.4586  0.4951
  381TMC3    C1 5693   1.244   1.108  16.271  0.2086 -0.1241 -0.1318
  381TMC3    C2 5694   1.344   1.200  16.267 -0.1315  0.2328  0.0462
  381TMC3    C3 5695   1.370   1.285  16.367  0.4461 -0.0183 -0.5865
  381TMC3    C4 5696   1.179   1.100  16.391 -0.3680 -0.1648 -0.5460
  381TMC3    C5 5697   1.214   1.172  16.498 -0.8428  0.8839  0.1927
  381TMC3    C6 5698   1.319   1.263  16.489  0.2391  0.3671  0.0650
  381TMC3     C 5699   1.236   1.006  16.175  0.4053 -0.0713  0.0974
  381TMC3     O 5700   1.290   1.011  16.066 -0.0672  0.9615  0.1629
  381TMC3     H 5701   1.397   1.209  16.173 -0.6834 -0.0915 -0.2994
  381TMC3    H1 5702   1.092   1.036  16.402  0.3194 -0.6908  1.7760
  381TMC3    H2 5703   1.362   1.298  16.583 -0.5178  1.1076  0.1355
  381TMC3    C7 5704   1.198   1.105  16.622 -0.6689  0.1813 -0.1380
  381TMC3    C8 5705   1.507   1.341  16.352 -0.1253 -0.3554  0.0873
  381TMC3    O1 5706   1.234   0.987  16.624 -0.0216  0.3063  0.2091
  381TMC3    O2 5707   1.586   1.295  16.270 -0.0528  0.1582  0.2759
  382MPD2     C 5708   0.106   3.757  17.658  0.4004 -0.0721  0.3917
  382MPD2    C1 5709   0.233   3.721  17.683  0.2676 -0.5015  0.6890
  382MPD2    C2 5710   0.277   3.595   0.009 -0.3663 -0.1851 -0.1395
  382MPD2    C3 5711   0.189   3.491   0.004 -0.1211 -0.7464  0.3581
  382MPD2    C4 5712   0.062   3.525  17.651  0.5100  0.4576 -0.3120
  382MPD2    C5 5713   0.021   3.654  17.639 -0.3411  0.8765 -0.1708
  382MPD2     H 5714   0.383   3.578   0.016 -0.1210  0.7379 -1.6112
  382MPD2    H1 5715   4.704   3.452  17.646  0.7418  0.1187  0.7515
  382MPD2    H2 5716   0.075   3.860  17.671  1.9117  0.6385 -1.5763
  382MPD2    H3 5717   4.638   3.673  17.618 -0.9867  1.1840  3.3034
  382MPD2     N 5718   0.220   3.359   0.038 -0.0259  0.3188  0.0556
  382MPD2    H5 5719   0.153   3.287   0.013 -0.8390  1.1473 -0.1683
  382MPD2    N1 5720   0.335   3.817  17.685  0.0104 -0.4162  0.2479
  382MPD2    H7 5721   0.427   3.795   0.029  0.7485  0.4363 -1.1426
  383TMC3    C1 5722   0.357   3.165   0.107  0.1867  0.2634  0.3036
  383TMC3    C2 5723   0.300   3.084   0.012 -0.0876  0.1559  0.2848
  383TMC3    C3 5724   0.335   2.950   0.013  0.3265  0.6886  0.0470
  383TMC3    C4 5725   0.437   3.113   0.208 -0.2071 -0.2145 -0.4453
  383TMC3    C5 5726   0.442   2.974   0.228 -0.0868  0.1197  1.0329
  383TMC3    C6 5727   0.401   2.895   0.122  0.0937 -0.3357 -0.6004
  383TMC3     C 5728   0.338   3.312   0.090  0.0615 -0.3115  0.6540
  383TMC3     O 5729   0.415   3.388   0.157 -0.8464  0.7217  0.1152
  383TMC3     H 5730   0.244   3.125  17.620  0.2103 -0.4155 -0.1946
  383TMC3    H1 5731   0.476   3.184   0.280 -3.2934  0.2251  0.7606
  383TMC3    H2 5732   0.421   2.789   0.134  0.7344 -0.1243  0.2330
  383TMC3    C7 5733   0.541   2.912   0.323  0.5761  0.7254 -0.1865
  383TMC3    C8 5734   0.265   2.866  17.616 -0.0279 -0.1539 -0.1336
  383TMC3    O1 5735   0.534   2.793   0.355 -0.0895  0.3712 -0.2298
  383TMC3    O2 5736   0.171   2.909  17.555 -0.2178 -0.0475 -0.1492
  384MPD2     C 5737   1.737   0.435  11.814  0.5289 -0.3957  0.2525
  384MPD2    C1 5738   1.780   0.362  11.923  0.6751  0.0576  0.3212
  384MPD2    C2 5739   1.899   0.389  11.983  0.1994  0.1401 -0.5855
  384MPD2    C3 5740   1.991   0.478  11.931 -0.5506  0.4555  0.2981
  384MPD2    C4 5741   1.944   0.557  11.821 -0.2099 -0.4840  0.0919
  384MPD2    C5 5742   1.829   0.526  11.760  0.9497 -0.2313 -0.7429
  384MPD2     H 5743   1.925   0.346  12.079  2.7324  1.2384 -0.7789
  384MPD2    H1 5744   1.992   0.648  11.786  1.3043 -0.4859  2.1913
  384MPD2    H2 5745   1.636   0.441  11.777  1.7649  0.1068 -3.0798
  384MPD2    H3 5746   1.796   0.581  11.672 -0.6594 -1.7977 -1.0969
  384MPD2     N 5747   2.107   0.502  12.016  0.1120  0.0166  0.0620
  384MPD2    H5 5748   2.115   0.447  12.100  1.8754 -1.9543 -1.3789
  384MPD2    N1 5749   1.693   0.267  11.986 -0.0740  0.0283  0.0046
  384MPD2    H7 5750   1.735   0.217  12.063  0.4413  0.3225 -0.0807
  385TMC3    C1 5751   2.313   0.571  12.085 -0.1627  0.0812  0.5398
  385TMC3    C2 5752   2.417   0.533  12.011 -0.5999 -0.4709  0.0335
  385TMC3    C3 5753   2.469   0.414  12.044  0.0519 -0.5125 -0.2663
  385TMC3    C4 5754   2.280   0.509  12.204  0.0553  0.6799 -0.0709
  385TMC3    C5 5755   2.337   0.387  12.232  0.1728 -0.0934  0.4824
  385TMC3    C6 5756   2.440   0.349  12.159 -0.0379 -0.0351 -0.2191
  385TMC3     C 5757   2.206   0.592  11.991  0.4503 -0.1692 -0.0413
  385TMC3     O 5758   2.218   0.671  11.896 -0.3221 -0.2326  0.0809
  385TMC3     H 5759   2.444   0.581  11.917 -1.3872 -1.0046 -0.4609
  385TMC3    H1 5760   2.189   0.536  12.257 -2.0261  1.4067 -3.9665
  385TMC3    H2 5761   2.492   0.259  12.189 -1.0027 -0.5186 -0.0032
  385TMC3    C7 5762   2.245   0.288  12.259  1.1644  0.0534 -0.4916
  385TMC3    C8 5763   2.570   0.354  11.967  0.5829  0.4953 -0.1923
  385TMC3    O1 5764   2.127   0.320  12.265 -0.4919  0.5208 -0.8463
  385TMC3    O2 5765   2.591   0.237  11.993 -0.6292 -0.7979 -0.0311
  386TMC3    C1 5766   2.456   2.232  12.105 -0.2087  0.0273 -0.0893
  386TMC3    C2 5767   2.401   2.198  11.985  0.7250 -0.9915  0.4415
  386TMC3    C3 5768   2.267   2.228  11.960  0.9330 -0.7451 -0.1114
  386TMC3    C4 5769   2.387   2.309  12.199 -0.4180 -0.9156  0.0221
  386TMC3    C5 5770   2.260   2.346  12.163 -0.5003 -0.1362 -0.3011
  386TMC3    C6 5771   2.197   2.307  12.046  0.3556 -0.9000  0.4937
  386TMC3     C 5772   2.584   2.177  12.140  0.1514 -0.3013  0.2449
  386TMC3     O 5773   2.638   2.226  12.243  0.5969 -0.4267 -0.2989
  386TMC3     H 5774   2.461   2.149  11.909  2.9360  1.6901  0.4436
  386TMC3    H1 5775   2.442   2.347  12.284 -0.0820  0.3046 -0.7338
  386TMC3    H2 5776   2.095   2.330  12.018  0.6007 -1.9207 -1.2540
  386TMC3    C7 5777   2.177   2.399  12.269 -0.2380 -0.2421 -0.1203
  386TMC3    C8 5778   2.198   2.173  11.849 -0.0596  0.1197  0.2528
  386TMC3    O1 5779   2.058   2.426  12.246  0.0116 -0.1049  0.6272
  386TMC3    O2 5780   2.090   2.224  11.820 -0.2494 -0.3797 -0.2949
  387MPD2     C 5781   0.035   2.140   9.720 -0.3917  0.2225  0.5236
  387MPD2    C1 5782   0.131   2.085   9.789  0.0565  0.1057 -0.1074
  387MPD2    C2 5783   0.127   1.948   9.807  0.4316 -0.1640 -0.4176
  387MPD2    C3 5784   0.021   1.872   9.761  0.3807 -0.5119  0.2848
  387MPD2    C4 5785   4.638   1.935   9.702 -0.2003  0.3533 -0.5041
  387MPD2    C5 5786   4.644   2.073   9.694  0.0674 -0.2881 -0.5613
  387MPD2     H 5787   0.198   1.904   9.876 -1.0684 -0.7527  0.7524
  387MPD2    H1 5788   4.551   1.881   9.669 -1.6393  2.7552 -0.6688
  387MPD2    H2 5789   0.041   2.247   9.699 -0.7960  0.5672  2.1393
  387MPD2    H3 5790   4.560   2.119   9.643  0.2248 -0.0955 -0.6439
  387MPD2     N 5791   0.036   1.739   9.781 -0.0181  0.7021  0.8355
  387MPD2    H5 5792   0.116   1.706   9.833  1.4133  1.0448 -1.1690
  387MPD2    N1 5793   0.242   2.151   9.844 -0.4455  0.8397  0.4678
  387MPD2    H7 5794   0.296   2.098   9.911  0.5473 -0.5602 -1.4788
  388TMC3    C1 5795   0.442   2.259   9.820 -0.3298 -0.3717  0.3440
  388TMC3    C2 5796   0.510   2.378   9.829  0.4636 -0.1601 -0.6823
  388TMC3    C3 5797   0.645   2.372   9.847  0.1630  0.2545  0.1516
  388TMC3    C4 5798   0.505   2.135   9.827  0.2477 -0.2297  1.0356
  388TMC3    C5 5799   0.639   2.140   9.861 -0.0394  0.2272 -0.0647
  388TMC3    C6 5800   0.709   2.254   9.884 -0.1132 -0.5787  0.2182
  388TMC3     C 5801   0.296   2.265   9.800  0.3750 -0.3822 -0.2992
  388TMC3     O 5802   0.253   2.350   9.721  0.2222 -0.9668 -0.0465
  388TMC3     H 5803   0.463   2.476   9.821 -1.8209 -1.1120  1.0902
  388TMC3    H1 5804   0.463   2.057   9.763 -1.0103  0.8798  0.4962
  388TMC3    H2 5805   0.817   2.255   9.878 -0.0448  0.2575  1.5425
  388TMC3    C7 5806   0.697   2.014   9.848  0.2967  0.5482 -0.2100
  388TMC3    C8 5807   0.719   2.494   9.827 -0.1148 -0.4993 -0.4918
  388TMC3    O1 5808   0.806   2.006   9.799  0.9099 -0.0199 -0.1713
  388TMC3    O2 5809   0.833   2.487   9.863 -0.6810 -0.1385 -0.4099
  389MPD2     C 5810   3.992   0.370  11.314 -0.1990 -0.5217 -0.3537
  389MPD2    C1 5811   3.989   0.260  11.235 -0.2698  0.1964  0.6072
  389MPD2    C2 5812   4.009   0.131  11.281 -0.0039  0.2203 -0.0919
  389MPD2    C3 5813   4.022   0.118  11.424  0.8174 -0.5185  0.0574
  389MPD2    C4 5814   4.023   0.234  11.497 -0.2785 -0.0182 -0.0963
  389MPD2    C5 5815   4.029   0.360  11.441 -0.1304  0.3579 -0.5712
  389MPD2     H 5816   3.995   0.043  11.219  3.2040 -0.3763  0.0128
  389MPD2    H1 5817   4.029   0.220  11.604  1.3862  2.2651  0.1260
  389MPD2    H2 5818   3.986   0.468  11.270  1.6678  0.0124  0.5824
  389MPD2    H3 5819   4.038   0.450  11.501 -1.2980 -0.1012  0.2973
  389MPD2     N 5820   4.042   4.713  11.492  0.1372  0.3289  0.3083
  389MPD2    H5 5821   4.037   4.722  11.593  1.0427  0.5646  0.3320
  389MPD2    N1 5822   3.981   0.284  11.098  0.3506  0.1332 -0.6973
  389MPD2    H7 5823   3.959   0.379  11.070  0.9277  0.4358 -0.1079
  390TMC3    C1 5824   4.012   4.478  11.525 -0.0361 -0.4196  0.3692
  390TMC3    C2 5825   4.026   4.348  11.476 -0.5714  0.2213  0.9726
  390TMC3    C3 5826   3.996   4.239  11.558 -0.3342  0.3086 -0.0789
  390TMC3    C4 5827   3.978   4.509  11.656 -0.2301  1.0133 -0.0693
  390TMC3    C5 5828   3.938   4.397  11.722  0.4553  0.3590  0.3120
  390TMC3    C6 5829   3.961   4.269  11.687  0.3211 -0.0610  0.6290
  390TMC3     C 5830   4.049   4.583  11.434 -0.4410 -0.3603 -0.0093
  390TMC3     O 5831   4.065   4.560  11.313 -0.8174 -0.1742 -0.8814
  390TMC3     H 5832   4.069   4.339  11.377  0.9665  3.7604  1.3241
  390TMC3    H1 5833   3.947   4.609  11.683 -1.2236  0.4719  0.7975
  390TMC3    H2 5834   3.923   4.194  11.756  1.8354 -0.9315  0.5180
  390TMC3    C7 5835   3.808   4.425  11.785 -0.4945  0.4008  0.1075
  390TMC3    C8 5836   3.923   4.135  11.485  0.0110 -0.8841  0.5029
  390TMC3    O1 5837   3.787   4.543  11.823  0.4128 -0.2629  0.3087
  390TMC3    O2 5838   3.841   4.079  11.551  0.4439 -0.9344  0.2862
  391MPD2     C 5839   2.792   1.772  11.539 -0.8904  0.1285  0.9076
  391MPD2    C1 5840   2.918   1.799  11.490 -0.4988  0.2525  0.1164
  391MPD2    C2 5841   2.949   1.783  11.354 -0.5678 -0.0814  0.3550
  391MPD2    C3 5842   2.849   1.739  11.273 -0.3008 -0.3651 -1.1049
  391MPD2    C4 5843   2.720   1.729  11.322  0.1059 -0.2844 -0.4525
  391MPD2    C5 5844   2.688   1.730  11.456 -0.0875 -0.8636 -0.1340
  391MPD2     H 5845   3.052   1.793  11.320 -0.9407  1.6796 -0.2479
  391MPD2    H1 5846   2.631   1.710  11.262  0.7051 -2.0871 -0.7733
  391MPD2    H2 5847   2.763   1.789  11.642 -0.7794  0.5163  0.8779
  391MPD2    H3 5848   2.586   1.717  11.491  0.2056 -2.1327  0.2440
  391MPD2     N 5849   2.881   1.724  11.136  0.1838  0.2360  0.7342
  391MPD2    H5 5850   2.977   1.746  11.111  0.3517 -0.0882  1.0829
  391MPD2    N1 5851   3.008   1.854  11.584  0.2868 -0.1168  0.0635
  391MPD2    H7 5852   2.978   1.878  11.678  1.9241 -0.8592  0.7802
  392TMC3    C1 5853   2.855   1.645  10.907  0.2759  1.0347 -0.1514
  392TMC3    C2 5854   2.798   1.554  10.825  0.2312  0.2359  0.7192
  392TMC3    C3 5855   2.869   1.507  10.721 -0.0708  0.1038  0.1179
  392TMC3    C4 5856   2.980   1.694  10.881 -0.1615  0.7226  0.2683
  392TMC3    C5 5857   3.052   1.618  10.795  0.3087 -0.1567  0.1786
  392TMC3    C6 5858   3.003   1.526  10.719 -0.4327  0.1332 -0.2795
  392TMC3     C 5859   2.802   1.646  11.042  0.8744 -0.3932 -0.1771
  392TMC3     O 5860   2.702   1.579  11.068 -0.1865  0.8664  0.4289
  392TMC3     H 5861   2.695   1.524  10.843  0.5704 -2.1009 -1.2533
  392TMC3    H1 5862   3.026   1.783  10.922  0.1327  0.8205 -0.2692
  392TMC3    H2 5863   3.068   1.476  10.648  1.5700  1.6672  0.4735
  392TMC3    C7 5864   3.189   1.670  10.785 -0.8231 -0.2572  0.2637
  392TMC3    C8 5865   2.823   1.378  10.690 -0.5088 -0.2565 -0.2411
  392TMC3    O1 5866   3.233   1.724  10.886  0.2213  0.0609  0.0982
  392TMC3    O2 5867   2.782   1.318  10.792  0.0553 -0.3700 -0.3288
  393TMC3    C1 5868   2.890   4.702  10.513 -0.4304 -0.8109 -0.2197
  393TMC3    C2 5869   2.776   4.713  10.592 -0.6249  0.1185  0.1884
  393TMC3    C3 5870   2.808   4.719  10.727 -0.2095  0.0752  0.5268
  393TMC3    C4 5871   3.024   4.698  10.559  0.1141  0.1816 -0.0906
  393TMC3    C5 5872   3.042   4.697  10.696 -0.4034 -1.0967 -0.2501
  393TMC3    C6 5873   2.930   4.710  10.784  0.1610  0.6199 -0.5075
  393TMC3     C 5874   2.860   0.002  10.374 -0.3044 -0.3276  0.4437
  393TMC3     O 5875   2.747   4.689  10.337 -0.1168 -0.0877 -0.5362
  393TMC3     H 5876   2.672   4.702  10.564 -0.2793  0.3875 -1.2050
  393TMC3    H1 5877   3.110   4.676  10.497 -0.9293 -1.1696 -1.0216
  393TMC3    H2 5878   2.939   4.717  10.891  1.9635 -0.6901 -0.5574
  393TMC3    C7 5879   3.177   4.690  10.746 -0.1141 -0.0055  0.4953
  393TMC3    C8 5880   2.704   0.034  10.817 -0.4158 -0.6696  0.3837
  393TMC3    O1 5881   3.205   0.013  10.856 -0.2394  0.0339  0.1883
  393TMC3    O2 5882   2.592   4.714  10.789  0.3259 -0.0056  0.1232
  394TMC3    C1 5883   4.039   0.266  10.872 -0.2745 -0.1237  0.2293
  394TMC3    C2 5884   4.033   0.191  10.764  0.3232 -0.2150  0.5867
  394TMC3    C3 5885   4.079   0.244  10.647  0.4383  0.2827  0.3088
  394TMC3    C4 5886   4.107   0.380  10.877  0.0137 -0.6128 -0.9946
  394TMC3    C5 5887   4.141   0.439  10.756 -0.4027  0.0255 -0.2138
  394TMC3    C6 5888   4.131   0.373  10.638  0.2982 -0.4987  0.1727
  394TMC3     C 5889   4.020   0.198  10.996 -0.4137 -0.2926 -0.5726
  394TMC3     O 5890   4.028   0.074  10.992  0.0488 -0.1875 -0.4825
  394TMC3     H 5891   3.980   0.097  10.760 -0.6153  0.4000 -1.2692
  394TMC3    H1 5892   4.123   0.435  10.969  0.0605 -0.3995 -1.1300
  394TMC3    H2 5893   4.177   0.409  10.546 -2.1389  0.9508 -0.4989
  394TMC3    C7 5894   4.230   0.555  10.743  0.4802 -0.0948  0.6054
  394TMC3    C8 5895   4.113   0.146  10.552 -0.4795 -0.0820  0.2901
  394TMC3    O1 5896   4.223   0.625  10.640  0.1890 -0.1196  0.1657
  394TMC3    O2 5897   4.131   0.035  10.602  0.0049 -0.3461 -0.4388
  395TMC3    C1 5898   4.270   2.171  14.373  0.2476 -0.3805 -0.3182
  395TMC3    C2 5899   4.227   2.241  14.264  0.9599 -0.1348 -0.3207
  395TMC3    C3 5900   4.273   2.373  14.242  0.0897 -0.3182 -0.1360
  395TMC3    C4 5901   4.364   2.223  14.451 -0.0623 -0.5033 -0.4844
  395TMC3    C5 5902   4.402   2.354  14.437 -0.7078 -0.2048 -0.1939
  395TMC3    C6 5903   4.365   2.433  14.324  0.2045 -0.4340 -0.8366
  395TMC3     C 5904   4.189   2.076  14.451 -0.0798 -0.6190 -0.3436
  395TMC3     O 5905   4.219   2.057  14.571 -0.1957 -0.2210 -0.4101
  395TMC3     H 5906   4.149   2.202  14.199  1.7105 -2.4719  0.1522
  395TMC3    H1 5907   4.410   2.153  14.520 -0.2180 -1.5209 -1.4155
  395TMC3    H2 5908   4.381   2.540  14.316 -1.3105 -0.1647 -0.1131
  395TMC3    C7 5909   4.439   2.425  14.554 -0.3381 -0.3671 -0.5785
  395TMC3    C8 5910   4.183   2.472  14.192  0.7681 -0.0938 -0.7088
  395TMC3    O1 5911   4.472   2.543  14.551  0.5819 -0.6244 -0.0155
  395TMC3    O2 5912   4.229   2.577  14.153  0.4986 -0.1821 -0.4948
  396MPD2     C 5913   4.223   3.248  17.655 -0.6205  0.1419 -0.7271
  396MPD2    C1 5914   4.119   3.284  17.575 -0.2769 -0.1394  0.4147
  396MPD2    C2 5915   4.122   3.399  17.498 -0.1433  0.0370  0.2380
  396MPD2    C3 5916   4.239   3.470  17.482  1.1215  0.6373  0.4161
  396MPD2    C4 5917   4.348   3.430  17.554 -0.0272 -0.2969  0.1038
  396MPD2    C5 5918   4.337   3.321  17.636  0.1522 -0.4249  0.0814
  396MPD2     H 5919   4.042   3.434  17.434 -0.5971 -1.1155  0.1872
  396MPD2    H1 5920   4.436   3.492  17.547 -0.2984  0.1549  0.6462
  396MPD2    H2 5921   4.223   3.165   0.034 -1.9320  0.8504  0.0870
  396MPD2    H3 5922   4.421   3.289   0.005 -1.3120 -0.2448  2.1929
  396MPD2     N 5923   4.244   3.576  17.385  0.1539  0.2808 -0.2481
  396MPD2    H5 5924   4.168   3.568  17.318  1.2563 -0.3188 -1.4307
  396MPD2    N1 5925   4.000   3.207  17.582  0.1138 -0.4682 -0.2154
  396MPD2    H7 5926   3.993   3.136  17.654 -0.2017  1.3184  1.5017
  397TMC3    C1 5927   3.777   3.126  17.540  0.4392 -0.0867  0.6195
  397TMC3    C2 5928   3.680   3.126  17.442 -0.3374  0.7302  0.2814
  397TMC3    C3 5929   3.594   3.017  17.437  0.2919  0.1129  0.5319
  397TMC3    C4 5930   3.803   3.014  17.614 -0.4116 -0.0134  0.0477
  397TMC3    C5 5931   3.720   2.901  17.591 -0.1756 -0.1033 -0.5715
  397TMC3    C6 5932   3.623   2.900  17.498 -0.4268 -0.3031 -0.5377
  397TMC3     C 5933   3.888   3.217  17.504 -0.3835 -0.0592  0.0660
  397TMC3     O 5934   3.863   3.294  17.411 -0.6267 -0.3905 -0.7908
  397TMC3     H 5935   3.638   3.219  17.405 -1.3716  0.6410  1.2100
  397TMC3    H1 5936   3.887   3.004  17.682  2.2000  3.8635 -2.6451
  397TMC3    H2 5937   3.551   2.820  17.497  1.4894 -2.0616  1.6787
  397TMC3    C7 5938   3.742   2.781  17.667 -0.3218  0.4582 -0.5756
  397TMC3    C8 5939   3.473   3.034  17.357 -0.1418  0.2590 -0.1263
  397TMC3    O1 5940   3.674   2.681  17.636  0.5702 -0.2388  0.1385
  397TMC3    O2 5941   3.465   3.130  17.287 -0.1456 -0.4465  0.0689
  398MPD2     C 5942   1.432   4.052  17.642 -0.0346 -0.2493  0.7793
  398MPD2    C1 5943   1.483   4.041   0.083  0.1368 -0.7648 -0.7952
  398MPD2    C2 5944   1.615   4.028   0.101 -0.3352 -0.4670  0.2249
  398MPD2    C3 5945   1.701   4.029  17.684  0.4711 -0.4110 -0.0675
  398MPD2    C4 5946   1.649   4.060  17.561 -1.1120  0.5959  0.4298
  398MPD2    C5 5947   1.519   4.073  17.541  0.3566  0.1548 -0.0918
  398MPD2     H 5948   1.653   4.010   0.200 -1.3534  0.5474  0.7984
  398MPD2    H1 5949   1.720   4.067  17.478 -0.6383 -3.2054  0.5272
  398MPD2    H2 5950   1.328   4.070  17.618  0.0624 -0.7888 -0.0439
  398MPD2    H3 5951   1.478   4.100  17.444 -1.7832 -1.7078  0.2921
  398MPD2     N 5952   1.839   4.003   0.017  0.7780  0.7056 -0.2320
  398MPD2    H5 5953   1.881   4.027   0.106  1.1018  2.5232 -0.8646
  398MPD2    N1 5954   1.406   4.030   0.199 -0.0000 -0.1015  0.1821
  398MPD2    H7 5955   1.461   4.026   0.284  1.0106  2.4429 -0.3574
  399TMC3    C1 5956   1.212   3.965   0.315  0.5376  0.6994  0.4939
  399TMC3    C2 5957   1.276   3.992   0.430  0.3565 -0.8239 -0.1463
  399TMC3    C3 5958   1.214   3.936   0.540 -0.4322 -0.5127 -0.0510
  399TMC3    C4 5959   1.108   3.882   0.298 -0.0377  0.3527 -0.0782
  399TMC3    C5 5960   1.063   3.812   0.407 -0.6924  0.6713 -0.0050
  399TMC3    C6 5961   1.125   3.833   0.531 -0.0607 -0.3240  0.1734
  399TMC3     C 5962   1.271   4.017   0.195 -0.0710 -0.1940 -0.0698
  399TMC3     O 5963   1.196   4.009   0.099 -0.6988  0.3893 -0.5001
  399TMC3     H 5964   1.336   4.081   0.442  0.1594 -0.4611 -1.8964
  399TMC3    H1 5965   1.068   3.863   0.199  0.5942  0.0858 -0.2805
  399TMC3    H2 5966   1.087   3.788   0.621  0.2391 -1.7473 -0.4205
  399TMC3    C7 5967   1.029   3.681   0.383 -0.1101 -0.5863  0.1610
  399TMC3    C8 5968   1.259   3.978   0.669 -0.2500  0.1006 -0.0597
  399TMC3    O1 5969   1.037   3.604   0.481 -0.2756 -0.2985 -0.2288
  399TMC3    O2 5970   1.369   4.031   0.677 -0.3162  0.3823  0.1157
  400TMC3    C1 5971   0.793   2.480  17.381 -0.1752 -0.1442 -0.0179
  400TMC3    C2 5972   0.787   2.456  17.250  0.4092  0.0033  0.0948
  400TMC3    C3 5973   0.736   2.551  17.167  0.0823  0.1832 -0.0579
  400TMC3    C4 5974   0.757   2.605  17.431  0.0549 -0.2170  0.6256
  400TMC3    C5 5975   0.698   2.694  17.347 -0.2444 -0.2982  1.1548
  400TMC3    C6 5976   0.695   2.669  17.213  0.4662  0.2492 -0.3964
  400TMC3     C 5977   0.730   2.375  17.451  0.0986  0.7383 -0.4785
  400TMC3     O 5978   0.669   2.297  17.384 -0.4988  0.2772 -0.2706
  400TMC3     H 5979   0.789   2.355  17.211  1.6600  1.1042 -2.6434
  400TMC3    H1 5980   0.752   2.622  17.538  0.7289  1.5546  0.3703
  400TMC3    H2 5981   0.663   2.740  17.138  2.6753  0.3554 -1.2430
  400TMC3    C7 5982   0.676   2.834  17.390 -0.1648  0.3758 -0.0327
  400TMC3    C8 5983   0.639   2.512  17.069 -0.0494  0.3792  0.7820
  400TMC3    O1 5984   0.742   2.872  17.480 -0.3242 -0.3061  0.3802
  400TMC3    O2 5985   0.609   2.590  16.981  0.5615  0.3162 -0.3455
  401MPD2     C 5986   3.764   1.372   0.798 -0.0945  0.4103  0.3202
  401MPD2    C1 5987   3.730   1.322   0.916  0.7358 -0.4238 -1.0101
  401MPD2    C2 5988   3.683   1.191   0.912 -0.3630  0.0215  0.4133
  401MPD2    C3 5989   3.670   1.118   0.798 -0.6279 -0.0202 -0.5267
  401MPD2    C4 5990   3.691   1.175   0.679  0.5806 -0.5648 -0.9609
  401MPD2    C5 5991   3.745   1.305   0.678 -0.6390  0.6534 -0.0611
  401MPD2     H 5992   3.669   1.143   1.008 -0.7806  1.4995  1.0922
  401MPD2    H1 5993   3.691   1.119   0.586  1.8991 -0.1267 -1.2093
  401MPD2    H2 5994   3.802   1.473   0.799  0.9834  0.0109 -0.0322
  401MPD2    H3 5995   3.768   1.354   0.583 -0.4873  2.9201  1.1431
  401MPD2     N 5996   3.631   0.985   0.805  0.1260  0.3371 -0.2745
  401MPD2    H5 5997   3.614   0.941   0.895  0.2314 -0.4076 -0.6158
  401MPD2    N1 5998   3.753   1.378   1.047 -0.4211  0.0682  1.2270
  401MPD2    H7 5999   3.722   1.331   1.131 -2.2279 -0.3505  0.3107
  402TMC3    C1 6000   3.599   0.765   0.760 -0.1890 -0.0375 -0.3424
  402TMC3    C2 6001   3.516   0.755   0.872  0.2756 -0.1698  0.7124
  402TMC3    C3 6002   3.487   0.629   0.916  0.0665 -0.0285 -0.3473
  402TMC3    C4 6003   3.655   0.657   0.700 -0.0344 -0.3037  0.0592
  402TMC3    C5 6004   3.638   0.534   0.761 -0.2782 -0.1204  0.5512
  402TMC3    C6 6005   3.550   0.514   0.864  0.4541 -0.5940  0.3038
  402TMC3     C 6006   3.635   0.889   0.707  0.0237  1.3435 -0.5249
  402TMC3     O 6007   3.673   0.896   0.587  0.3392 -0.4725 -0.3622
  402TMC3     H 6008   3.474   0.843   0.919  2.1096  0.9696  0.2032
  402TMC3    H1 6009   3.726   0.664   0.618  0.7576 -0.8615  0.7045
  402TMC3    H2 6010   3.545   0.415   0.909 -1.7882 -1.1345 -1.1293
  402TMC3    C7 6011   3.738   0.426   0.737 -0.4763  0.7877  0.7052
  402TMC3    C8 6012   3.447   0.615   1.051 -0.3477 -0.4094 -0.1005
  402TMC3    O1 6013   3.733   0.327   0.810  0.1695 -0.0495  0.6706
  402TMC3    O2 6014   3.499   0.518   1.108  0.2143  0.1499  0.4290
  403MPD2     C 6015   1.128   0.063  13.835 -0.9045 -0.0072  0.4149
  403MPD2    C1 6016   1.207   4.682  13.800  0.3617  0.1777 -0.4467
  403MPD2    C2 6017   1.317   4.653  13.880  0.1575  0.3123 -1.1444
  403MPD2    C3 6018   1.358   0.011  13.989  0.1230  0.2068 -0.3228
  403MPD2    C4 6019   1.273   0.118  14.017 -0.2704 -0.1776  0.0673
  403MPD2    C5 6020   1.158   0.135  13.948  0.2676 -0.6431 -0.2345
  403MPD2     H 6021   1.383   4.569  13.861 -0.1129 -0.5894  2.0287
  403MPD2    H1 6022   1.291   0.189  14.097  1.0629 -0.1097 -0.2846
  403MPD2    H2 6023   1.045   0.099  13.776 -1.6158 -2.9146 -0.3618
  403MPD2    H3 6024   1.098   0.220  13.979 -1.5925 -1.7120 -0.9548
  403MPD2     N 6025   1.462   4.700  14.073 -0.1593 -0.4663 -0.0133
  403MPD2    H5 6026   1.520   4.619  14.057 -0.1535 -0.6275  0.7994
  403MPD2    N1 6027   1.174   4.606  13.687 -0.1416 -0.1804  0.7031
  403MPD2    H7 6028   1.091   4.631  13.634  1.4831  0.5835 -1.4265
  404TMC3    C1 6029   1.179   4.406  13.549 -0.2086  0.2634 -0.5218
  404TMC3    C2 6030   1.177   4.265  13.583  0.3669  0.2393 -0.8706
  404TMC3    C3 6031   1.242   4.175  13.497 -0.0141 -0.3149  0.2184
  404TMC3    C4 6032   1.216   4.439  13.420 -0.1033 -0.1453  0.3401
  404TMC3    C5 6033   1.266   4.346  13.332 -0.3440  0.1138 -0.4118
  404TMC3    C6 6034   1.294   4.212  13.377 -0.2038 -0.2994 -0.6106
  404TMC3     C 6035   1.229   4.483  13.658  0.4119  1.2693  0.0770
  404TMC3     O 6036   1.324   4.429  13.715  0.1708  0.0752  0.5790
  404TMC3     H 6037   1.164   4.249  13.690  2.6518 -3.3190 -1.1432
  404TMC3    H1 6038   1.208   4.544  13.396  0.7721  0.3253  2.1372
  404TMC3    H2 6039   1.342   4.143  13.308  0.9671  0.9144 -1.0137
  404TMC3    C7 6040   1.300   4.397  13.202  0.0798 -0.2531 -0.5612
  404TMC3    C8 6041   1.302   4.056  13.561 -0.7796  0.5563  0.2849
  404TMC3    O1 6042   1.305   4.520  13.195  0.1645 -0.2540  0.3227
  404TMC3    O2 6043   1.400   4.001  13.509 -0.6163  0.1204 -0.1326
  405MPD2     C 6044   1.985   0.312  15.034 -1.0219  0.2556  0.1314
  405MPD2    C1 6045   1.989   0.219  14.933 -0.0869 -0.0238  0.3354
  405MPD2    C2 6046   1.896   0.241  14.836 -0.9578  0.7468  0.5832
  405MPD2    C3 6047   1.811   0.347  14.837 -0.4026  0.2868 -0.1897
  405MPD2    C4 6048   1.810   0.438  14.933  0.4305  0.1660  0.1774
  405MPD2    C5 6049   1.901   0.417  15.036  0.1287  0.2104 -0.8784
  405MPD2     H 6050   1.883   0.179  14.748 -0.4210  0.9121  0.3837
  405MPD2    H1 6051   1.741   0.522  14.935  1.0393  0.6263  2.1936
  405MPD2    H2 6052   2.059   0.297  15.112  0.1697  0.7839 -0.9015
  405MPD2    H3 6053   1.905   0.490  15.116 -3.0035 -0.0008 -0.5236
  405MPD2     N 6054   1.709   0.344  14.738  0.2958 -0.6804 -0.4341
  405MPD2    H5 6055   1.722   0.284  14.658 -2.2810 -1.3051 -0.4075
  405MPD2    N1 6056   2.071   0.108  14.929 -0.0129 -0.1092 -0.4971
  405MPD2    H7 6057   2.132   0.088  15.007  0.5997  3.3284 -0.0800
  406TMC3    C1 6058   1.332   0.372  14.493  0.6668  0.0829 -0.1100
  406TMC3    C2 6059   1.343   0.238  14.474 -0.0962  0.2102 -0.4219
  406TMC3    C3 6060   1.426   0.164  14.552 -0.0894  0.4524  0.1295
  406TMC3    C4 6061   1.418   0.440  14.571  0.6669 -0.7675 -0.0775
  406TMC3    C5 6062   1.504   0.363  14.647 -0.0042  0.3926 -0.1473
  406TMC3    C6 6063   1.513   0.224  14.636 -0.4948  1.0119 -0.1843
  406TMC3     C 6064   1.203   0.429  14.486 -0.5983  0.1220 -0.0670
  406TMC3     O 6065   1.160   0.462  14.375 -0.0692  0.2828  0.4853
  406TMC3     H 6066   1.276   0.201  14.397 -0.1438 -0.8293  0.1135
  406TMC3    H1 6067   1.406   0.547  14.582  0.4369 -1.1265  3.2300
  406TMC3    H2 6068   1.574   0.164  14.703 -0.8570  1.1827  0.2980
  406TMC3    C7 6069   1.594   0.423  14.737  0.0261  0.9157  0.0322
  406TMC3    C8 6070   1.451   0.020  14.519 -0.0052 -0.2335  0.1484
  406TMC3    O1 6071   1.559   0.520  14.805  0.2177 -0.6721  0.2590
  406TMC3    O2 6072   1.370   4.685  14.452 -0.3653  0.5480  0.7068
  407MPD2     C 6073   4.120   1.383   9.690  0.3583 -0.1967  0.0594
  407MPD2    C1 6074   4.244   1.436   9.723 -0.0802  0.1691  0.4843
  407MPD2    C2 6075   4.272   1.494   9.842 -0.2135  0.9342 -0.3184
  407MPD2    C3 6076   4.168   1.503   9.932 -0.3763 -0.0195 -0.0061
  407MPD2    C4 6077   4.046   1.440   9.908 -0.2241 -0.3318 -0.0962
  407MPD2    C5 6078   4.023   1.381   9.787  0.2346 -0.6339  0.6675
  407MPD2     H 6079   4.370   1.535   9.861 -0.7107  1.4696  1.0336
  407MPD2    H1 6080   3.961   1.444   9.975 -0.3846  0.2095 -0.3274
  407MPD2    H2 6081   4.090   1.349   9.591  1.1755 -0.3731 -0.1296
  407MPD2    H3 6082   3.923   1.343   9.768 -0.7599  1.7551  1.0958
  407MPD2     N 6083   4.180   1.568  10.057  0.1676 -0.2226 -0.5166
  407MPD2    H5 6084   4.113   1.546  10.130  1.0914  1.4903  0.8768
  407MPD2    N1 6085   4.349   1.433   9.638  0.5455  0.0105  0.5743
  407MPD2    H7 6086   4.430   1.491   9.654  0.5662 -0.0249  0.5976
  408TMC3    C1 6087   4.480   1.356   9.463  0.1293  0.2354 -0.8156
  408TMC3    C2 6088   4.535   1.234   9.453 -0.0214 -0.0638 -0.1663
  408TMC3    C3 6089   4.669   1.224   9.420 -0.6072  0.3862 -0.6061
  408TMC3    C4 6090   4.540   1.478   9.447 -0.2338 -0.2111 -0.0473
  408TMC3    C5 6091   4.670   1.462   9.403  0.5507 -0.2148 -0.3921
  408TMC3    C6 6092   0.011   1.338   9.388  0.1221  0.0530 -0.6152
  408TMC3     C 6093   4.352   1.357   9.527 -0.3264 -0.3015 -0.2179
  408TMC3     O 6094   4.265   1.284   9.478  0.2742  0.0470  0.0440
  408TMC3     H 6095   4.485   1.140   9.474  0.6291 -0.6344 -1.1570
  408TMC3    H1 6096   4.498   1.578   9.455 -0.5273 -0.2786 -0.7158
  408TMC3    H2 6097   0.116   1.329   9.362 -0.0747  2.9157 -2.5153
  408TMC3    C7 6098   0.037   1.569   9.421 -0.0823 -0.0012 -0.5474
  408TMC3    C8 6099   0.014   1.107   9.480  0.6929  0.3304  0.3160
  408TMC3    O1 6100   0.150   1.554   9.461 -0.2124 -0.4288  0.1900
  408TMC3    O2 6101   4.660   1.029   9.529  0.5237  0.0355  0.6037
  409MPD2     C 6102   4.144   1.828  16.944  0.1046  0.0892  0.4140
  409MPD2    C1 6103   4.198   1.832  17.073 -0.3102 -0.3715 -0.4746
  409MPD2    C2 6104   4.222   1.954  17.129  0.6931 -0.3178 -0.0612
  409MPD2    C3 6105   4.198   2.069  17.058  0.4008  0.6422 -0.6743
  409MPD2    C4 6106   4.152   2.066  16.928 -0.1741 -0.0172  0.2255
  409MPD2    C5 6107   4.117   1.944  16.879  0.2262 -0.6363  0.0571
  409MPD2     H 6108   4.269   1.955  17.226 -1.7577 -0.5837  1.1239
  409MPD2    H1 6109   4.125   2.155  16.872  2.1052  0.7782  0.4182
  409MPD2    H2 6110   4.124   1.733  16.895 -0.6259 -0.1069  1.0709
  409MPD2    H3 6111   4.067   1.935  16.783 -1.1496  1.9203  0.5276
  409MPD2     N 6112   4.215   2.191  17.116  0.0673  0.3733  0.0236
  409MPD2    H5 6113   4.193   2.269  17.055  2.3975  0.5272 -0.6210
  409MPD2    N1 6114   4.221   1.721  17.151 -0.4419 -0.3799  0.2616
  409MPD2    H7 6115   4.248   1.739  17.247 -2.2371 -2.5465  1.1835
  410TMC3    C1 6116   4.318   2.365  17.242 -0.5934 -0.5825 -0.0713
  410TMC3    C2 6117   4.435   2.417  17.299 -0.0370  0.4183  0.1545
  410TMC3    C3 6118   4.458   2.551  17.294 -0.0078  0.4543 -0.7596
  410TMC3    C4 6119   4.228   2.452  17.197 -0.9154 -0.2588  0.1718
  410TMC3    C5 6120   4.251   2.587  17.191 -0.5178 -0.2582 -0.4874
  410TMC3    C6 6121   4.369   2.635  17.245 -0.4249  0.0665 -0.5863
  410TMC3     C 6122   4.286   2.223  17.237 -0.0726 -0.8939  0.4658
  410TMC3     O 6123   4.352   2.153  17.312  0.1822 -0.1928  0.1900
  410TMC3     H 6124   4.510   2.345  17.329  1.7371  1.2628 -2.2733
  410TMC3    H1 6125   4.129   2.425  17.164 -0.7390 -1.2805  0.4754
  410TMC3    H2 6126   4.383   2.742  17.251  0.3633 -0.0179 -0.8978
  410TMC3    C7 6127   4.136   2.678  17.198  0.2268  0.0600 -0.4882
  410TMC3    C8 6128   4.585   2.604  17.342 -0.2831 -0.1130  0.1685
  410TMC3    O1 6129   4.038   2.649  17.265 -0.4114 -0.2922 -0.1064
  410TMC3    O2 6130   4.585   2.727  17.349  0.1589 -0.0967 -0.0416
  411MPD2     C 6131   4.652   3.341  14.559 -0.2583 -1.4292  0.3992
  411MPD2    C1 6132   4.526   3.328  14.608 -0.5362 -0.2089  0.2088
  411MPD2    C2 6133   4.480   3.205  14.645  0.0558  0.5884  0.2346
  411MPD2    C3 6134   4.554   3.088  14.618 -0.1208  0.2185 -0.1478
  411MPD2    C4 6135   4.675   3.097  14.554 -0.4095 -0.3693  1.1501
  411MPD2    C5 6136   0.000   3.225  14.524  0.3579 -0.5922 -0.1485
  411MPD2     H 6137   4.382   3.196  14.690  0.6537 -1.9399  1.0371
  411MPD2    H1 6138   0.022   3.016  14.533 -0.5089 -0.2105  0.2216
  411MPD2    H2 6139   4.690   3.438  14.532 -2.0162 -1.0977 -0.8696
  411MPD2    H3 6140   0.101   3.234  14.484 -0.0934 -0.2263 -1.1897
  411MPD2     N 6141   4.496   2.961  14.638  0.4278 -0.7148  0.5734
  411MPD2    H5 6142   4.546   2.879  14.606  0.3941  0.3374 -2.1718
  411MPD2    N1 6143   4.447   3.445  14.611 -0.1196 -0.1324 -0.5162
  411MPD2    H7 6144   4.485   3.530  14.571 -0.5439  0.6751  0.7986
  412TMC3    C1 6145   4.318   2.830  14.647  0.5984  0.0057 -0.5686
  412TMC3    C2 6146   4.224   2.766  14.714 -0.6177  0.1857  0.6073
  412TMC3    C3 6147   4.138   2.680  14.663 -0.3645  0.3354 -0.3366
  412TMC3    C4 6148   4.323   2.819  14.510 -0.6886  0.3188  0.6852
  412TMC3    C5 6149   4.222   2.749  14.450  0.4430  0.7113  0.4167
  412TMC3    C6 6150   4.135   2.670  14.523 -0.1030 -0.0578 -0.0848
  412TMC3     C 6151   4.379   2.943  14.702  0.1024 -0.0622  0.0259
  412TMC3     O 6152   4.320   3.005  14.785 -0.1925  0.3531 -0.2759
  412TMC3     H 6153   4.210   2.782  14.821 -2.0529  1.5510  0.2206
  412TMC3    H1 6154   4.384   2.882  14.447  0.1895  0.1855  1.3848
  412TMC3    H2 6155   4.048   2.626  14.475  0.4024 -1.2002  0.0475
  412TMC3    C7 6156   4.147   2.833  14.359  0.3301  0.8920  0.4887
  412TMC3    C8 6157   4.007   2.723  14.719 -0.5747 -0.2525 -0.2708
  412TMC3    O1 6158   4.034   2.856  14.392 -0.1391  0.5737 -0.2802
  412TMC3    O2 6159   3.985   2.701  14.840  0.3626 -0.7563  0.2219
  413MPD2     C 6160   1.267   1.483  15.511  0.1740 -0.6782 -0.3726
  413MPD2    C1 6161   1.234   1.469  15.376  0.2092  0.0439  0.3348
  413MPD2    C2 6162   1.283   1.356  15.309  0.0455 -0.3123  1.2175
  413MPD2    C3 6163   1.357   1.260  15.377 -0.2515 -0.1410 -0.6193
  413MPD2    C4 6164   1.390   1.281  15.509  0.7764 -0.0314  0.1758
  413MPD2    C5 6165   1.351   1.393  15.574  0.1007 -0.8138 -0.4098
  413MPD2     H 6166   1.257   1.331  15.206  1.1907 -0.0200  0.8572
  413MPD2    H1 6167   1.438   1.204  15.568 -0.1466 -1.3250 -0.7510
  413MPD2    H2 6168   1.225   1.564  15.569  1.7459 -0.7846  0.9158
  413MPD2    H3 6169   1.374   1.405  15.679 -3.1878 -1.0027  0.3234
  413MPD2     N 6170   1.381   1.147  15.299 -0.8558 -0.0853  0.2225
  413MPD2    H5 6171   1.374   1.150  15.198  0.1465  0.9261  0.1847
  413MPD2    N1 6172   1.154   1.567  15.316 -0.1227 -0.2007 -0.1841
  413MPD2    H7 6173   1.125   1.637  15.384 -0.3118 -1.3516  0.9259
  414TMC3    C1 6174   1.462   0.936  15.257 -0.1794 -0.0171 -0.2349
  414TMC3    C2 6175   1.458   0.810  15.306 -0.2237  1.1682 -1.0214
  414TMC3    C3 6176   1.513   0.705  15.246 -0.1002  0.7815  0.5813
  414TMC3    C4 6177   1.534   0.948  15.142 -0.0183  0.1941  0.3023
  414TMC3    C5 6178   1.577   0.840  15.069  0.0853  0.5074 -0.2465
  414TMC3    C6 6179   1.566   0.716  15.117 -0.0751  0.6520 -0.4331
  414TMC3     C 6180   1.424   1.038  15.355  0.6751 -0.4859 -0.2879
  414TMC3     O 6181   1.430   1.000  15.470  0.5593 -0.1963  0.3800
  414TMC3     H 6182   1.400   0.785  15.394  2.3189 -1.6805 -0.1545
  414TMC3    H1 6183   1.550   1.051  15.114  1.7349 -0.4946 -1.2334
  414TMC3    H2 6184   1.621   0.633  15.073  0.3072  0.2072  0.8773
  414TMC3    C7 6185   1.674   0.872  14.970  0.2786  0.2217  0.0828
  414TMC3    C8 6186   1.539   0.586  15.320  0.8458  0.2592  0.0999
  414TMC3    O1 6187   1.635   0.912  14.859 -0.2611  0.0988  0.1777
  414TMC3    O2 6188   1.541   0.479  15.252  0.1343  0.2225 -0.0860
  415TMC3    C1 6189   2.048   3.743   9.944  0.9087 -0.2071 -1.1848
  415TMC3    C2 6190   2.125   3.791   9.842 -0.8930  0.2482  0.2422
  415TMC3    C3 6191   2.149   3.709   9.729  0.2902 -0.5926 -0.0967
  415TMC3    C4 6192   1.972   3.638   9.923 -0.3101 -0.1355  0.7107
  415TMC3    C5 6193   1.993   3.567   9.812  0.2061  0.8513 -0.4553
  415TMC3    C6 6194   2.077   3.599   9.715 -0.1226 -0.6661  0.4932
  415TMC3     C 6195   1.997   3.832  10.044 -0.6666  0.0811  0.0977
  415TMC3     O 6196   1.874   3.829  10.065 -0.3937  0.4800  0.3931
  415TMC3     H 6197   2.182   3.883   9.846 -0.2243 -0.0609 -2.1360
  415TMC3    H1 6198   1.914   3.608  10.010 -0.3525  0.1983  0.7973
  415TMC3    H2 6199   2.085   3.544   9.622  0.7920 -1.1369  0.8456
  415TMC3    C7 6200   1.942   3.433   9.808  0.1601  0.1404  0.6823
  415TMC3    C8 6201   2.278   3.719   9.660  0.7012  0.2285  0.6359
  415TMC3    O1 6202   1.933   3.381   9.697 -0.0315  0.1092 -0.5306
  415TMC3    O2 6203   2.300   3.615   9.601  0.4099  0.5911 -0.0165
  416MPD2     C 6204   3.313   2.394  11.550  0.3336 -0.5434  0.0977
  416MPD2    C1 6205   3.202   2.427  11.629 -0.4811 -0.1325 -0.9306
  416MPD2    C2 6206   3.078   2.368  11.595 -0.7272  0.7435  0.2275
  416MPD2    C3 6207   3.065   2.280  11.493  0.5025  0.2862  0.2144
  416MPD2    C4 6208   3.179   2.244  11.424 -0.2306  0.0109 -0.0894
  416MPD2    C5 6209   3.300   2.297  11.455 -0.3324  0.6935  0.0712
  416MPD2     H 6210   2.988   2.402  11.646 -0.8283 -0.8156  1.0734
  416MPD2    H1 6211   3.176   2.200  11.325  0.3832 -0.5239  0.1289
  416MPD2    H2 6212   3.411   2.431  11.578  0.3641  1.2371 -2.3723
  416MPD2    H3 6213   3.388   2.275  11.395 -0.5396 -0.5279  0.2195
  416MPD2     N 6214   2.934   2.231  11.462 -0.1442 -0.3768  0.0128
  416MPD2    H5 6215   2.857   2.242  11.526 -0.3058 -1.2060 -0.0491
  416MPD2    N1 6216   3.219   2.540  11.710  0.3766  0.1655 -0.3752
  416MPD2    H7 6217   3.303   2.591  11.683  0.3693  0.9650  1.1130
  417TMC3    C1 6218   3.175   2.715  11.850  0.6297  0.0468 -0.4215
  417TMC3    C2 6219   3.120   2.742  11.971  0.3820 -0.3992  0.0073
  417TMC3    C3 6220   3.104   2.870  12.016 -0.8123  0.6657 -0.4274
  417TMC3    C4 6221   3.193   2.817  11.762 -0.3969 -0.2185 -0.0827
  417TMC3    C5 6222   3.148   2.947  11.794  0.7095  0.1721  0.4750
  417TMC3    C6 6223   3.108   2.972  11.924  0.1109 -0.0865  0.0238
  417TMC3     C 6224   3.139   2.584  11.810  0.8079 -1.0502  0.2025
  417TMC3     O 6225   3.036   2.529  11.857  0.5213 -0.4303  0.5478
  417TMC3     H 6226   3.091   2.657  12.032 -0.8363 -0.0463 -0.0795
  417TMC3    H1 6227   3.216   2.794  11.659 -0.2680 -0.1944 -0.0595
  417TMC3    H2 6228   3.083   3.076  11.942 -1.2392 -0.5834  1.0359
  417TMC3    C7 6229   3.107   3.033  11.680 -0.2322  0.0771 -0.2152
  417TMC3    C8 6230   3.090   2.908  12.155 -0.2473 -0.1433 -0.1961
  417TMC3    O1 6231   3.150   3.018  11.563  0.3042  0.2989 -0.4126
  417TMC3    O2 6232   3.087   3.028  12.178 -0.2988 -0.4438  0.5087
  418TMC3    C1 6233   2.242   3.789   0.007  0.0083  0.1716 -0.7759
  418TMC3    C2 6234   2.125   3.819  17.635 -0.9084 -0.0623  0.0648
  418TMC3    C3 6235   2.058   3.932  17.661 -0.2464  0.0660  0.1370
  418TMC3    C4 6236   2.299   3.871   0.109 -0.0718 -0.4043  0.8291
  418TMC3    C5 6237   2.222   3.987   0.137 -0.3712  0.4338 -0.0161
  418TMC3    C6 6238   2.106   4.017   0.065  0.3442 -0.3330 -0.1192
  418TMC3     C 6239   2.339   3.725  17.615 -0.4851  0.1576  0.2997
  418TMC3     O 6240   2.327   3.756  17.499 -0.5429  0.1279  0.7028
  418TMC3     H 6241   2.069   3.746  17.577 -1.8091  1.9600 -1.5933
  418TMC3    H1 6242   2.402   3.856   0.140  0.0042 -0.3728  0.5970
  418TMC3    H2 6243   2.044   4.097   0.104  0.9083 -1.6275  3.4089
  418TMC3    C7 6244   2.278   4.075   0.235  0.6092  0.2365  0.2648
  418TMC3    C8 6245   1.920   3.938  17.618  0.5448 -0.2431  0.1275
  418TMC3    O1 6246   2.357   4.023   0.314 -0.3846  0.2573  0.0472
  418TMC3    O2 6247   1.888   3.866  17.523  0.1169  0.0014 -0.1690
  419MPD2     C 6248   1.327   3.248  12.240  0.2762  0.2343  0.0936
  419MPD2    C1 6249   1.202   3.210  12.221 -0.3695 -0.1882  0.0598
  419MPD2    C2 6250   1.127   3.160  12.326  0.2074  0.9429  0.8148
  419MPD2    C3 6251   1.170   3.165  12.460 -0.9898  0.6263  0.8407
  419MPD2    C4 6252   1.302   3.201  12.479  0.2814 -0.5117  0.0423
  419MPD2    C5 6253   1.379   3.243  12.371  0.2053 -0.7784  0.1398
  419MPD2     H 6254   1.025   3.131  12.304  0.4365 -0.5448  1.6791
  419MPD2    H1 6255   1.353   3.199  12.575  1.8055 -1.4361 -0.7827
  419MPD2    H2 6256   1.390   3.264  12.153  0.1715 -4.6181 -0.8253
  419MPD2    H3 6257   1.479   3.284  12.381  0.1525 -0.4974 -0.4988
  419MPD2     N 6258   1.084   3.109  12.554 -0.4068 -0.6828 -0.4044
  419MPD2    H5 6259   0.997   3.064  12.526 -1.0735 -0.3363  1.1413
  419MPD2    N1 6260   1.146   3.204  12.093 -0.3093 -0.4201 -0.1422
  419MPD2    H7 6261   1.048   3.177  12.090 -0.8638  1.7405 -1.2090
  420TMC3    C1 6262   0.991   3.035  12.754 -0.5066 -0.4757 -0.2647
  420TMC3    C2 6263   0.889   2.974  12.684 -0.5232  0.0198 -0.1588
  420TMC3    C3 6264   0.787   2.925  12.760  0.3394  0.4494 -0.4778
  420TMC3    C4 6265   0.996   3.042  12.888 -0.9824  0.2390 -0.1236
  420TMC3    C5 6266   0.886   3.001  12.965 -0.2686 -0.3747  0.2648
  420TMC3    C6 6267   0.781   2.942  12.898  0.1223  0.6798 -0.3844
  420TMC3     C 6268   1.108   3.090  12.685 -0.0989  0.5232 -0.0918
  420TMC3     O 6269   1.199   3.128  12.761 -0.2910 -0.4811 -0.1730
  420TMC3     H 6270   0.884   2.958  12.577  2.4460  0.1912 -0.3423
  420TMC3    H1 6271   1.062   3.115  12.935 -1.2893  0.9737 -0.8338
  420TMC3    H2 6272   0.692   2.919  12.956  0.0796 -0.6602 -0.9793
  420TMC3    C7 6273   0.894   2.991  13.108  0.1047  1.0357 -0.0503
  420TMC3    C8 6274   0.675   2.872  12.686  0.6215  0.3129  0.3503
  420TMC3    O1 6275   0.791   2.947  13.153  0.0878  1.0614  0.0038
  420TMC3    O2 6276   0.658   2.915  12.570 -0.0104  0.8944 -0.0007
  421TMC3    C1 6277   1.638   0.001  14.230 -0.0056  0.6237 -0.6291
  421TMC3    C2 6278   1.714   0.087  14.304  0.1313  0.1620 -0.1566
  421TMC3    C3 6279   1.844   0.052  14.336  0.3153 -0.1074 -0.5132
  421TMC3    C4 6280   1.687   4.601  14.191  0.5289 -0.4372 -0.6337
  421TMC3    C5 6281   1.821   4.567  14.223 -0.2266  0.1735  0.4143
  421TMC3    C6 6282   1.899   4.655  14.296  0.2403  0.8542  0.2819
  421TMC3     C 6283   1.519   0.054  14.169  0.4694 -0.0789 -0.0571
  421TMC3     O 6284   1.487   0.163  14.216  0.5095 -0.0003  0.6926
  421TMC3     H 6285   1.684   0.188  14.331 -2.4829 -0.4428 -0.8151
  421TMC3    H1 6286   1.628   4.528  14.137  0.2149 -0.1242 -0.7107
  421TMC3    H2 6287   2.002   4.627  14.317 -0.0515 -0.5089 -0.0752
  421TMC3    C7 6288   1.894   4.527  14.098  0.2507  0.2218  0.0983
  421TMC3    C8 6289   1.901   0.130  14.434  0.8511  0.0306  0.5144
  421TMC3    O1 6290   2.008   4.472  14.103 -0.1875  0.1616 -0.8134
  421TMC3    O2 6291   1.825   0.168  14.521  0.0693 -0.0090 -0.1241
  422TMC3    C1 6292   4.566   1.063  13.056  0.5236  0.2147 -0.8313
  422TMC3    C2 6293   4.526   1.184  13.009  0.0029 -0.3236 -0.1432
  422TMC3    C3 6294   4.388   1.191  12.978  0.1303 -0.0311 -0.3707
  422TMC3    C4 6295   4.481   0.959  13.083  0.0510 -0.0766  0.4082
  422TMC3    C5 6296   4.348   0.963  13.041  0.7748 -0.1208  0.3653
  422TMC3    C6 6297   4.304   1.083  12.981  0.1271 -0.0203  0.4598
  422TMC3     C 6298   4.690   1.063  13.125 -0.0880  0.2520  0.0927
  422TMC3     O 6299   0.013   1.165  13.171  0.4934 -0.1933  0.2457
  422TMC3     H 6300   4.591   1.267  12.986 -2.0161  1.6622  1.2939
  422TMC3    H1 6301   4.520   0.871  13.133  3.8833  0.4389 -1.6693
  422TMC3    H2 6302   4.205   1.094  12.940  0.3817 -0.7898 -0.3580
  422TMC3    C7 6303   4.256   0.856  13.081 -0.4288 -0.4097 -0.7317
  422TMC3    C8 6304   4.339   1.316  12.928  0.3281  0.7679 -0.5018
  422TMC3    O1 6305   4.309   0.753  13.121 -0.2783 -0.2255  0.1271
  422TMC3    O2 6306   4.422   1.394  12.884  0.4660 -0.0394  0.6692
  423MPD2     C 6307   1.330   1.989   0.781  0.8202  0.0010  0.0510
  423MPD2    C1 6308   1.340   1.856   0.810  0.2806  0.5785 -0.1938
  423MPD2    C2 6309   1.356   1.764   0.707  0.0595  0.1763 -0.3274
  423MPD2    C3 6310   1.347   1.804   0.577  0.4097 -0.4160  0.5939
  423MPD2    C4 6311   1.339   1.935   0.546 -0.2103  0.0130 -0.0955
  423MPD2    C5 6312   1.336   2.027   0.648 -0.3955 -0.6863  0.2503
  423MPD2     H 6313   1.366   1.659   0.732 -0.2543  0.6181  1.6144
  423MPD2    H1 6314   1.326   1.975   0.446 -0.3464 -0.2610 -0.1854
  423MPD2    H2 6315   1.305   2.069   0.850 -0.3880  1.0723 -1.6531
  423MPD2    H3 6316   1.335   2.131   0.617  0.2628 -0.7623 -0.0257
  423MPD2     N 6317   1.337   1.717   0.468  0.3339 -0.5420 -0.3608
  423MPD2    H5 6318   1.337   1.767   0.380 -0.4249  2.8094  1.5186
  423MPD2    N1 6319   1.339   1.801   0.944  0.5820  0.1728  0.5442
  423MPD2    H7 6320   1.344   1.700   0.953  0.6453  0.1825  0.6233
  424TMC3    C1 6321   1.282   1.805   1.179 -1.0767 -0.2676  0.1145
  424TMC3    C2 6322   1.287   1.668   1.179  0.5281  0.7602  0.4626
  424TMC3    C3 6323   1.225   1.605   1.288  0.0091  0.2230  0.0497
  424TMC3    C4 6324   1.213   1.881   1.275  0.4044  0.2870 -0.1348
  424TMC3    C5 6325   1.140   1.810   1.367 -0.3678 -0.1794 -0.1290
  424TMC3    C6 6326   1.147   1.674   1.375  0.2558 -0.3057  0.3748
  424TMC3     C 6327   1.326   1.877   1.059 -0.6029 -0.5536 -0.2095
  424TMC3     O 6328   1.339   1.998   1.078 -0.2322  0.1204 -0.2958
  424TMC3     H 6329   1.344   1.616   1.103 -1.4950  0.1395 -0.6579
  424TMC3    H1 6330   1.198   1.988   1.270 -1.1676  0.0937  0.4010
  424TMC3    H2 6331   1.102   1.622   1.459 -1.7347  1.2245  0.2401
  424TMC3    C7 6332   1.054   1.884   1.463  0.2598  0.6554 -0.0548
  424TMC3    C8 6333   1.227   1.460   1.295  0.5106  0.0191 -0.4207
  424TMC3    O1 6334   1.071   2.005   1.450  0.0647 -0.0429 -0.1140
  424TMC3    O2 6335   1.331   1.405   1.260 -0.1272  0.0932  0.9386
  425MPD2     C 6336   0.445   1.172   0.429 -0.1376 -0.2779  0.1972
  425MPD2    C1 6337   0.373   1.140   0.320 -0.2591  1.6609  1.2457
  425MPD2    C2 6338   0.257   1.209   0.293 -0.1223  0.2967 -0.8120
  425MPD2    C3 6339   0.192   1.296   0.383  0.0470  0.0294 -1.0239
  425MPD2    C4 6340   0.265   1.331   0.494 -0.1362 -0.1578  0.1349
  425MPD2    C5 6341   0.390   1.269   0.514 -0.1624  0.5232 -0.4229
  425MPD2     H 6342   0.206   1.188   0.199  1.9996  1.2505 -2.1809
  425MPD2    H1 6343   0.242   1.405   0.569  0.0142 -1.2039  1.2202
  425MPD2    H2 6344   0.534   1.118   0.456 -0.1848 -0.0978  0.7239
  425MPD2    H3 6345   0.446   1.295   0.603 -1.0249  2.7783 -0.5555
  425MPD2     N 6346   0.063   1.344   0.361  0.0555 -0.1334 -0.0245
  425MPD2    H5 6347   0.016   1.296   0.285  1.2370  1.2769 -1.6213
  425MPD2    N1 6348   0.414   1.026   0.248 -0.4233  0.4518 -0.5857
  425MPD2    H7 6349   0.455   0.948   0.299 -3.1802 -0.4919  0.1971
  426TMC3    C1 6350   0.451   0.890   0.061  0.2401  0.2367  0.1574
  426TMC3    C2 6351   0.461   0.883  17.615 -0.3570  0.2352 -0.1820
  426TMC3    C3 6352   0.510   0.771  17.559 -0.4652 -0.1071  0.4576
  426TMC3    C4 6353   0.465   0.778   0.140  0.9041 -0.5004  0.1431
  426TMC3    C5 6354   0.524   0.665   0.078  0.2234 -0.3380 -0.0060
  426TMC3    C6 6355   0.548   0.671  17.638 -0.3560 -0.3803 -0.2604
  426TMC3     C 6356   0.394   1.008   0.116  0.6813  0.6243  0.5596
  426TMC3     O 6357   0.349   1.091   0.039  0.0572 -0.2341 -0.1429
  426TMC3     H 6358   0.445   0.971  17.554 -1.0759 -0.6107 -1.2188
  426TMC3    H1 6359   0.448   0.785   0.247 -0.7292 -0.3975 -0.1239
  426TMC3    H2 6360   0.584   0.582  17.587  0.1003  0.2232 -0.9902
  426TMC3    C7 6361   0.568   0.548   0.150 -0.3074 -1.0085  0.0922
  426TMC3    C8 6362   0.463   0.733  17.428  0.4259  0.1034  0.6498
  426TMC3    O1 6363   0.620   0.454   0.090  0.1141 -0.0645  1.0066
  426TMC3    O2 6364   0.520   0.648  17.361  0.2985  0.8391 -0.6943
  427MPD2     C 6365   3.378   3.225  14.770 -0.0929 -0.5681  0.0013
  427MPD2    C1 6366   3.350   3.175  14.896 -0.5472 -0.7674  0.1056
  427MPD2    C2 6367   3.212   3.170  14.926  0.5790  0.5607 -0.0610
  427MPD2    C3 6368   3.115   3.227  14.845 -0.1599  0.8418 -0.9932
  427MPD2    C4 6369   3.144   3.269  14.720 -0.8026 -0.0822 -0.1056
  427MPD2    C5 6370   3.276   3.260  14.677 -0.3712 -0.1429  0.0558
  427MPD2     H 6371   3.197   3.139  15.028  1.6738  0.7068  0.1515
  427MPD2    H1 6372   3.074   3.301  14.644 -2.0759 -0.7329  0.7758
  427MPD2    H2 6373   3.482   3.231  14.740 -0.2198 -0.8854 -0.5165
  427MPD2    H3 6374   3.301   3.289  14.575  2.6677 -0.7181  0.6185
  427MPD2     N 6375   2.985   3.241  14.891  0.9441 -0.2454 -0.0370
  427MPD2    H5 6376   2.923   3.269  14.815 -1.4599 -0.5535  1.8023
  427MPD2    N1 6377   3.443   3.122  14.989  0.2572  0.2190  0.3294
  427MPD2    H7 6378   3.409   3.084  15.077  0.3862 -1.3362 -0.2856
  428TMC3    C1 6379   3.653   3.060  15.075  0.1176 -0.3635  0.1810
  428TMC3    C2 6380   3.611   2.946  15.121  0.1325  0.0069  0.2176
  428TMC3    C3 6381   3.695   2.880  15.206 -0.7041 -0.3083  0.0307
  428TMC3    C4 6382   3.783   3.107  15.102 -0.3996  0.6175 -0.3838
  428TMC3    C5 6383   3.867   3.031  15.181  0.2695  0.2911 -0.3083
  428TMC3    C6 6384   3.820   2.919  15.240  0.0854  0.9075 -0.2339
  428TMC3     C 6385   3.581   3.120  14.966  0.3451  0.2014 -0.6983
  428TMC3     O 6386   3.644   3.174  14.878  0.0768 -0.0810 -0.1828
  428TMC3     H 6387   3.520   2.897  15.088  2.1432 -3.2484 -0.4924
  428TMC3    H1 6388   3.821   3.196  15.053  2.3455 -2.2749 -3.5452
  428TMC3    H2 6389   3.885   2.871  15.312  0.0520 -1.4276 -1.7516
  428TMC3    C7 6390   3.975   3.090  15.258  0.4820  0.3937  0.1546
  428TMC3    C8 6391   3.667   2.736  15.228  0.6811 -0.2280 -0.1667
  428TMC3    O1 6392   3.990   3.059  15.377 -0.3721  0.1969  0.1567
  428TMC3    O2 6393   3.585   2.680  15.156  0.2574 -0.5808  0.0714
  429MPD2     C 6394   4.108   2.715  17.578 -0.0679 -0.2692 -0.0588
  429MPD2    C1 6395   4.239   2.693  17.607 -0.1149  0.7658  0.0099
  429MPD2    C2 6396   4.330   2.792  17.565 -0.0889 -0.0038  0.6689
  429MPD2    C3 6397   4.285   2.904  17.489  0.0375 -0.1858 -0.1224
  429MPD2    C4 6398   4.154   2.912  17.455 -0.1349  0.2515  0.9873
  429MPD2    C5 6399   4.063   2.823  17.503 -0.5755 -0.3647  0.7690
  429MPD2     H 6400   4.433   2.774  17.594 -0.5892  0.3997  2.6953
  429MPD2    H1 6401   4.119   3.002  17.406  0.2201 -0.1138  0.0521
  429MPD2    H2 6402   4.032   2.644  17.611  0.8605 -0.2075  2.2538
  429MPD2    H3 6403   3.965   2.850  17.468  0.0566  0.9892  0.0602
  429MPD2     N 6404   4.379   2.998  17.438  0.3301  0.6703 -0.3732
  429MPD2    H5 6405   4.476   2.986  17.466  0.6648  1.6067 -1.1102
  429MPD2    N1 6406   4.288   2.585  17.684 -0.0571  0.5090  0.0366
  429MPD2    H7 6407   4.382   2.593   0.029 -0.0906  0.3846  0.1499
  430TMC3    C1 6408   4.472   3.168  17.296 -0.0134  0.4343 -0.2130
  430TMC3    C2 6409   4.448   3.295  17.252  0.5773  0.6386  0.1832
  430TMC3    C3 6410   4.559   3.364  17.213 -0.0236 -0.8392 -0.0705
  430TMC3    C4 6411   4.597   3.116  17.299 -0.6682 -0.4099  0.1119
  430TMC3    C5 6412   4.702   3.192  17.258 -0.0081 -0.1273 -0.1716
  430TMC3    C6 6413   4.688   3.322  17.229  0.1788 -1.3008  0.2964
  430TMC3     C 6414   4.357   3.095  17.340 -0.2951 -0.7266 -0.5341
  430TMC3     O 6415   4.266   3.112  17.262 -0.1054  0.2487  0.5085
  430TMC3     H 6416   4.345   3.328  17.244 -0.1665 -1.7095  0.1510
  430TMC3    H1 6417   4.616   3.011  17.320 -0.2354  0.3453  3.4740
  430TMC3    H2 6418   0.048   3.389  17.204  0.0161 -0.9490  0.7111
  430TMC3    C7 6419   0.111   3.135  17.267  0.9996 -0.6726 -0.0925
  430TMC3    C8 6420   4.523   3.431  17.085 -0.3328  0.5028  0.7711
  430TMC3    O1 6421   0.124   3.021  17.226  0.1733  0.0219 -0.0679
  430TMC3    O2 6422   4.404   3.435  17.060  0.6986  0.1076 -0.2026
  431MPD2     C 6423   0.843   3.497  12.386 -0.5634 -0.0742 -0.9749
  431MPD2    C1 6424   0.867   3.581  12.273  0.3428 -0.1943  0.2423
  431MPD2    C2 6425   0.831   3.542  12.151 -0.2037 -0.4029  0.1164
  431MPD2    C3 6426   0.785   3.412  12.126  0.5406  0.7505  0.2011
  431MPD2    C4 6427   0.769   3.329  12.233  0.3245  0.2889  0.4150
  431MPD2    C5 6428   0.792   3.376  12.360 -0.4607 -0.0480  0.4170
  431MPD2     H 6429   0.842   3.614  12.071  0.5702 -1.5451 -0.8166
  431MPD2    H1 6430   0.739   3.226  12.221 -0.1435  0.4949 -0.2076
  431MPD2    H2 6431   0.857   3.537  12.485  1.9986  0.9140 -1.7387
  431MPD2    H3 6432   0.770   3.307  12.441  4.7862 -0.1420  1.7636
  431MPD2     N 6433   0.772   3.356  11.995 -0.2551 -0.5138 -0.2672
  431MPD2    H5 6434   0.755   3.256  11.988  0.1102 -0.5462 -0.6675
  431MPD2    N1 6435   0.915   3.715  12.277  0.2817  0.3915  0.3711
  431MPD2    H7 6436   0.920   3.762  12.188  1.4345 -1.4722 -0.5342
  432TMC3    C1 6437   0.915   3.339  11.813  0.0177 -0.0061  0.0981
  432TMC3    C2 6438   0.972   3.403  11.706  0.7466 -0.8749  0.2147
  432TMC3    C3 6439   1.107   3.378  11.691 -0.5493 -0.3978  0.0881
  432TMC3    C4 6440   0.975   3.244  11.890 -1.0352 -0.3407 -0.5728
  432TMC3    C5 6441   1.106   3.216  11.861 -0.3711 -0.2460  0.0154
  432TMC3    C6 6442   1.171   3.278  11.759 -0.9437  0.1168 -0.5518
  432TMC3     C 6443   0.819   3.425  11.880 -0.1353 -0.3190  0.6822
  432TMC3     O 6444   0.809   3.545  11.857 -0.3124  0.2553 -0.5035
  432TMC3     H 6445   0.917   3.489  11.668 -1.0392 -0.9068  2.7743
  432TMC3    H1 6446   0.933   3.183  11.969 -0.0757  1.1668  1.1108
  432TMC3    H2 6447   1.270   3.251  11.727  0.6661  2.4514  2.4499
  432TMC3    C7 6448   1.197   3.241  11.975  0.0184  0.1656 -0.2185
  432TMC3    C8 6449   1.177   3.499  11.677  0.1792 -0.7005 -0.2416
  432TMC3    O1 6450   1.307   3.286  11.947  0.0355  0.7282  0.2758
  432TMC3    O2 6451   1.125   3.587  11.610  0.1325  0.1195 -0.8768
  433MPD2     C 6452   4.155   2.065  11.045 -0.7238 -0.5057 -0.2023
  433MPD2    C1 6453   4.057   2.030  11.131 -0.1920 -0.2997 -0.2234
  433MPD2    C2 6454   4.052   2.074  11.263 -0.0446 -0.4427  0.5244
  433MPD2    C3 6455   4.146   2.165  11.313 -0.0130 -0.3961 -0.2708
  433MPD2    C4 6456   4.246   2.207  11.221  0.2087 -0.2463  0.2130
  433MPD2    C5 6457   4.250   2.160  11.088 -0.1506  1.0154  0.0557
  433MPD2     H 6458   3.982   2.028  11.331 -0.0466 -1.0526  0.1055
  433MPD2    H1 6459   4.315   2.285  11.253 -0.0411  1.0405 -2.3963
  433MPD2    H2 6460   4.167   2.014  10.950  1.3507 -2.3137  1.0403
  433MPD2    H3 6461   4.326   2.190  11.016 -1.6288 -1.3619 -2.5032
  433MPD2     N 6462   4.144   2.206  11.453 -0.0648 -0.3358  0.1938
  433MPD2    H5 6463   4.071   2.166  11.511 -0.9873  2.0570  0.6779
  433MPD2    N1 6464   3.967   1.937  11.078  0.0402  0.2196 -0.2903
  433MPD2    H7 6465   3.994   1.904  10.986  0.7259 -1.9388  0.6828
  434TMC3    C1 6466   3.798   1.777  11.079 -0.8619 -0.6568  0.1748
  434TMC3    C2 6467   3.781   1.681  11.175 -0.4127  0.7959  0.3288
  434TMC3    C3 6468   3.803   1.550  11.144  0.4420  0.4042  0.0515
  434TMC3    C4 6469   3.812   1.736  10.949 -0.6297  0.0501  0.0207
  434TMC3    C5 6470   3.819   1.603  10.925 -0.4972 -0.3721 -0.0399
  434TMC3    C6 6471   3.822   1.507  11.019  0.2559 -0.2906 -0.2556
  434TMC3     C 6472   3.849   1.900  11.136  0.2405  0.2412 -1.1256
  434TMC3     O 6473   3.800   1.930  11.247 -0.1524 -0.2398  0.4929
  434TMC3     H 6474   3.774   1.700  11.282 -2.2934 -1.5643  0.6360
  434TMC3    H1 6475   3.847   1.803  10.871  2.0633  0.6728  1.7904
  434TMC3    H2 6476   3.847   1.403  10.999  2.1391  0.1937 -0.3755
  434TMC3    C7 6477   3.787   1.572  10.788 -0.9058  0.7689  0.9150
  434TMC3    C8 6478   3.863   1.475  11.252  0.5297  0.1189 -0.5041
  434TMC3    O1 6479   3.766   1.665  10.709  0.0866  0.3210 -0.0511
  434TMC3    O2 6480   3.913   1.539  11.340  0.0872 -0.0414 -0.0872
  435MPD2     C 6481   1.853   1.916  15.489  0.3924 -0.1447 -0.2637
  435MPD2    C1 6482   1.796   1.917  15.611 -0.4867  0.2622  0.2004
  435MPD2    C2 6483   1.858   1.856  15.712  0.7683  0.5410 -0.1256
  435MPD2    C3 6484   1.984   1.802  15.689 -0.7887  0.3591 -0.0913
  435MPD2    C4 6485   2.042   1.798  15.569  0.5326  0.2329 -0.0999
  435MPD2    C5 6486   1.973   1.859  15.465 -0.4834 -0.3784 -0.3525
  435MPD2     H 6487   1.819   1.851  15.813 -0.9209  3.3008 -0.6564
  435MPD2    H1 6488   2.145   1.765  15.554  0.9681  2.5248 -1.9645
  435MPD2    H2 6489   1.795   1.960  15.408 -2.6029  0.0034  1.9462
  435MPD2    H3 6490   2.015   1.853  15.365 -3.3245 -2.9012 -1.4018
  435MPD2     N 6491   2.058   1.758  15.806  0.5212 -0.2073  0.1721
  435MPD2    H5 6492   2.001   1.770  15.889  0.7046 -2.2351  0.5793
  435MPD2    N1 6493   1.668   1.968  15.645  0.0511  0.3842 -0.6268
  435MPD2    H7 6494   1.646   1.959  15.743 -1.0854 -1.8900 -1.1017
  436TMC3    C1 6495   1.354   2.152  15.816  0.9198  0.2141 -0.0398
  436TMC3    C2 6496   1.463   2.104  15.755 -0.2886  0.2750 -0.3475
  436TMC3    C3 6497   1.470   2.093  15.620  1.1675  0.3455  0.0766
  436TMC3    C4 6498   1.253   2.197  15.742  0.0388 -0.6932 -0.0744
  436TMC3    C5 6499   1.246   2.162  15.606 -0.1614  0.6305  0.3164
  436TMC3    C6 6500   1.358   2.111  15.547  0.8519  0.8963  0.1747
  436TMC3     C 6501   1.385   2.233  15.930  0.2220  0.7744 -0.2942
  436TMC3     O 6502   1.500   2.270  15.942  0.0208  0.1047 -0.6409
  436TMC3     H 6503   1.557   2.098  15.809  0.2948  0.8791 -1.2845
  436TMC3    H1 6504   1.170   2.247  15.791  0.4082 -0.5517  0.4046
  436TMC3    H2 6505   1.368   2.095  15.441 -0.7700  1.0221 -0.0018
  436TMC3    C7 6506   1.138   2.226  15.528  0.0827 -0.0044  0.3985
  436TMC3    C8 6507   1.591   2.044  15.557  0.3421  0.1129 -0.5181
  436TMC3    O1 6508   1.071   2.312  15.586  0.2981  0.0249 -0.4986
  436TMC3    O2 6509   1.605   2.074  15.436  0.4075 -0.0479 -0.3552
  437TMC3    C1 6510   0.001   3.597  12.570  0.1043 -0.1252  0.3410
  437TMC3    C2 6511   4.599   3.630  12.616 -0.2652  0.5231 -0.1748
  437TMC3    C3 6512   4.532   3.731  12.553 -0.3855 -0.4497 -0.9230
  437TMC3    C4 6513   0.062   3.665  12.464 -0.0464 -0.1121  0.0290
  437TMC3    C5 6514   4.708   3.758  12.403 -0.1162 -0.2233  0.3009
  437TMC3    C6 6515   4.579   3.801  12.444 -0.4471  0.0242  0.3503
  437TMC3     C 6516   0.062   3.466  12.605 -0.4487  0.0822  0.2330
  437TMC3     O 6517   0.149   3.426  12.536  0.2843  0.4595  0.2525
  437TMC3     H 6518   4.545   3.568  12.686  2.6385 -0.1967  1.4421
  437TMC3    H1 6519   0.151   3.627  12.414 -1.8311 -2.7197 -1.1279
  437TMC3    H2 6520   4.520   3.879  12.397  2.5067  0.5030 -2.5848
  437TMC3    C7 6521   0.054   3.843  12.305 -0.2131 -0.5128  0.5338
  437TMC3    C8 6522   4.396   3.750  12.596  0.3472  0.4900 -0.2959
  437TMC3    O1 6523   4.707   3.868  12.205 -0.1712  0.7286  0.3319
  437TMC3    O2 6524   4.349   3.672  12.678 -0.1331 -0.3203  0.2775
  438MPD2     C 6525   2.691   4.562  16.717 -0.5252  0.5674  0.0216
  438MPD2    C1 6526   2.765   4.451  16.757  0.3788  0.0801 -0.4651
  438MPD2    C2 6527   2.692   4.329  16.766 -0.0889  0.3908 -0.4997
  438MPD2    C3 6528   2.551   4.333  16.775  0.3551 -0.0996  0.6243
  438MPD2    C4 6529   2.480   4.444  16.735 -0.4574  0.6332  0.2374
  438MPD2    C5 6530   2.554   4.558  16.707 -0.4304  0.3934 -0.0327
  438MPD2     H 6531   2.749   4.237  16.772  0.7253  1.0639  2.1281
  438MPD2    H1 6532   2.372   4.452  16.728 -0.5519 -0.2694  0.6688
  438MPD2    H2 6533   2.751   4.645  16.682 -1.8554  1.7911  0.6331
  438MPD2    H3 6534   2.510   4.654  16.686 -0.0132  0.1763 -1.9517
  438MPD2     N 6535   2.475   4.216  16.800  0.3672  0.0259  0.6415
  438MPD2    H5 6536   2.374   4.227  16.795 -0.1406 -3.5724  3.3396
  438MPD2    N1 6537   2.908   4.450  16.753  0.3579  0.0284 -0.3069
  438MPD2    H7 6538   2.955   4.360  16.753 -1.5367 -0.9767  0.4793
  439TMC3    C1 6539   3.126   4.523  16.750  0.8253  0.4839 -0.0602
  439TMC3    C2 6540   3.163   4.430  16.657 -0.0143  0.3461 -0.3823
  439TMC3    C3 6541   3.279   4.360  16.688  0.2370 -0.8576  0.6407
  439TMC3    C4 6542   3.198   4.545  16.866 -0.2131  0.5721  0.3823
  439TMC3    C5 6543   3.312   4.478  16.881 -0.3429 -0.0599  0.1601
  439TMC3    C6 6544   3.364   4.388  16.791 -0.0586 -0.8374 -0.3218
  439TMC3     C 6545   2.992   4.565  16.756  0.3224 -0.3450 -0.5098
  439TMC3     O 6546   2.960   4.670  16.803 -0.3588  0.1970  0.4660
  439TMC3     H 6547   3.082   4.385  16.600  1.4532 -0.8608 -1.5208
  439TMC3    H1 6548   3.176   4.620  16.942 -2.4034 -1.9749  2.2657
  439TMC3    H2 6549   3.451   4.325  16.805 -0.1465 -1.0307 -0.6551
  439TMC3    C7 6550   3.348   4.457  17.015 -0.5229  0.7829 -0.1101
  439TMC3    C8 6551   3.309   4.246  16.606  0.1511 -0.3859  0.2343
  439TMC3    O1 6552   3.258   4.462  17.095 -0.1241  0.0535 -0.2561
  439TMC3    O2 6553   3.385   4.158  16.643  0.3757 -0.1160  0.2494
  440MPD2     C 6554   1.443   0.081  14.907  0.2235  0.3778  0.2282
  440MPD2    C1 6555   1.478   0.169  15.006  0.3946 -0.2595  0.3177
  440MPD2    C2 6556   1.580   0.141  15.093 -0.3821 -0.1544 -0.1813
  440MPD2    C3 6557   1.661   0.028  15.077  0.9171 -0.9830 -0.2681
  440MPD2    C4 6558   1.630   4.663  14.972 -0.1948 -0.1332 -0.2670
  440MPD2    C5 6559   1.526   4.693  14.886  0.0708  0.3844  0.2544
  440MPD2     H 6560   1.594   0.206  15.178 -3.0075  0.5656 -0.2766
  440MPD2    H1 6561   1.698   4.587  14.937  1.3004  1.1233 -0.1336
  440MPD2    H2 6562   1.351   0.095  14.852 -0.7361  1.1334  2.0009
  440MPD2    H3 6563   1.507   4.624  14.805 -0.5982  0.5447  0.2753
  440MPD2     N 6564   1.768   4.714  15.162 -0.1503  0.3662 -0.0215
  440MPD2    H5 6565   1.804   4.620  15.150 -1.0060  0.2284 -1.5329
  440MPD2    N1 6566   1.416   0.290  15.034  0.2459  0.1507  0.2277
  440MPD2    H7 6567   1.448   0.332  15.121 -1.4931 -0.5233  1.1847
  441TMC3    C1 6568   1.869   4.698  15.368  0.5470 -0.2424  0.1757
  441TMC3    C2 6569   1.921   0.052  15.472 -0.7606 -0.3715 -0.0761
  441TMC3    C3 6570   1.898   0.011  15.598  0.1130  0.4271  0.5631
  441TMC3    C4 6571   1.817   4.573  15.380 -0.3828  0.0986  0.0204
  441TMC3    C5 6572   1.813   4.529  15.507 -0.0472  0.5516 -0.1129
  441TMC3    C6 6573   1.859   4.607  15.616 -0.2739  0.0828  0.1417
  441TMC3     C 6574   1.825   0.062  15.263  0.3194  0.3430  0.3674
  441TMC3     O 6575   1.819   0.184  15.284  0.2646 -0.1684  0.4332
  441TMC3     H 6576   1.956   0.154  15.458  0.9124 -1.1196 -1.4112
  441TMC3    H1 6577   1.756   4.520  15.308  1.1192 -0.5922 -0.7462
  441TMC3    H2 6578   1.830   4.580  15.717 -1.4587  1.1502  0.0844
  441TMC3    C7 6579   1.783   4.390  15.537  0.2307 -0.4151 -0.1420
  441TMC3    C8 6580   1.830   0.109  15.676 -0.3684  0.1690 -0.5682
  441TMC3    O1 6581   1.738   4.326  15.442  0.4568  0.2869 -0.0542
  441TMC3    O2 6582   1.861   0.117  15.796 -0.2258  0.7650 -0.3083
  442MPD2     C 6583   4.160   1.141  16.742  0.0082  0.0869 -0.4085
  442MPD2    C1 6584   4.132   1.040  16.840  0.9475  0.4009 -0.5011
  442MPD2    C2 6585   4.152   0.906  16.802 -0.6973  0.1689  0.0511
  442MPD2    C3 6586   4.205   0.880  16.676 -0.0008 -0.4746 -0.2825
  442MPD2    C4 6587   4.228   0.976  16.584 -0.7418 -0.0538  0.0487
  442MPD2    C5 6588   4.203   1.102  16.613  0.4780 -0.0872 -0.0172
  442MPD2     H 6589   4.142   0.824  16.872  1.0721 -0.4011 -0.3738
  442MPD2    H1 6590   4.256   0.951  16.482 -0.1171  1.0456 -0.0433
  442MPD2    H2 6591   4.141   1.246  16.760 -0.5851 -0.1346  0.2399
  442MPD2    H3 6592   4.227   1.173  16.535 -0.0582 -0.4216 -0.4897
  442MPD2     N 6593   4.238   0.748  16.638  0.4505  0.5021 -0.0919
  442MPD2    H5 6594   4.289   0.739  16.551  0.3069  0.9647 -0.2224
  442MPD2    N1 6595   4.078   1.062  16.964  0.0873  0.3970  0.0977
  442MPD2    H7 6596   4.055   0.978  17.016 -1.4142  1.1238  0.6187
  443TMC3    C1 6597   3.952   1.171  17.133  0.6590 -0.7800 -0.0175
  443TMC3    C2 6598   3.834   1.234  17.119 -0.7666  0.1049  0.0870
  443TMC3    C3 6599   3.732   1.191  17.198  0.1172  0.2215 -0.2601
  443TMC3    C4 6600   3.985   1.086  17.234 -0.5117  0.4473  0.2382
  443TMC3    C5 6601   3.888   1.054  17.322  0.8701  0.0292 -0.2252
  443TMC3    C6 6602   3.760   1.104  17.297  0.4908  0.7204  0.0437
  443TMC3     C 6603   4.038   1.186  17.014 -0.3027  0.2914  0.7588
  443TMC3     O 6604   4.042   1.302  16.978 -0.0629  0.3006  0.1905
  443TMC3     H 6605   3.810   1.291  17.031 -0.9048 -0.1250 -0.0250
  443TMC3    H1 6606   4.082   1.037  17.233 -1.8803 -2.0967 -5.4194
  443TMC3    H2 6607   3.674   1.080  17.359  2.5501 -1.8432  1.8865
  443TMC3    C7 6608   3.881   0.913  17.376  0.4586  0.3064  0.4992
  443TMC3    C8 6609   3.618   1.129  17.141  0.1663  0.5577 -0.0112
  443TMC3    O1 6610   3.942   0.827  17.320  0.1819  0.2828 -0.0245
  443TMC3    O2 6611   3.513   1.130  17.203  0.0640 -0.2624  0.3246
  444MPD2     C 6612   4.579   0.550  17.340 -0.1869  0.4565  0.3900
  444MPD2    C1 6613   4.473   0.477  17.288  0.3539  0.8915 -0.3446
  444MPD2    C2 6614   4.488   0.373  17.205  0.2098 -0.0084  0.5187
  444MPD2    C3 6615   4.614   0.345  17.162 -0.1454 -0.2747 -0.2326
  444MPD2    C4 6616   4.721   0.415  17.217 -0.3618  0.0240  0.6865
  444MPD2    C5 6617   4.702   0.513  17.309 -0.2501  0.2524 -0.1740
  444MPD2     H 6618   4.406   0.312  17.169  1.7691 -1.2774 -0.8703
  444MPD2    H1 6619   0.103   0.387  17.204  0.0185  0.6983  2.2854
  444MPD2    H2 6620   4.562   0.637  17.401  0.2422  1.5968 -1.1106
  444MPD2    H3 6621   0.070   0.548  17.358 -0.3875  0.3948 -0.0238
  444MPD2     N 6622   4.637   0.240  17.073  0.1282  0.5147 -0.2011
  444MPD2    H5 6623   4.567   0.168  17.054  2.1285 -1.7027  0.7798
  444MPD2    N1 6624   4.338   0.514  17.327  0.3574 -0.0586 -0.2453
  444MPD2    H7 6625   4.266   0.454  17.289 -1.6169  2.3990 -0.3391
  445TMC3    C1 6626   0.045   0.086  16.955 -0.0649 -0.0018  0.0302
  445TMC3    C2 6627   4.658   0.015  16.926  0.4083 -1.1504  0.5626
  445TMC3    C3 6628   4.687   4.619  16.863 -0.4762  0.0041 -0.1759
  445TMC3    C4 6629   0.174   0.060  16.912 -0.1838 -0.0399 -0.1728
  445TMC3    C5 6630   0.191   4.674  16.839  0.5004 -0.0025  0.6757
  445TMC3    C6 6631   0.085   4.587  16.814 -0.0558 -0.3648 -0.9634
  445TMC3     C 6632   0.028   0.222  17.007  0.7595 -0.1988  0.2753
  445TMC3     O 6633   0.123   0.299  16.984  0.1677  0.0968  0.6228
  445TMC3     H 6634   4.556   0.051  16.932  0.8659  0.4288 -1.0231
  445TMC3    H1 6635   0.251   0.130  16.942  0.7707 -1.6060  0.9952
  445TMC3    H2 6636   0.104   4.495  16.759 -0.0661  1.1916 -3.5853
  445TMC3    C7 6637   0.311   4.607  16.871 -0.7030  0.4493  0.3895
  445TMC3    C8 6638   4.573   4.531  16.859 -0.8095 -0.3271 -0.0972
  445TMC3    O1 6639   0.324   4.595  16.992 -0.3511 -0.3228  0.2077
  445TMC3    O2 6640   4.477   4.560  16.933 -0.3650 -0.2189  0.2878
  446MPD2     C 6641   3.902   1.291  11.823 -0.4318  0.2486  0.4875
  446MPD2    C1 6642   3.834   1.336  11.707  0.4733  0.0904  0.6765
  446MPD2    C2 6643   3.879   1.447  11.637  0.8231 -0.6107  0.8336
  446MPD2    C3 6644   3.992   1.512  11.681 -0.6322 -0.1483 -0.8484
  446MPD2    C4 6645   4.044   1.478  11.805  0.4040 -0.4642 -0.3224
  446MPD2    C5 6646   4.006   1.362  11.868 -0.8155  0.2082  0.0610
  446MPD2     H 6647   3.824   1.490  11.554  2.9346  2.7198  1.1491
  446MPD2    H1 6648   4.134   1.518  11.850  0.8238  0.0071 -1.5827
  446MPD2    H2 6649   3.881   1.197  11.872  0.0681  0.6883  1.5530
  446MPD2    H3 6650   4.065   1.317  11.947 -2.0484 -2.3539 -0.5031
  446MPD2     N 6651   4.053   1.604  11.594 -0.0260  0.0432 -0.0328
  446MPD2    H5 6652   4.002   1.631  11.510  3.6028  2.2079 -1.5154
  446MPD2    N1 6653   3.725   1.260  11.645 -0.0940  0.2072  0.4795
  446MPD2    H7 6654   3.670   1.303  11.571  2.4784 -0.7512 -2.0242
  447TMC3    C1 6655   4.229   1.746  11.511  0.5180 -0.1053  0.3897
  447TMC3    C2 6656   4.194   1.722  11.383 -0.1805  0.8512 -0.1869
  447TMC3    C3 6657   4.250   1.790  11.281 -0.4847 -0.4831 -0.3391
  447TMC3    C4 6658   4.333   1.834  11.539 -0.0213 -0.3774  0.5749
  447TMC3    C5 6659   4.395   1.892  11.426 -0.4589 -0.0631 -0.4622
  447TMC3    C6 6660   4.350   1.878  11.298 -0.3826 -0.3872  0.2234
  447TMC3     C 6661   4.172   1.667  11.617 -0.7138  0.1025 -0.3862
  447TMC3     O 6662   4.254   1.654  11.710  0.5972  0.1331 -0.8435
  447TMC3     H 6663   4.106   1.664  11.356 -0.2531  1.1183 -0.5297
  447TMC3    H1 6664   4.372   1.862  11.636 -1.0896  0.5978  0.7221
  447TMC3    H2 6665   4.390   1.937  11.216  0.0226  1.4368  1.7216
  447TMC3    C7 6666   4.537   1.925  11.432  0.2225  0.2398 -0.6721
  447TMC3    C8 6667   4.246   1.730  11.152 -0.0551 -0.0153  0.4601
  447TMC3    O1 6668   4.590   1.955  11.327 -0.0835  0.0418 -0.2526
  447TMC3    O2 6669   4.306   1.794  11.068  0.4337 -0.8807  0.0057
  448TMC3    C1 6670   2.423   1.368  16.705  0.4560  0.4907 -0.0598
  448TMC3    C2 6671   2.349   1.262  16.662  0.7439 -0.4326  0.1896
  448TMC3    C3 6672   2.307   1.171  16.751  0.0306  0.0234  0.1664
  448TMC3    C4 6673   2.458   1.379  16.836 -0.1988 -0.0548  0.4574
  448TMC3    C5 6674   2.405   1.299  16.930  0.2977  0.0626 -0.0159
  448TMC3    C6 6675   2.327   1.194  16.883 -0.4612  0.1507  0.3973
  448TMC3     C 6676   2.431   1.485  16.621  0.1866  0.9148 -0.6014
  448TMC3     O 6677   2.361   1.473  16.521 -0.4817 -0.6483 -0.5318
  448TMC3     H 6678   2.327   1.255  16.556  0.8678  0.6136  0.0897
  448TMC3    H1 6679   2.514   1.464  16.874 -2.0133  2.3389 -2.2564
  448TMC3    H2 6680   2.291   1.118  16.951 -1.7755  1.6835  1.3929
  448TMC3    C7 6681   2.488   1.279  17.049  0.2531 -0.5421  0.5364
  448TMC3    C8 6682   2.326   1.036  16.715  0.5637  0.2076  0.5592
  448TMC3    O1 6683   2.566   1.367  17.079 -0.5576 -0.4630 -0.9272
  448TMC3    O2 6684   2.383   0.966  16.796  0.6387  0.5191 -0.5415
  449MPD2     C 6685   4.214   4.517  13.061 -0.1454  0.6484  0.3720
  449MPD2    C1 6686   4.195   4.400  13.130  0.0120 -0.4151 -0.3802
  449MPD2    C2 6687   4.184   4.408  13.268  0.0410 -0.0197  0.0217
  449MPD2    C3 6688   4.192   4.526  13.335  0.1569 -0.9459 -0.2421
  449MPD2    C4 6689   4.212   4.649  13.272 -0.4360  0.3135  0.4316
  449MPD2    C5 6690   4.220   4.637  13.128 -0.4259  0.1668  0.1749
  449MPD2     H 6691   4.169   4.315  13.323 -0.5198  1.4102  2.2729
  449MPD2    H1 6692   4.209   0.019  13.330  1.4354  2.5296 -2.9648
  449MPD2    H2 6693   4.230   4.526  12.955  2.8604 -3.0080  0.5419
  449MPD2    H3 6694   4.238   0.006  13.072  1.4562  0.0571  0.5946
  449MPD2     N 6695   4.161   4.509  13.471  0.4278 -0.1063  0.1202
  449MPD2    H5 6696   4.142   4.415  13.503 -0.5603 -0.5204 -1.6771
  449MPD2    N1 6697   4.195   4.275  13.060 -0.4312  0.1056 -0.0450
  449MPD2    H7 6698   4.169   4.199  13.122  0.8066  0.3496  0.7721
  450TMC3    C1 6699   4.225   4.102  12.919 -0.5507  0.0864  0.1348
  450TMC3    C2 6700   4.329   4.033  12.882 -0.2722 -0.0705 -0.2241
  450TMC3    C3 6701   4.353   3.912  12.941 -0.1551 -0.1085 -0.0520
  450TMC3    C4 6702   4.129   4.043  13.001 -0.4449  0.7062 -0.7009
  450TMC3    C5 6703   4.158   3.926  13.061  0.2388  0.7175 -0.5675
  450TMC3    C6 6704   4.280   3.856  13.034 -0.8842 -0.5329  0.3955
  450TMC3     C 6705   4.232   4.244  12.930  0.8832  0.0374 -0.3295
  450TMC3     O 6706   4.291   4.311  12.849 -0.3894 -0.0066  0.1072
  450TMC3     H 6707   4.408   4.086  12.830 -2.3193  0.7723 -2.4619
  450TMC3    H1 6708   4.034   4.091  13.016  0.4620  1.4802  2.5490
  450TMC3    H2 6709   4.306   3.775  13.101 -1.1923  0.0195  1.1792
  450TMC3    C7 6710   4.134   3.938  13.202 -0.1411  0.6774 -0.3431
  450TMC3    C8 6711   4.473   3.836  12.920 -1.2974  0.0825  0.4597
  450TMC3    O1 6712   4.225   3.977  13.278  0.4747 -0.0809  0.1202
  450TMC3    O2 6713   4.469   3.722  12.959 -0.1501 -1.1195 -0.0663
  451MPD2     C 6714   1.289   3.386   1.818  0.0773  0.3720 -0.9343
  451MPD2    C1 6715   1.243   3.379   1.684 -0.5210 -0.0798  0.7582
  451MPD2    C2 6716   1.286   3.273   1.611  0.3589 -0.3944  0.3227
  451MPD2    C3 6717   1.363   3.171   1.664 -0.1147 -0.5831  0.2922
  451MPD2    C4 6718   1.403   3.173   1.798 -0.0516  0.0082 -0.4490
  451MPD2    C5 6719   1.366   3.288   1.865  0.1796 -0.1047  0.1112
  451MPD2     H 6720   1.256   3.265   1.507 -2.6370 -2.3270  1.3236
  451MPD2    H1 6721   1.459   3.093   1.844  0.3144 -0.5577 -1.8870
  451MPD2    H2 6722   1.281   3.473   1.882  1.5470  0.7458 -1.2617
  451MPD2    H3 6723   1.399   3.305   1.967 -0.6079  0.5908  0.2621
  451MPD2     N 6724   1.415   3.060   1.585 -0.3652 -0.2103  0.2885
  451MPD2    H5 6725   1.457   2.983   1.634 -0.9052 -0.7785 -0.1373
  451MPD2    N1 6726   1.146   3.478   1.636 -0.4962  0.0708 -0.2557
  451MPD2    H7 6727   1.104   3.533   1.711  0.2532  0.5450 -0.1790
  452TMC3    C1 6728   1.448   2.920   1.406  0.1156  0.2611 -0.8058
  452TMC3    C2 6729   1.455   2.817   1.498  0.0083  0.3441  0.1069
  452TMC3    C3 6730   1.426   2.690   1.458  0.0460  0.3213  0.0808
  452TMC3    C4 6731   1.425   2.896   1.277 -1.0971  0.6232  0.1453
  452TMC3    C5 6732   1.422   2.769   1.230  0.1320 -0.6592 -0.5225
  452TMC3    C6 6733   1.417   2.663   1.321  0.1005  0.1093 -0.2033
  452TMC3     C 6734   1.417   3.055   1.448 -0.3896 -0.4296 -0.8860
  452TMC3     O 6735   1.391   3.133   1.358 -0.8568  0.4026 -0.7499
  452TMC3     H 6736   1.458   2.830   1.605  0.4274  0.9083  0.0337
  452TMC3    H1 6737   1.406   2.973   1.203  0.5759 -0.3602 -1.3100
  452TMC3    H2 6738   1.382   2.564   1.296 -0.2553 -0.3020  1.8662
  452TMC3    C7 6739   1.360   2.761   1.100  0.0036 -0.0411 -0.0175
  452TMC3    C8 6740   1.436   2.583   1.563  0.2709  0.3472 -0.5909
  452TMC3    O1 6741   1.296   2.855   1.055  0.0955 -0.1970  0.0968
  452TMC3    O2 6742   1.466   2.621   1.678 -0.6379  0.2583  0.8330
  453TMC3    C1 6743   1.425   0.629  11.836  0.2616  0.1639  0.5106
  453TMC3    C2 6744   1.327   0.532  11.873 -0.3943 -0.3273  1.1668
  453TMC3    C3 6745   1.225   0.509  11.783 -0.0131 -0.0672 -0.2642
  453TMC3    C4 6746   1.398   0.710  11.727  0.5820 -0.4193 -0.4850
  453TMC3    C5 6747   1.304   0.663  11.641  0.0906 -0.3245  0.0266
  453TMC3    C6 6748   1.204   0.569  11.667 -0.6381 -0.3094  0.1051
  453TMC3     C 6749   1.532   0.675  11.928  0.2749 -0.5147 -0.1098
  453TMC3     O 6750   1.579   0.781  11.888 -0.1346  0.1195  0.4358
  453TMC3     H 6751   1.347   0.476  11.964  1.0705  0.8417  1.5658
  453TMC3    H1 6752   1.469   0.784  11.692 -1.1946  1.4202 -0.2119
  453TMC3    H2 6753   1.128   0.531  11.600 -1.2392  1.0461  0.0198
  453TMC3    C7 6754   1.306   0.702  11.503 -0.0226  0.3755 -0.8946
  453TMC3    C8 6755   1.114   0.416  11.814 -0.1601  0.3763 -0.5400
  453TMC3    O1 6756   1.237   0.644  11.421  0.3284 -0.2199 -0.5512
  453TMC3    O2 6757   1.004   0.462  11.815  0.1311 -0.0243 -0.0743
  454MPD2     C 6758   0.833   0.218  16.374 -0.4541  0.5678  0.3317
  454MPD2    C1 6759   0.717   0.264  16.321  0.1409 -0.3327  0.2217
  454MPD2    C2 6760   0.660   0.387  16.368 -0.8400 -0.3567  0.4790
  454MPD2    C3 6761   0.716   0.447  16.474  1.0856 -0.6992  0.6903
  454MPD2    C4 6762   0.837   0.398  16.528  0.3956  0.0471  0.0108
  454MPD2    C5 6763   0.888   0.285  16.480 -0.3668 -0.3678 -0.1392
  454MPD2     H 6764   0.568   0.427  16.326 -0.0851  0.5500 -0.3173
  454MPD2    H1 6765   0.888   0.448  16.609  0.7499 -0.0946 -0.1250
  454MPD2    H2 6766   0.883   0.128  16.338 -1.6432 -0.6292  1.6735
  454MPD2    H3 6767   0.979   0.255  16.530  0.1344  1.9488  0.3253
  454MPD2     N 6768   0.650   0.550  16.541 -0.3220 -0.2689  0.7401
  454MPD2    H5 6769   0.668   0.561  16.641  1.1394 -1.4103  0.6055
  454MPD2    N1 6770   0.654   0.204  16.215 -0.0865  0.2161  0.1199
  454MPD2    H7 6771   0.591   0.264  16.163  0.4114 -1.1711 -2.0465
  455TMC3    C1 6772   0.429   0.592  16.556  0.2032 -0.2413  0.5876
  455TMC3    C2 6773   0.436   0.615  16.687  0.0364  0.1769  0.8322
  455TMC3    C3 6774   0.341   0.557  16.768 -0.3048  0.4617 -0.3766
  455TMC3    C4 6775   0.329   0.518  16.503  0.1674 -0.2644 -0.6092
  455TMC3    C5 6776   0.227   0.468  16.577  0.6169 -0.6565  0.7482
  455TMC3    C6 6777   0.228   0.496  16.712  0.0713  0.1180 -0.5282
  455TMC3     C 6778   0.551   0.620  16.482  0.4724 -0.0719  0.6147
  455TMC3     O 6779   0.536   0.656  16.366  0.2887 -0.4517  0.3072
  455TMC3     H 6780   0.509   0.680  16.734  0.5790 -0.9004  1.4615
  455TMC3    H1 6781   0.328   0.505  16.396  1.7868 -2.3446 -0.3623
  455TMC3    H2 6782   0.169   0.432  16.777 -1.3211  1.2996 -0.6138
  455TMC3    C7 6783   0.188   0.340  16.530  0.5202  0.9607  0.3588
  455TMC3    C8 6784   0.350   0.599  16.904 -0.2137  0.2459  0.2680
  455TMC3    O1 6785   0.263   0.277  16.460  0.8247  0.0151 -0.0926
  455TMC3    O2 6786   0.461   0.627  16.945 -0.5424 -0.2778 -0.1660
  456MPD2     C 6787   2.931   4.481  16.244 -0.0229 -0.5008 -0.5462
  456MPD2    C1 6788   3.037   4.543  16.302 -0.5598 -0.3354  0.7638
  456MPD2    C2 6789   3.018   4.652  16.389 -0.1169 -0.3555 -0.0677
  456MPD2    C3 6790   2.895   4.693  16.427 -0.5442  0.2831  0.0601
  456MPD2    C4 6791   2.787   4.617  16.383 -0.3395 -0.2378  0.1922
  456MPD2    C5 6792   2.806   4.512  16.296 -0.0888 -0.5896 -0.6436
  456MPD2     H 6793   3.103   4.707  16.429  0.1653 -0.5224 -0.4443
  456MPD2    H1 6794   2.686   4.628  16.422 -0.7465 -1.1701 -0.6256
  456MPD2    H2 6795   2.943   4.405  16.168 -0.0174  0.2672 -1.3149
  456MPD2    H3 6796   2.724   4.445  16.270 -0.9082  0.3076 -0.3540
  456MPD2     N 6797   2.885   0.077  16.519  0.0801 -0.3402  0.3672
  456MPD2    H5 6798   2.969   0.115  16.561  1.4701  0.6565 -3.3629
  456MPD2    N1 6799   3.168   4.506  16.259 -0.4918  0.3126  0.1504
  456MPD2    H7 6800   3.172   4.443  16.179  1.5879  1.3022 -0.5174
  457TMC3    C1 6801   2.775   0.258  16.615 -1.0074 -0.3894  0.8447
  457TMC3    C2 6802   2.686   0.362  16.586  0.2403  0.1482 -0.3692
  457TMC3    C3 6803   2.719   0.481  16.642  0.2512 -0.6920 -0.0517
  457TMC3    C4 6804   2.891   0.284  16.677  0.4519  0.2020  0.8664
  457TMC3    C5 6805   2.917   0.412  16.725 -0.7982  0.0045  0.4015
  457TMC3    C6 6806   2.827   0.513  16.717 -0.2240  0.3108  0.0845
  457TMC3     C 6807   2.765   0.144  16.533  0.2976  0.3921 -0.1465
  457TMC3     O 6808   2.655   0.130  16.485  0.2831  0.2177 -0.1760
  457TMC3     H 6809   2.598   0.341  16.527 -1.7048  0.8315  2.3147
  457TMC3    H1 6810   2.959   0.203  16.701 -0.2389  0.0277  2.2035
  457TMC3    H2 6811   2.837   0.613  16.759 -0.2743 -0.0680  1.0140
  457TMC3    C7 6812   3.029   0.427  16.827 -0.3067 -0.5690  0.5966
  457TMC3    C8 6813   2.617   0.587  16.629  0.6016 -0.6702 -0.1541
  457TMC3    O1 6814   3.104   0.331  16.850  0.2051  0.4567  0.4577
  457TMC3    O2 6815   2.640   0.689  16.697  0.2927 -0.4872  0.2580
  458MPD2     C 6816   0.387   4.232  12.254  0.3019 -0.5818  0.0752
  458MPD2    C1 6817   0.421   4.162  12.362  0.2172 -1.1322  0.5013
  458MPD2    C2 6818   0.353   4.043  12.384 -0.1252 -0.6516  0.1792
  458MPD2    C3 6819   0.249   4.003  12.309  0.2101  0.0126 -0.0708
  458MPD2    C4 6820   0.219   4.075  12.201  0.2178 -0.7122 -0.4488
  458MPD2    C5 6821   0.288   4.190  12.177 -0.1844 -0.5571 -0.6538
  458MPD2     H 6822   0.372   3.986  12.474  1.8971  1.8025  1.3047
  458MPD2    H1 6823   0.141   4.061  12.127 -0.9158 -2.2318  1.0491
  458MPD2    H2 6824   0.447   4.319  12.229  1.0494 -0.9443  0.6151
  458MPD2    H3 6825   0.277   4.238  12.080 -1.0969  1.4620  0.4566
  458MPD2     N 6826   0.170   3.898  12.353 -0.8140  0.2215  0.1188
  458MPD2    H5 6827   0.204   3.860  12.440 -0.8601  0.0403  0.0591
  458MPD2    N1 6828   0.528   4.212  12.446 -0.1504 -0.3616  0.3609
  458MPD2    H7 6829   0.551   4.310  12.429  1.5597 -1.0273 -1.2070
  459TMC3    C1 6830   0.725   4.195  12.577  0.6295 -0.3247  0.5884
  459TMC3    C2 6831   0.754   4.320  12.535  0.1209  0.4255 -0.0231
  459TMC3    C3 6832   0.854   4.381  12.602  0.4765 -0.5909 -0.8231
  459TMC3    C4 6833   0.761   4.151  12.704  0.9232 -0.1683  0.5483
  459TMC3    C5 6834   0.844   4.228  12.775 -0.7046 -0.0473  0.2995
  459TMC3    C6 6835   0.900   4.341  12.721  0.5756 -0.1672 -0.2393
  459TMC3     C 6836   0.612   4.132  12.519  0.1326  0.0256  0.0246
  459TMC3     O 6837   0.603   4.013  12.540 -0.6585 -0.1367 -0.3795
  459TMC3     H 6838   0.742   4.344  12.430  1.7868 -1.4341 -0.6417
  459TMC3    H1 6839   0.720   4.060  12.746 -0.6804  0.9025  1.2839
  459TMC3    H2 6840   0.973   4.401  12.774 -1.5797  0.9282  1.4807
  459TMC3    C7 6841   0.896   4.177  12.904 -0.3330 -0.2380 -0.5286
  459TMC3    C8 6842   0.920   4.496  12.551  1.3408  0.2227  0.4486
  459TMC3    O1 6843   0.892   4.057  12.908 -0.2501 -0.5676 -0.0099
  459TMC3    O2 6844   1.027   4.525  12.598  0.5702  0.6211 -0.5062
  460MPD2     C 6845   4.158   1.395  11.024 -0.4666  0.1701  0.4019
  460MPD2    C1 6846   4.177   1.530  11.023  0.3195  0.1227 -0.3631
  460MPD2    C2 6847   4.157   1.602  10.906 -0.3765  0.2057 -0.0316
  460MPD2    C3 6848   4.134   1.541  10.783 -0.2146 -0.1936  0.2082
  460MPD2    C4 6849   4.115   1.405  10.788 -0.0012 -0.8420 -0.0923
  460MPD2    C5 6850   4.120   1.333  10.905  0.1141  0.1511 -0.1044
  460MPD2     H 6851   4.159   1.710  10.904  0.9427  0.1497 -2.0297
  460MPD2    H1 6852   4.090   1.353  10.696  0.3531  1.1962 -1.3329
  460MPD2    H2 6853   4.178   1.331  11.109 -0.2697 -0.9647 -0.5010
  460MPD2    H3 6854   4.108   1.225  10.900 -1.3621  0.2738  0.8807
  460MPD2     N 6855   4.136   1.618  10.668 -0.0318 -0.7184  0.3848
  460MPD2    H5 6856   4.168   1.713  10.683 -1.4784  0.0278 -1.2528
  460MPD2    N1 6857   4.201   1.599  11.142  0.6938 -0.0899  0.0980
  460MPD2    H7 6858   4.202   1.544  11.228 -1.7068 -0.8829 -0.3715
  461TMC3    C1 6859   4.165   1.668  10.447  0.2804 -0.0825  0.5474
  461TMC3    C2 6860   4.207   1.610  10.330  0.0069  0.0118  0.4758
  461TMC3    C3 6861   4.286   1.679  10.243 -0.2568  0.6740 -0.4343
  461TMC3    C4 6862   4.194   1.800  10.472  0.6102 -0.3482  0.0695
  461TMC3    C5 6863   4.275   1.868  10.384 -0.4951 -0.1488 -0.1706
  461TMC3    C6 6864   4.318   1.807  10.269 -0.2524  0.0205 -0.1722
  461TMC3     C 6865   4.119   1.573  10.548 -0.0319  0.4036  0.4503
  461TMC3     O 6866   4.067   1.470  10.501 -0.4195  0.8612 -0.2552
  461TMC3     H 6867   4.186   1.505  10.313 -0.8252  0.2566  0.0277
  461TMC3    H1 6868   4.148   1.847  10.559  0.6313  1.8036 -1.0840
  461TMC3    H2 6869   4.380   1.856  10.195 -0.9273  0.1607 -0.6460
  461TMC3    C7 6870   4.218   2.000  10.368  0.2116 -0.1155 -0.8093
  461TMC3    C8 6871   4.286   1.645  10.102  0.5460  0.0520  0.3670
  461TMC3    O1 6872   4.105   1.999  10.318 -0.3697  0.2195 -0.5916
  461TMC3    O2 6873   4.380   1.682  10.035  0.0206  0.0987  0.3783
  462TMC3    C1 6874   0.069   2.889   0.254  0.5185 -0.1929  0.1623
  462TMC3    C2 6875   0.005   2.806   0.163  0.1118  0.4784  0.1900
  462TMC3    C3 6876   0.033   2.672   0.162 -0.3703 -0.6264  0.2976
  462TMC3    C4 6877   0.156   2.837   0.347 -0.7633  0.4844 -0.3050
  462TMC3    C5 6878   0.190   2.708   0.334 -0.3763  0.1307  0.0888
  462TMC3    C6 6879   0.133   2.620   0.244 -0.3656 -0.0619 -0.0330
  462TMC3     C 6880   0.029   3.026   0.248  0.0503 -0.5445 -0.5697
  462TMC3     O 6881   4.677   3.052   0.153  0.2724  0.5076 -0.0948
  462TMC3     H 6882   4.658   2.837   0.086 -1.3111 -1.9744  0.4578
  462TMC3    H1 6883   0.189   2.909   0.421 -0.9475  1.3154 -1.0360
  462TMC3    H2 6884   0.151   2.515   0.264 -0.9172 -0.2559 -0.5510
  462TMC3    C7 6885   0.229   2.651   0.464  0.2215 -0.4417  0.2279
  462TMC3    C8 6886   4.666   2.587   0.091  0.5769  0.0334  0.3286
  462TMC3    O1 6887   0.192   2.534   0.489 -0.4079 -0.0609 -0.3660
  462TMC3    O2 6888   4.557   2.636   0.065 -0.1720 -0.0665  0.0294
  463MPD2     C 6889   1.185   1.312   2.972  0.5985 -0.0426  0.0279
  463MPD2    C1 6890   1.161   1.246   2.852 -0.8401 -0.7696  0.2863
  463MPD2    C2 6891   1.262   1.237   2.764  0.8161 -0.0574 -0.1556
  463MPD2    C3 6892   1.384   1.307   2.776  0.1767  0.4739  0.4351
  463MPD2    C4 6893   1.400   1.381   2.895  0.3834 -0.6693 -0.1071
  463MPD2    C5 6894   1.309   1.374   2.996 -0.2342  0.4016  0.1050
  463MPD2     H 6895   1.224   1.194   2.672 -0.1773  1.0294 -0.2579
  463MPD2    H1 6896   1.475   1.459   2.906  0.2832 -0.4766 -0.8051
  463MPD2    H2 6897   1.113   1.312   3.053  1.1319 -1.0378  0.5096
  463MPD2    H3 6898   1.322   1.434   3.086  2.4323  0.1218 -0.0971
  463MPD2     N 6899   1.464   1.331   2.659  0.1260  0.1715  0.7921
  463MPD2    H5 6900   1.541   1.396   2.666  0.3013 -0.1637  2.0689
  463MPD2    N1 6901   1.036   1.191   2.815  0.2936  0.1576 -0.1364
  463MPD2    H7 6902   1.012   1.135   2.733 -0.2114 -1.1268  0.8864
  464TMC3    C1 6903   0.813   1.161   2.804  0.3070  0.4828 -0.2523
  464TMC3    C2 6904   0.812   1.209   2.674  0.1152  0.3407 -0.1969
  464TMC3    C3 6905   0.721   1.145   2.591  0.5689 -0.5512 -0.3300
  464TMC3    C4 6906   0.707   1.093   2.861  0.0267 -0.1249 -0.5010
  464TMC3    C5 6907   0.612   1.048   2.775  0.4894  0.2432  0.9027
  464TMC3    C6 6908   0.619   1.070   2.640 -0.1287 -0.5606 -0.4798
  464TMC3     C 6909   0.916   1.211   2.886  0.5348  0.3172  0.4568
  464TMC3     O 6910   0.894   1.236   3.005  0.2803 -0.4361 -0.5195
  464TMC3     H 6911   0.881   1.281   2.630  0.8928 -0.3334 -0.0844
  464TMC3    H1 6912   0.706   1.069   2.967  1.4046  4.1100  0.4958
  464TMC3    H2 6913   0.556   1.029   2.563 -0.5558 -0.4578 -0.1817
  464TMC3    C7 6914   0.487   0.983   2.822 -1.1701  0.6480 -0.3556
  464TMC3    C8 6915   0.726   1.179   2.447 -0.3431 -0.6737  0.4613
  464TMC3    O1 6916   0.466   0.979   2.943 -0.1608 -0.0026 -0.0227
  464TMC3    O2 6917   0.623   1.184   2.380  0.2183 -0.0946  0.1129
  465MPD2     C 6918   2.145   4.659  16.556  0.9190  0.2796 -1.1398
  465MPD2    C1 6919   2.043   4.705  16.644  0.5852 -0.0160 -0.6223
  465MPD2    C2 6920   1.920   0.011  16.590  0.1396  0.0926  0.3964
  465MPD2    C3 6921   1.899   0.008  16.454  0.5855 -0.0523  0.0051
  465MPD2    C4 6922   1.998   4.682  16.376 -0.4457  0.6053 -0.1768
  465MPD2    C5 6923   2.121   4.645  16.424  0.2762  0.2023 -0.4622
  465MPD2     H 6924   1.839   0.031  16.659 -0.1300 -0.6671  0.3023
  465MPD2    H1 6925   1.986   4.670  16.269  3.0385 -1.3504 -0.3438
  465MPD2    H2 6926   2.245   4.657  16.597  0.7277  0.7455 -0.6401
  465MPD2    H3 6927   2.205   4.616  16.361 -0.1863 -2.6963  0.2423
  465MPD2     N 6928   1.772   0.053  16.415 -0.3411 -0.1223  0.7322
  465MPD2    H5 6929   1.706   0.074  16.489  0.5707  0.0788  1.4920
  465MPD2    N1 6930   2.069   0.013  16.781 -0.1595 -0.4124  0.6681
  465MPD2    H7 6931   1.987   0.031  16.837 -0.5441 -0.6412  0.1823
  466TMC3    C1 6932   1.398   0.190  16.377 -0.4628  0.0349 -0.2235
  466TMC3    C2 6933   1.398   0.311  16.315  0.4529 -0.2024  0.0829
  466TMC3    C3 6934   1.505   0.351  16.246  0.1642  0.2675  0.1400
  466TMC3    C4 6935   1.502   0.093  16.354  0.1317 -0.7716 -0.4441
  466TMC3    C5 6936   1.602   0.142  16.277 -0.3666 -0.5577 -0.1768
  466TMC3    C6 6937   1.607   0.260  16.216 -0.1205  0.0467  0.0116
  466TMC3     C 6938   1.290   0.155  16.467  0.7763 -0.3931 -0.1542
  466TMC3     O 6939   1.225   0.246  16.516  0.0575 -0.3070 -0.8211
  466TMC3     H 6940   1.309   0.369  16.336 -0.1215 -0.7821 -0.7828
  466TMC3    H1 6941   1.521   4.722  16.405  2.4721 -0.6598 -1.0839
  466TMC3    H2 6942   1.686   0.289  16.148 -2.0606  4.1397 -0.4952
  466TMC3    C7 6943   1.734   0.081  16.286  0.6363 -0.1513  1.1213
  466TMC3    C8 6944   1.521   0.491  16.208 -0.3899  0.4011  0.2011
  466TMC3    O1 6945   1.803   0.084  16.182  0.5156  0.0752  0.6683
  466TMC3    O2 6946   1.573   0.519  16.105  0.1042 -0.3909  0.4756
  467TMC3    C1 6947   2.926   3.889  13.875  0.0672  0.0555  0.2753
  467TMC3    C2 6948   2.865   3.937  13.765  0.1045  0.3050  0.1578
  467TMC3    C3 6949   2.732   3.910  13.759  0.2763 -0.9259  0.4978
  467TMC3    C4 6950   2.872   3.830  13.976 -0.4632  0.4237 -0.6869
  467TMC3    C5 6951   2.736   3.804  13.966  0.2991  0.8877 -0.2977
  467TMC3    C6 6952   2.663   3.845  13.858  0.0931 -0.2444  0.4040
  467TMC3     C 6953   3.061   3.856  13.862  0.1361 -0.3153 -0.3340
  467TMC3     O 6954   3.142   3.883  13.953  0.1225  0.4556 -0.3426
  467TMC3     H 6955   2.923   3.979  13.684  0.7642 -0.9968 -0.0421
  467TMC3    H1 6956   2.925   3.803  14.067 -0.3251 -0.5494 -1.0563
  467TMC3    H2 6957   2.560   3.815  13.846  0.4427 -2.3679  2.5328
  467TMC3    C7 6958   2.690   3.684  14.034  0.0206  0.5265  0.4550
  467TMC3    C8 6959   2.675   3.924  13.627  0.5195 -0.1178 -0.4396
  467TMC3    O1 6960   2.781   3.618  14.080  0.0094  0.2519  0.0525
  467TMC3    O2 6961   2.755   3.948  13.537 -0.5440 -0.5843  0.0496
  468MPD2     C 6962   1.163   1.599  11.174 -0.1570  0.4333  0.5033
  468MPD2    C1 6963   1.302   1.588  11.164 -0.3372 -0.4135 -0.0204
  468MPD2    C2 6964   1.349   1.472  11.112  0.5449  0.1130  0.2855
  468MPD2    C3 6965   1.263   1.370  11.074 -0.3399 -0.8641 -0.3208
  468MPD2    C4 6966   1.124   1.383  11.082 -0.9979 -0.0817  0.7341
  468MPD2    C5 6967   1.077   1.498  11.140 -0.7312  0.0596  0.0062
  468MPD2     H 6968   1.456   1.457  11.103  0.5488 -0.4048  1.1269
  468MPD2    H1 6969   1.047   1.307  11.071  0.2063 -1.0755 -0.7151
  468MPD2    H2 6970   1.109   1.691  11.196 -2.8353 -0.7945 -0.9013
  468MPD2    H3 6971   0.969   1.503  11.142 -0.7423 -0.2971  0.2126
  468MPD2     N 6972   1.305   1.248  11.019  0.3296  0.1055  0.2162
  468MPD2    H5 6973   1.227   1.184  11.003 -0.3781  0.4892  2.1714
  468MPD2    N1 6974   1.388   1.687  11.206  0.3446 -0.4036  0.1632
  468MPD2    H7 6975   1.485   1.678  11.178  0.5016  0.4869  0.4264
  469TMC3    C1 6976   1.465   1.885  11.303  0.2922  1.2192 -0.4994
  469TMC3    C2 6977   1.590   1.838  11.328 -0.4576  0.0882  0.3439
  469TMC3    C3 6978   1.691   1.933  11.352  0.1061 -0.3995  0.5812
  469TMC3    C4 6979   1.430   2.019  11.302 -0.8703 -0.0509 -0.1906
  469TMC3    C5 6980   1.533   2.106  11.319  0.4197 -0.1653 -0.1894
  469TMC3    C6 6981   1.664   2.062  11.342 -0.2942  0.0183  0.1779
  469TMC3     C 6982   1.354   1.794  11.283 -0.4131  0.6761  0.5664
  469TMC3     O 6983   1.241   1.827  11.315  0.0131 -0.2251 -0.5373
  469TMC3     H 6984   1.620   1.735  11.310  0.1402  0.2704  0.3319
  469TMC3    H1 6985   1.328   2.053  11.283 -0.0589  0.5088 -3.6496
  469TMC3    H2 6986   1.745   2.131  11.318 -0.6443 -0.1590 -1.5515
  469TMC3    C7 6987   1.495   2.249  11.301  0.3496 -0.2862  0.1959
  469TMC3    C8 6988   1.835   1.897  11.350  0.2585  0.3621  0.3098
  469TMC3    O1 6989   1.378   2.269  11.282 -0.3886  0.1329  0.5636
  469TMC3    O2 6990   1.862   1.786  11.306  0.4172  0.2580  0.3620
  470TMC3    C1 6991   4.651   3.273   0.785 -0.3195  0.0733 -0.3228
  470TMC3    C2 6992   4.602   3.344   0.886  0.0186 -0.0356  0.1785
  470TMC3    C3 6993   4.685   3.387   0.983  0.5190 -0.1449  0.0589
  470TMC3    C4 6994   0.064   3.236   0.774 -0.6537  0.3059  0.1889
  470TMC3    C5 6995   0.143   3.269   0.883 -0.0284  0.5308 -0.0434
  470TMC3    C6 6996   0.091   3.348   0.988  0.4003 -0.3464  0.5316
  470TMC3     C 6997   4.553   3.217   0.691 -0.2621  0.3440 -0.5037
  470TMC3     O 6998   4.455   3.279   0.654  0.7430  0.5143 -0.4761
  470TMC3     H 6999   4.496   3.361   0.903 -0.4107 -1.6765 -0.9068
  470TMC3    H1 7000   0.093   3.175   0.689  0.8620  3.2936 -1.4240
  470TMC3    H2 7001   0.157   3.375   1.070 -0.1003 -2.0385  1.4957
  470TMC3    C7 7002   0.274   3.221   0.907 -0.1748  0.0886 -0.1215
  470TMC3    C8 7003   4.646   3.513   1.052 -0.3439  0.2282  0.2425
  470TMC3    O1 7004   0.331   3.190   0.803  0.3070 -0.1230  0.1877
  470TMC3    O2 7005   0.004   3.547   1.135 -0.0916  0.0064  0.2115
  471MPD2     C 7006   4.623   3.406  16.574 -0.7481 -0.1702 -0.2727
  471MPD2    C1 7007   4.510   3.423  16.650  0.1545 -0.1445  0.8754
  471MPD2    C2 7008   4.512   3.439  16.787 -0.1505 -0.6434 -0.1618
  471MPD2    C3 7009   4.635   3.448  16.856  0.5526  0.3530 -0.5326
  471MPD2    C4 7010   0.029   3.432  16.781  0.2846 -0.2074  0.2121
  471MPD2    C5 7011   0.018   3.406  16.648 -0.1516  0.2134 -0.1502
  471MPD2     H 7012   4.416   3.459  16.831 -0.6602 -1.1109 -1.0667
  471MPD2    H1 7013   0.124   3.407  16.829  1.1620  2.6994 -0.0251
  471MPD2    H2 7014   4.621   3.380  16.469 -1.6232 -0.2305 -0.2415
  471MPD2    H3 7015   0.108   3.375  16.595  0.1173 -0.3398  0.6442
  471MPD2     N 7016   4.634   3.452  17.001 -0.4030 -0.6718  0.0103
  471MPD2    H5 7017   0.007   3.448  17.036 -1.0283 -1.2324  1.6713
  471MPD2    N1 7018   4.383   3.416  16.602  0.5604  0.3532  0.0781
  471MPD2    H7 7019   4.304   3.405  16.665 -1.5149  2.8827 -2.0514
  472TMC3    C1 7020   4.219   3.335  16.465  0.1574 -0.0741 -1.3375
  472TMC3    C2 7021   4.118   3.401  16.412  0.2945 -0.4592 -0.4053
  472TMC3    C3 7022   3.988   3.358  16.442  0.3177  0.3370  1.4918
  472TMC3    C4 7023   4.199   3.238  16.559  0.0671 -0.4762  0.1999
  472TMC3    C5 7024   4.073   3.201  16.595  1.0329  0.1950 -1.2870
  472TMC3    C6 7025   3.967   3.253  16.529 -0.2597 -0.7820  0.2129
  472TMC3     C 7026   4.345   3.399  16.469 -0.3313 -0.1006  0.0047
  472TMC3     O 7027   4.400   3.445  16.370 -0.3872  0.3510  0.4724
  472TMC3     H 7028   4.136   3.480  16.341 -0.0550 -1.5767 -1.7260
  472TMC3    H1 7029   4.283   3.187  16.605 -0.8039 -1.5729  0.5812
  472TMC3    H2 7030   3.872   3.201  16.539 -0.6528 -0.1516 -0.3195
  472TMC3    C7 7031   4.061   3.085  16.681  0.0495 -0.5088  0.8641
  472TMC3    C8 7032   3.877   3.421  16.367  0.4060  0.3888 -0.5015
  472TMC3    O1 7033   4.147   3.003  16.662  0.4667 -0.4713  0.4652
  472TMC3    O2 7034   3.916   3.491  16.274  0.3263 -0.5449 -0.2893
  473MPD2     C 7035   4.340   1.285  14.608  0.5491 -0.2245  0.5792
  473MPD2    C1 7036   4.392   1.335  14.491  0.0477 -0.4057  0.0615
  473MPD2    C2 7037   4.469   1.449  14.490  0.6448  0.7832 -0.4575
  473MPD2    C3 7038   4.507   1.507  14.605 -0.4794 -0.2608  0.5337
  473MPD2    C4 7039   4.462   1.452  14.722  0.5042 -0.2954 -0.1844
  473MPD2    C5 7040   4.378   1.343  14.722  0.4144  0.0210 -0.0039
  473MPD2     H 7041   4.491   1.496  14.395  0.4626  0.8290 -0.4777
  473MPD2    H1 7042   4.492   1.496  14.817  0.5539  0.6968 -0.6561
  473MPD2    H2 7043   4.278   1.196  14.615 -0.9498  0.7751 -0.0940
  473MPD2    H3 7044   4.335   1.309  14.816 -1.7803 -0.3071 -1.1152
  473MPD2     N 7045   4.592   1.622  14.613  0.3982  0.4265  0.4282
  473MPD2    H5 7046   4.607   1.659  14.707 -2.4029  1.4446  0.4691
  473MPD2    N1 7047   4.361   1.285  14.360 -0.5830 -0.3414  0.3433
  473MPD2    H7 7048   4.403   1.337  14.284 -0.1544  1.2287  1.6462
  474TMC3    C1 7049   4.689   1.824  14.545  0.7252  0.4627  0.0766
  474TMC3    C2 7050   4.722   1.907  14.442  0.1574  0.2379  0.2291
  474TMC3    C3 7051   0.021   2.040  14.464  0.1104 -0.0235  0.0390
  474TMC3    C4 7052   4.667   1.880  14.674 -0.3492 -0.4082 -0.3512
  474TMC3    C5 7053   4.691   2.014  14.687  0.3279 -0.6799 -0.5512
  474TMC3    C6 7054   0.013   2.095  14.588  0.5042 -0.0757 -0.2921
  474TMC3     C 7055   4.641   1.691  14.506 -0.3531 -0.0963  0.3258
  474TMC3     O 7056   4.636   1.662  14.388 -0.4669  0.1159  0.6460
  474TMC3     H 7057   4.720   1.864  14.343 -1.2042  2.6208 -0.7908
  474TMC3    H1 7058   4.624   1.823  14.756 -1.9092  0.6433 -0.4415
  474TMC3    H2 7059   0.030   2.200  14.609  0.3711 -0.4282  1.5691
  474TMC3    C7 7060   4.654   2.070  14.813  0.2414 -0.3792 -0.3726
  474TMC3    C8 7061   0.013   2.126  14.338 -0.5509  0.2335  0.0354
  474TMC3    O1 7062   0.009   2.157  14.853 -0.1373 -0.7971  0.0374
  474TMC3    O2 7063   4.684   2.073  14.240 -0.0905 -0.1571 -0.1891
  475MPD2     C 7064   3.664   4.515  10.702 -0.4916 -0.2591  0.2969
  475MPD2    C1 7065   3.586   4.448  10.612  0.7282  0.0545  0.0983
  475MPD2    C2 7066   3.456   4.492  10.594 -0.2964  0.1516 -0.6966
  475MPD2    C3 7067   3.394   4.579  10.683 -1.0262  0.1695 -0.3662
  475MPD2    C4 7068   3.476   4.640  10.775  0.2416  0.3633  0.2883
  475MPD2    C5 7069   3.607   4.604  10.787  0.5949 -0.0647  0.4076
  475MPD2     H 7070   3.396   4.444  10.517 -2.1268 -0.7419  1.2680
  475MPD2    H1 7071   3.439   4.718  10.840 -0.8314  2.1035 -2.4323
  475MPD2    H2 7072   3.771   4.498  10.703 -0.5445 -0.6077 -0.0698
  475MPD2    H3 7073   3.666   4.656  10.861  0.4325  0.9066 -0.1526
  475MPD2     N 7074   3.257   4.613  10.666  0.2096  0.4773  0.4295
  475MPD2    H5 7075   3.203   4.568  10.594 -0.6598  0.0097  1.3713
  475MPD2    N1 7076   3.651   4.362  10.515  0.1725  0.1018 -0.3060
  475MPD2    H7 7077   3.752   4.360  10.519  0.0706  0.8830  2.7353
  476TMC3    C1 7078   3.661   4.263  10.299 -0.2199  0.9427 -0.3578
  476TMC3    C2 7079   3.574   4.233  10.194 -0.0904  0.4221  0.5021
  476TMC3    C3 7080   3.552   4.328  10.092  0.0355  0.1660 -0.4472
  476TMC3    C4 7081   3.752   4.367  10.283  0.0560  1.0561 -0.8338
  476TMC3    C5 7082   3.734   4.447  10.171 -0.5304  0.5579 -0.1950
  476TMC3    C6 7083   3.635   4.434  10.077  0.1811 -0.0822 -0.7399
  476TMC3     C 7084   3.585   4.286  10.419  0.4539  0.0779 -0.0466
  476TMC3     O 7085   3.463   4.262  10.409 -0.5046 -0.3140 -0.4043
  476TMC3     H 7086   3.500   4.157  10.218  0.2682 -0.0644  0.0747
  476TMC3    H1 7087   3.831   4.387  10.355  0.7139 -0.0581 -1.2424
  476TMC3    H2 7088   3.621   4.514  10.005  1.0077  2.5046  1.9320
  476TMC3    C7 7089   3.787   4.583  10.194 -0.1080 -0.2937 -0.1286
  476TMC3    C8 7090   3.414   4.363  10.069 -0.2586  0.9242  0.2235
  476TMC3    O1 7091   3.848   4.640  10.112  0.1462  0.7030  0.2259
  476TMC3    O2 7092   3.394   4.482  10.054  1.0842 -0.2129 -0.4704
  477MPD2     C 7093   0.172   0.921  11.542  0.4751 -0.1985  0.3423
  477MPD2    C1 7094   0.135   0.947  11.671 -0.1536 -0.3085 -0.9298
  477MPD2    C2 7095   0.198   0.887  11.782  0.5918  0.5939 -0.1633
  477MPD2    C3 7096   0.292   0.790  11.753  0.0146  0.9951 -0.3334
  477MPD2    C4 7097   0.335   0.771  11.625 -0.3738  0.0455  0.2312
  477MPD2    C5 7098   0.279   0.843  11.522 -0.2476  0.1638 -0.5987
  477MPD2     H 7099   0.157   0.899  11.881 -0.7912 -1.2619 -0.4959
  477MPD2    H1 7100   0.423   0.716  11.593 -0.7987 -2.1242  2.8488
  477MPD2    H2 7101   0.122   0.970  11.459  1.4375 -0.0962 -0.1677
  477MPD2    H3 7102   0.318   0.837  11.421 -1.4971 -2.4236 -0.9469
  477MPD2     N 7103   0.361   0.710  11.856  0.1418  0.2602 -0.3312
  477MPD2    H5 7104   0.433   0.644  11.829  0.4986  0.2673  0.6108
  477MPD2    N1 7105   0.021   1.030  11.681  0.2531  0.1926  0.3535
  477MPD2    H7 7106   4.703   1.062  11.594  0.2109 -0.2578  0.2079
  478TMC3    C1 7107   4.580   1.161  11.772 -0.1410  0.6061  0.5963
  478TMC3    C2 7108   4.561   1.261  11.863  0.4179 -0.3978  0.2691
  478TMC3    C3 7109   4.467   1.358  11.838 -0.2676  0.2890 -0.2206
  478TMC3    C4 7110   4.483   1.136  11.682 -0.0730 -0.8293 -0.2222
  478TMC3    C5 7111   4.375   1.219  11.676  0.0827  0.4361  0.3383
  478TMC3    C6 7112   4.371   1.336  11.745  0.0162 -0.0692 -0.1306
  478TMC3     C 7113   4.692   1.076  11.796  0.4553 -0.5293 -0.4907
  478TMC3     O 7114   0.015   1.064  11.912  0.3365 -0.1502  0.0887
  478TMC3     H 7115   4.646   1.291  11.923  0.7084  0.5029 -0.5953
  478TMC3    H1 7116   4.481   1.049  11.618 -0.7833 -0.1538 -1.1245
  478TMC3    H2 7117   4.291   1.409  11.734  0.2343 -0.0211 -1.4044
  478TMC3    C7 7118   4.251   1.154  11.639  0.1579 -0.8162 -0.2322
  478TMC3    C8 7119   4.434   1.430  11.959  0.0351  0.5105 -0.5962
  478TMC3    O1 7120   4.230   1.043  11.685  0.3388  0.4023  0.1921
  478TMC3    O2 7121   4.472   1.378  12.065  0.3858 -0.3949 -0.5243
  479MPD2     C 7122   4.230   3.302  15.122 -0.2183  0.1030  1.1213
  479MPD2    C1 7123   4.166   3.246  15.226 -0.2524 -0.8909 -0.1719
  479MPD2    C2 7124   4.211   3.254  15.356 -0.0290 -0.4067 -0.3941
  479MPD2    C3 7125   4.301   3.354  15.386 -0.1536  0.3534 -0.1930
  479MPD2    C4 7126   4.363   3.419  15.280  0.1236 -0.9044  0.1588
  479MPD2    C5 7127   4.326   3.392  15.153  0.0155 -0.1205  0.2114
  479MPD2     H 7128   4.168   3.189  15.431 -1.1577  1.1465  0.3094
  479MPD2    H1 7129   4.448   3.484  15.296 -0.8788 -0.3415  3.3484
  479MPD2    H2 7130   4.198   3.291  15.019  0.1915  3.7218  0.6103
  479MPD2    H3 7131   4.364   3.451  15.070 -2.3109  2.1959  0.7898
  479MPD2     N 7132   4.356   3.376  15.514 -0.0042  0.4341  0.0107
  479MPD2    H5 7133   4.447   3.422  15.511 -0.9877  2.3565 -0.5485
  479MPD2    N1 7134   4.065   3.159  15.176  0.5742 -0.7489 -0.4841
  479MPD2    H7 7135   4.057   3.153  15.075 -0.3666  0.2895 -0.4737
  480TMC3    C1 7136   4.006   3.206  15.802  0.3600 -0.3839  0.7389
  480TMC3    C2 7137   3.912   3.264  15.724  0.1700 -0.4198 -1.3047
  480TMC3    C3 7138   3.948   3.348  15.622  0.0496 -0.1864  0.2865
  480TMC3    C4 7139   4.135   3.232  15.773  0.7232  0.3239  0.2917
  480TMC3    C5 7140   4.169   3.320  15.671 -0.4113 -0.3538 -0.2003
  480TMC3    C6 7141   4.079   3.392  15.601 -0.5905 -0.0358 -1.1143
  480TMC3     C 7142   3.974   3.130  15.919 -0.2541 -0.5849  0.4584
  480TMC3     O 7143   4.058   3.055  15.967  0.4752  0.3661  0.4077
  480TMC3     H 7144   3.805   3.260  15.737  0.3249  2.2335  0.8755
  480TMC3    H1 7145   4.213   3.189  15.834  0.8655  0.7526  0.4069
  480TMC3    H2 7146   4.101   3.469  15.527  3.6468  0.5118  0.7043
  480TMC3    C7 7147   4.313   3.317  15.632 -0.2256 -0.1199 -0.1787
  480TMC3    C8 7148   3.850   3.354  15.510  0.1148  0.4587  1.0685
  480TMC3    O1 7149   4.384   3.296  15.728 -0.9640  1.0531  0.0593
  480TMC3    O2 7150   3.745   3.302  15.531 -0.4666 -0.4319  0.6805
  481MPD2     C 7151   1.183   2.860  14.312  0.0367 -0.8211 -0.3948
  481MPD2    C1 7152   1.051   2.814  14.318  0.2012 -0.4794 -0.4676
  481MPD2    C2 7153   0.994   2.791  14.443 -0.4245  0.2796 -0.6944
  481MPD2    C3 7154   1.077   2.805  14.554  0.3858 -0.1014  0.3607
  481MPD2    C4 7155   1.207   2.841  14.542 -0.2998  0.2736 -0.0373
  481MPD2    C5 7156   1.262   2.872  14.425 -0.2440 -0.0034 -0.7243
  481MPD2     H 7157   0.888   2.769  14.451  0.0863 -2.1144 -0.4693
  481MPD2    H1 7158   1.267   2.850  14.632 -1.7564  0.6570  0.8960
  481MPD2    H2 7159   1.233   2.878  14.217 -0.2907 -1.6564 -0.7293
  481MPD2    H3 7160   1.365   2.893  14.400 -1.2497  4.1680 -1.4173
  481MPD2     N 7161   1.046   2.767  14.685  0.2785  0.5565  0.1017
  481MPD2    H5 7162   1.122   2.785  14.750 -0.1898  1.2585  0.4437
  481MPD2    N1 7163   0.986   2.799  14.192 -0.0705 -0.7460  0.0806
  481MPD2    H7 7164   1.043   2.805  14.108 -1.3506 -1.3233 -0.8420
  482TMC3    C1 7165   0.814   2.778  14.042  0.1135 -0.1318  1.1584
  482TMC3    C2 7166   0.733   2.685  13.994 -0.7362 -0.8955  0.0993
  482TMC3    C3 7167   0.733   2.669  13.855 -0.7301  0.6553  0.4345
  482TMC3    C4 7168   0.876   2.862  13.956  0.1905 -0.0354 -0.2735
  482TMC3    C5 7169   0.872   2.849  13.823  0.5907 -0.2203 -0.8622
  482TMC3    C6 7170   0.803   2.750  13.765  0.4866 -0.0994 -0.7364
  482TMC3     C 7171   0.848   2.774  14.178 -0.5495  0.0915 -0.2545
  482TMC3     O 7172   0.765   2.731  14.258  0.2630 -1.0850  0.0065
  482TMC3     H 7173   0.699   2.605  14.058  2.1282 -1.3372  1.0596
  482TMC3    H1 7174   0.920   2.954  13.993  1.2866 -0.4027 -0.6502
  482TMC3    H2 7175   0.823   2.716  13.665  2.3873 -1.7755  0.2068
  482TMC3    C7 7176   0.988   2.898  13.750 -0.8255  0.0092 -0.2857
  482TMC3    C8 7177   0.721   2.533  13.806  0.0489  0.2135 -0.1832
  482TMC3    O1 7178   1.086   2.931  13.813 -0.1254  0.4282  0.8391
  482TMC3    O2 7179   0.744   2.444  13.887 -0.4551  0.5392 -0.3510
  483TMC3    C1 7180   3.855   1.516   1.205 -0.4418  0.0344 -0.0296
  483TMC3    C2 7181   3.940   1.628   1.230 -0.6496  0.2441 -0.2300
  483TMC3    C3 7182   4.034   1.612   1.324 -0.4025 -0.0767  0.1209
  483TMC3    C4 7183   3.850   1.409   1.292  0.1284  0.0112  0.1286
  483TMC3    C5 7184   3.939   1.415   1.399  0.2253  0.5816 -0.2498
  483TMC3    C6 7185   4.027   1.514   1.415 -0.5505  0.2907  0.3307
  483TMC3     C 7186   3.812   1.501   1.068 -0.5430 -0.0849 -0.8159
  483TMC3     O 7187   3.842   1.589   0.989  0.3013 -0.2986 -0.0734
  483TMC3     H 7188   3.957   1.706   1.156  0.6856  1.4250  1.3195
  483TMC3    H1 7189   3.783   1.324   1.285 -0.1150  0.1943  0.2364
  483TMC3    H2 7190   4.096   1.514   1.499 -0.5571 -2.7872  0.3559
  483TMC3    C7 7191   3.967   1.291   1.479 -0.7045 -0.0450 -0.1948
  483TMC3    C8 7192   4.142   1.709   1.334  0.0084  0.2262 -0.3729
  483TMC3    O1 7193   4.061   1.309   1.555  0.6540 -0.6912  0.0104
  483TMC3    O2 7194   4.134   1.808   1.267  0.0054 -0.4172  0.2526
  484MPD2     C 7195   0.811   0.026  12.310 -0.3357  0.8259  0.1890
  484MPD2    C1 7196   0.895   4.668  12.385 -0.5592 -0.1368  0.1110
  484MPD2    C2 7197   1.029   4.708  12.370  0.0185  0.3234 -0.4998
  484MPD2    C3 7198   1.071   0.087  12.292 -0.5432 -0.5729  0.2354
  484MPD2    C4 7199   0.980   0.162  12.225 -0.2208  0.6372  0.9524
  484MPD2    C5 7200   0.850   0.129  12.237  0.3407 -0.2120  0.3362
  484MPD2     H 7201   1.100   4.641  12.417  1.0266  0.0615 -2.3664
  484MPD2    H1 7202   1.011   0.236  12.153 -2.0690  0.5950  0.1293
  484MPD2    H2 7203   0.705   0.004  12.313 -0.0253 -0.8648 -1.2268
  484MPD2    H3 7204   0.781   0.178  12.170 -0.8850 -2.1567  0.1847
  484MPD2     N 7205   1.207   0.097  12.252 -0.5358 -0.6581 -0.0184
  484MPD2    H5 7206   1.228   0.177  12.193 -0.0237 -1.6508 -1.1911
  484MPD2    N1 7207   0.852   4.559  12.455 -0.5265  0.4118 -0.3448
  484MPD2    H7 7208   0.752   4.538  12.450 -0.9566  2.0157  1.5853
  485TMC3    C1 7209   1.439   0.044  12.220 -0.0659  0.3361 -0.1282
  485TMC3    C2 7210   1.546   4.704  12.263 -0.0592 -0.1748 -0.1272
  485TMC3    C3 7211   1.659   4.699  12.183 -0.4363  0.5294 -0.2125
  485TMC3    C4 7212   1.431   0.103  12.093  0.3639 -0.0204 -0.9332
  485TMC3    C5 7213   1.548   0.102  12.019 -0.1897 -0.0012 -0.2559
  485TMC3    C6 7214   1.655   0.032  12.061 -0.6474 -0.0454 -0.8588
  485TMC3     C 7215   1.314   0.019  12.292 -0.5138  0.0482  0.0151
  485TMC3     O 7216   1.314   4.657  12.379 -0.0032 -0.0475 -0.0943
  485TMC3     H 7217   1.549   4.668  12.365 -0.5207 -3.8723 -1.4221
  485TMC3    H1 7218   1.339   0.142  12.051 -1.0971  0.6201  2.9044
  485TMC3    H2 7219   1.751   0.031  12.010  1.7779 -0.9582  3.6769
  485TMC3    C7 7220   1.580   0.216  11.937  0.7222  0.2048  0.3093
  485TMC3    C8 7221   1.777   0.025  12.255  0.1904  0.1254 -0.1735
  485TMC3    O1 7222   1.498   0.263  11.863 -0.2730  0.5309 -0.2379
  485TMC3    O2 7223   1.801   0.146  12.235 -0.0991  0.4021 -0.0791
  486MPD2     C 7224   3.255   3.500  13.232 -0.1833  0.0399 -0.0714
  486MPD2    C1 7225   3.299   3.446  13.113  0.1340 -0.1400  1.0241
  486MPD2    C2 7226   3.284   3.519  12.994  0.1333  0.4783  0.1165
  486MPD2    C3 7227   3.225   3.640  12.999  0.1761 -0.6223 -0.0425
  486MPD2    C4 7228   3.190   3.700  13.123  0.1938 -0.7675  0.6029
  486MPD2    C5 7229   3.206   3.626  13.241  0.0160 -0.3072 -0.3282
  486MPD2     H 7230   3.305   3.480  12.896  0.9577 -1.0965  0.9165
  486MPD2    H1 7231   3.152   3.801  13.131  0.5828 -0.7366  2.1335
  486MPD2    H2 7232   3.256   3.448  13.327  1.0761  0.5505  0.2008
  486MPD2    H3 7233   3.162   3.671  13.329 -0.5746  1.3314 -1.4582
  486MPD2     N 7234   3.195   3.696  12.872  0.0506  0.0802 -0.1420
  486MPD2    H5 7235   3.214   3.643  12.787 -0.5776 -1.2945  0.5825
  486MPD2    N1 7236   3.373   3.322  13.121 -0.0322  0.0339  0.1181
  486MPD2    H7 7237   3.373   3.274  13.211  3.1376 -1.0740 -0.5019
  487TMC3    C1 7238   3.502   3.142  13.058  1.2029 -0.2428 -0.6563
  487TMC3    C2 7239   3.487   3.033  12.980 -0.9363 -0.1959 -0.0300
  487TMC3    C3 7240   3.552   2.915  13.019  0.1600  0.6057 -0.0302
  487TMC3    C4 7241   3.559   3.136  13.182  0.7685  0.4035  0.3529
  487TMC3    C5 7242   3.626   3.020  13.213 -0.8653  0.3975  0.0397
  487TMC3    C6 7243   3.632   2.908  13.134  0.2053  0.0898  0.2787
  487TMC3     C 7244   3.427   3.258  13.013  0.2354 -0.9257  0.3678
  487TMC3     O 7245   3.411   3.285  12.896 -0.5776  0.0924 -0.6119
  487TMC3     H 7246   3.424   3.038  12.892  0.3044  0.2855 -0.9073
  487TMC3    H1 7247   3.568   3.221  13.248  2.2636  0.3496  0.2200
  487TMC3    H2 7248   3.675   2.818  13.177 -0.9602 -1.0461 -0.9566
  487TMC3    C7 7249   3.606   2.990  13.357  0.1001  0.2430 -0.1058
  487TMC3    C8 7250   3.472   2.801  13.005  0.0427 -0.0393  0.1549
  487TMC3    O1 7251   3.640   3.079  13.435 -0.1424  0.2541  0.0667
  487TMC3    O2 7252   3.352   2.817  12.985 -0.0619  0.0787 -0.3319
  488MPD2     C 7253   3.742   0.062  16.555 -0.1691  1.2338  0.2110
  488MPD2    C1 7254   3.788   0.173  16.626 -0.3368  0.6638  0.8327
  488MPD2    C2 7255   3.800   0.172  16.759  0.1942 -0.0462  0.7720
  488MPD2    C3 7256   3.765   0.064  16.832 -0.4779  0.3475  0.4260
  488MPD2    C4 7257   3.723   4.671  16.765 -0.3774  0.6223  0.0676
  488MPD2    C5 7258   3.703   4.672  16.623 -0.8469 -0.5875 -0.1512
  488MPD2     H 7259   3.823   0.262  16.816  2.4672 -1.0482  1.4187
  488MPD2    H1 7260   3.698   4.577  16.814  1.0310  0.3455  0.2388
  488MPD2    H2 7261   3.708   0.072  16.452 -1.7452  2.5466  0.8594
  488MPD2    H3 7262   3.654   4.593  16.568 -2.5599  0.5990 -0.3035
  488MPD2     N 7263   3.792   0.078  16.970  0.2463 -0.1895  1.1030
  488MPD2    H5 7264   3.845   0.160  16.999 -2.0638  0.4157  3.6060
  488MPD2    N1 7265   3.815   0.304  16.568  0.6462 -0.7264  0.7327
  488MPD2    H7 7266   3.839   0.380  16.630 -1.4216  2.4535 -2.3713
  489TMC3    C1 7267   3.753   0.037  17.199  0.0065  0.1614  0.1246
  489TMC3    C2 7268   3.756   0.173  17.222  0.7890 -0.1366 -0.0525
  489TMC3    C3 7269   3.745   0.219  17.351 -0.0905 -0.0956  0.2963
  489TMC3    C4 7270   3.745   4.674  17.299  0.8342  0.1070  0.2474
  489TMC3    C5 7271   3.732   4.721  17.424 -0.3925 -0.3648 -0.0143
  489TMC3    C6 7272   3.729   0.131  17.457 -0.0854 -0.3256 -0.3675
  489TMC3     C 7273   3.746   4.709  17.064 -0.4890 -1.1342  0.0448
  489TMC3     O 7274   3.674   4.616  17.040 -0.0506 -0.0006  0.1363
  489TMC3     H 7275   3.746   0.248  17.144 -0.5048 -0.5785 -0.3085
  489TMC3    H1 7276   3.730   4.567  17.289  1.7354 -0.0988  1.1619
  489TMC3    H2 7277   3.730   0.172  17.558  4.4259  0.7832 -0.8429
  489TMC3    C7 7278   3.684   4.634  17.528 -0.1262 -0.5374 -0.4347
  489TMC3    C8 7279   3.757   0.371  17.366  0.2004 -0.6404  0.3791
  489TMC3    O1 7280   3.606   4.687  17.601  0.3200 -0.4701 -0.5454
  489TMC3    O2 7281   3.782   0.432  17.263 -0.6274  0.4168  0.4564
  490MPD2     C 7282   0.168   0.349  17.651  0.2451  0.0900 -0.0531
  490MPD2    C1 7283   0.149   0.264   0.070 -0.0725  0.1835  0.0536
  490MPD2    C2 7284   0.144   0.319   0.199 -0.6954 -0.2700  0.1702
  490MPD2    C3 7285   0.170   0.452   0.217 -0.0230 -0.0838 -0.2595
  490MPD2    C4 7286   0.189   0.528   0.106 -0.1120 -0.1348 -0.1148
  490MPD2    C5 7287   0.196   0.485  17.673  0.2888 -0.0019  0.0611
  490MPD2     H 7288   0.104   0.258   0.279  1.6462 -1.0217  0.7636
  490MPD2    H1 7289   0.214   0.633   0.112 -3.3252  0.5508  1.5921
  490MPD2    H2 7290   0.174   0.315  17.548 -0.9847 -2.3674  0.7099
  490MPD2    H3 7291   0.219   0.541  17.583 -0.4882  2.0843  1.1651
  490MPD2     N 7292   0.178   0.512   0.339 -0.3692 -0.3351 -0.1665
  490MPD2    H5 7293   0.167   0.613   0.345  0.8538 -0.2572  0.8743
  490MPD2    N1 7294   0.137   0.120   0.067  0.0335 -0.1181  0.4934
  490MPD2    H7 7295   0.109   0.072   0.152 -1.4374  1.6852  1.0176
  491TMC3    C1 7296   0.141   4.641  17.676  0.2048  0.6399  1.3406
  491TMC3    C2 7297   0.071   4.593   0.096  0.0372  0.8176  0.0933
  491TMC3    C3 7298   0.073   4.457   0.120 -0.7831 -0.2564  0.6680
  491TMC3    C4 7299   0.189   4.559  17.576  0.3995 -0.5999  0.3076
  491TMC3    C5 7300   0.182   4.425  17.607  1.4691 -0.3050  0.1070
  491TMC3    C6 7301   0.144   4.380   0.038 -0.4327 -0.3036  0.6735
  491TMC3     C 7302   0.159   0.053  17.647 -1.1039 -0.6246 -0.3584
  491TMC3     O 7303   0.211   0.075  17.542 -0.1283  0.2641 -0.2638
  491TMC3     H 7304   0.010   4.658   0.158 -0.8725 -1.0149  1.1262
  491TMC3    H1 7305   0.228   4.601  17.484 -0.0521  2.6674  1.6231
  491TMC3    H2 7306   0.136   4.273   0.055  1.4907 -0.8170 -1.6516
  491TMC3    C7 7307   0.129   4.343  17.501 -0.4775  0.5002 -0.8789
  491TMC3    C8 7308   4.719   4.396   0.227 -1.3788  0.2897  1.1095
  491TMC3    O1 7309   0.028   4.276  17.540 -0.0774  0.1518  0.4895
  491TMC3    O2 7310   4.621   4.465   0.256  0.2834 -0.1805  0.0743
  492MPD2     C 7311   0.057   4.477  11.772  0.2246  0.2858 -0.1305
  492MPD2    C1 7312   0.021   4.392  11.672  0.0304 -0.0419  0.7491
  492MPD2    C2 7313   4.679   4.275  11.705  0.6294 -0.8297 -0.1360
  492MPD2    C3 7314   4.648   4.245  11.839  1.1860  0.2084 -0.6595
  492MPD2    C4 7315   4.682   4.331  11.935 -0.0984  0.7402 -0.2453
  492MPD2    C5 7316   0.031   4.446  11.903 -0.1255  0.7524  0.0931
  492MPD2     H 7317   4.650   4.202  11.631 -2.3668 -1.1593  1.3815
  492MPD2    H1 7318   4.671   4.305  12.040 -1.7799  0.3732 -0.5172
  492MPD2    H2 7319   0.112   4.567  11.746  2.6235 -1.5757 -1.5348
  492MPD2    H3 7320   0.052   4.510  11.988 -2.2940 -0.2502  1.3741
  492MPD2     N 7321   4.591   4.115  11.876  0.3299 -0.0729 -0.0002
  492MPD2    H5 7322   4.584   4.096  11.976  1.5259 -0.6973 -0.0466
  492MPD2    N1 7323   0.049   4.446  11.540 -0.1420  0.2888 -0.3698
  492MPD2    H7 7324   0.110   4.526  11.528  0.6596 -0.1338  0.8825
  493TMC3    C1 7325   0.040   4.458  11.314 -0.2271 -1.6521  0.3962
  493TMC3    C2 7326   0.049   4.591  11.321  0.2598  0.0042 -0.3043
  493TMC3    C3 7327   0.081   4.656  11.203 -0.4711 -0.1321  0.1534
  493TMC3    C4 7328   0.061   4.392  11.199  0.3552 -0.3448 -0.3169
  493TMC3    C5 7329   0.092   4.458  11.080 -0.1455  0.0960 -0.3029
  493TMC3    C6 7330   0.115   4.595  11.081 -0.2130 -0.0871  0.3305
  493TMC3     C 7331   0.020   4.373  11.430  0.0824  0.4048  0.1358
  493TMC3     O 7332   4.714   4.256  11.419 -0.2311 -0.1706 -0.2045
  493TMC3     H 7333   0.051   4.647  11.414  0.6745  2.1055 -1.5608
  493TMC3    H1 7334   0.029   4.289  11.202  0.9095 -0.4987  0.2249
  493TMC3    H2 7335   0.150   4.645  10.991 -1.8470 -1.9031 -1.3072
  493TMC3    C7 7336   0.103   4.383  10.954 -0.2714 -0.9880 -0.4383
  493TMC3    C8 7337   0.078   0.077  11.215  1.0760 -0.3188  0.4034
  493TMC3    O1 7338   0.111   4.445  10.850  0.1538  0.0384  0.0349
  493TMC3    O2 7339   0.019   0.127  11.310 -0.1578 -0.9340  0.0162
  494TMC3    C1 7340   1.036   1.514   0.847 -0.5309 -0.3150  0.0124
  494TMC3    C2 7341   1.118   1.400   0.877 -0.1469 -0.2646 -0.2299
  494TMC3    C3 7342   1.148   1.316   0.778 -0.0596 -0.5346 -0.1359
  494TMC3    C4 7343   0.977   1.520   0.724 -0.1411  0.3048 -0.1738
  494TMC3    C5 7344   1.006   1.420   0.632  0.3788  0.5795  0.1417
  494TMC3    C6 7345   1.089   1.315   0.655 -0.0684  0.1592  0.1356
  494TMC3     C 7346   0.972   1.569   0.962 -0.7352  0.2729 -0.0307
  494TMC3     O 7347   0.978   1.497   1.057  0.1319 -0.1077 -0.4170
  494TMC3     H 7348   1.167   1.397   0.974  0.8178  1.8458 -0.6544
  494TMC3    H1 7349   0.885   1.576   0.714 -0.1895  0.5543  1.7874
  494TMC3    H2 7350   1.112   1.242   0.578 -1.4214 -0.0717 -0.0618
  494TMC3    C7 7351   0.934   1.429   0.509  0.0346  0.2736  0.7325
  494TMC3    C8 7352   1.264   1.231   0.781 -0.8004  1.0150  0.1935
  494TMC3    O1 7353   0.891   1.534   0.458 -0.3385 -0.0192 -0.0234
  494TMC3    O2 7354   1.242   1.121   0.829  0.0205  0.2469 -0.1176
  495TMC3    C1 7355   4.248   3.574  14.651  0.2662 -0.6585 -0.3388
  495TMC3    C2 7356   4.169   3.583  14.541 -0.6806  1.1232 -0.1646
  495TMC3    C3 7357   4.041   3.619  14.563  0.5078 -0.1364  0.1841
  495TMC3    C4 7358   4.198   3.595  14.781 -0.0194  0.1921  0.6967
  495TMC3    C5 7359   4.072   3.623  14.798 -0.5425  0.2535  0.2458
  495TMC3    C6 7360   3.989   3.635  14.691  0.5868 -0.6163  0.5081
  495TMC3     C 7361   4.322   3.449  14.664 -0.3785  1.4034 -0.2309
  495TMC3     O 7362   4.250   3.374  14.723  0.5970 -0.1327  0.2860
  495TMC3     H 7363   4.212   3.577  14.442 -0.4375 -0.1485  0.0172
  495TMC3    H1 7364   4.253   3.569  14.871  2.5189  1.4654 -0.4539
  495TMC3    H2 7365   3.882   3.648  14.705  0.2666  0.2593 -2.7417
  495TMC3    C7 7366   4.020   3.624  14.934 -0.1537 -0.5782  0.2214
  495TMC3    C8 7367   3.942   3.625  14.451  0.0067  0.1094 -1.0494
  495TMC3    O1 7368   4.095   3.645  15.029 -0.6756  0.7170 -0.2929
  495TMC3    O2 7369   3.835   3.681  14.480 -0.0046 -0.2491  0.7955
  496MPD2     C 7370   1.002   3.559  15.385 -0.4810  0.2024  0.2284
  496MPD2    C1 7371   1.077   3.514  15.491  0.0015 -0.6552 -0.2787
  496MPD2    C2 7372   1.032   3.524  15.621  0.3730  0.2317  0.0754
  496MPD2    C3 7373   0.918   3.602  15.642  0.4770 -0.1816 -0.1754
  496MPD2    C4 7374   0.847   3.654  15.535 -0.0476 -0.0123  0.6298
  496MPD2    C5 7375   0.893   3.631  15.405  0.1916 -0.0570  0.4520
  496MPD2     H 7376   1.090   3.483  15.703 -0.6387 -1.8143 -0.2127
  496MPD2    H1 7377   0.755   3.707  15.555 -0.6288 -1.3369  1.4853
  496MPD2    H2 7378   1.052   3.553  15.289  0.0677 -1.2563  0.6101
  496MPD2    H3 7379   0.838   3.676  15.323 -0.0125 -4.4670 -1.7957
  496MPD2     N 7380   0.857   3.624  15.769 -0.2090 -0.0947 -0.0183
  496MPD2    H5 7381   0.786   3.696  15.767 -0.2245 -0.1650 -1.7411
  496MPD2    N1 7382   1.204   3.457  15.462  0.1162  0.5323 -0.0056
  496MPD2    H7 7383   1.240   3.469  15.368  0.9082  1.1089  0.3730
  497TMC3    C1 7384   0.828   3.644  15.999  0.1526  0.1946 -0.4553
  497TMC3    C2 7385   0.694   3.626  15.996  0.1247  0.4009  0.4141
  497TMC3    C3 7386   0.621   3.630  16.111  0.2967  0.5146 -0.1153
  497TMC3    C4 7387   0.895   3.650  16.118  0.3585 -0.5884  0.2322
  497TMC3    C5 7388   0.817   3.658  16.231 -0.2492 -0.2889  0.5867
  497TMC3    C6 7389   0.682   3.653  16.229 -0.5658 -0.4097  0.6354
  497TMC3     C 7390   0.902   3.581  15.897  1.1963 -0.4126 -0.3301
  497TMC3     O 7391   0.999   3.512  15.926  0.3533 -0.5966  0.7024
  497TMC3     H 7392   0.636   3.619  15.905  0.1835  0.0996  0.4003
  497TMC3    H1 7393   1.003   3.639  16.119  0.2563 -1.4632  1.5453
  497TMC3    H2 7394   0.629   3.663  16.323 -2.3737  1.0761 -0.5420
  497TMC3    C7 7395   0.881   3.683  16.358 -0.0408  0.5785 -0.2814
  497TMC3    C8 7396   0.476   3.619  16.117  0.2052 -0.4513 -1.6000
  497TMC3    O1 7397   0.818   3.745  16.441 -0.1460  0.0089  0.2018
  497TMC3    O2 7398   0.423   3.676  16.210 -0.1076 -0.4429 -0.1518
  498MPD2     C 7399   2.754   3.862   9.562  0.2309  0.0494  0.9045
  498MPD2    C1 7400   2.692   3.965   9.633  0.1798 -0.3256  0.2081
  498MPD2    C2 7401   2.562   3.958   9.672  0.1061 -0.3597 -0.0359
  498MPD2    C3 7402   2.492   3.841   9.641  0.3551 -0.1323  0.0062
  498MPD2    C4 7403   2.550   3.742   9.566  0.5722  0.2031 -0.7899
  498MPD2    C5 7404   2.683   3.751   9.536  0.1324  0.3746  0.4017
  498MPD2     H 7405   2.525   4.033   9.741  1.0505 -1.3875  1.5845
  498MPD2    H1 7406   2.505   3.647   9.537  0.6935  0.1186 -0.7011
  498MPD2    H2 7407   2.859   3.871   9.539  0.2026 -0.1136  0.7112
  498MPD2    H3 7408   2.728   3.666   9.486 -0.3105  0.0276  0.5879
  498MPD2     N 7409   2.355   3.831   9.681  0.4231  0.1466  0.2416
  498MPD2    H5 7410   2.314   3.901   9.742  0.2922 -0.0261  0.3500
  498MPD2    N1 7411   2.762   4.078   9.677  0.4422 -0.4774 -0.1373
  498MPD2    H7 7412   2.710   4.160   9.706  1.5279 -0.1130  0.8141
  499TMC3    C1 7413   2.931   4.229   9.674  0.6486 -0.5889  0.4386
  499TMC3    C2 7414   3.057   4.261   9.719 -0.1303  0.2155  0.1617
  499TMC3    C3 7415   3.090   4.399   9.711  0.2613 -0.1944  0.6466
  499TMC3    C4 7416   2.841   4.318   9.625  0.6239 -0.2077  0.7341
  499TMC3    C5 7417   2.873   4.451   9.631  0.9206 -0.1887 -0.9573
  499TMC3    C6 7418   2.997   4.491   9.670  0.0809  0.4883 -0.2755
  499TMC3     C 7419   2.901   4.091   9.672  0.8028 -0.2019 -0.6296
  499TMC3     O 7420   2.993   4.008   9.673 -0.1089  0.3072 -0.5976
  499TMC3     H 7421   3.123   4.189   9.766  1.0440 -0.1580 -2.0828
  499TMC3    H1 7422   2.746   4.287   9.582 -0.0938 -0.0034  2.1559
  499TMC3    H2 7423   3.030   4.592   9.646 -0.8678  0.1756 -2.8784
  499TMC3    C7 7424   2.780   4.556   9.587  0.1571 -0.2093 -0.0727
  499TMC3    C8 7425   3.233   4.434   9.717 -0.3171  0.1843  0.1078
  499TMC3    O1 7426   2.826   4.650   9.528 -0.5896 -0.6167 -0.5441
  499TMC3    O2 7427   3.263   4.549   9.685 -0.0116 -0.4370 -0.2501
  500MPD2     C 7428   3.153   0.721  10.749 -0.3207  0.7333  0.4602
  500MPD2    C1 7429   3.231   0.746  10.640  0.4762  0.4023 -0.4367
  500MPD2    C2 7430   3.167   0.752  10.517  0.3136 -0.6654 -0.4732
  500MPD2    C3 7431   3.021   0.731  10.505  0.2031 -0.4525 -0.0652
  500MPD2    C4 7432   2.946   0.705  10.616  0.3052  0.2031  0.0966
  500MPD2    C5 7433   3.014   0.703  10.741  0.3701 -0.3975  0.0792
  500MPD2     H 7434   3.226   0.768  10.427  2.5231  0.2473  1.1470
  500MPD2    H1 7435   2.838   0.709  10.611  0.4365  1.7822 -1.2944
  500MPD2    H2 7436   3.187   0.697  10.849 -0.6496 -1.1165  0.1409
  500MPD2    H3 7437   2.963   0.682  10.834  1.2708  1.8171  1.0862
  500MPD2     N 7438   2.946   0.754  10.380  0.4252 -1.0741  0.3437
  500MPD2    H5 7439   2.854   0.712  10.385 -0.5379  0.9944 -0.1102
  500MPD2    N1 7440   3.369   0.752  10.643  0.9473 -0.0635 -0.8625
  500MPD2    H7 7441   3.422   0.765  10.558  2.9087  1.1055  0.5382
  501TMC3    C1 7442   3.593   0.714  10.712  0.1614  0.4965  0.1985
  501TMC3    C2 7443   3.643   0.787  10.612  0.6345 -0.8694 -0.1546
  501TMC3    C3 7444   3.770   0.803  10.607  0.2450  0.0360  0.2244
  501TMC3    C4 7445   3.670   0.647  10.796  0.7125  0.1570 -0.4095
  501TMC3    C5 7446   3.798   0.646  10.779 -0.5445 -0.0213 -0.1746
  501TMC3    C6 7447   3.860   0.722  10.681 -0.0293 -0.8523 -0.1570
  501TMC3     C 7448   3.450   0.722  10.745  0.7351  0.2234  0.6188
  501TMC3     O 7449   3.426   0.709  10.867  0.7705 -0.1591 -0.6660
  501TMC3     H 7450   3.575   0.838  10.545 -0.6365 -0.6321  1.3112
  501TMC3    H1 7451   3.625   0.608  10.887  0.4600  1.0595 -0.1542
  501TMC3    H2 7452   3.967   0.724  10.666 -0.5910  0.6051 -3.9437
  501TMC3    C7 7453   3.876   0.652  10.901  0.1306  0.1362  0.4280
  501TMC3    C8 7454   3.819   0.941  10.605 -0.3132  0.0637 -0.0236
  501TMC3    O1 7455   3.863   0.564  10.982  0.4407  0.3154 -0.0525
  501TMC3    O2 7456   3.897   0.966  10.697  0.4972  0.3167 -0.1808
  502TMC3    C1 7457   3.523   4.482  15.630  0.3289 -0.1095 -0.3468
  502TMC3    C2 7458   3.495   4.590  15.555 -0.1674 -0.2697  0.2511
  502TMC3    C3 7459   3.361   4.608  15.520 -0.0125  0.0857 -0.2483
  502TMC3    C4 7460   3.421   4.396  15.673 -0.8875 -0.3488  0.9805
  502TMC3    C5 7461   3.295   4.418  15.641 -0.1730  0.2720 -0.2470
  502TMC3    C6 7462   3.259   4.532  15.562 -0.4792  0.2019 -0.2705
  502TMC3     C 7463   3.660   4.463  15.680 -0.0936  0.6854 -1.3633
  502TMC3     O 7464   3.747   4.545  15.655  0.0964  0.1496 -0.2573
  502TMC3     H 7465   3.573   4.655  15.518 -0.0671 -0.9122 -0.6672
  502TMC3    H1 7466   3.446   4.321  15.747 -1.1689 -1.2936  0.1196
  502TMC3    H2 7467   3.162   4.549  15.518 -0.9330 -0.1523  0.5779
  502TMC3    C7 7468   3.198   4.328  15.696 -0.6219 -0.4829  0.5075
  502TMC3    C8 7469   3.328   0.024  15.478 -0.1916 -0.2923 -0.9357
  502TMC3    O1 7470   3.246   4.224  15.747 -0.2131 -0.0520 -0.0541
  502TMC3    O2 7471   3.413   0.079  15.410  0.3763 -0.3065 -0.1482
  503MPD2     C 7472   0.644   0.082  17.120 -0.1199  0.7700 -0.7714
  503MPD2    C1 7473   0.695   0.136  17.234  0.4018 -0.3159 -1.0911
  503MPD2    C2 7474   0.764   0.051  17.324  0.2276 -0.1762  0.9177
  503MPD2    C3 7475   0.771   4.640  17.291  0.2124 -0.4131  0.2755
  503MPD2    C4 7476   0.696   4.588  17.179 -0.4320 -0.1596  0.5049
  503MPD2    C5 7477   0.630   4.675  17.095  0.4519 -0.2074  0.5419
  503MPD2     H 7478   0.816   0.091  17.410 -1.8783  0.8199  1.7471
  503MPD2    H1 7479   0.672   4.482  17.181 -0.2744 -0.1728  2.1477
  503MPD2    H2 7480   0.605   0.145  17.041  2.5681 -0.0744 -2.7589
  503MPD2    H3 7481   0.579   4.644  17.004  1.6384 -0.4583 -0.0331
  503MPD2     N 7482   0.847   4.568  17.384  0.0995 -0.0516  0.3064
  503MPD2    H5 7483   0.872   4.607  17.474  1.3385 -1.2906  0.4956
  503MPD2    N1 7484   0.712   0.274  17.266 -0.1215 -0.3235 -0.3117
  503MPD2    H7 7485   0.757   0.296  17.354 -1.9363  0.8710  0.3110
  504TMC3    C1 7486   0.976   4.374  17.459 -0.2291 -0.7982  0.0798
  504TMC3    C2 7487   0.972   4.424  17.586 -0.3078 -0.9749 -0.0278
  504TMC3    C3 7488   1.080   4.408  17.666  0.2575 -0.3792  0.1066
  504TMC3    C4 7489   1.078   4.295  17.416 -0.1550  0.6530  0.4128
  504TMC3    C5 7490   1.190   4.295  17.488  0.3024  0.4492  0.0849
  504TMC3    C6 7491   1.192   4.354  17.614  0.6512 -0.2773  0.1334
  504TMC3     C 7492   0.903   4.445  17.359  0.3224  0.4495  0.4206
  504TMC3     O 7493   0.900   4.377  17.258 -0.1283  0.0693  0.1393
  504TMC3     H 7494   0.883   4.471  17.626  0.1664  0.7361 -0.9668
  504TMC3    H1 7495   1.088   4.240  17.323 -0.8746 -0.2192  0.8494
  504TMC3    H2 7496   1.279   4.345  17.678  0.2431  4.6061  1.4323
  504TMC3    C7 7497   1.306   4.315  17.404  0.2757  0.7174  0.0422
  504TMC3    C8 7498   1.029   4.347   0.098 -0.7264  0.8016  0.4980
  504TMC3    O1 7499   1.309   4.257  17.295  0.3487 -0.2709  0.7950
  504TMC3    O2 7500   0.919   4.291   0.084 -0.0814 -0.5266 -0.5089
  505MPD2     C 7501   1.042   3.548  10.705  1.3868 -0.5814  0.2850
  505MPD2    C1 7502   1.149   3.556  10.612  0.5615 -0.2460  0.2620
  505MPD2    C2 7503   1.209   3.680  10.591 -0.0221  0.3474  0.3858
  505MPD2    C3 7504   1.173   3.788  10.673 -0.3713  0.1676 -0.2237
  505MPD2    C4 7505   1.070   3.770  10.770 -0.4173  0.2678 -0.3909
  505MPD2    C5 7506   0.997   3.652  10.776  0.1687  0.1273 -0.5379
  505MPD2     H 7507   1.295   3.680  10.525 -0.2164 -1.5363  0.1380
  505MPD2    H1 7508   1.046   3.850  10.838 -2.5616 -0.5413 -0.1805
  505MPD2    H2 7509   1.002   3.448  10.718  0.5578 -0.3895 -0.7404
  505MPD2    H3 7510   0.916   3.633  10.845  0.8213 -0.2271  0.1385
  505MPD2     N 7511   1.249   3.907  10.676 -0.0374  0.3024 -0.3461
  505MPD2    H5 7512   1.223   3.979  10.744  0.2951 -0.3568  0.4857
  505MPD2    N1 7513   1.200   3.449  10.542 -0.1820 -0.2927 -0.3366
  505MPD2    H7 7514   1.290   3.463  10.496  0.1786  1.8464  1.0653
  506TMC3    C1 7515   1.248   3.230  10.509 -0.1802 -0.1894 -0.1894
  506TMC3    C2 7516   1.279   3.155  10.398 -0.0881  0.1157 -0.6697
  506TMC3    C3 7517   1.407   3.112  10.381  0.0099 -0.1514  0.6709
  506TMC3    C4 7518   1.348   3.265  10.597 -0.6100  0.4642  0.0854
  506TMC3    C5 7519   1.479   3.232  10.566 -0.0889  0.1115 -0.0137
  506TMC3    C6 7520   1.511   3.152  10.462 -0.4200  0.0820  0.4767
  506TMC3     C 7521   1.138   3.323  10.517 -0.1045  0.0890  0.0601
  506TMC3     O 7522   1.026   3.284  10.537 -0.4002  0.4090  0.2584
  506TMC3     H 7523   1.213   3.132  10.315  1.8656  1.5338 -2.5920
  506TMC3    H1 7524   1.331   3.305  10.696 -1.0766 -0.4681  0.3801
  506TMC3    H2 7525   1.614   3.125  10.439 -0.3352  0.4517  0.4285
  506TMC3    C7 7526   1.586   3.300  10.635 -0.6363  0.0773  0.0568
  506TMC3    C8 7527   1.447   3.087  10.247  0.0880  0.6481  0.5111
  506TMC3    O1 7528   1.694   3.240  10.633  0.0580  0.7597  0.3076
  506TMC3    O2 7529   1.382   3.009  10.180 -0.5642 -0.1937  0.4045
  507TMC3    C1 7530   2.118   4.440  14.984 -0.2586 -0.1771  0.0758
  507TMC3    C2 7531   2.138   4.356  14.873 -0.3047  0.6373 -0.0556
  507TMC3    C3 7532   2.170   4.409  14.752 -1.1538 -0.3884  0.1572
  507TMC3    C4 7533   2.146   4.573  14.979 -0.7751 -0.2102 -0.4773
  507TMC3    C5 7534   2.172   4.629  14.855  0.5461 -0.6025 -0.4440
  507TMC3    C6 7535   2.189   4.544  14.746 -0.5651  0.7662  0.1335
  507TMC3     C 7536   1.991   4.405  15.045  0.3745  0.6649 -0.1723
  507TMC3     O 7537   1.960   4.488  15.131  0.1244 -0.4374 -0.1239
  507TMC3     H 7538   2.128   4.249  14.884  1.8087  0.3673 -0.9245
  507TMC3    H1 7539   2.107   4.634  15.059 -0.6117  0.6670 -1.0598
  507TMC3    H2 7540   2.204   4.590  14.649  1.2766 -0.7257 -0.3127
  507TMC3    C7 7541   2.094   0.027  14.819 -0.2867 -0.3610  0.1994
  507TMC3    C8 7542   2.064   4.368  14.655 -0.4036 -0.4577  0.1921
  507TMC3    O1 7543   2.037   0.020  14.711 -0.1090  0.0054  0.3940
  507TMC3    O2 7544   2.049   4.247  14.645 -0.7437  0.1076  0.1504
  508MPD2     C 7545   2.462   2.753  16.822  0.2392  1.2412  0.1292
  508MPD2    C1 7546   2.587   2.784  16.779 -0.5732  0.1211  0.6226
  508MPD2    C2 7547   2.607   2.840  16.650 -0.6613 -0.7491 -0.1907
  508MPD2    C3 7548   2.491   2.867  16.578 -0.9827 -0.2834 -0.0086
  508MPD2    C4 7549   2.365   2.845  16.636  0.5997  0.0995  0.5143
  508MPD2    C5 7550   2.345   2.785  16.756 -0.6068  0.1623 -0.1097
  508MPD2     H 7551   2.706   2.856  16.609 -0.8888  1.2272 -0.0026
  508MPD2    H1 7552   2.273   2.866  16.582  1.5274  0.1271 -1.0351
  508MPD2    H2 7553   2.440   2.715  16.921  2.4037 -0.4636 -0.0475
  508MPD2    H3 7554   2.251   2.767  16.807 -0.5428  0.9379  0.2893
  508MPD2     N 7555   2.509   2.905  16.441 -0.3053  0.2581  0.3311
  508MPD2    H5 7556   2.605   2.916  16.407 -0.2870 -1.2129 -0.0862
  508MPD2    N1 7557   2.689   2.749  16.870  0.2934 -0.3343  0.4982
  508MPD2    H7 7558   2.653   2.705  16.954  0.7965  0.8396  1.3355
  509TMC3    C1 7559   2.437   3.014  15.999  0.1167 -0.4373 -0.0692
  509TMC3    C2 7560   2.569   2.991  15.969  0.1815 -0.3539  0.2800
  509TMC3    C3 7561   2.645   2.928  16.067  0.1944 -0.6581  0.7498
  509TMC3    C4 7562   2.390   2.982  16.121 -0.2487 -0.4970  0.1866
  509TMC3    C5 7563   2.466   2.914  16.211 -0.4260  0.7000 -0.0385
  509TMC3    C6 7564   2.597   2.888  16.187 -0.1887  0.5020  0.1465
  509TMC3     C 7565   2.367   3.126  15.930 -0.7393  0.6187  0.3838
  509TMC3     O 7566   2.266   3.170  15.982 -0.4823  0.1853  0.2676
  509TMC3     H 7567   2.615   3.031  15.880 -0.3667 -1.6137 -0.5687
  509TMC3    H1 7568   2.288   3.003  16.153  0.1605 -0.5957  1.5593
  509TMC3    H2 7569   2.666   2.839  16.255  0.0239  1.1367  0.3837
  509TMC3    C7 7570   2.410   2.889  16.340  0.0713 -0.8353  0.4374
  509TMC3    C8 7571   2.777   2.877  16.031  0.4422 -0.6022 -0.2037
  509TMC3    O1 7572   2.288   2.873  16.356  0.0422  0.0505  0.3903
  509TMC3    O2 7573   2.812   2.764  16.064 -0.1812  0.6505  0.2381
  510MPD2     C 7574   0.437   4.246  14.770  0.7602 -0.0259 -0.2538
  510MPD2    C1 7575   0.462   4.115  14.799  0.2272 -0.5870  0.1003
  510MPD2    C2 7576   0.562   4.059  14.722  0.3193 -0.5868  0.2409
  510MPD2    C3 7577   0.623   4.119  14.613 -0.0581  0.4811  0.2481
  510MPD2    C4 7578   0.595   4.244  14.590  0.7399 -0.0796 -0.0491
  510MPD2    C5 7579   0.503   4.308  14.670 -0.3985 -0.6686 -0.2722
  510MPD2     H 7580   0.578   3.953  14.740 -0.5264 -0.9544 -1.2550
  510MPD2    H1 7581   0.634   4.293  14.501  2.2453 -0.0963  0.5949
  510MPD2    H2 7582   0.360   4.311  14.810  0.2039 -0.7213 -0.1961
  510MPD2    H3 7583   0.475   4.407  14.635  1.9209 -0.8769 -2.7066
  510MPD2     N 7584   0.720   4.039  14.547 -0.4488 -0.0019 -0.3723
  510MPD2    H5 7585   0.733   3.945  14.583  0.1730  0.5205  0.7534
  510MPD2    N1 7586   0.396   4.053  14.900 -0.5249 -0.0025  0.0915
  510MPD2    H7 7587   0.303   4.085  14.926 -0.5036 -0.5372  0.8304
  511TMC3    C1 7588   0.328   3.862  15.028 -0.0986  0.5070  0.1862
  511TMC3    C2 7589   0.268   3.925  15.134  0.5112 -0.5724  0.8993
  511TMC3    C3 7590   0.211   3.847  15.235  0.6864 -0.2476 -0.3270
  511TMC3    C4 7591   0.324   3.727  15.011  0.0592  0.1498  0.3705
  511TMC3    C5 7592   0.279   3.656  15.118 -0.2549 -0.2075  0.5273
  511TMC3    C6 7593   0.219   3.710  15.231  0.1783  0.1468 -0.3036
  511TMC3     C 7594   0.425   3.927  14.949 -0.2930 -0.6620 -0.2143
  511TMC3     O 7595   0.516   3.859  14.915 -0.1491 -0.1716  0.3675
  511TMC3     H 7596   0.258   4.033  15.138  1.5613 -0.4258 -0.2862
  511TMC3    H1 7597   0.358   3.677  14.921 -0.3485  0.9886 -0.2461
  511TMC3    H2 7598   0.184   3.657  15.319  2.2084 -0.2525  0.2522
  511TMC3    C7 7599   0.329   3.516  15.115  0.4683 -0.4311 -0.0562
  511TMC3    C8 7600   0.126   3.922  15.330  0.5488 -0.2727  0.1268
  511TMC3    O1 7601   0.419   3.478  15.041  0.2067 -0.4541 -0.1775
  511TMC3    O2 7602   0.112   4.040  15.306  0.4559  0.0608 -0.8333
  512TMC3    C1 7603   3.989   3.138  13.414  1.2429 -0.4749  0.0877
  512TMC3    C2 7604   4.093   3.126  13.503  0.2631 -1.4061  0.2170
  512TMC3    C3 7605   4.194   3.036  13.472  0.1657 -0.0978 -0.0548
  512TMC3    C4 7606   3.972   3.059  13.304  1.1028 -0.1925 -0.0698
  512TMC3    C5 7607   4.065   2.956  13.291  0.8574 -0.2950  0.1370
  512TMC3    C6 7608   4.178   2.938  13.376  0.0020 -0.1939 -0.4765
  512TMC3     C 7609   3.908   3.266  13.419 -0.3421  0.5067  0.7364
  512TMC3     O 7610   3.913   3.326  13.526  0.0764  0.2243  0.0796
  512TMC3     H 7611   4.101   3.198  13.583 -0.5780 -1.9732  0.8176
  512TMC3    H1 7612   3.888   3.068  13.236 -0.4739  0.7211  1.9975
  512TMC3    H2 7613   4.260   2.873  13.348  0.6673  1.2664 -1.8775
  512TMC3    C7 7614   4.064   2.905  13.157 -0.6612 -0.1657 -0.3038
  512TMC3    C8 7615   4.314   3.024  13.554  0.6084  0.2258  0.4955
  512TMC3    O1 7616   3.975   2.951  13.083 -0.1972 -0.0798 -0.3581
  512TMC3    O2 7617   4.366   2.915  13.560 -0.4843 -0.0172 -0.7065
  513MPD2     C 7618   1.874   2.808  13.159  0.2683  0.3005 -0.4854
  513MPD2    C1 7619   1.988   2.880  13.120 -0.5761 -0.9981  0.4051
  513MPD2    C2 7620   2.069   2.956  13.204  0.4327 -0.7001  0.0517
  513MPD2    C3 7621   2.033   2.972  13.336  0.3714  0.3835 -0.2743
  513MPD2    C4 7622   1.918   2.899  13.373 -0.0646 -0.2676  0.4653
  513MPD2    C5 7623   1.845   2.825  13.291 -0.0882 -0.3003 -0.0583
  513MPD2     H 7624   2.160   3.003  13.167 -0.8543 -0.6301 -3.0997
  513MPD2    H1 7625   1.865   2.910  13.467  0.2866 -0.3314  0.6706
  513MPD2    H2 7626   1.810   2.745  13.098  0.7418  0.3844 -1.0711
  513MPD2    H3 7627   1.748   2.798  13.330  0.9107 -2.2028  1.0810
  513MPD2     N 7628   2.100   3.061  13.418  0.4903  0.0097 -0.4195
  513MPD2    H5 7629   2.167   3.122  13.371  1.4414 -2.5450 -2.3994
  513MPD2    N1 7630   2.043   2.859  12.992  0.0971  0.2071 -0.4815
  513MPD2    H7 7631   2.136   2.894  12.971  0.4783 -0.4456  0.1026
  514TMC3    C1 7632   2.093   2.781  12.785  0.4439  0.1473  0.2371
  514TMC3    C2 7633   2.081   2.802  12.652  0.8281  0.2158  0.1273
  514TMC3    C3 7634   2.192   2.788  12.570 -0.3661  0.0555  0.4042
  514TMC3    C4 7635   2.211   2.762  12.839  0.3126  0.6069 -0.2995
  514TMC3    C5 7636   2.321   2.749  12.753 -0.0636  0.2986 -0.4508
  514TMC3    C6 7637   2.314   2.748  12.615  0.0687  0.4815 -0.0855
  514TMC3     C 7638   1.985   2.813  12.881  0.3601 -0.3983 -0.1642
  514TMC3     O 7639   1.868   2.789  12.849 -0.5924 -0.5994  0.1333
  514TMC3     H 7640   1.983   2.834  12.616  1.1898  0.9640 -0.2018
  514TMC3    H1 7641   2.237   2.740  12.942 -0.7869 -0.6275 -0.2914
  514TMC3    H2 7642   2.404   2.732  12.556 -1.2578 -3.2084 -1.1449
  514TMC3    C7 7643   2.445   2.791  12.807  0.0863  0.2786 -0.1196
  514TMC3    C8 7644   2.197   2.851  12.437 -0.2844  0.0117 -0.9488
  514TMC3    O1 7645   2.552   2.756  12.755 -0.7784  0.4331 -0.5842
  514TMC3    O2 7646   2.280   2.806  12.358  0.3728  0.3036 -0.1438
  515MPD2     C 7647   3.650   0.503  15.327 -0.2647 -0.4010 -1.0263
  515MPD2    C1 7648   3.730   0.418  15.255  0.8185 -0.8027 -0.2243
  515MPD2    C2 7649   3.866   0.441  15.264  0.6557  0.9677  0.3518
  515MPD2    C3 7650   3.926   0.540  15.344 -0.4711 -0.7552 -0.1782
  515MPD2    C4 7651   3.841   0.608  15.429  0.8574 -0.0570  0.1575
  515MPD2    C5 7652   3.705   0.592  15.411  0.3092 -0.0593  0.0372
  515MPD2     H 7653   3.932   0.386  15.198  1.1169 -0.2807  1.8562
  515MPD2    H1 7654   3.874   0.679  15.503  0.1710  0.0315  0.3828
  515MPD2    H2 7655   3.542   0.510  15.315 -0.1470  0.9403 -1.3132
  515MPD2    H3 7656   3.643   0.662  15.466  0.8468  1.4996 -1.3653
  515MPD2     N 7657   4.064   0.559  15.339  0.7716  0.1595 -0.0354
  515MPD2    H5 7658   4.095   0.650  15.370 -1.4967  0.6652  0.7041
  515MPD2    N1 7659   3.674   0.320  15.176  0.1013  0.3851 -0.2376
  515MPD2    H7 7660   3.745   0.257  15.138 -0.2802  0.3665 -0.9199
  516TMC3    C1 7661   3.530   0.148  15.113 -0.0513 -0.5836 -0.0131
  516TMC3    C2 7662   3.432   0.119  15.017  0.0735 -0.6470 -0.1331
  516TMC3    C3 7663   3.406   4.707  14.997  0.7940  0.5564 -0.0768
  516TMC3    C4 7664   3.599   0.055  15.178 -0.0495  0.6441 -0.0349
  516TMC3    C5 7665   3.573   4.646  15.162 -0.3236 -0.1233  0.2325
  516TMC3    C6 7666   3.474   4.609  15.073 -0.7214  0.0620 -0.1179
  516TMC3     C 7667   3.542   0.286  15.165 -0.3660 -1.4699  0.0998
  516TMC3     O 7668   3.441   0.357  15.171  0.7996 -0.6242 -0.1524
  516TMC3     H 7669   3.373   0.203  14.981 -0.0357 -0.8886 -0.5176
  516TMC3    H1 7670   3.688   0.074  15.237  1.1870  0.2408 -1.7855
  516TMC3    H2 7671   3.470   4.508  15.035 -1.9389 -0.3105  0.9961
  516TMC3    C7 7672   3.650   4.546  15.244  0.1897 -0.5530 -0.4902
  516TMC3    C8 7673   3.346   4.658  14.873  0.4611 -0.8095 -0.0573
  516TMC3    O1 7674   3.744   4.592  15.308 -0.3959  0.2871 -0.0058
  516TMC3    O2 7675   3.324   4.536  14.867 -0.0949  0.3118 -0.0679
  517MPD2     C 7676   4.224   1.970   0.518 -0.3271  0.0738 -0.2259
  517MPD2    C1 7677   4.339   1.908   0.564 -0.3458 -0.4463  0.2191
  517MPD2    C2 7678   4.415   1.974   0.654 -0.3225 -0.2222  1.0138
  517MPD2    C3 7679   4.374   2.088   0.713 -1.0428  0.3636  0.7000
  517MPD2    C4 7680   4.265   2.157   0.662 -0.2088  0.1477 -0.0780
  517MPD2    C5 7681   4.185   2.089   0.567 -0.6682 -0.6179 -0.5101
  517MPD2     H 7682   4.511   1.933   0.683  0.4878  1.3193  0.5271
  517MPD2    H1 7683   4.237   2.255   0.700  1.8517  1.5114 -2.0882
  517MPD2    H2 7684   4.158   1.917   0.450 -1.1327  2.4075 -1.2777
  517MPD2    H3 7685   4.094   2.144   0.546 -1.4909 -1.0367  1.9339
  517MPD2     N 7686   4.453   2.140   0.824 -0.4497  0.0358  0.5451
  517MPD2    H5 7687   4.529   2.082   0.859  1.2607  1.1067 -1.4356
  517MPD2    N1 7688   4.376   1.782   0.516 -0.1646  0.4808 -0.1329
  517MPD2    H7 7689   4.465   1.753   0.553  0.3370  2.5081  0.2657
  518TMC3    C1 7690   4.381   1.573   0.395 -0.3006  0.2069  0.2587
  518TMC3    C2 7691   4.308   1.467   0.340 -0.4703 -0.2100 -0.7679
  518TMC3    C3 7692   4.373   1.351   0.328 -0.3286 -0.1838 -0.3744
  518TMC3    C4 7693   4.515   1.568   0.428 -0.0593  0.6137  0.5968
  518TMC3    C5 7694   4.579   1.455   0.397 -0.3175  0.3414  1.1252
  518TMC3    C6 7695   4.509   1.343   0.350 -0.4370  1.1761  0.7583
  518TMC3     C 7696   4.306   1.696   0.431  0.0094  0.1423 -0.2673
  518TMC3     O 7697   4.190   1.703   0.393  0.5992  0.0811  0.0515
  518TMC3     H 7698   4.201   1.480   0.326 -0.7315 -0.9025  0.5262
  518TMC3    H1 7699   4.572   1.653   0.463 -2.9395  1.8458  2.3715
  518TMC3    H2 7700   4.556   1.245   0.343  0.0549  1.3902  1.0847
  518TMC3    C7 7701   4.720   1.445   0.427 -1.1981 -0.6733  0.3498
  518TMC3    C8 7702   4.301   1.226   0.284  0.0701  0.1724 -0.9455
  518TMC3    O1 7703   0.043   1.515   0.517  0.0221  0.4052 -0.1061
  518TMC3    O2 7704   4.372   1.128   0.258 -0.2436 -0.3599  0.3487
  519MPD2     C 7705   0.899   0.155  14.708  0.3276  0.0995 -0.2341
  519MPD2    C1 7706   0.862   0.191  14.582  0.0032 -0.1461 -0.1746
  519MPD2    C2 7707   0.925   0.128  14.475  0.3375  0.3476 -0.1186
  519MPD2    C3 7708   1.019   0.032  14.494 -0.3259  0.7439  0.1362
  519MPD2    C4 7709   1.070   0.018  14.616 -0.7429 -0.1363  0.5766
  519MPD2    C5 7710   1.010   0.079  14.726 -0.1544 -0.2258  0.7623
  519MPD2     H 7711   0.893   0.161  14.376 -0.7532  1.4023  0.5906
  519MPD2    H1 7712   1.153   4.671  14.629 -1.3047 -0.6727  1.2313
  519MPD2    H2 7713   0.861   0.208  14.795 -2.1904 -0.5440 -0.9344
  519MPD2    H3 7714   1.062   0.063  14.819  0.9244  0.5657  0.2954
  519MPD2     N 7715   1.077   4.683  14.391 -0.0247 -0.0328 -0.1175
  519MPD2    H5 7716   1.166   4.635  14.401 -1.1075 -2.0415  0.0383
  519MPD2    N1 7717   0.761   0.290  14.569  0.2383  0.0047 -0.2649
  519MPD2    H7 7718   0.707   0.317  14.650  0.6692  0.8081 -0.2474
  520TMC3    C1 7719   1.071   4.576  14.179  0.3968 -0.3631  0.2169
  520TMC3    C2 7720   0.988   4.541  14.072 -0.1846  0.2344  0.1763
  520TMC3    C3 7721   1.034   4.435  13.992  0.2271 -0.1753  0.8739
  520TMC3    C4 7722   1.191   4.515  14.199  0.7021  0.6477  0.2355
  520TMC3    C5 7723   1.231   4.411  14.114  0.1073  0.5228 -0.5515
  520TMC3    C6 7724   1.153   4.378  14.008 -0.0373 -0.3654  0.1377
  520TMC3     C 7725   1.014   4.672  14.270 -0.4265 -0.0224  0.4988
  520TMC3     O 7726   0.908   4.720  14.236  0.6520  0.1019  0.2607
  520TMC3     H 7727   0.892   4.590  14.060  0.9424  2.6290  0.9844
  520TMC3    H1 7728   1.256   4.548  14.279  1.4761  0.9791 -0.5289
  520TMC3    H2 7729   1.185   4.302  13.938 -1.8010 -1.1786  0.2264
  520TMC3    C7 7730   1.360   4.358  14.124 -0.4810 -0.2785 -0.1689
  520TMC3    C8 7731   0.939   4.361  13.903  0.8591  0.3929  0.5202
  520TMC3    O1 7732   1.417   4.364  14.234  0.3220  1.1171 -0.1438
  520TMC3    O2 7733   0.982   4.252  13.866 -0.0756  0.8611 -0.5723
  521MPD2     C 7734   1.651   2.791   0.029  0.1996  0.1052 -0.0265
  521MPD2    C1 7735   1.633   2.686   0.116  0.3306 -0.1535 -0.2901
  521MPD2    C2 7736   1.739   2.625   0.184 -0.1591  0.1839 -0.4185
  521MPD2    C3 7737   1.865   2.679   0.164  0.7993 -0.5655 -1.4523
  521MPD2    C4 7738   1.885   2.796   0.091 -0.5832 -0.5274 -0.0649
  521MPD2    C5 7739   1.780   2.841   0.027  0.4235 -0.5035  0.9924
  521MPD2     H 7740   1.723   2.535   0.242 -0.1397 -0.0565 -0.7881
  521MPD2    H1 7741   1.979   2.848   0.076 -1.7582  2.2859  2.2911
  521MPD2    H2 7742   1.579   2.824  17.646 -2.4525 -0.1546  2.4593
  521MPD2    H3 7743   1.800   2.920  17.646  2.1326 -0.0817  1.9083
  521MPD2     N 7744   1.973   2.612   0.220  0.7567  0.4913  0.1480
  521MPD2    H5 7745   1.952   2.520   0.257 -0.7000  1.0913  0.8056
  521MPD2    N1 7746   1.509   2.635   0.113  0.2566 -0.7168 -0.2455
  521MPD2    H7 7747   1.445   2.680   0.048 -1.2081  0.3371  1.9188
  522TMC3    C1 7748   2.202   2.544   0.223 -1.0554  0.4367  0.5226
  522TMC3    C2 7749   2.336   2.557   0.250 -0.3719 -0.0581  0.0918
  522TMC3    C3 7750   2.428   2.477   0.189 -0.3402 -0.1191  0.2192
  522TMC3    C4 7751   2.162   2.444   0.130 -0.2938  0.2167 -0.0362
  522TMC3    C5 7752   2.268   2.379   0.059  0.0029  0.5731  0.3644
  522TMC3    C6 7753   2.402   2.393   0.087 -0.1890 -0.1174  0.5842
  522TMC3     C 7754   2.103   2.656   0.238 -0.0874 -0.3063  0.0912
  522TMC3     O 7755   2.142   2.771   0.236 -0.8708 -0.0208  0.0657
  522TMC3     H 7756   2.378   2.631   0.318  0.0218 -0.0559 -0.1575
  522TMC3    H1 7757   2.065   2.400   0.116 -2.3344  4.4153  0.8312
  522TMC3    H2 7758   2.474   2.325   0.043 -0.1616 -0.6847  1.5162
  522TMC3    C7 7759   2.234   2.316  17.624 -0.1198 -0.7322 -0.5002
  522TMC3    C8 7760   2.561   2.530   0.202 -0.2158  1.6226  0.4224
  522TMC3    O1 7761   2.321   2.244  17.573 -0.6437  0.2959 -0.5091
  522TMC3    O2 7762   2.604   2.582   0.304  0.0372  0.3488  0.8059
  523MPD2     C 7763   4.416   2.318  10.388  0.3148 -0.2177 -0.3679
  523MPD2    C1 7764   4.312   2.234  10.351 -0.5190 -0.0933 -0.8284
  523MPD2    C2 7765   4.204   2.292  10.281  0.1338  0.3925  0.0589
  523MPD2    C3 7766   4.192   2.423  10.243  0.1962  0.3141  0.6888
  523MPD2    C4 7767   4.295   2.508  10.279 -0.4255  0.3609 -0.1310
  523MPD2    C5 7768   4.399   2.452  10.341 -0.0372  1.1041  0.2817
  523MPD2     H 7769   4.121   2.231  10.246 -0.8185  0.4205  2.2308
  523MPD2    H1 7770   4.289   2.615  10.265 -1.0930  0.3688  0.2163
  523MPD2    H2 7771   4.505   2.292  10.445  0.4998 -2.0920 -1.5047
  523MPD2    H3 7772   4.469   2.527  10.375 -0.3777  1.8919 -0.7519
  523MPD2     N 7773   4.091   2.478  10.164  0.1450 -0.0419  0.8792
  523MPD2    H5 7774   4.103   2.574  10.134 -0.0964 -0.3563 -0.2137
  523MPD2    N1 7775   4.317   2.096  10.387 -0.4498  0.1139  0.1161
  523MPD2    H7 7776   4.404   2.064  10.427 -1.2814 -1.5227  0.6490
  524TMC3    C1 7777   3.897   2.497  10.032  0.5430 -0.3264  0.3277
  524TMC3    C2 7778   3.848   2.427   9.925 -0.3844 -0.0951 -0.1612
  524TMC3    C3 7779   3.777   2.492   9.824 -0.1255  0.9071  0.2814
  524TMC3    C4 7780   3.877   2.633  10.049 -0.2553 -0.1823 -0.1203
  524TMC3    C5 7781   3.805   2.692   9.949  0.1481  0.6528  0.0520
  524TMC3    C6 7782   3.750   2.628   9.840 -0.3956  0.1987 -0.3059
  524TMC3     C 7783   3.981   2.412  10.120 -0.0778 -0.0937 -0.2408
  524TMC3     O 7784   3.953   2.293  10.109  0.1767  0.3340 -0.3709
  524TMC3     H 7785   3.876   2.326   9.898 -0.6028 -0.1492 -0.1843
  524TMC3    H1 7786   3.914   2.686  10.137  0.1560 -1.2883  0.3754
  524TMC3    H2 7787   3.684   2.669   9.765 -0.1704  1.5997  0.2665
  524TMC3    C7 7788   3.768   2.831   9.970 -0.0756 -0.7992  0.2591
  524TMC3    C8 7789   3.700   2.424   9.721 -0.2545 -0.2435  0.2478
  524TMC3    O1 7790   3.799   2.880  10.080 -0.6070  0.4160  0.3626
  524TMC3    O2 7791   3.626   2.480   9.644 -0.6864  0.1157 -0.1553
  525MPD2     C 7792   2.318   4.174  14.547 -0.2304  0.3354 -0.5898
  525MPD2    C1 7793   2.430   4.174  14.631 -0.1586  0.1998  1.0099
  525MPD2    C2 7794   2.520   4.276  14.619  0.7500 -0.3920  0.2146
  525MPD2    C3 7795   2.502   4.369  14.523 -0.8902 -0.2711 -1.4348
  525MPD2    C4 7796   2.397   4.368  14.437 -0.2811 -0.7717 -0.0934
  525MPD2    C5 7797   2.309   4.265  14.445 -0.1035  0.2655 -0.4391
  525MPD2     H 7798   2.606   4.296  14.683  1.3586  1.5585 -1.2132
  525MPD2    H1 7799   2.366   4.432  14.355  1.7485  1.6216  0.9906
  525MPD2    H2 7800   2.252   4.089  14.559 -0.6761  0.5452 -1.5529
  525MPD2    H3 7801   2.228   4.268  14.374 -1.4080 -0.1363  1.0461
  525MPD2     N 7802   2.581   4.488  14.513  0.1828  0.8235  0.5853
  525MPD2    H5 7803   2.531   4.563  14.467  1.6157  1.6239  0.3363
  525MPD2    N1 7804   2.452   4.082  14.735 -0.3052  0.1886 -0.1539
  525MPD2    H7 7805   2.547   4.080  14.773 -0.7038 -0.0658  0.8147
  526TMC3    C1 7806   2.427   3.878  14.863 -0.2797 -0.2165  0.2116
  526TMC3    C2 7807   2.373   3.850  14.982 -0.1219  0.2146 -0.3977
  526TMC3    C3 7808   2.444   3.787  15.078 -0.5105  0.3727 -0.9163
  526TMC3    C4 7809   2.562   3.837  14.828  0.1963  0.2437 -0.3206
  526TMC3    C5 7810   2.629   3.773  14.933 -0.5199  0.2137  1.3017
  526TMC3    C6 7811   2.575   3.749  15.061  0.3035 -0.7235 -0.2379
  526TMC3     C 7812   2.360   3.978  14.776 -0.5963 -0.3532 -0.1965
  526TMC3     O 7813   2.239   3.973  14.770 -0.4177  0.0397  0.6800
  526TMC3     H 7814   2.274   3.893  14.997  0.0484 -0.5177  2.6989
  526TMC3    H1 7815   2.607   3.858  14.731 -1.8991  0.9951 -1.1423
  526TMC3    H2 7816   2.621   3.681  15.132 -0.4346  0.9151  1.7865
  526TMC3    C7 7817   2.771   3.724  14.917 -0.0906 -0.4611  0.9870
  526TMC3    C8 7818   2.379   3.759  15.204  0.4937  0.5310  0.5215
  526TMC3    O1 7819   2.810   3.647  15.003 -0.1886  0.1927  0.3617
  526TMC3    O2 7820   2.459   3.706  15.288 -0.3395 -0.3303  0.2098
  527MPD2     C 7821   0.769   1.961   1.870 -0.0490 -0.6542  0.2371
  527MPD2    C1 7822   0.849   1.847   1.896 -0.1552  0.2773  0.7979
  527MPD2    C2 7823   0.938   1.800   1.801  0.8727 -0.0640  0.4235
  527MPD2    C3 7824   0.942   1.869   1.680  0.0326 -0.5114  0.4312
  527MPD2    C4 7825   0.862   1.978   1.653  0.0800 -0.4355 -0.2491
  527MPD2    C5 7826   0.781   2.025   1.752  0.1830 -0.4806  1.1396
  527MPD2     H 7827   0.989   1.706   1.818 -0.8055 -1.1384 -0.6077
  527MPD2    H1 7828   0.847   2.017   1.553 -0.0564  1.3876  0.4966
  527MPD2    H2 7829   0.710   2.000   1.952 -1.3127  1.9353 -1.9055
  527MPD2    H3 7830   0.716   2.111   1.737  0.7338 -0.0830  1.0420
  527MPD2     N 7831   1.019   1.812   1.577 -0.1361  0.4461  0.8557
  527MPD2    H5 7832   1.057   1.719   1.588 -1.4471 -0.3860 -1.7670
  527MPD2    N1 7833   0.844   1.774   2.014 -0.0590 -0.2096  0.6221
  527MPD2    H7 7834   0.907   1.695   2.022 -0.4100 -0.7338 -1.7944
  528TMC3    C1 7835   0.770   1.685   2.212  0.4849 -0.0165 -0.1887
  528TMC3    C2 7836   0.900   1.661   2.254 -0.8795 -0.9019 -0.3953
  528TMC3    C3 7837   0.917   1.589   2.374 -0.0009 -0.6329  0.5469
  528TMC3    C4 7838   0.663   1.634   2.285  0.5136 -1.0500 -0.2051
  528TMC3    C5 7839   0.691   1.566   2.405 -0.4521  0.7393  0.0482
  528TMC3    C6 7840   0.815   1.536   2.450 -0.2826 -0.7075 -0.5860
  528TMC3     C 7841   0.742   1.775   2.103 -0.1990  0.5497 -0.1592
  528TMC3     O 7842   0.636   1.835   2.094  0.5641 -0.4190  0.1922
  528TMC3     H 7843   0.985   1.692   2.194 -2.9437  0.3028 -2.7139
  528TMC3    H1 7844   0.562   1.650   2.249 -0.6300 -0.1981  3.4042
  528TMC3    H2 7845   0.843   1.466   2.528 -0.5986 -1.5138 -1.1944
  528TMC3    C7 7846   0.576   1.517   2.481  0.9942  0.5506 -0.3368
  528TMC3    C8 7847   1.055   1.580   2.427 -0.1615 -0.1167  0.1507
  528TMC3    O1 7848   0.476   1.484   2.417 -0.0417 -0.4906  0.1855
  528TMC3    O2 7849   1.074   1.508   2.525  0.2895 -0.9329  0.3728
  529MPD2     C 7850   2.133   0.524   0.610 -0.0141 -0.1691 -0.3468
  529MPD2    C1 7851   2.238   0.454   0.569  0.0707  0.4768 -0.0093
  529MPD2    C2 7852   2.276   0.456   0.433 -0.0267 -0.0425 -0.0773
  529MPD2    C3 7853   2.204   0.528   0.338  0.0637 -0.3015  0.0914
  529MPD2    C4 7854   2.091   0.589   0.388 -0.1639  0.6252 -0.3305
  529MPD2    C5 7855   2.055   0.585   0.520  0.5136 -0.1026 -0.0676
  529MPD2     H 7856   2.366   0.402   0.407  1.0556  2.1475 -0.8493
  529MPD2    H1 7857   2.027   0.648   0.323 -0.4685 -0.2832 -0.8515
  529MPD2    H2 7858   2.109   0.535   0.716 -0.2724  0.4694 -0.4706
  529MPD2    H3 7859   1.964   0.631   0.558  0.1098 -1.2772  0.3983
  529MPD2     N 7860   2.231   0.534   0.200 -0.1387  0.0026  0.0488
  529MPD2    H5 7861   2.173   0.600   0.149 -2.3513  0.4930  3.1651
  529MPD2    N1 7862   2.335   0.397   0.649 -0.2574  0.5656  0.2001
  529MPD2    H7 7863   2.417   0.353   0.608 -1.2619 -1.9150  0.8492
  530TMC3    C1 7864   2.421   0.299   0.841 -0.6360  0.5440  0.2015
  530TMC3    C2 7865   2.450   0.322   0.974  0.2367  0.2928  0.1382
  530TMC3    C3 7866   2.541   0.240   1.031 -0.0778  0.3414 -0.5831
  530TMC3    C4 7867   2.472   0.197   0.769 -0.5516  0.4714 -0.7008
  530TMC3    C5 7868   2.563   0.118   0.834  0.1971 -0.1924  0.5525
  530TMC3    C6 7869   2.611   0.142   0.959 -0.4160  0.1252 -0.2065
  530TMC3     C 7870   2.323   0.383   0.786  0.1896 -0.1357  0.2831
  530TMC3     O 7871   2.233   0.422   0.855  0.3658  0.1994 -0.2248
  530TMC3     H 7872   2.392   0.401   1.020 -0.2773  0.4730 -0.8291
  530TMC3    H1 7873   2.442   0.184   0.665 -1.0930  0.7452 -0.5816
  530TMC3    H2 7874   2.692   0.080   0.995  1.4887  1.6685 -1.8279
  530TMC3    C7 7875   2.605   0.000   0.762  0.4188  0.0982 -0.2564
  530TMC3    C8 7876   2.585   0.276   1.167  0.0107  0.4211 -0.2825
  530TMC3    O1 7877   2.579   4.714   0.643  0.8042 -0.7751 -0.5287
  530TMC3    O2 7878   2.505   0.351   1.228  0.5053 -0.7891 -0.3519
  531MPD2     C 7879   2.665   2.927  13.243  0.3067 -0.2581 -0.6053
  531MPD2    C1 7880   2.556   3.015  13.227  0.0495  0.1558 -0.0734
  531MPD2    C2 7881   2.486   3.010  13.107 -0.1481 -0.5464  0.3160
  531MPD2    C3 7882   2.523   2.915  13.010  0.0148  0.3100  0.6141
  531MPD2    C4 7883   2.627   2.832  13.024 -0.1104 -0.3105  0.1990
  531MPD2    C5 7884   2.699   2.840  13.136 -1.1859  0.4349 -0.9614
  531MPD2     H 7885   2.400   3.074  13.091  0.1153 -0.2168  0.2110
  531MPD2    H1 7886   2.652   2.758  12.948 -1.0298  0.1771 -0.5835
  531MPD2    H2 7887   2.731   2.936  13.329  0.1854  0.2096 -0.5635
  531MPD2    H3 7888   2.791   2.782  13.137 -0.8301  1.0831  1.5375
  531MPD2     N 7889   2.426   2.882  12.911 -0.5426 -0.3148 -0.0459
  531MPD2    H5 7890   2.335   2.928  12.914 -1.5159 -2.1138 -2.4995
  531MPD2    N1 7891   2.516   3.086  13.344  0.7078 -0.2846  0.1347
  531MPD2    H7 7892   2.573   3.074  13.427 -1.6948  0.3856  1.8968
  532TMC3    C1 7893   2.393   3.234  13.487  0.1725 -0.8205 -0.3507
  532TMC3    C2 7894   2.262   3.234  13.520 -0.8097 -0.4547 -0.0512
  532TMC3    C3 7895   2.221   3.132  13.605 -0.3988  0.2425  0.4171
  532TMC3    C4 7896   2.476   3.169  13.571 -0.0726 -0.1027  0.3388
  532TMC3    C5 7897   2.438   3.076  13.670 -0.2747  0.4644  0.5730
  532TMC3    C6 7898   2.303   3.054  13.680  0.3116 -0.2470 -0.1891
  532TMC3     C 7899   2.411   3.173  13.352 -0.0826  0.0667 -0.0372
  532TMC3     O 7900   2.326   3.199  13.267 -0.0566 -0.5114  0.1782
  532TMC3     H 7901   2.195   3.289  13.454  1.5358  0.0029 -2.0669
  532TMC3    H1 7902   2.580   3.197  13.560 -0.0443 -0.2081  0.3450
  532TMC3    H2 7903   2.268   2.981  13.752  6.1817 -2.0303  0.7927
  532TMC3    C7 7904   2.526   2.962  13.674  0.3792  0.4100  0.1359
  532TMC3    C8 7905   2.114   3.047  13.558  0.2257 -0.6707 -0.2102
  532TMC3    O1 7906   2.629   2.971  13.615  0.1106  0.0121  0.0433
  532TMC3    O2 7907   2.092   2.945  13.621 -0.3097 -0.0138 -0.0655
  533TMC3    C1 7908   2.675   4.672  14.627  0.4816 -0.2095  0.6133
  533TMC3    C2 7909   2.787   0.010  14.645 -0.4967 -1.1171  0.0412
  533TMC3    C3 7910   2.788   0.120  14.726  0.1702  0.5581 -0.2275
  533TMC3    C4 7911   2.559   4.707  14.683  0.0922 -0.5348 -0.0766
  533TMC3    C5 7912   2.553   0.088  14.772  0.0782 -0.1347  0.5115
  533TMC3    C6 7913   2.670   0.158  14.785 -0.4170 -0.2038 -0.4844
  533TMC3     C 7914   2.683   4.527  14.605 -0.4475  0.4952  0.0367
  533TMC3     O 7915   2.759   4.472  14.680 -0.2170 -0.0155 -0.4209
  533TMC3     H 7916   2.883   4.685  14.625  0.3133 -0.0246  1.3426
  533TMC3    H1 7917   2.478   4.637  14.668 -0.8828  0.6347 -0.2611
  533TMC3    H2 7918   2.674   0.238  14.859 -1.4118 -0.4396 -0.1704
  533TMC3    C7 7919   2.496   0.037  14.894  0.4225  0.3988 -0.3771
  533TMC3    C8 7920   2.904   0.199  14.755 -0.3058  0.5262 -0.0392
  533TMC3    O1 7921   2.463   4.639  14.886 -0.0544  0.2104 -0.0217
  533TMC3    O2 7922   2.898   0.281  14.846 -0.2056 -0.0091 -0.4627
  534MPD2     C 7923   0.212   0.867   2.833 -0.3708  0.4045  0.0503
  534MPD2    C1 7924   0.299   0.846   2.731  0.1856  0.8292 -0.5811
  534MPD2    C2 7925   0.268   0.768   2.623 -0.6012 -0.4043 -0.2921
  534MPD2    C3 7926   0.146   0.708   2.620 -0.4572  0.0414  0.1849
  534MPD2    C4 7927   0.068   0.712   2.734 -0.0209 -0.2647 -0.1512
  534MPD2    C5 7928   0.091   0.802   2.836 -1.2150 -0.4272 -0.0474
  534MPD2     H 7929   0.335   0.759   2.539  0.3313  0.2817  0.3748
  534MPD2    H1 7930   4.697   0.657   2.746  0.2235 -1.0972 -2.1300
  534MPD2    H2 7931   0.238   0.920   2.925  0.6613 -0.5943  0.3352
  534MPD2    H3 7932   0.015   0.810   2.913 -0.2290 -1.8474  1.0706
  534MPD2     N 7933   0.102   0.632   2.509 -0.3474 -0.7183 -0.4306
  534MPD2    H5 7934   0.010   0.589   2.513 -0.0953 -1.2827 -0.7179
  534MPD2    N1 7935   0.427   0.913   2.721  0.4821 -0.1125  0.4155
  534MPD2    H7 7936   0.475   0.905   2.632 -0.4208  1.6311 -0.2116
  535TMC3    C1 7937   0.094   0.549   2.280  0.5189 -0.3045 -0.3170
  535TMC3    C2 7938   4.687   0.589   2.267 -0.4051 -0.7544  0.2582
  535TMC3    C3 7939   4.628   0.543   2.156 -0.8253 -0.2932  0.6973
  535TMC3    C4 7940   0.156   0.451   2.209  0.1256  0.7116 -0.2852
  535TMC3    C5 7941   0.080   0.389   2.115 -0.3148 -0.3022 -0.1265
  535TMC3    C6 7942   4.684   0.441   2.076 -0.0522 -0.1120  0.1519
  535TMC3     C 7943   0.176   0.608   2.391 -0.3439  0.7506 -0.2692
  535TMC3     O 7944   0.292   0.611   2.357 -0.2646  0.0117  0.3628
  535TMC3     H 7945   4.648   0.670   2.327 -1.1678 -2.2690  1.8089
  535TMC3    H1 7946   0.259   0.420   2.220 -0.5258 -1.7592 -1.1387
  535TMC3    H2 7947   4.628   0.403   1.992 -1.7525  0.2416  1.1200
  535TMC3    C7 7948   0.135   0.282   2.032 -0.1270  0.3686  0.2664
  535TMC3    C8 7949   4.494   0.589   2.122 -0.0396  0.0899 -0.3548
  535TMC3    O1 7950   0.079   0.241   1.929  0.1283  0.4939  0.4867
  535TMC3    O2 7951   4.453   0.550   2.015  0.7943 -0.2126  0.2894
  536MPD2     C 7952   4.457   3.838  16.579 -0.5560 -0.1266 -0.0238
  536MPD2    C1 7953   4.349   3.800  16.663 -0.2436  0.0690  0.2491
  536MPD2    C2 7954   4.230   3.779  16.604 -0.7288 -0.7153  0.4031
  536MPD2    C3 7955   4.218   3.801  16.467 -0.2377 -0.0248  0.0823
  536MPD2    C4 7956   4.326   3.827  16.383  0.3652 -0.2726 -0.3671
  536MPD2    C5 7957   4.445   3.843  16.443  0.4470 -0.0541  0.9361
  536MPD2     H 7958   4.143   3.744  16.657  0.1270 -1.6603  1.1772
  536MPD2    H1 7959   4.316   3.843  16.277 -2.1292  0.7065  0.0112
  536MPD2    H2 7960   4.555   3.857  16.622  0.5922 -2.5281 -1.5643
  536MPD2    H3 7961   4.527   3.885  16.385 -1.0499  2.1251  0.3796
  536MPD2     N 7962   4.095   3.785  16.393 -1.0897  0.3584 -0.1169
  536MPD2    H5 7963   4.108   3.804  16.294 -0.5051 -1.3755 -0.3725
  536MPD2    N1 7964   4.365   3.798  16.802  0.4043 -0.1020  0.5250
  536MPD2    H7 7965   4.457   3.822  16.837  0.6516 -0.5239  0.1651
  537TMC3    C1 7966   4.302   3.812  17.033  1.3347 -0.0181 -0.5691
  537TMC3    C2 7967   4.369   3.929  17.049 -0.1436 -0.3655 -0.7353
  537TMC3    C3 7968   4.402   3.961  17.180 -0.1772  0.7353  0.5240
  537TMC3    C4 7969   4.284   3.723  17.140 -0.3339  0.2679  0.2133
  537TMC3    C5 7970   4.318   3.763  17.269  0.7802 -0.5086  0.7798
  537TMC3    C6 7971   4.374   3.883  17.286  0.3638  0.4457 -0.1223
  537TMC3     C 7972   4.269   3.776  16.896  0.2185  0.5189  0.2879
  537TMC3     O 7973   4.165   3.719  16.887 -0.5287  0.0550 -0.0440
  537TMC3     H 7974   4.402   3.991  16.966  0.3355  1.1463  0.5683
  537TMC3    H1 7975   4.258   3.619  17.126  1.9175 -0.4956  1.7570
  537TMC3    H2 7976   4.399   3.917  17.385 -0.0940  1.4682 -0.3575
  537TMC3    C7 7977   4.349   3.671  17.372 -0.2208 -0.9582  0.1161
  537TMC3    C8 7978   4.487   4.074  17.212  0.4383 -0.4908  0.5248
  537TMC3    O1 7979   4.437   3.698  17.454  0.1392  0.1737  0.2808
  537TMC3    O2 7980   4.479   4.114  17.327 -0.3528 -0.3816 -0.1390
  538TMC3    C1 7981   0.176   2.197  10.773 -0.5277 -0.2910  0.3477
  538TMC3    C2 7982   0.228   2.133  10.665 -0.4297  0.2212 -0.2136
  538TMC3    C3 7983   0.150   2.044  10.595 -0.1695  0.0095 -0.2539
  538TMC3    C4 7984   0.046   2.182  10.809  0.4822 -0.3839  0.0829
  538TMC3    C5 7985   4.687   2.119  10.717 -0.4903  0.2327 -0.4793
  538TMC3    C6 7986   0.014   2.051  10.608 -0.0171  0.8610 -0.6107
  538TMC3     C 7987   0.279   2.220  10.870  0.3323 -0.2480  0.2438
  538TMC3     O 7988   0.392   2.255  10.833  0.0766  0.0265 -0.0234
  538TMC3     H 7989   0.333   2.148  10.642 -0.5835  2.0640  0.2819
  538TMC3    H1 7990   4.720   2.245  10.883  1.6064  2.1668 -1.3695
  538TMC3    H2 7991   4.673   1.984  10.550 -1.7263  0.3271  1.8491
  538TMC3    C7 7992   4.560   2.164  10.686 -0.4567 -0.2541 -0.0303
  538TMC3    C8 7993   0.213   1.946  10.503 -0.5939  0.9734  0.1196
  538TMC3    O1 7994   4.480   2.087  10.638  0.1529  0.0341 -0.3713
  538TMC3    O2 7995   0.136   1.881  10.434  0.2051  0.0886  0.1582
  539MPD2     C 7996   4.331   1.624  12.149  0.4705 -0.3972 -0.0813
  539MPD2    C1 7997   4.364   1.652  12.021  0.7368 -0.0177 -0.1814
  539MPD2    C2 7998   4.354   1.778  11.974  0.1236  0.0980  0.2313
  539MPD2    C3 7999   4.319   1.883  12.062 -0.0263 -0.1047 -0.0839
  539MPD2    C4 8000   4.297   1.861  12.190 -0.4278 -0.2477 -0.1875
  539MPD2    C5 8001   4.308   1.730  12.231  0.4184 -0.4573 -0.1883
  539MPD2     H 8002   4.367   1.792  11.867 -1.4987  0.4036  0.0786
  539MPD2    H1 8003   4.249   1.934  12.254  0.1792  0.8864 -1.0284
  539MPD2    H2 8004   4.329   1.525  12.194 -1.1363 -0.4925 -0.3508
  539MPD2    H3 8005   4.297   1.692  12.332 -0.8333  0.9685  0.2085
  539MPD2     N 8006   4.316   2.015  12.016  0.2691  0.3816 -0.1576
  539MPD2    H5 8007   4.283   2.085  12.082 -0.5954 -0.6760  0.5205
  539MPD2    N1 8008   4.391   1.555  11.927  0.4695 -0.1027  0.1446
  539MPD2    H7 8009   4.388   1.582  11.829  2.3104  0.1433  0.1614
  540TMC3    C1 8010   4.298   2.187  11.856  0.3621  0.4915  0.3575
  540TMC3    C2 8011   4.327   2.234  11.731  0.5889 -0.6577  0.3584
  540TMC3    C3 8012   4.222   2.279  11.654 -0.2104 -0.4595 -0.0362
  540TMC3    C4 8013   4.168   2.194  11.908 -0.5338 -0.1582  0.2035
  540TMC3    C5 8014   4.078   2.264  11.832 -0.3318 -0.8771  0.4777
  540TMC3    C6 8015   4.103   2.313  11.712  0.9924 -0.2264 -0.4632
  540TMC3     C 8016   4.358   2.058  11.891 -0.1593  0.5252  0.0200
  540TMC3     O 8017   4.431   2.004  11.815 -0.0941 -0.1312  0.3549
  540TMC3     H 8018   4.418   2.197  11.684  1.2068 -3.1453  3.5351
  540TMC3    H1 8019   4.135   2.162  12.006 -1.8347  0.8012  0.0735
  540TMC3    H2 8020   4.020   2.365  11.664 -0.6316  0.9205  3.5720
  540TMC3    C7 8021   3.955   2.303  11.898 -0.0181 -0.4491 -0.4630
  540TMC3    C8 8022   4.243   2.271  11.516 -0.1163  0.6451  0.0571
  540TMC3    O1 8023   3.887   2.223  11.959 -0.8907  0.2830 -0.8553
  540TMC3    O2 8024   4.347   2.314  11.477  0.6822 -0.0899  0.1271
  541MPD2     C 8025   2.870   3.160  13.594  0.1009 -0.1933 -0.0718
  541MPD2    C1 8026   2.913   3.067  13.505  0.0837  0.6915 -0.2860
  541MPD2    C2 8027   2.951   3.115  13.381  0.4310 -0.6362  0.3026
  541MPD2    C3 8028   2.953   3.255  13.347  0.2112  0.3153  0.3340
  541MPD2    C4 8029   2.900   3.339  13.444  0.7065  0.7418  0.0548
  541MPD2    C5 8030   2.859   3.296  13.567 -0.5864 -0.6312  0.1862
  541MPD2     H 8031   2.978   3.041  13.307  0.7615 -1.5174  1.3117
  541MPD2    H1 8032   2.892   3.445  13.423 -1.8784  1.0105  2.3668
  541MPD2    H2 8033   2.829   3.133  13.691  3.3578  2.4049  2.0160
  541MPD2    H3 8034   2.826   3.365  13.643 -1.3415 -1.3412  0.4980
  541MPD2     N 8035   2.977   3.307  13.222 -0.0812  0.1064 -0.1872
  541MPD2    H5 8036   2.943   3.402  13.212  2.2485  0.7689 -1.9323
  541MPD2    N1 8037   2.912   2.930  13.545  0.2040 -0.7376  0.1037
  541MPD2    H7 8038   2.859   2.910  13.629 -2.0226 -0.1036 -1.1689
  542TMC3    C1 8039   3.032   3.286  12.987  0.7075 -0.3765 -0.2949
  542TMC3    C2 8040   3.060   3.201  12.878  0.3545  0.5002  0.2837
  542TMC3    C3 8041   3.004   3.235  12.753  0.0482  0.8278  0.5052
  542TMC3    C4 8042   2.970   3.406  12.971 -0.1240  0.1116  0.7733
  542TMC3    C5 8043   2.943   3.444  12.843 -0.0573 -0.1672  0.8415
  542TMC3    C6 8044   2.950   3.362  12.736  0.7401 -0.2492  0.7880
  542TMC3     C 8045   3.048   3.235  13.120 -0.1428  0.4469 -0.2477
  542TMC3     O 8046   3.116   3.134  13.138 -0.3451 -0.2349 -0.1645
  542TMC3     H 8047   3.125   3.115  12.888 -0.4368 -0.0724  0.5347
  542TMC3    H1 8048   2.977   3.480  13.049 -0.5827  0.6107  0.3420
  542TMC3    H2 8049   2.921   3.387  12.634 -2.9605 -0.0985  1.8967
  542TMC3    C7 8050   2.882   3.578  12.832 -0.0685 -0.0945  0.5705
  542TMC3    C8 8051   3.012   3.144  12.637  0.4100  0.5031 -0.0103
  542TMC3    O1 8052   2.852   3.642  12.932  0.3911 -0.0015  0.2146
  542TMC3    O2 8053   2.956   3.171  12.531  0.5740 -0.5118 -0.0886
  543TMC3    C1 8054   2.422   3.993  16.873 -0.3830 -0.6490 -0.6752
  543TMC3    C2 8055   2.466   3.878  16.932 -0.4641  0.2253 -0.5330
  543TMC3    C3 8056   2.399   3.824  17.035 -0.0535  0.2983 -0.7050
  543TMC3    C4 8057   2.311   4.052  16.932 -0.0674 -0.5492 -0.2215
  543TMC3    C5 8058   2.242   4.000  17.039 -0.3094 -0.1176 -0.5704
  543TMC3    C6 8059   2.292   3.886  17.097  0.5974 -0.7850  0.4002
  543TMC3     C 8060   2.526   4.094  16.825  0.0501  0.1654  0.0719
  543TMC3     O 8061   2.635   4.044  16.821 -0.0559  0.1945  0.0125
  543TMC3     H 8062   2.553   3.831  16.888 -0.2419  0.6594 -0.5655
  543TMC3    H1 8063   2.260   4.138  16.890  0.9776  0.9319  1.5389
  543TMC3    H2 8064   2.261   3.856  17.196  0.9554  2.9114  1.6369
  543TMC3    C7 8065   2.139   4.086  17.101 -1.0404  0.3211 -0.2145
  543TMC3    C8 8066   2.467   3.710  17.092  0.1261 -0.5480 -0.1235
  543TMC3    O1 8067   2.058   4.141  17.022 -0.1470  0.0005 -0.1783
  543TMC3    O2 8068   2.583   3.696  17.062  0.1488 -0.2576  0.6515
  544MPD2     C 8069   2.439   3.292  17.388 -0.2428 -0.0926 -0.0589
  544MPD2    C1 8070   2.552   3.354  17.335 -0.6244  0.0636 -0.5566
  544MPD2    C2 8071   2.531   3.467  17.258  0.2070 -0.8290 -0.3418
  544MPD2    C3 8072   2.399   3.515  17.232 -0.1373  0.0323 -0.1505
  544MPD2    C4 8073   2.293   3.449  17.287 -0.4019  0.6249  0.0445
  544MPD2    C5 8074   2.312   3.339  17.367 -0.8173  0.0554  0.7550
  544MPD2     H 8075   2.616   3.515  17.211  1.1321 -0.4431  1.7483
  544MPD2    H1 8076   2.195   3.495  17.295 -0.7161  0.1406 -1.0192
  544MPD2    H2 8077   2.445   3.204  17.451 -1.1765  0.3129  0.6047
  544MPD2    H3 8078   2.224   3.285  17.398  0.0721 -1.2239  1.0207
  544MPD2     N 8079   2.378   3.642  17.169  0.2299 -0.0686  0.2033
  544MPD2    H5 8080   2.279   3.665  17.161  1.2857  3.4918 -2.7880
  544MPD2    N1 8081   2.680   3.308  17.375 -0.4804  0.0372  0.3427
  544MPD2    H7 8082   2.676   3.238  17.448 -0.9329 -0.0644  0.2198
  545TMC3    C1 8083   2.914   3.317  17.414  0.2393  0.3128 -0.0291
  545TMC3    C2 8084   3.042   3.340  17.363 -0.2085 -0.1950  0.3584
  545TMC3    C3 8085   3.151   3.309  17.440  0.3717  0.7774 -0.5313
  545TMC3    C4 8086   2.893   3.271  17.541 -0.0693 -0.1104  0.7478
  545TMC3    C5 8087   3.006   3.230  17.613  0.9794  0.5960 -0.2658
  545TMC3    C6 8088   3.129   3.247  17.562  0.9808  0.2837 -0.4774
  545TMC3     C 8089   2.806   3.352  17.328  0.7723 -0.3612 -0.2122
  545TMC3     O 8090   2.836   3.424  17.236  0.0533  0.2298  0.0962
  545TMC3     H 8091   3.056   3.369  17.260 -3.0286 -1.8693 -0.5048
  545TMC3    H1 8092   2.790   3.265  17.576 -0.7342 -0.9401 -1.3621
  545TMC3    H2 8093   3.218   3.210  17.613 -0.4731  1.3355  2.8812
  545TMC3    C7 8094   2.976   3.138   0.031  0.2633 -0.3464 -0.1937
  545TMC3    C8 8095   3.280   3.373  17.416 -0.1593 -0.2563  0.8507
  545TMC3    O1 8096   2.859   3.099   0.036 -0.7762  0.6005  0.6533
  545TMC3    O2 8097   3.276   3.435  17.314  0.2603 -0.1388  0.0245
  546MPD2     C 8098   4.065   4.567   0.112 -0.3021  0.2650 -0.2582
  546MPD2    C1 8099   4.089   4.593  17.666 -0.1630 -0.0067  0.5224
  546MPD2    C2 8100   4.056   4.720  17.617 -0.1333 -0.6271  0.0303
  546MPD2    C3 8101   4.017   0.097   0.013  0.7211  0.4345  0.3980
  546MPD2    C4 8102   3.997   0.066   0.149 -0.1291  0.5962  0.0335
  546MPD2    C5 8103   4.022   4.666   0.193  0.3147  0.5222  0.1842
  546MPD2     H 8104   4.064   0.018  17.511  1.4609 -1.1732  0.0526
  546MPD2    H1 8105   3.965   0.147   0.214  4.7279  0.4888  2.5928
  546MPD2    H2 8106   4.083   4.467   0.149  1.4710 -0.1346 -2.1567
  546MPD2    H3 8107   3.991   4.636   0.292  1.4807  0.5659  0.5568
  546MPD2     N 8108   3.999   0.229  17.664  0.5236 -0.1511 -0.0371
  546MPD2    H5 8109   3.979   0.297   0.045 -2.3603  0.4576 -1.4168
  546MPD2    N1 8110   4.134   4.498  17.581  0.7692 -0.6272 -0.1658
  546MPD2    H7 8111   4.198   4.431  17.621  0.4041 -0.6255  0.4320
  547TMC3    C1 8112   4.164   4.387  17.369 -0.4292  0.4400  0.0105
  547TMC3    C2 8113   4.113   4.381  17.241 -0.1842 -0.8942 -0.1639
  547TMC3    C3 8114   4.078   4.261  17.181  0.3697  0.3196  0.5343
  547TMC3    C4 8115   4.176   4.272  17.445 -0.0983  0.3455  0.5746
  547TMC3    C5 8116   4.135   4.149  17.384  0.4041  0.0546 -0.4014
  547TMC3    C6 8117   4.087   4.147  17.255 -0.0038  0.4179 -0.6006
  547TMC3     C 8118   4.106   4.496  17.442  0.8535  0.1111 -0.9918
  547TMC3     O 8119   4.026   4.558  17.376  0.3611 -0.1045  0.2311
  547TMC3     H 8120   4.083   4.468  17.184  1.5440 -0.3823 -0.2965
  547TMC3    H1 8121   4.186   4.271  17.553  0.8671  2.1495  0.4964
  547TMC3    H2 8122   4.029   4.065  17.214 -1.8311  0.5056  1.8145
  547TMC3    C7 8123   4.047   4.061  17.460  0.4416 -0.0009 -0.0307
  547TMC3    C8 8124   3.948   4.277  17.119 -0.1224 -0.0664 -0.2402
  547TMC3    O1 8125   3.932   4.055  17.415 -0.3088  0.3609 -0.3315
  547TMC3    O2 8126   3.932   4.349  17.021 -0.2607  0.1803  0.4163
  548MPD2     C 8127   3.482   0.279  12.174  0.0582 -0.1883 -0.0225
  548MPD2    C1 8128   3.407   0.187  12.248 -0.6024 -0.0050  0.3558
  548MPD2    C2 8129   3.480   0.089  12.315 -0.0760  0.1271 -0.1374
  548MPD2    C3 8130   3.618   0.078  12.307  0.0127  1.3923  0.2611
  548MPD2    C4 8131   3.687   0.181  12.255 -0.3587  0.0856 -0.3777
  548MPD2    C5 8132   3.618   0.283  12.187  0.2960 -0.0760 -0.5109
  548MPD2     H 8133   3.426   0.008  12.362  1.3429  0.2495  1.7198
  548MPD2    H1 8134   3.795   0.179  12.250 -0.4786 -2.4567 -2.4306
  548MPD2    H2 8135   3.431   0.365  12.133  1.3774  2.2944  3.4407
  548MPD2    H3 8136   3.673   0.364  12.140 -2.7923  1.9826 -0.5537
  548MPD2     N 8137   3.682   4.698  12.379 -0.0315  0.4894 -0.9196
  548MPD2    H5 8138   3.611   4.643  12.426 -0.9031  2.4658  0.1068
  548MPD2    N1 8139   3.264   0.194  12.244 -0.5191 -0.6717  0.3245
  548MPD2    H7 8140   3.217   0.261  12.184  0.1922  1.3552  2.0130
  549TMC3    C1 8141   3.036   0.140  12.275 -0.7669 -1.2185 -0.0565
  549TMC3    C2 8142   2.993   0.270  12.267 -0.4436 -0.6132 -0.2550
  549TMC3    C3 8143   2.853   0.286  12.299  0.6392  0.2279 -0.0422
  549TMC3    C4 8144   2.962   0.029  12.293 -0.3370 -0.3758  0.3624
  549TMC3    C5 8145   2.826   0.054  12.299 -0.8301  0.1615 -0.2965
  549TMC3    C6 8146   2.774   0.179  12.296 -0.1029 -0.3236 -0.2408
  549TMC3     C 8147   3.173   0.113  12.314 -0.5132  0.0179 -0.4826
  549TMC3     O 8148   3.200   0.006  12.369  0.2484 -0.4692 -0.3058
  549TMC3     H 8149   3.057   0.357  12.267 -2.8848  1.1876 -2.2282
  549TMC3    H1 8150   3.003   4.653  12.312  0.5655 -0.1036 -0.1664
  549TMC3    H2 8151   2.666   0.192  12.295 -0.1445 -0.6419  1.1900
  549TMC3    C7 8152   2.738   4.672  12.266 -0.5959  0.1050 -0.2740
  549TMC3    C8 8153   2.786   0.415  12.281  0.6223  0.0811  0.0921
  549TMC3    O1 8154   2.652   4.692  12.183  0.2242  0.0456 -0.6200
  549TMC3    O2 8155   2.677   0.433  12.333 -1.0748  0.2768 -0.3593
  550TMC3    C1 8156   2.549   3.474  12.989  0.0885  0.2960 -0.0824
  550TMC3    C2 8157   2.506   3.453  13.120  0.3911 -0.4769  0.2349
  550TMC3    C3 8158   2.482   3.568  13.199 -0.2690  0.7215 -0.1428
  550TMC3    C4 8159   2.556   3.599  12.940 -0.3178  0.4619 -0.0445
  550TMC3    C5 8160   2.501   3.703  13.016  0.0815 -0.3368  0.2417
  550TMC3    C6 8161   2.478   3.694  13.147 -0.4025 -0.2451  0.6099
  550TMC3     C 8162   2.535   3.362  12.892  0.9602 -0.0624 -0.2544
  550TMC3     O 8163   2.548   3.254  12.950 -0.6188 -0.3360 -0.8194
  550TMC3     H 8164   2.508   3.357  13.170  0.1354 -0.5017  0.1990
  550TMC3    H1 8165   2.588   3.618  12.838  1.4970  2.8706  0.9620
  550TMC3    H2 8166   2.433   3.772  13.207  0.5985  1.3374 -0.6808
  550TMC3    C7 8167   2.396   3.758  12.933  0.1194 -0.0211  0.0218
  550TMC3    C8 8168   2.377   3.548  13.294  0.4691  0.2737 -0.2864
  550TMC3    O1 8169   2.388   3.726  12.818  0.4203  0.0225 -0.4462
  550TMC3    O2 8170   2.401   3.577  13.409  0.2850 -0.0542 -0.0435
  551TMC3    C1 8171   4.664   0.850  13.573  0.3818 -0.3684  0.3959
  551TMC3    C2 8172   0.030   0.950  13.522 -0.6447 -0.5561 -0.5485
  551TMC3    C3 8173   0.056   1.057  13.608 -0.5610 -0.3099 -0.6817
  551TMC3    C4 8174   4.608   0.864  13.699  0.4511  0.5920  0.3957
  551TMC3    C5 8175   4.661   0.951  13.785 -0.0297 -0.4044  0.4047
  551TMC3    C6 8176   0.022   1.046  13.741  0.3768  0.5275 -0.0726
  551TMC3     C 8177   4.625   0.760  13.475  0.2175  0.8058  0.2889
  551TMC3     O 8178   4.654   0.783  13.357 -0.2447  0.3947 -0.6332
  551TMC3     H 8179   0.077   0.948  13.424  1.4118  3.3196  0.3889
  551TMC3    H1 8180   4.535   0.789  13.727 -0.0330  1.3688  1.2256
  551TMC3    H2 8181   0.062   1.119  13.811  0.6174  0.3633 -0.0382
  551TMC3    C7 8182   4.629   0.965  13.920 -0.1417 -0.0651  0.1359
  551TMC3    C8 8183   0.162   1.145  13.578  0.6313 -0.1624 -0.6516
  551TMC3    O1 8184   4.659   1.067  13.977 -0.7090 -0.0981  0.0968
  551TMC3    O2 8185   0.237   1.158  13.674  0.1821 -0.0150 -0.1316
  552MPD2     C 8186   1.757   3.227  13.665  0.1316 -0.1276  1.0914
  552MPD2    C1 8187   1.761   3.125  13.755 -0.6370 -0.1722  0.1189
  552MPD2    C2 8188   1.858   3.113  13.848  0.3893  0.3342  0.7122
  552MPD2    C3 8189   1.965   3.195  13.853 -0.5200  0.6109 -0.0596
  552MPD2    C4 8190   1.968   3.296  13.757  0.2852 -0.4848  0.5416
  552MPD2    C5 8191   1.869   3.312  13.665 -0.0425  1.0027 -0.5201
  552MPD2     H 8192   1.842   3.035  13.922 -1.6875 -1.3778 -1.5685
  552MPD2    H1 8193   2.053   3.361  13.744 -0.7386  0.3158 -2.2448
  552MPD2    H2 8194   1.682   3.240  13.588  0.5179  2.5082  1.1625
  552MPD2    H3 8195   1.888   3.383  13.585  1.4356  0.8714 -0.2842
  552MPD2     N 8196   2.070   3.172  13.945  0.2060 -0.2477  0.5145
  552MPD2    H5 8197   2.137   3.247  13.960 -0.2500 -0.5435  3.9248
  552MPD2    N1 8198   1.664   3.017  13.762  0.0011 -0.4837  0.2317
  552MPD2    H7 8199   1.673   2.957  13.843  1.3460  1.2253  1.3726
  553TMC3    C1 8200   1.497   2.866  13.677  0.1581  0.3143 -0.2655
  553TMC3    C2 8201   1.476   2.808  13.554  0.3408  0.0128  0.3222
  553TMC3    C3 8202   1.438   2.677  13.548 -0.2426  0.6556 -0.0183
  553TMC3    C4 8203   1.512   2.793  13.791  0.4469 -0.7414 -0.6320
  553TMC3    C5 8204   1.478   2.656  13.782 -0.1282  0.0813  0.1341
  553TMC3    C6 8205   1.434   2.607  13.664  0.1908  0.4811 -0.6292
  553TMC3     C 8206   1.561   2.997  13.673  0.1403  0.8294  0.5084
  553TMC3     O 8207   1.538   3.063  13.575 -0.0587 -0.4617  0.3960
  553TMC3     H 8208   1.483   2.866  13.464 -0.2661 -0.4327 -0.0120
  553TMC3    H1 8209   1.523   2.842  13.887 -0.7872  0.2124 -0.9785
  553TMC3    H2 8210   1.404   2.503  13.657  1.9770  0.0107 -1.1373
  553TMC3    C7 8211   1.453   2.572  13.903  0.4262 -0.5577 -0.7821
  553TMC3    C8 8212   1.514   2.612  13.444 -0.3911  0.1927 -0.0557
  553TMC3    O1 8213   1.338   2.559  13.933 -0.1599 -0.4002 -0.2878
  553TMC3    O2 8214   1.520   2.685  13.347 -0.0960  0.2781 -0.1588
  554TMC3    C1 8215   3.265   1.859  11.906  0.4333  0.2865  0.5843
  554TMC3    C2 8216   3.191   1.839  11.791 -0.1878  0.2224 -0.0575
  554TMC3    C3 8217   3.207   1.917  11.681 -0.4309 -0.4050  0.0847
  554TMC3    C4 8218   3.371   1.944  11.904  0.4129 -0.7807  0.5265
  554TMC3    C5 8219   3.397   2.011  11.787  0.3954 -0.2085  0.9743
  554TMC3    C6 8220   3.319   1.998  11.672  0.2842 -1.0124  0.3455
  554TMC3     C 8221   3.265   1.751  12.001 -0.0542  0.6504 -1.1809
  554TMC3     O 8222   3.194   1.654  11.972 -0.0760 -0.8180 -0.0313
  554TMC3     H 8223   3.120   1.757  11.789  2.2634 -1.8902 -1.6808
  554TMC3    H1 8224   3.442   1.958  11.985  0.5609  1.8531 -0.0671
  554TMC3    H2 8225   3.338   2.058  11.584 -2.1650 -0.9713 -0.1363
  554TMC3    C7 8226   3.495   2.121  11.782 -0.2128 -1.0862  0.1678
  554TMC3    C8 8227   3.141   1.893  11.554 -0.3334 -0.4654  0.2213
  554TMC3    O1 8228   3.498   2.196  11.877 -0.4665 -0.1008  0.1330
  554TMC3    O2 8229   3.195   1.931  11.452  0.0952 -0.3742  0.0521
  555TMC3    C1 8230   2.906   1.369  15.576  0.0673  0.2190  0.9768
  555TMC3    C2 8231   2.957   1.353  15.706 -0.4872  1.3592 -0.4485
  555TMC3    C3 8232   2.977   1.228  15.754  0.2177 -0.1352 -0.6111
  555TMC3    C4 8233   2.875   1.262  15.498 -0.1245 -0.0198 -0.6282
  555TMC3    C5 8234   2.888   1.137  15.546  0.1011  0.3406 -0.1757
  555TMC3    C6 8235   2.928   1.122  15.681 -0.4227 -0.0471  0.3910
  555TMC3     C 8236   2.921   1.505  15.520 -0.7240  0.2739  0.2112
  555TMC3     O 8237   2.983   1.589  15.588  0.2006  0.3032  0.4116
  555TMC3     H 8238   2.994   1.435  15.766  3.6127 -1.0994  0.3308
  555TMC3    H1 8239   2.860   1.274  15.392 -0.2855  0.9428 -0.4994
  555TMC3    H2 8240   2.958   1.023  15.715 -0.3027 -0.1789 -0.0925
  555TMC3    C7 8241   2.889   1.033  15.446  0.5772 -0.2385  0.0150
  555TMC3    C8 8242   3.114   1.201  15.794 -0.4859 -0.4808  0.8341
  555TMC3    O1 8243   2.908   1.064  15.328  0.2454  0.2700 -0.5073
  555TMC3    O2 8244   3.183   1.130  15.724  0.4733  0.4334  0.4124
  556MPD2     C 8245   1.295   2.793  10.437 -0.0898  0.9572 -0.2323
  556MPD2    C1 8246   1.191   2.740  10.509  0.2141  0.0255  0.3889
  556MPD2    C2 8247   1.139   2.621  10.457 -0.2664 -0.0721 -0.7833
  556MPD2    C3 8248   1.196   2.551  10.346  0.1461  0.2210 -0.0337
  556MPD2    C4 8249   1.304   2.608  10.286  0.4320 -0.1498  0.7953
  556MPD2    C5 8250   1.348   2.730  10.329 -0.3922 -0.2631  0.8712
  556MPD2     H 8251   1.056   2.586  10.518 -1.0210  2.5714 -0.2953
  556MPD2    H1 8252   1.356   2.543  10.216 -1.5364 -1.9793  1.0318
  556MPD2    H2 8253   1.348   2.882  10.469  0.3059 -0.0245  1.8235
  556MPD2    H3 8254   1.431   2.778  10.278 -0.4695 -1.2219 -0.1694
  556MPD2     N 8255   1.140   2.420  10.317 -0.3443  0.1512 -0.0983
  556MPD2    H5 8256   1.076   2.373  10.379  1.4498 -1.8145  0.2726
  556MPD2    N1 8257   1.132   2.795  10.625 -1.0458 -0.1894 -0.1953
  556MPD2    H7 8258   1.038   2.759  10.641 -0.4762 -1.4855  0.1763
  557TMC3    C1 8259   1.106   2.230  10.172  0.6580  0.0658  0.2550
  557TMC3    C2 8260   1.141   2.164  10.050 -0.3673 -0.0386 -0.2671
  557TMC3    C3 8261   1.069   2.049  10.018 -0.5239 -0.9265  0.0126
  557TMC3    C4 8262   1.003   2.181  10.248  0.0177  0.3181  0.2741
  557TMC3    C5 8263   0.930   2.075  10.205  0.5068 -0.2767  0.4354
  557TMC3    C6 8264   0.958   2.016  10.089 -0.3577  0.1728  0.8321
  557TMC3     C 8265   1.162   2.363  10.192  0.9127 -0.5925 -0.6053
  557TMC3     O 8266   1.210   2.418  10.099  0.2383 -0.0558 -0.5834
  557TMC3     H 8267   1.229   2.203  10.000 -0.2243  1.0649  0.8601
  557TMC3    H1 8268   0.982   2.227  10.344 -0.3750 -0.0924  0.3887
  557TMC3    H2 8269   0.899   1.933  10.052  2.3985  0.3370 -3.9696
  557TMC3    C7 8270   0.811   2.040  10.278 -0.4039  0.1392  0.0783
  557TMC3    C8 8271   1.107   1.971   9.908  0.8374 -0.1940  0.2452
  557TMC3    O1 8272   0.774   2.119  10.364 -0.5950  0.3246  0.2840
  557TMC3    O2 8273   1.201   2.015   9.842  0.3942 -0.2469 -0.0887
  558TMC3    C1 8274   2.916   0.774  10.143 -0.4224  0.3868 -0.2164
  558TMC3    C2 8275   2.827   0.676  10.164  0.6457 -0.3308  0.0716
  558TMC3    C3 8276   2.817   0.570  10.077 -0.3046 -0.1229  0.0952
  558TMC3    C4 8277   2.991   0.771  10.033 -1.2004 -0.4990  0.8248
  558TMC3    C5 8278   2.986   0.667   9.942 -0.3972 -0.5974  0.3293
  558TMC3    C6 8279   2.900   0.563   9.965 -0.1518  0.1784 -0.3403
  558TMC3     C 8280   3.001   0.798  10.264  0.3298  0.5577 -0.1066
  558TMC3     O 8281   3.113   0.850  10.248 -0.3990 -0.0323 -0.4641
  558TMC3     H 8282   2.776   0.651  10.256 -0.7105 -0.0373 -0.5919
  558TMC3    H1 8283   3.067   0.846  10.013 -1.8496  0.7052  3.0123
  558TMC3    H2 8284   2.896   0.476   9.900  1.4367  1.5570 -2.2813
  558TMC3    C7 8285   3.020   0.709   9.807  0.1195 -0.4327 -0.0876
  558TMC3    C8 8286   2.769   0.455  10.143  0.1703 -0.0088 -0.1441
  558TMC3    O1 8287   3.081   0.814   9.795  0.1179 -0.2332  0.1334
  558TMC3    O2 8288   2.649   0.435  10.144  0.1737  0.1598 -0.0062
  559MPD2     C 8289   3.052   1.206  10.923  1.0168 -0.3350  0.1345
  559MPD2    C1 8290   2.978   1.209  11.040 -0.0056  0.7207  0.1433
  559MPD2    C2 8291   3.053   1.198  11.157  0.5584 -0.5380 -0.7814
  559MPD2    C3 8292   3.190   1.179  11.154 -0.3892 -0.2378 -0.0066
  559MPD2    C4 8293   3.254   1.186  11.033 -0.1104  0.5508 -0.2900
  559MPD2    C5 8294   3.187   1.202  10.915  0.0877  0.0031  0.6137
  559MPD2     H 8295   3.014   1.178  11.257 -0.7929 -1.3677 -1.4766
  559MPD2    H1 8296   3.360   1.169  11.023 -0.2611 -0.8941  0.6054
  559MPD2    H2 8297   2.998   1.213  10.829 -0.1739 -0.0363  0.8382
  559MPD2    H3 8298   3.239   1.194  10.820  0.4142  1.3402  0.6695
  559MPD2     N 8299   3.256   1.147  11.274  0.3732 -0.3081 -0.5972
  559MPD2    H5 8300   3.199   1.153  11.357  0.0723 -0.3490 -0.7999
  559MPD2    N1 8301   2.832   1.224  11.032 -0.0545  0.3802 -0.1397
  559MPD2    H7 8302   2.788   1.248  10.944  0.8706 -1.1997 -1.0397
  560TMC3    C1 8303   3.412   1.111  11.441  0.1585 -0.1519  0.2311
  560TMC3    C2 8304   3.355   0.998  11.487 -0.0412  0.0091  0.1523
  560TMC3    C3 8305   3.409   0.922  11.585 -0.1517 -0.0020 -0.6223
  560TMC3    C4 8306   3.538   1.140  11.483  0.1898 -0.4748 -0.4335
  560TMC3    C5 8307   3.591   1.073  11.591  0.1327  0.1717  0.2868
  560TMC3    C6 8308   3.523   0.965  11.645  0.1589 -0.1187 -0.0159
  560TMC3     C 8309   3.383   1.125  11.300  0.7062  0.8397  0.4216
  560TMC3     O 8310   3.485   1.132  11.232  0.5489  0.0039 -0.1582
  560TMC3     H 8311   3.273   0.961  11.426  0.5889 -1.9344  0.4788
  560TMC3    H1 8312   3.597   1.207  11.421  0.1567 -0.3704 -0.3522
  560TMC3    H2 8313   3.556   0.921  11.738  1.3789 -2.2833 -1.4718
  560TMC3    C7 8314   3.692   1.132  11.678  0.2390  0.4789  0.5278
  560TMC3    C8 8315   3.383   0.784  11.562  1.1223  0.4081  0.2353
  560TMC3    O1 8316   3.744   1.055  11.754  0.3753 -0.1198  0.0285
  560TMC3    O2 8317   3.281   0.760  11.502 -0.1297 -0.3392  0.5391
  561TMC3    C1 8318   0.973   0.011  11.077 -0.7815 -0.5494  0.5322
  561TMC3    C2 8319   0.901   4.692  11.190  0.9507 -1.2821  0.7723
  561TMC3    C3 8320   0.836   0.063  11.259 -0.4079 -0.4762 -0.7305
  561TMC3    C4 8321   0.961   0.141  11.014 -0.0527  0.0194  0.2721
  561TMC3    C5 8322   0.888   0.225  11.099  0.0648  0.2234  0.0958
  561TMC3    C6 8323   0.825   0.188  11.215  0.7424 -0.0752 -0.6763
  561TMC3     C 8324   1.046   4.630  11.010 -0.4997  0.2117  0.0324
  561TMC3     O 8325   0.993   4.517  11.002  0.8062  0.2380 -0.1043
  561TMC3     H 8326   0.896   4.587  11.217 -1.1492 -1.7205 -1.3275
  561TMC3    H1 8327   1.009   0.167  10.920  1.1948  0.6052  1.0660
  561TMC3    H2 8328   0.757   0.262  11.256  0.9037 -0.8434  0.9475
  561TMC3    C7 8329   0.841   0.348  11.029  0.1867  1.0078 -0.2443
  561TMC3    C8 8330   0.757   0.011  11.369 -0.7547  0.0759 -0.9254
  561TMC3    O1 8331   0.730   0.388  11.060  0.1870  0.2580  0.1953
  561TMC3    O2 8332   0.749   4.610  11.366  0.5688  0.3552  0.5332
  562TMC3    C1 8333   2.588   2.035  15.989 -0.0456  1.0343 -0.4120
  562TMC3    C2 8334   2.490   2.117  15.940 -0.7343  0.3244  0.1316
  562TMC3    C3 8335   2.438   2.083  15.814  0.2708 -0.3166 -0.2763
  562TMC3    C4 8336   2.625   1.919  15.932 -0.1186  0.3134  0.3024
  562TMC3    C5 8337   2.560   1.884  15.820 -0.0364 -0.2775  0.4880
  562TMC3    C6 8338   2.472   1.964  15.757  0.0369 -0.3085  0.2363
  562TMC3     C 8339   2.655   2.083  16.104  0.7150  0.1238 -0.2361
  562TMC3     O 8340   2.608   2.181  16.165  0.5875 -0.3420  0.7947
  562TMC3     H 8341   2.459   2.213  15.980  2.5077  1.6119 -0.3769
  562TMC3    H1 8342   2.706   1.859  15.971  0.4986  0.4083 -0.8381
  562TMC3    H2 8343   2.431   1.932  15.662  1.7604  0.5115 -0.7928
  562TMC3    C7 8344   2.558   1.748  15.765  0.1304 -0.1316  0.3205
  562TMC3    C8 8345   2.312   2.133  15.785 -0.2577 -0.1150  0.0482
  562TMC3    O1 8346   2.539   1.732  15.645  0.4092  0.1582  0.2189
  562TMC3    O2 8347   2.245   2.159  15.885 -0.2178 -0.3449  1.0561
  563MPD2     C 8348   0.578   2.251  16.116 -0.2380  0.4404 -0.1121
  563MPD2    C1 8349   0.489   2.356  16.111 -0.3129 -0.7337  0.4170
  563MPD2    C2 8350   0.542   2.481  16.104 -0.2758 -0.1291 -0.1030
  563MPD2    C3 8351   0.678   2.512  16.114 -0.4047  0.3546 -0.5224
  563MPD2    C4 8352   0.758   2.402  16.112  0.6908 -0.2680 -0.3834
  563MPD2    C5 8353   0.712   2.274  16.126 -0.4477 -0.7444  0.1688
  563MPD2     H 8354   0.475   2.566  16.091 -1.0802 -0.7597 -0.0683
  563MPD2    H1 8355   0.865   2.402  16.132  0.5069 -0.4780  0.6121
  563MPD2    H2 8356   0.553   2.145  16.117  1.4713  0.0585  0.7961
  563MPD2    H3 8357   0.786   2.195  16.140  0.3872 -0.5894 -3.4021
  563MPD2     N 8358   0.714   2.650  16.137  0.2510  0.3266  0.4007
  563MPD2    H5 8359   0.642   2.721  16.139  0.4190  0.4801  0.9122
  563MPD2    N1 8360   0.350   2.355  16.113 -0.8547 -0.0374  0.6098
  563MPD2    H7 8361   0.305   2.445  16.095 -1.4258 -0.5943 -0.7116
  564TMC3    C1 8362   0.132   2.282  16.156  0.0637  0.2242 -0.0225
  564TMC3    C2 8363   0.078   2.225  16.270 -0.5937  0.2406  0.1097
  564TMC3    C3 8364   0.012   2.306  16.356 -0.4437 -1.0353  0.8538
  564TMC3    C4 8365   0.097   2.411  16.117 -0.2251  0.1964 -0.1789
  564TMC3    C5 8366   0.043   2.494  16.213  0.1375  0.4345 -0.1754
  564TMC3    C6 8367   4.719   2.439  16.327 -0.0150  0.5414  0.5610
  564TMC3     C 8368   0.269   2.246  16.125  0.4842 -0.1179  0.4838
  564TMC3     O 8369   0.297   2.129  16.147  0.3738  0.1911 -0.3305
  564TMC3     H 8370   0.089   2.118  16.285 -0.2047  0.1272 -0.9785
  564TMC3    H1 8371   0.135   2.449  16.023  0.3582 -1.3176 -0.5478
  564TMC3    H2 8372   4.649   2.499  16.383 -2.2761  0.6877 -2.3986
  564TMC3    C7 8373   0.124   2.620  16.236  0.2567  0.2820  0.1520
  564TMC3    C8 8374   4.712   2.264  16.497 -0.0327 -0.0671  0.6828
  564TMC3    O1 8375   0.225   2.642  16.171 -0.6826 -0.3651  0.4749
  564TMC3    O2 8376   4.702   2.144  16.519  0.2317  0.2423 -0.5576
  565TMC3    C1 8377   0.520   0.089  10.299  0.2106  0.9733 -0.5307
  565TMC3    C2 8378   0.514   4.680  10.275  0.4342 -0.0574  0.6012
  565TMC3    C3 8379   0.402   4.611  10.316 -0.7467 -0.2350  0.1526
  565TMC3    C4 8380   0.413   0.158  10.347 -0.5275 -0.1905  0.2829
  565TMC3    C5 8381   0.302   0.088  10.380  0.0287 -0.1532  0.5989
  565TMC3    C6 8382   0.295   4.670  10.372  0.5534 -0.4063  0.2853
  565TMC3     C 8383   0.640   0.157  10.265  0.2609  0.2842 -0.7713
  565TMC3     O 8384   0.720   0.112  10.180  0.3501  0.1667 -0.2242
  565TMC3     H 8385   0.598   4.626  10.233  0.0982 -0.6993  0.7541
  565TMC3    H1 8386   0.417   0.266  10.351 -2.8273 -0.0573 -1.1891
  565TMC3    H2 8387   0.201   4.619  10.390  1.5890 -1.8505  1.6684
  565TMC3    C7 8388   0.172   0.146  10.378 -0.1356 -0.0856  0.4268
  565TMC3    C8 8389   0.436   4.474  10.340 -0.0144 -0.3530 -0.0058
  565TMC3    O1 8390   0.082   0.080  10.429 -0.5206  0.3549 -0.0321
  565TMC3    O2 8391   0.525   4.419  10.276  0.2761 -0.4202 -0.1140
  566MPD2     C 8392   1.797   1.462  14.069 -0.3162  0.4095  0.0911
  566MPD2    C1 8393   1.910   1.394  14.104  0.2123  0.5562  0.2064
  566MPD2    C2 8394   1.949   1.283  14.028 -0.5434 -0.4192 -0.2171
  566MPD2    C3 8395   1.873   1.244  13.925  0.0490  0.6221  0.3146
  566MPD2    C4 8396   1.761   1.315  13.883  0.2612  0.0492  0.4003
  566MPD2    C5 8397   1.729   1.427  13.957 -0.9491 -0.4643  0.0357
  566MPD2     H 8398   2.041   1.230  14.051  0.1871  0.9095 -0.0854
  566MPD2    H1 8399   1.717   1.292  13.787  1.4688 -1.3855  0.2085
  566MPD2    H2 8400   1.762   1.546  14.128  0.7903  0.0278  1.2966
  566MPD2    H3 8401   1.644   1.487  13.927 -0.6190  0.2855  0.6278
  566MPD2     N 8402   1.908   1.127  13.853 -0.0387  0.5733 -0.0941
  566MPD2    H5 8403   1.849   1.098  13.776 -1.0948  0.4605  0.7643
  566MPD2    N1 8404   1.987   1.442  14.215  0.2501  0.0249 -0.1253
  566MPD2    H7 8405   1.949   1.528  14.253 -0.9123  0.1966 -1.6501
  567TMC3    C1 8406   2.183   1.480  14.343 -0.0538  0.0758  0.0766
  567TMC3    C2 8407   2.190   1.600  14.277  0.2277  0.4764 -0.4529
  567TMC3    C3 8408   2.311   1.653  14.245  0.9128  0.0273  0.0814
  567TMC3    C4 8409   2.292   1.417  14.387  0.3927 -0.5072  0.5453
  567TMC3    C5 8410   2.411   1.476  14.362 -0.7047 -0.2427  0.9833
  567TMC3    C6 8411   2.426   1.591  14.293 -0.1408  0.1409  0.3529
  567TMC3     C 8412   2.091   1.383  14.283 -0.0024 -0.2834  0.2387
  567TMC3     O 8413   2.136   1.270  14.270  0.0575  0.4826  0.2796
  567TMC3     H 8414   2.100   1.646  14.237 -0.5265 -1.7116 -1.2297
  567TMC3    H1 8415   2.285   1.330  14.451 -0.6680 -1.4218 -0.8105
  567TMC3    H2 8416   2.517   1.640  14.258 -0.3935 -0.2656 -0.8855
  567TMC3    C7 8417   2.538   1.450  14.430 -0.3085 -0.3278  0.2479
  567TMC3    C8 8418   2.307   1.742  14.129 -0.0626  0.8192  0.1730
  567TMC3    O1 8419   2.642   1.496  14.391 -0.0062 -0.4262  0.2155
  567TMC3    O2 8420   2.209   1.731  14.051  0.0331 -0.5992 -0.9812
  568MPD2     C 8421   4.669   1.620  16.413  0.7761  1.0327  0.8845
  568MPD2    C1 8422   4.673   1.528  16.516 -0.6163 -0.1677  0.2607
  568MPD2    C2 8423   4.637   1.568  16.641 -0.1635 -0.1263  0.5571
  568MPD2    C3 8424   4.602   1.697  16.675 -0.0942  0.2314 -0.1414
  568MPD2    C4 8425   4.609   1.791  16.576 -0.7360 -0.8255 -0.0147
  568MPD2    C5 8426   4.633   1.750  16.443 -0.0172 -0.9009  0.0091
  568MPD2     H 8427   4.646   1.502  16.727 -1.1234 -1.0997 -0.0863
  568MPD2    H1 8428   4.576   1.892  16.594 -2.7714 -1.6520  0.9088
  568MPD2    H2 8429   4.695   1.591  16.311 -1.9056 -0.4798  0.6123
  568MPD2    H3 8430   4.627   1.820  16.361  0.2541 -0.6023  0.2388
  568MPD2     N 8431   4.598   1.720  16.815 -0.1796 -0.1819 -0.0447
  568MPD2    H5 8432   4.622   1.642  16.876  0.3043 -0.6809 -0.8745
  568MPD2    N1 8433   4.713   1.397  16.477 -0.2308  0.3004  0.5499
  568MPD2    H7 8434   0.027   1.390  16.383  0.0319  0.0841  0.6655
  569TMC3    C1 8435   4.599   1.846  17.015 -0.0102 -0.1621 -0.5194
  569TMC3    C2 8436   4.722   1.805  17.061  0.1688 -0.4147  0.2436
  569TMC3    C3 8437   0.058   1.886  17.156  0.3852 -0.2223 -0.4075
  569TMC3    C4 8438   4.538   1.959  17.069 -0.4413 -0.0161  0.5552
  569TMC3    C5 8439   4.596   2.034  17.168 -0.0115 -0.1912 -0.5185
  569TMC3    C6 8440   4.710   1.983  17.223  0.0520 -0.1469  0.7632
  569TMC3     C 8441   4.579   1.842  16.873 -0.1323  0.1681  0.0795
  569TMC3     O 8442   4.561   1.947  16.812  0.5262 -0.6425 -0.3470
  569TMC3     H 8443   0.062   1.732  17.010  0.5834 -0.8178  1.3449
  569TMC3    H1 8444   4.446   1.996  17.025 -0.7553  0.6714  1.7990
  569TMC3    H2 8445   0.042   2.037  17.299 -0.8987  0.0495  1.3085
  569TMC3    C7 8446   4.611   2.173  17.123  0.1530  0.0019  0.3463
  569TMC3    C8 8447   0.152   1.958  17.075  0.4138  0.2783 -0.5446
  569TMC3    O1 8448   4.665   2.252  17.203  0.1015 -0.0676 -0.4104
  569TMC3    O2 8449   0.159   1.917  16.958  0.8863 -0.6711  0.8096
  570TMC3    C1 8450   3.859   0.474  16.424  0.0318 -0.0646  0.2766
  570TMC3    C2 8451   3.905   0.532  16.305 -0.2604 -0.0443  0.2578
  570TMC3    C3 8452   3.933   0.665  16.299  0.4205 -0.4473 -0.0104
  570TMC3    C4 8453   3.825   0.561  16.526  0.4393 -0.6078 -0.1666
  570TMC3    C5 8454   3.860   0.692  16.519  0.0350  0.8422 -0.4185
  570TMC3    C6 8455   3.925   0.742  16.409  0.0791  0.5747  0.8163
  570TMC3     C 8456   3.818   0.333  16.436  0.1432  0.8646  0.0415
  570TMC3     O 8457   3.792   0.263  16.337  0.1214  0.3068  0.3978
  570TMC3     H 8458   3.939   0.483  16.215  0.2334 -1.1526  1.0482
  570TMC3    H1 8459   3.779   0.530  16.619  0.4704  1.2907  0.4666
  570TMC3    H2 8460   3.946   0.848  16.408  0.5557  0.4899  1.6593
  570TMC3    C7 8461   3.791   0.790  16.607 -0.2975 -0.2449  0.4593
  570TMC3    C8 8462   4.004   0.726  16.188 -0.8021  0.9382  0.2554
  570TMC3    O1 8463   3.837   0.902  16.600 -0.9674  0.5672 -0.8236
  570TMC3    O2 8464   4.072   0.826  16.210 -0.7549  0.6967 -0.3832
  571MPD2     C 8465   1.658   1.507  17.589 -0.1027 -0.5204  0.0602
  571MPD2    C1 8466   1.624   1.450   0.022 -0.3318 -0.0991 -0.2397
  571MPD2    C2 8467   1.632   1.526   0.139 -0.1531  0.5568  0.7025
  571MPD2    C3 8468   1.670   1.656   0.137 -0.1878  0.0665  0.0410
  571MPD2    C4 8469   1.698   1.712   0.018  0.1966 -0.1182 -0.5716
  571MPD2    C5 8470   1.688   1.640  17.590 -0.5004 -0.3676 -0.5876
  571MPD2     H 8471   1.587   1.491   0.231 -0.1146 -0.0826  0.4798
  571MPD2    H1 8472   1.719   1.818   0.029  1.0381 -0.2376 -1.0265
  571MPD2    H2 8473   1.662   1.453  17.496 -0.8794  1.6767 -1.2527
  571MPD2    H3 8474   1.702   1.693  17.497  1.3223  1.3362  0.6676
  571MPD2     N 8475   1.676   1.743   0.253 -0.4957  0.2768 -0.0052
  571MPD2    H5 8476   1.694   1.842   0.239  0.2690  0.2467  0.7916
  571MPD2    N1 8477   1.595   1.316   0.023 -0.4327  0.5276 -0.4950
  571MPD2    H7 8478   1.608   1.267  17.626  2.7732  0.3491  0.0829
  572TMC3    C1 8479   1.701   1.797   0.482 -0.1837  0.4862 -0.4506
  572TMC3    C2 8480   1.724   1.748   0.608 -0.7242 -0.2779  0.6340
  572TMC3    C3 8481   1.694   1.820   0.713  0.1613 -0.1108  0.2745
  572TMC3    C4 8482   1.672   1.932   0.464  0.2291  0.6745  0.3762
  572TMC3    C5 8483   1.673   2.011   0.576  0.3271  0.3768  0.5576
  572TMC3    C6 8484   1.666   1.953   0.702 -0.2145 -0.2003  0.1586
  572TMC3     C 8485   1.684   1.696   0.379  0.1105 -0.2391 -0.3535
  572TMC3     O 8486   1.695   1.578   0.410  0.8835 -0.4386  0.3489
  572TMC3     H 8487   1.718   1.641   0.626 -0.4077 -0.4684 -0.3426
  572TMC3    H1 8488   1.658   1.978   0.367 -0.8292  2.1501  1.2380
  572TMC3    H2 8489   1.655   2.013   0.791  0.7525  1.2985 -0.7325
  572TMC3    C7 8490   1.678   2.160   0.555 -0.2862  0.1941  1.0603
  572TMC3    C8 8491   1.701   1.749   0.840  0.5791 -0.0430 -0.2557
  572TMC3    O1 8492   1.679   2.204   0.442  0.0852  0.0029  0.1969
  572TMC3    O2 8493   1.703   1.627   0.837  0.7410 -0.3596 -0.2366
  573MPD2     C 8494   4.039   2.997   1.294  0.4757  0.6409 -0.0197
  573MPD2    C1 8495   3.966   2.891   1.263  0.4435 -0.3419 -0.6338
  573MPD2    C2 8496   3.893   2.878   1.149 -0.2915 -0.2220 -0.2440
  573MPD2    C3 8497   3.901   2.982   1.058  0.1268  0.9218  0.0998
  573MPD2    C4 8498   3.973   3.096   1.087  0.2453 -0.1898 -0.0685
  573MPD2    C5 8499   4.041   3.104   1.210 -0.4525 -0.5179 -0.0845
  573MPD2     H 8500   3.825   2.796   1.128  1.1447 -1.1453 -1.2509
  573MPD2    H1 8501   3.981   3.176   1.015 -1.7196 -1.1182 -1.3100
  573MPD2    H2 8502   4.090   3.004   1.389  1.9862 -0.1086 -0.7560
  573MPD2    H3 8503   4.093   3.193   1.244  1.3983 -0.9298 -1.8891
  573MPD2     N 8504   3.824   2.984   0.939 -0.6045 -0.0924  0.3431
  573MPD2    H5 8505   3.839   3.060   0.874 -0.1915 -0.2759  0.2256
  573MPD2    N1 8506   3.972   2.780   1.358 -0.1379  0.8763 -0.1413
  573MPD2    H7 8507   4.024   2.807   1.441  0.6262  1.2510 -0.7425
  574TMC3    C1 8508   3.709   2.888   0.750 -1.0565 -0.6359 -0.6332
  574TMC3    C2 8509   3.594   2.842   0.710  0.4084 -0.1407 -0.0221
  574TMC3    C3 8510   3.548   2.869   0.584  0.1628  0.0204  0.3255
  574TMC3    C4 8511   3.791   2.959   0.666 -0.5904  0.4930  0.8878
  574TMC3    C5 8512   3.747   2.979   0.535  0.2379  0.5010  0.3670
  574TMC3    C6 8513   3.625   2.933   0.489 -0.4175  0.2214 -0.1617
  574TMC3     C 8514   3.743   2.876   0.893 -0.1725  0.7657  0.1835
  574TMC3     O 8515   3.701   2.775   0.951 -0.5662  0.2476 -0.1485
  574TMC3     H 8516   3.527   2.807   0.787 -1.3921 -0.7281 -1.8467
  574TMC3    H1 8517   3.893   2.964   0.703  0.7192  1.0569 -2.8892
  574TMC3    H2 8518   3.594   2.941   0.385  0.3019  0.7693 -0.3322
  574TMC3    C7 8519   3.830   3.057   0.443  0.2328  0.9309 -0.4164
  574TMC3    C8 8520   3.401   2.866   0.566  0.6653  0.5421 -0.0671
  574TMC3    O1 8521   3.794   3.051   0.327  0.3119  0.2969  0.2658
  574TMC3    O2 8522   3.335   2.821   0.657 -0.5674 -0.2739 -0.1986
  575TMC3    C1 8523   0.974   3.930  10.397 -0.0570  0.5564 -0.0731
  575TMC3    C2 8524   1.000   3.802  10.367  0.6690  0.2311  0.4762
  575TMC3    C3 8525   0.911   3.706  10.406  0.3716  0.2068 -0.0762
  575TMC3    C4 8526   0.870   3.964  10.477  0.0418  0.2143  0.5364
  575TMC3    C5 8527   0.784   3.862  10.517  0.2530  0.0836  0.6386
  575TMC3    C6 8528   0.806   3.733  10.484  0.5609 -0.1758 -0.1136
  575TMC3     C 8529   1.060   4.032  10.339 -0.2937 -0.1850  0.0169
  575TMC3     O 8530   1.116   4.011  10.232 -0.7458  0.4309 -0.1749
  575TMC3     H 8531   1.083   3.779  10.300  2.4149  1.7759  2.1020
  575TMC3    H1 8532   0.860   4.066  10.514 -0.8475  0.6494 -0.9145
  575TMC3    H2 8533   0.743   3.656  10.529  0.3590 -0.6975 -1.2972
  575TMC3    C7 8534   0.655   3.903  10.578 -0.3921  0.2872 -0.6622
  575TMC3    C8 8535   0.907   3.577  10.342  0.2308 -0.3600 -0.6234
  575TMC3    O1 8536   0.613   3.834  10.670  0.3719  0.0675 -0.1959
  575TMC3    O2 8537   0.801   3.516  10.347  0.6086  0.3614  0.3990
  576MPD2     C 8538   0.518   0.450  12.704 -0.5184 -0.5273 -0.5530
  576MPD2    C1 8539   0.611   0.449  12.601 -0.3703  0.3821 -0.5469
  576MPD2    C2 8540   0.745   0.425  12.632  0.0739 -0.2330  0.3589
  576MPD2    C3 8541   0.789   0.401  12.760 -0.4753 -0.1744  0.4803
  576MPD2    C4 8542   0.694   0.399  12.860  0.7149 -0.7403 -0.2471
  576MPD2    C5 8543   0.565   0.425  12.831  0.2403 -0.4386  0.0567
  576MPD2     H 8544   0.817   0.426  12.551  0.0434 -1.2292  0.3293
  576MPD2    H1 8545   0.711   0.389  12.966 -0.7917  0.8163  0.1434
  576MPD2    H2 8546   0.412   0.465  12.688 -0.7470 -1.8133 -0.2844
  576MPD2    H3 8547   0.494   0.414  12.913 -1.3055  0.9558 -1.0817
  576MPD2     N 8548   0.927   0.386  12.785  0.2426 -0.1773 -0.1824
  576MPD2    H5 8549   0.995   0.400  12.711 -0.5279  2.8084 -0.3154
  576MPD2    N1 8550   0.573   0.477  12.466 -0.1686  0.3910 -1.1529
  576MPD2    H7 8551   0.638   0.465  12.389 -0.3855  0.9955 -1.4285
  577TMC3    C1 8552   0.449   0.517  12.272 -0.1958 -0.1158 -1.0709
  577TMC3    C2 8553   0.518   0.415  12.208  0.1843 -0.2108 -0.1648
  577TMC3    C3 8554   0.507   0.399  12.074  0.2620 -0.6451 -0.5381
  577TMC3    C4 8555   0.380   0.607  12.195  0.2469  0.0463  0.1812
  577TMC3    C5 8556   0.378   0.594  12.059  0.3909 -0.6018  0.1448
  577TMC3    C6 8557   0.434   0.483  11.997 -0.8005 -0.3957 -0.4738
  577TMC3     C 8558   0.447   0.502  12.419 -0.3943  0.2966 -0.5174
  577TMC3     O 8559   0.363   0.560  12.484  0.5839  0.6861 -1.2877
  577TMC3     H 8560   0.577   0.341  12.261 -0.5365 -0.1302  0.7504
  577TMC3    H1 8561   0.335   0.689  12.248 -3.7192 -0.6643 -2.0581
  577TMC3    H2 8562   0.404   0.445  11.900 -0.7031  2.3870 -1.5827
  577TMC3    C7 8563   0.323   0.713  11.989 -0.1132  0.3414  0.1157
  577TMC3    C8 8564   0.540   0.273  12.023  0.8439 -0.7412  0.6732
  577TMC3    O1 8565   0.260   0.790  12.062 -0.0137  0.1507  0.2063
  577TMC3    O2 8566   0.559   0.177  12.095 -0.3393 -0.0863  0.1692
  578MPD2     C 8567   3.234   0.820   1.269 -0.2237 -0.4108 -0.2592
  578MPD2    C1 8568   3.337   0.743   1.229  0.0049 -0.3424  0.4410
  578MPD2    C2 8569   3.424   0.700   1.326 -0.3533 -0.3769 -0.0816
  578MPD2    C3 8570   3.400   0.724   1.459  0.4137  0.2599 -0.0398
  578MPD2    C4 8571   3.293   0.790   1.494 -0.3950 -0.3706 -0.1147
  578MPD2    C5 8572   3.212   0.843   1.400 -0.2058  1.8158 -0.2067
  578MPD2     H 8573   3.515   0.648   1.299  0.2451  0.0898  1.0368
  578MPD2    H1 8574   3.266   0.804   1.598 -2.0327 -1.2398 -0.4217
  578MPD2    H2 8575   3.167   0.870   1.200  2.7440  2.0130 -1.3985
  578MPD2    H3 8576   3.124   0.896   1.436  0.1691  2.2074  0.1364
  578MPD2     N 8577   3.501   0.680   1.544 -1.1445 -0.4036 -0.5022
  578MPD2    H5 8578   3.571   0.622   1.497 -1.4420 -0.9440 -0.2774
  578MPD2    N1 8579   3.368   0.718   1.093  0.2104  0.3577  0.4985
  578MPD2    H7 8580   3.314   0.770   1.024  1.8354  0.1752 -0.8777
  579TMC3    C1 8581   3.648   0.656   1.723  0.1377 -0.4108  0.7299
  579TMC3    C2 8582   3.714   0.716   1.819  0.9200  0.3003 -0.0157
  579TMC3    C3 8583   3.797   0.655   1.903 -0.0567 -0.5513 -0.0126
  579TMC3    C4 8584   3.672   0.521   1.698  0.5111 -0.3552 -0.3523
  579TMC3    C5 8585   3.778   0.463   1.763  0.3410  0.1580  0.1965
  579TMC3    C6 8586   3.845   0.529   1.869 -0.2737  0.0462  0.0961
  579TMC3     C 8587   3.527   0.715   1.672  0.9901  0.3318  0.5760
  579TMC3     O 8588   3.479   0.803   1.741 -0.2237 -0.2271  0.0826
  579TMC3     H 8589   3.689   0.820   1.837  0.7076  0.5814 -1.9441
  579TMC3    H1 8590   3.606   0.468   1.630 -1.0804  1.3608 -0.1211
  579TMC3    H2 8591   3.910   0.471   1.933  2.4288  3.7755  0.7535
  579TMC3    C7 8592   3.839   0.340   1.718  0.0996  0.3636  0.7456
  579TMC3    C8 8593   3.862   0.736   2.003  0.1986 -0.1535  0.0253
  579TMC3    O1 8594   3.935   0.296   1.779  0.2885  0.2727 -0.0662
  579TMC3    O2 8595   3.795   0.807   2.078  0.3019  0.3978 -0.1632
  580TMC3    C1 8596   3.008   4.041  11.471 -0.4580  0.4081 -0.0439
  580TMC3    C2 8597   3.131   4.064  11.412 -0.3295 -0.6483  0.4347
  580TMC3    C3 8598   3.235   3.981  11.439 -0.5652  0.3826 -0.2002
  580TMC3    C4 8599   2.992   3.936  11.557 -0.1202  0.2626 -0.6912
  580TMC3    C5 8600   3.098   3.862  11.589  0.4848  0.0960 -0.1951
  580TMC3    C6 8601   3.221   3.879  11.539  0.7058  0.0267  0.1162
  580TMC3     C 8602   2.954   4.167  11.514 -0.1338  0.3866  0.9735
  580TMC3     O 8603   2.990   4.263  11.448  0.8224 -0.2165  0.1599
  580TMC3     H 8604   3.149   4.141  11.338 -0.3926 -1.2526 -0.2202
  580TMC3    H1 8605   2.889   3.913  11.580 -0.0277  0.1954 -0.3476
  580TMC3    H2 8606   3.307   3.816  11.557  0.0626 -1.7077 -2.7437
  580TMC3    C7 8607   3.093   3.819  11.729 -0.2221 -0.3521 -0.5700
  580TMC3    C8 8608   3.358   4.053  11.484  0.7090 -1.0111 -0.3346
  580TMC3    O1 8609   2.988   3.847  11.788  0.9454  0.0039 -0.2830
  580TMC3    O2 8610   3.465   3.994  11.496 -0.3211 -0.3462 -0.1929
  581MPD2     C 8611   0.840   4.455  14.829 -0.2738 -0.1686  0.5684
  581MPD2    C1 8612   0.770   4.440  14.947  0.1628  0.9807  0.2557
  581MPD2    C2 8613   0.656   4.520  14.970 -0.2122 -0.6289 -0.1007
  581MPD2    C3 8614   0.618   4.621  14.883  0.8379 -0.1662  0.3096
  581MPD2    C4 8615   0.694   4.625  14.763  0.0926 -0.0628  0.2849
  581MPD2    C5 8616   0.806   4.547  14.736 -0.4549  0.6100 -0.3735
  581MPD2     H 8617   0.606   4.509  15.065 -0.6736 -0.2363 -0.2970
  581MPD2    H1 8618   0.681   4.702  14.688  1.9207 -0.2329 -0.2078
  581MPD2    H2 8619   0.917   4.385  14.798  0.6480  1.0695  0.1222
  581MPD2    H3 8620   0.860   4.564  14.644 -0.5570  0.0320 -0.5445
  581MPD2     N 8621   0.515   4.712  14.910  0.4384  0.3203  0.1603
  581MPD2    H5 8622   0.457   4.695  14.991  2.1884 -0.4806  1.2406
  581MPD2    N1 8623   0.802   4.340  15.039  0.5021  0.6674 -0.2451
  581MPD2    H7 8624   0.743   4.307  15.114  1.0594  0.7824  0.2466
  582TMC3    C1 8625   0.912   4.162  15.136 -0.0603 -0.3870  0.1933
  582TMC3    C2 8626   0.974   4.185  15.256 -0.1036  0.0280  0.9577
  582TMC3    C3 8627   0.967   4.075  15.336  1.1568  1.0005 -0.2207
  582TMC3    C4 8628   0.811   4.070  15.119 -0.5436 -0.1104  0.3626
  582TMC3    C5 8629   0.784   3.985  15.217 -0.3728 -0.1469 -0.1439
  582TMC3    C6 8630   0.871   3.980  15.325  0.4853 -0.2842 -0.5484
  582TMC3     C 8631   0.924   4.274  15.042  1.2081  0.4155  0.1072
  582TMC3     O 8632   1.030   4.317  15.000 -0.2060 -0.2472 -0.1424
  582TMC3     H 8633   1.052   4.259  15.273  0.0580  0.3967 -1.5106
  582TMC3    H1 8634   0.747   4.062  15.032 -3.5185  1.8348  2.4141
  582TMC3    H2 8635   0.863   3.903  15.401 -0.8086  0.0075 -0.3969
  582TMC3    C7 8636   0.646   3.999  15.247  0.0914  0.4633 -0.4566
  582TMC3    C8 8637   1.003   4.093  15.471 -0.1213  0.7240  0.1131
  582TMC3    O1 8638   0.597   4.096  15.198 -0.5620 -0.3484 -0.2230
  582TMC3    O2 8639   0.971   4.193  15.535 -0.2350  0.1336 -0.5652
  583MPD2     C 8640   1.156   1.010  16.898 -0.5978  0.9577  0.6880
  583MPD2    C1 8641   1.134   1.136  16.853  0.0276 -0.0213  0.4732
  583MPD2    C2 8642   1.096   1.231  16.941  0.8206  0.6915  0.7177
  583MPD2    C3 8643   1.079   1.212  17.074  0.5881  0.2538  0.7161
  583MPD2    C4 8644   1.113   1.089  17.121 -0.4342  0.3405  0.2020
  583MPD2    C5 8645   1.141   0.987  17.031  0.2068 -0.1160 -0.0690
  583MPD2     H 8646   1.072   1.328  16.899  2.4613  0.4604 -0.7152
  583MPD2    H1 8647   1.121   1.058  17.225 -1.6825 -1.1036 -0.1311
  583MPD2    H2 8648   1.183   0.919  16.845  1.4182  1.4193  0.9335
  583MPD2    H3 8649   1.168   0.889  17.069 -2.3466 -0.8716 -0.2112
  583MPD2     N 8650   1.030   1.320  17.145 -0.5140  0.2562 -0.1097
  583MPD2    H5 8651   0.978   1.382  17.085  1.4154  2.4298  0.4951
  583MPD2    N1 8652   1.152   1.181  16.719 -0.1882 -1.1294  0.2636
  583MPD2    H7 8653   1.129   1.279  16.701  3.0872 -1.0190 -3.2867
  584TMC3    C1 8654   0.954   1.435  17.342 -0.1145 -0.6111  0.5716
  584TMC3    C2 8655   0.919   1.548  17.275 -0.1662  0.0461  0.5562
  584TMC3    C3 8656   0.837   1.644  17.335  0.1607 -0.4086 -0.2706
  584TMC3    C4 8657   0.928   1.422  17.474 -0.4825  0.1698 -0.7378
  584TMC3    C5 8658   0.858   1.524  17.534 -0.0345  0.6244  0.1577
  584TMC3    C6 8659   0.801   1.632  17.466 -0.2523 -0.5078 -0.0234
  584TMC3     C 8660   1.036   1.333  17.277  0.0018  0.8028  0.4039
  584TMC3     O 8661   1.084   1.253  17.355  0.8364  0.0579 -0.0347
  584TMC3     H 8662   0.954   1.559  17.173 -2.6489 -2.1630 -0.5335
  584TMC3    H1 8663   0.969   1.342  17.534 -1.9290 -0.7202 -0.9129
  584TMC3    H2 8664   0.740   1.710  17.509 -0.2908 -1.2636  1.2942
  584TMC3    C7 8665   0.808   1.496  17.666  1.0014 -0.4390 -0.1186
  584TMC3    C8 8666   0.856   1.777  17.281  0.7438 -0.5316  0.0647
  584TMC3    O1 8667   0.808   1.590   0.048 -0.2929 -0.3808  0.0726
  584TMC3    O2 8668   0.885   1.782  17.162 -0.6685 -0.1748 -0.3901
  585MPD2     C 8669   0.140   0.018   1.219  0.4239  0.5811  0.0300
  585MPD2    C1 8670   0.263   0.056   1.185  0.1107  0.1342  0.3909
  585MPD2    C2 8671   0.292   0.079   1.054  0.0367 -0.6154 -0.1124
  585MPD2    C3 8672   0.196   0.076   0.958  0.5745 -0.3334 -0.4260
  585MPD2    C4 8673   0.065   0.039   0.994  0.3589 -0.3877  0.0074
  585MPD2    C5 8674   0.036   0.009   1.132  0.1492 -0.6131 -0.3342
  585MPD2     H 8675   0.394   0.112   1.037  0.7670 -3.1609 -0.6393
  585MPD2    H1 8676   4.703   0.044   0.926 -1.1622  0.1489  1.9260
  585MPD2    H2 8677   0.119   4.721   1.324  0.5172 -1.1729 -0.2758
  585MPD2    H3 8678   4.654   4.719   1.160 -0.1994 -0.1299 -1.4097
  585MPD2     N 8679   0.225   0.110   0.821  0.3461  0.6183  0.2336
  585MPD2    H5 8680   0.150   0.119   0.754  0.6340  4.1179  0.3470
  585MPD2    N1 8681   0.366   0.043   1.286  0.1486 -0.0149 -0.0208
  585MPD2    H7 8682   0.328   0.007   1.373 -1.1182  2.1809  0.3612
  586TMC3    C1 8683   0.340   0.168   0.634 -0.8214 -0.4069  0.0547
  586TMC3    C2 8684   0.431   0.118   0.551  0.3361  0.2742 -0.3265
  586TMC3    C3 8685   0.430   0.171   0.423  0.4369 -0.2925 -0.0244
  586TMC3    C4 8686   0.248   0.266   0.597 -0.0948  0.3644 -0.5294
  586TMC3    C5 8687   0.267   0.326   0.478 -0.5299 -0.0418 -1.2083
  586TMC3    C6 8688   0.366   0.288   0.392  0.0050  0.6660 -0.5590
  586TMC3     C 8689   0.354   0.129   0.774  0.2438 -0.5261  0.6186
  586TMC3     O 8690   0.470   0.107   0.818  0.0563 -0.0823 -0.7695
  586TMC3     H 8691   0.496   0.038   0.583 -2.3279 -1.7514 -0.0164
  586TMC3    H1 8692   0.181   0.293   0.678  0.8789  0.0996  0.3698
  586TMC3    H2 8693   0.370   0.335   0.294  2.5912  0.0635 -0.7564
  586TMC3    C7 8694   0.187   0.449   0.458 -0.3337 -0.0413  0.8299
  586TMC3    C8 8695   0.455   0.069   0.322  0.2785 -0.3872 -0.3953
  586TMC3    O1 8696   0.153   0.509   0.557  0.4450 -0.2772  0.4585
  586TMC3    O2 8697   0.417   4.680   0.347  0.0312 -0.0005  0.0819
  587TMC3    C1 8698   2.784   3.818  16.602 -0.5939  1.2924 -0.0441
  587TMC3    C2 8699   2.704   3.907  16.533  0.3195  0.0411  0.4050
  587TMC3    C3 8700   2.758   4.031  16.514  0.3026 -0.0945 -0.2848
  587TMC3    C4 8701   2.909   3.847  16.653  0.1555  0.5573  0.4771
  587TMC3    C5 8702   2.963   3.973  16.621  0.4188  0.2387 -0.1376
  587TMC3    C6 8703   2.891   4.062  16.551  0.3029  0.5038 -0.0546
  587TMC3     C 8704   2.718   3.699  16.650  0.4657  0.0072 -0.2650
  587TMC3     O 8705   2.788   3.622  16.715 -0.0400  0.0985 -0.3991
  587TMC3     H 8706   2.607   3.887  16.489 -0.4797 -0.6954  2.5355
  587TMC3    H1 8707   2.963   3.785  16.723 -2.5223 -1.2578  0.9702
  587TMC3    H2 8708   2.922   4.157  16.511 -0.6639  0.0416 -1.9401
  587TMC3    C7 8709   3.045   4.050  16.719  0.2193 -0.3473 -0.4215
  587TMC3    C8 8710   2.679   4.129  16.436 -0.2212  0.4607  0.0151
  587TMC3    O1 8711   3.005   4.164  16.734  0.1666  0.1298 -0.4836
  587TMC3    O2 8712   2.735   4.201  16.353  0.1523 -0.4096 -0.3235
  588TMC3    C1 8713   0.009   1.513   9.767  0.3797  0.4508 -0.7094
  588TMC3    C2 8714   4.650   1.410   9.819  0.2900 -0.1931 -0.3804
  588TMC3    C3 8715   4.708   1.290   9.855  0.4205 -0.5350  0.5886
  588TMC3    C4 8716   0.144   1.500   9.760 -0.1319  0.2536  0.4901
  588TMC3    C5 8717   0.199   1.384   9.816 -0.4962 -0.0314 -0.6232
  588TMC3    C6 8718   0.127   1.271   9.845 -0.4599 -0.5528  1.0636
  588TMC3     C 8719   4.677   1.642   9.741 -0.7913 -0.0064 -0.4853
  588TMC3     O 8720   4.563   1.647   9.703  0.5835  0.6797 -0.5112
  588TMC3     H 8721   4.542   1.424   9.826  0.1316 -1.6389 -0.0192
  588TMC3    H1 8722   0.197   1.585   9.718  2.1965 -1.6210 -0.3074
  588TMC3    H2 8723   0.185   1.183   9.870  0.5470  0.3975  2.0586
  588TMC3    C7 8724   0.337   1.381   9.820 -0.6018  0.8175 -0.3545
  588TMC3    C8 8725   4.625   1.176   9.908  0.3871  0.2242 -0.3957
  588TMC3    O1 8726   0.394   1.274   9.813 -0.3765 -0.0828  0.6438
  588TMC3    O2 8727   4.512   1.165   9.865 -0.6057  0.0689 -0.8220
  589TMC3    C1 8728   4.522   4.210   1.671 -0.1297 -0.5084 -0.1784
  589TMC3    C2 8729   4.642   4.226   1.740 -0.8705 -0.7297  0.3551
  589TMC3    C3 8730   0.022   4.148   1.699  0.5144 -0.5871  0.3552
  589TMC3    C4 8731   4.504   4.113   1.574 -0.3422  0.1316  0.4350
  589TMC3    C5 8732   4.615   4.049   1.529  0.1880  0.0037  0.7118
  589TMC3    C6 8733   0.012   4.062   1.594 -0.0428  0.6937  0.3889
  589TMC3     C 8734   4.411   4.306   1.679 -0.7415 -0.0181  0.3358
  589TMC3     O 8735   4.333   4.308   1.583 -0.1910  0.3360 -0.0494
  589TMC3     H 8736   4.655   4.301   1.817  0.7205 -0.5455 -0.0919
  589TMC3    H1 8737   4.408   4.104   1.523 -0.5080  1.0091  0.5855
  589TMC3    H2 8738   0.095   4.001   1.560 -0.0435  0.6515  0.4657
  589TMC3    C7 8739   4.604   3.946   1.425 -0.3717 -0.5012 -1.0825
  589TMC3    C8 8740   0.150   4.162   1.759  0.0468  0.0525 -0.5311
  589TMC3    O1 8741   4.672   3.843   1.435  0.6903  0.8912 -0.0431
  589TMC3    O2 8742   0.164   4.236   1.851 -0.2013 -0.1920  0.3393
  590MPD2     C 8743   3.553   2.601  17.230 -0.1743 -0.0880 -0.5202
  590MPD2    C1 8744   3.487   2.618  17.106  0.0638  0.2459  0.1514
  590MPD2    C2 8745   3.560   2.624  16.990 -0.2052 -0.2554  0.1220
  590MPD2    C3 8746   3.698   2.605  16.994  0.2754  0.5066 -0.0912
  590MPD2    C4 8747   3.760   2.595  17.114  0.4727 -0.3251  0.7985
  590MPD2    C5 8748   3.689   2.593  17.231 -0.4701 -0.0648 -0.1012
  590MPD2     H 8749   3.509   2.651  16.898 -2.2757 -1.0133  1.0557
  590MPD2    H1 8750   3.868   2.586  17.112  0.5037  0.1654  0.2684
  590MPD2    H2 8751   3.495   2.595  17.321 -0.0986 -1.8095 -0.5940
  590MPD2    H3 8752   3.747   2.593  17.322  2.2312 -1.9413 -1.8490
  590MPD2     N 8753   3.771   2.604  16.873 -0.4181  0.2462 -0.3181
  590MPD2    H5 8754   3.712   2.640  16.799 -1.0350  0.0777  0.0944
  590MPD2    N1 8755   3.346   2.638  17.113  0.3428 -0.0377  0.6336
  590MPD2    H7 8756   3.306   2.642  17.206 -0.6472  0.5736  0.1822
  591TMC3    C1 8757   3.951   2.645  16.737 -0.4052 -0.7039  0.6215
  591TMC3    C2 8758   4.056   2.583  16.667  0.7565  0.9639 -0.3549
  591TMC3    C3 8759   4.058   2.619  16.535  0.9062  0.3013  0.3601
  591TMC3    C4 8760   3.866   2.738  16.686 -0.4810 -0.4210 -0.1246
  591TMC3    C5 8761   3.878   2.765  16.555  0.5764 -0.3508 -0.2545
  591TMC3    C6 8762   3.969   2.709  16.474  0.6642 -0.7976 -0.1103
  591TMC3     C 8763   3.912   2.595  16.860  0.2703 -0.7287 -0.0959
  591TMC3     O 8764   3.993   2.530  16.925 -0.0286  0.6880  0.1218
  591TMC3     H 8765   4.124   2.513  16.713 -1.7869 -1.2043  0.1362
  591TMC3    H1 8766   3.807   2.803  16.750 -1.6543 -1.1173 -0.5020
  591TMC3    H2 8767   3.975   2.719  16.366  2.6120  0.6729  0.1312
  591TMC3    C7 8768   3.800   2.875  16.502  0.6381 -0.5232 -0.1340
  591TMC3    C8 8769   4.161   2.563  16.451 -0.2630  0.2465 -0.2395
  591TMC3    O1 8770   3.695   2.894  16.560 -0.1031 -0.7166  0.3290
  591TMC3    O2 8771   4.210   2.462  16.491 -0.2282  0.0464  0.2941
  592MPD2     C 8772   4.037   3.954  11.790  0.1389  0.3668  0.1600
  592MPD2    C1 8773   4.064   3.971  11.923 -0.9840  0.5272  0.2682
  592MPD2    C2 8774   4.013   3.882  12.006  0.0532 -0.5811 -0.3781
  592MPD2    C3 8775   3.945   3.765  11.962  0.3584 -0.3789 -0.3770
  592MPD2    C4 8776   3.926   3.753  11.831  0.2226  0.3123 -0.0699
  592MPD2    C5 8777   3.971   3.842  11.741 -0.4402  0.5256 -0.4662
  592MPD2     H 8778   4.033   3.896  12.112  0.0000 -5.2466  0.2575
  592MPD2    H1 8779   3.861   3.675  11.793 -0.1793  0.8605 -0.5156
  592MPD2    H2 8780   4.083   4.025  11.723 -2.4818  2.9043  1.0593
  592MPD2    H3 8781   3.940   3.839  11.637 -3.2273 -2.7200  0.4919
  592MPD2     N 8782   3.899   3.667  12.056  0.2833  0.5918 -0.1730
  592MPD2    H5 8783   3.927   3.677  12.154  0.8280 -0.8190 -0.1829
  592MPD2    N1 8784   4.126   4.097  11.960  0.6112  0.1012 -0.2062
  592MPD2    H7 8785   4.168   4.156  11.889 -0.3016  2.5819  1.3443
  593TMC3    C1 8786   4.154   4.290  12.084  0.1543 -0.5271 -0.3773
  593TMC3    C2 8787   4.132   4.365  12.195  0.0723 -0.7626 -0.4303
  593TMC3    C3 8788   4.199   4.480  12.220 -0.7395  0.0023  0.0954
  593TMC3    C4 8789   4.237   4.336  11.979 -0.8731  0.0175 -0.5356
  593TMC3    C5 8790   4.290   4.461  12.002 -0.6112  0.2692 -0.1889
  593TMC3    C6 8791   4.278   4.535  12.121 -0.7544  0.7270 -0.0245
  593TMC3     C 8792   4.099   4.159  12.077 -0.2773  0.0173 -0.0188
  593TMC3     O 8793   4.028   4.119  12.171  0.1020 -0.5045  0.2323
  593TMC3     H 8794   4.058   4.329  12.265  0.6093 -1.9477 -0.4736
  593TMC3    H1 8795   4.251   4.285  11.884 -1.2083 -2.5001  0.7443
  593TMC3    H2 8796   4.331   4.627  12.140 -0.2494  0.2961  0.6352
  593TMC3    C7 8797   4.306   4.552  11.879 -0.1556  0.2517  0.8546
  593TMC3    C8 8798   4.188   4.536  12.357  0.3866  0.3801  0.4445
  593TMC3    O1 8799   4.299   4.672  11.900 -0.0528  0.1233  0.5120
  593TMC3    O2 8800   4.123   4.473  12.438 -0.3875  0.1220  0.1923
  594MPD2     C 8801   2.899   2.945  13.940 -0.2871  1.0340  0.6846
  594MPD2    C1 8802   2.804   3.043  13.956 -0.5204  0.9474  0.4811
  594MPD2    C2 8803   2.842   3.172  13.948 -1.2144  0.4206 -0.0944
  594MPD2    C3 8804   2.974   3.209  13.928  0.8310  0.0769  0.2897
  594MPD2    C4 8805   3.063   3.112  13.892 -0.0281 -0.7572  0.8493
  594MPD2    C5 8806   3.029   2.980  13.896  0.3439  0.0190 -0.6949
  594MPD2     H 8807   2.778   3.256  13.974  0.2152  1.8580 -1.2684
  594MPD2    H1 8808   3.167   3.129  13.871 -0.1123 -0.7780  0.4151
  594MPD2    H2 8809   2.876   2.839  13.938  0.1343  0.9081  1.9345
  594MPD2    H3 8810   3.110   2.912  13.873 -0.5546  0.3443 -4.6956
  594MPD2     N 8811   3.016   3.347  13.945 -0.0002 -0.5148 -0.3864
  594MPD2    H5 8812   2.938   3.409  13.963 -0.5136 -1.3889  0.4101
  594MPD2    N1 8813   2.670   3.003  13.994 -0.2637 -0.2775 -0.2423
  594MPD2    H7 8814   2.661   2.907  14.025  3.8866 -0.6717 -0.2213
  595TMC3    C1 8815   3.344   3.648  14.111 -0.5481 -0.5446 -0.3215
  595TMC3    C2 8816   3.299   3.555  14.014 -0.0897 -0.0084 -0.5628
  595TMC3    C3 8817   3.170   3.508  14.023  0.8284  0.4128  0.1398
  595TMC3    C4 8818   3.257   3.693  14.205 -0.3822 -0.5427  0.4033
  595TMC3    C5 8819   3.125   3.656  14.199  0.9935  0.0857  0.1261
  595TMC3    C6 8820   3.076   3.564  14.115  0.1628 -0.1997 -0.0547
  595TMC3     C 8821   3.486   3.645  14.158 -1.1610 -0.1554  0.2401
  595TMC3     O 8822   3.515   3.698  14.265  0.2341  0.1079  0.5705
  595TMC3     H 8823   3.369   3.521  13.938  1.0740 -3.0126  1.8556
  595TMC3    H1 8824   3.294   3.754  14.286 -2.4005  0.4987  0.5415
  595TMC3    H2 8825   2.984   3.510  14.133  0.5563 -1.0542 -0.5633
  595TMC3    C7 8826   3.053   3.658  14.321 -0.2644  0.1427 -0.6796
  595TMC3    C8 8827   3.149   3.386  13.945  0.4587 -0.9371 -0.8524
  595TMC3    O1 8828   2.933   3.634  14.318  0.0170  0.3957  0.0649
  595TMC3    O2 8829   3.243   3.347  13.882  0.3691  0.2345 -0.1749
  596MPD2     C 8830   1.951   1.022  16.811  0.0838 -0.2664  0.4777
  596MPD2    C1 8831   1.930   1.135  16.746 -0.6022  0.1149 -0.5377
  596MPD2    C2 8832   1.916   1.142  16.605  0.0199  0.0586 -0.0001
  596MPD2    C3 8833   1.929   1.028  16.531  0.3792  1.4148  0.0328
  596MPD2    C4 8834   1.938   0.906  16.592  0.1421 -0.0982 -0.5206
  596MPD2    C5 8835   1.955   0.906  16.732  0.2449 -0.8016  0.0318
  596MPD2     H 8836   1.889   1.238  16.562 -0.3797 -0.1466 -0.2063
  596MPD2    H1 8837   1.947   0.810  16.542  0.6899 -1.8519  2.9364
  596MPD2    H2 8838   1.963   1.013  16.918  0.9377 -1.4859  0.2826
  596MPD2    H3 8839   1.971   0.815  16.789  0.9644 -0.4041  0.4706
  596MPD2     N 8840   1.918   1.028  16.391 -0.3359 -0.6222 -0.3596
  596MPD2    H5 8841   1.908   0.934  16.353 -0.5943 -0.8867  0.3678
  596MPD2    N1 8842   1.902   1.252  16.814  0.3578 -0.0645  0.4443
  596MPD2    H7 8843   1.902   1.333  16.753 -1.5532 -0.8123 -0.5329
  597TMC3    C1 8844   1.820   1.393  16.985 -0.7371 -0.1980  0.5382
  597TMC3    C2 8845   1.860   1.494  16.909  0.5746  0.5563 -0.5006
  597TMC3    C3 8846   1.808   1.620  16.937  0.6684 -0.3143  0.3033
  597TMC3    C4 8847   1.731   1.410  17.087  0.4560  0.1535  0.9217
  597TMC3    C5 8848   1.673   1.531  17.101 -0.1174  0.0373  0.3246
  597TMC3    C6 8849   1.701   1.633  17.019 -0.4047 -0.5477 -0.0650
  597TMC3     C 8850   1.861   1.257  16.949  0.2790 -0.3413  0.0019
  597TMC3     O 8851   1.842   1.165  17.026  0.0214  0.9124  1.0821
  597TMC3     H 8852   1.927   1.483  16.825 -2.6248 -0.9992 -2.8327
  597TMC3    H1 8853   1.692   1.325  17.141  0.8910 -0.1088  0.8254
  597TMC3    H2 8854   1.651   1.729  17.017  0.9120  0.0761 -2.2328
  597TMC3    C7 8855   1.584   1.535  17.220  0.5589  0.1357  0.8974
  597TMC3    C8 8856   1.857   1.733  16.871  0.4398  0.4907  0.1976
  597TMC3    O1 8857   1.550   1.430  17.276 -0.0023  0.4256 -0.0171
  597TMC3    O2 8858   1.779   1.824  16.854 -0.2880  0.0038  0.2760
  598TMC3    C1 8859   4.693   2.815  15.738  0.8751  0.8125  0.1791
  598TMC3    C2 8860   4.615   2.704  15.713  0.2849 -0.0902 -0.2741
  598TMC3    C3 8861   4.623   2.650  15.582 -0.2912  0.0776  0.0099
  598TMC3    C4 8862   0.027   2.892  15.635  0.3939 -0.0635  0.2488
  598TMC3    C5 8863   0.023   2.837  15.508 -0.2224  0.2475  0.2389
  598TMC3    C6 8864   4.681   2.720  15.478  0.7607 -0.8957  0.1334
  598TMC3     C 8865   4.703   2.860  15.877 -0.5488 -0.2041 -0.0378
  598TMC3     O 8866   4.720   2.771  15.959 -0.5581 -0.1965  0.8700
  598TMC3     H 8867   4.557   2.668  15.796  0.4134  0.8867  0.2505
  598TMC3    H1 8868   0.092   2.976  15.655 -0.2143  0.6630 -0.8640
  598TMC3    H2 8869   4.675   2.683  15.376  0.7178 -1.1366  0.2228
  598TMC3    C7 8870   0.108   2.881  15.403 -0.0782  0.4742  0.7463
  598TMC3    C8 8871   4.519   2.561  15.530 -0.3816 -0.4097 -0.0733
  598TMC3    O1 8872   0.131   2.806  15.307  0.4931 -0.0746 -0.3445
  598TMC3    O2 8873   4.499   2.573  15.409 -0.5152  0.1090 -0.0914
  599MPD2     C 8874   0.211   0.545  16.149 -0.1877 -0.2621 -0.1511
  599MPD2    C1 8875   0.151   0.419  16.154 -0.6360 -0.0984 -0.8301
  599MPD2    C2 8876   0.033   0.411  16.220 -0.5443 -0.6135  0.2766
  599MPD2    C3 8877   4.706   0.521  16.297 -0.2153  0.5581  0.0352
  599MPD2    C4 8878   0.041   0.643  16.289 -0.5719  0.1063  0.1519
  599MPD2    C5 8879   0.161   0.654  16.217  0.2693  0.3209 -0.1089
  599MPD2     H 8880   4.698   0.321  16.239 -0.0665 -0.6608  1.4987
  599MPD2    H1 8881   0.003   0.726  16.347 -1.2426  0.1443 -0.3480
  599MPD2    H2 8882   0.294   0.562  16.082  1.2636  0.3690  1.8417
  599MPD2    H3 8883   0.212   0.749  16.201 -0.4619  0.9386  1.1711
  599MPD2     N 8884   4.582   0.516  16.373 -0.3830  0.2853  0.2961
  599MPD2    H5 8885   4.556   0.593  16.435  0.4533  1.4718 -0.8167
  599MPD2    N1 8886   0.219   0.314  16.085  0.5226 -0.0224  0.5753
  599MPD2    H7 8887   0.316   0.334  16.060  0.2865  1.1737  0.6198
  600TMC3    C1 8888   4.358   0.428  16.441 -0.4777  0.2476 -0.1814
  600TMC3    C2 8889   4.286   0.313  16.453 -0.3893  0.1310  0.2063
  600TMC3    C3 8890   4.204   0.307  16.559  0.3888  0.7601  0.5472
  600TMC3    C4 8891   4.337   0.531  16.533  0.7013 -0.0243 -1.1390
  600TMC3    C5 8892   4.238   0.521  16.627 -0.2622 -0.4341  0.8327
  600TMC3    C6 8893   4.177   0.404  16.651 -0.2126  0.5133 -0.3420
  600TMC3     C 8894   4.481   0.414  16.357  0.4416 -0.1906  0.1121
  600TMC3     O 8895   4.481   0.315  16.279 -0.4146  0.3653 -0.2809
  600TMC3     H 8896   4.317   0.227  16.396 -0.0486 -0.6695  1.5900
  600TMC3    H1 8897   4.411   0.610  16.534  0.0465  0.5721  0.4873
  600TMC3    H2 8898   4.113   0.386  16.736  1.4654  0.3309  0.8747
  600TMC3    C7 8899   4.195   0.634  16.703  0.5758 -0.0176  0.1320
  600TMC3    C8 8900   4.183   0.170  16.604  0.3050 -0.0073 -0.1052
  600TMC3    O1 8901   4.122   0.615  16.801 -0.2353  0.7801  0.4439
  600TMC3    O2 8902   4.186   0.155  16.724 -0.0994 -0.5625 -0.3338
  601MPD2     C 8903   1.676   2.636   0.761 -0.5342  0.1776 -0.8036
  601MPD2    C1 8904   1.655   2.604   0.628 -0.1703  0.9141 -0.0895
  601MPD2    C2 8905   1.649   2.462   0.599 -0.2328  0.4337 -0.4544
  601MPD2    C3 8906   1.683   2.364   0.693  0.0700 -0.3143  0.1178
  601MPD2    C4 8907   1.704   2.409   0.825 -0.0109  0.1918  0.1216
  601MPD2    C5 8908   1.703   2.538   0.857  0.0278 -0.0063 -0.4613
  601MPD2     H 8909   1.642   2.427   0.497 -0.2305  0.4877 -0.4725
  601MPD2    H1 8910   1.715   2.326   0.895  0.1342 -0.6333 -0.8828
  601MPD2    H2 8911   1.663   2.734   0.804  2.9323  0.6941 -0.9312
  601MPD2    H3 8912   1.709   2.563   0.962  0.6421 -1.5994 -0.1195
  601MPD2     N 8913   1.685   2.228   0.677  0.1103  0.6241  0.2999
  601MPD2    H5 8914   1.704   2.172   0.759  0.9907  0.5173  0.0138
  601MPD2    N1 8915   1.630   2.701   0.529 -0.4019  0.0368  0.0592
  601MPD2    H7 8916   1.607   2.659   0.440 -0.1795 -0.0280  0.0330
  602TMC3    C1 8917   1.635   2.910   0.406 -0.2256 -0.2253  0.4264
  602TMC3    C2 8918   1.713   3.026   0.391  0.0289  0.2770 -0.3536
  602TMC3    C3 8919   1.671   3.100   0.280 -0.3019  0.4138 -0.1503
  602TMC3    C4 8920   1.509   2.886   0.349 -0.1815 -0.7117  0.6018
  602TMC3    C5 8921   1.470   2.976   0.254 -0.2496 -0.2562 -0.2723
  602TMC3    C6 8922   1.558   3.069   0.202  1.0573 -0.2670 -0.4875
  602TMC3     C 8923   1.655   2.843   0.534 -0.2974 -0.1681 -0.6323
  602TMC3     O 8924   1.695   2.902   0.631 -0.1601  0.4052  0.2468
  602TMC3     H 8925   1.782   3.060   0.467 -2.7119  0.4655  2.0710
  602TMC3    H1 8926   1.438   2.808   0.374  0.6487 -2.1348 -1.4073
  602TMC3    H2 8927   1.541   3.116   0.106 -0.5942 -1.1829 -0.6317
  602TMC3    C7 8928   1.344   2.953   0.182  0.2241 -0.4196 -0.4815
  602TMC3    C8 8929   1.719   3.230   0.250 -0.8479  0.2605 -0.4758
  602TMC3    O1 8930   1.308   2.840   0.174 -0.4163  0.0933 -0.2218
  602TMC3    O2 8931   1.838   3.245   0.247  0.7763 -0.3614  0.2267
  603TMC3    C1 8932   0.746   3.313  10.751 -0.1960  0.1011 -0.5283
  603TMC3    C2 8933   0.732   3.343  10.885  0.3378 -0.5547 -0.8808
  603TMC3    C3 8934   0.642   3.442  10.919 -0.2846 -0.8921 -0.7925
  603TMC3    C4 8935   0.672   3.374  10.651 -0.2249 -0.0833  0.0469
  603TMC3    C5 8936   0.582   3.465  10.696  0.5859 -0.0176  0.3030
  603TMC3    C6 8937   0.561   3.503  10.826 -0.8428  0.2559  0.2323
  603TMC3     C 8938   0.755   3.168  10.731  0.3427 -0.2103 -0.3009
  603TMC3     O 8939   0.716   3.095  10.824 -0.7456 -0.2598  0.0189
  603TMC3     H 8940   0.784   3.289  10.963  0.2215 -0.4706 -0.7468
  603TMC3    H1 8941   0.692   3.359  10.545  1.0106  0.2402  0.2319
  603TMC3    H2 8942   0.482   3.573  10.853  0.1831  1.4881  0.0522
  603TMC3    C7 8943   0.508   3.534  10.593 -0.5643  0.5654 -1.1515
  603TMC3    C8 8944   0.598   3.437  11.059 -0.2604  0.4578  0.3257
  603TMC3    O1 8945   0.545   3.537  10.476 -0.1669 -0.0405  0.0890
  603TMC3    O2 8946   0.642   3.348  11.133 -0.2007  0.1608  0.1554
  604MPD2     C 8947   1.271   2.568  16.305 -0.1557  1.0833  0.4537
  604MPD2    C1 8948   1.184   2.464  16.313 -0.7986  0.6270 -0.6338
  604MPD2    C2 8949   1.190   2.361  16.221 -0.0328 -0.2229 -0.1643
  604MPD2    C3 8950   1.283   2.363  16.114 -0.5422 -0.5044 -1.0651
  604MPD2    C4 8951   1.370   2.477  16.105 -0.1382 -0.7760 -0.2196
  604MPD2    C5 8952   1.356   2.581  16.196 -0.0914  0.1716 -0.4732
  604MPD2     H 8953   1.112   2.287  16.230  0.2397 -0.6834 -1.5930
  604MPD2    H1 8954   1.435   2.479  16.018 -2.3706 -0.6964 -1.8981
  604MPD2    H2 8955   1.279   2.646  16.380 -0.3905  2.8290 -1.3547
  604MPD2    H3 8956   1.416   2.670  16.182 -3.5673  2.6445  0.3166
  604MPD2     N 8957   1.278   2.268  16.009  0.4097 -0.7132 -0.0144
  604MPD2    H5 8958   1.195   2.211  16.007 -0.0768 -0.0161  0.2965
  604MPD2    N1 8959   1.100   2.473  16.429 -0.3564 -0.7061 -0.2664
  604MPD2    H7 8960   1.103   2.559  16.483  4.2884 -0.8492 -0.2873
  605TMC3    C1 8961   0.904   2.439  16.553 -0.0986  0.2834 -0.1016
  605TMC3    C2 8962   0.958   2.514  16.650  0.2807 -0.4559 -0.0112
  605TMC3    C3 8963   0.879   2.610  16.722  0.7110 -0.3274 -0.0305
  605TMC3    C4 8964   0.781   2.485  16.508  0.2621 -0.1745 -0.1155
  605TMC3    C5 8965   0.705   2.578  16.570 -0.3593 -0.5017 -0.1891
  605TMC3    C6 8966   0.755   2.651  16.682 -0.0697 -0.3023  0.4109
  605TMC3     C 8967   0.990   2.389  16.445  0.3579  0.0047 -0.0928
  605TMC3     O 8968   0.959   2.287  16.385  0.2670  0.0127  0.0091
  605TMC3     H 8969   1.060   2.499  16.683  0.4247 -1.7552 -1.0298
  605TMC3    H1 8970   0.737   2.425  16.429 -0.4338  0.4832 -0.2259
  605TMC3    H2 8971   0.692   2.714  16.742 -0.3276 -0.7083  0.5709
  605TMC3    C7 8972   0.576   2.606  16.510  0.3773  0.2974  0.1402
  605TMC3    C8 8973   0.934   2.661  16.847 -0.1852  0.3653  0.4657
  605TMC3    O1 8974   0.522   2.517  16.452  1.0149 -0.1010 -0.2873
  605TMC3    O2 8975   1.042   2.603  16.883  0.1016 -0.3051  0.2562
  606TMC3    C1 8976   1.756   0.458  16.623 -0.5076 -0.8298  1.2435
  606TMC3    C2 8977   1.786   0.515  16.743  1.2027 -0.4544 -0.2324
  606TMC3    C3 8978   1.723   0.469  16.855  0.2145 -0.0130  0.6890
  606TMC3    C4 8979   1.664   0.357  16.614  0.4303 -0.2830  0.0486
  606TMC3    C5 8980   1.607   0.314  16.733  0.1009  0.4111 -0.1181
  606TMC3    C6 8981   1.626   0.373  16.852  0.1721 -0.0609  1.1866
  606TMC3     C 8982   1.862   0.446  16.534  0.2253 -0.0562  0.0731
  606TMC3     O 8983   1.822   0.463  16.418 -0.2411  0.0742  0.0682
  606TMC3     H 8984   1.847   0.605  16.747  0.7150 -0.2900  3.3616
  606TMC3    H1 8985   1.652   0.308  16.518 -2.5990  0.4009  0.0911
  606TMC3    H2 8986   1.587   0.331  16.945 -1.2022 -2.3255 -0.3925
  606TMC3    C7 8987   1.538   0.186  16.716 -0.1226  0.2207  0.4271
  606TMC3    C8 8988   1.775   0.512  16.982 -0.0919  0.1091  0.0946
  606TMC3    O1 8989   1.588   0.108  16.644  0.1578  1.2698 -0.5914
  606TMC3    O2 8990   1.892   0.546  16.986 -0.4592 -0.6120 -0.1382
  607MPD2     C 8991   4.139   3.390  11.600  0.4951  0.2823  0.2934
  607MPD2    C1 8992   4.188   3.403  11.728  0.1011  0.2280 -0.1624
  607MPD2    C2 8993   4.136   3.317  11.823  0.3603  0.5674  0.0489
  607MPD2    C3 8994   4.033   3.226  11.793 -0.0409 -0.2672  0.8691
  607MPD2    C4 8995   3.995   3.211  11.664 -0.5705 -0.1524 -0.1220
  607MPD2    C5 8996   4.041   3.301  11.568  0.2955  0.1051 -0.2164
  607MPD2     H 8997   4.175   3.338  11.922 -0.7403  0.0405  0.5938
  607MPD2    H1 8998   3.918   3.140  11.637 -0.3201  1.0548 -3.9607
  607MPD2    H2 8999   4.182   3.456  11.526  2.2329  0.5814  1.5785
  607MPD2    H3 9000   4.009   3.307  11.464 -2.5042 -3.1339  0.4788
  607MPD2     N 9001   3.993   3.149  11.898 -0.0575 -0.1194  0.2399
  607MPD2    H5 9002   4.028   3.180  11.988  0.9064 -2.8592  0.7912
  607MPD2    N1 9003   4.275   3.510  11.768 -0.4112 -0.1721 -0.0474
  607MPD2    H7 9004   4.291   3.519  11.868 -0.7142 -2.6141  0.2095
  608TMC3    C1 9005   4.345   3.734  11.786  0.0050  0.6918 -0.4352
  608TMC3    C2 9006   4.293   3.726  11.915  0.2600 -0.3308  0.0300
  608TMC3    C3 9007   4.373   3.786  12.013 -0.7357 -0.2196 -0.5862
  608TMC3    C4 9008   4.463   3.799  11.760 -0.3826  0.2951  0.0706
  608TMC3    C5 9009   4.516   3.891  11.856  0.1688  0.3472  0.2215
  608TMC3    C6 9010   4.470   3.884  11.987  0.0390 -0.1137 -0.2134
  608TMC3     C 9011   4.322   3.620  11.691  0.0903 -0.0978 -0.2679
  608TMC3     O 9012   4.325   3.635  11.570 -0.0103 -0.2351  0.5779
  608TMC3     H 9013   4.195   3.679  11.923 -0.8991  2.1682  0.3237
  608TMC3    H1 9014   4.491   3.801  11.656 -1.3657 -1.2052 -0.2208
  608TMC3    H2 9015   4.514   3.944  12.066 -0.7407 -1.2882  1.0927
  608TMC3    C7 9016   4.559   4.013  11.789 -0.4186  0.7745 -0.1150
  608TMC3    C8 9017   4.316   3.775  12.144 -0.0692 -0.3038  0.5724
  608TMC3    O1 9018   4.550   4.016  11.667  0.0052 -0.1497  0.2427
  608TMC3    O2 9019   4.333   3.871  12.219 -0.7237  0.0137 -0.5969
  609TMC3    C1 9020   2.371   2.181   9.638  0.2049 -0.0625 -0.1074
  609TMC3    C2 9021   2.287   2.094   9.569  0.3807 -0.1158 -0.0361
  609TMC3    C3 9022   2.321   1.962   9.559 -0.0800 -0.0336  0.6980
  609TMC3    C4 9023   2.500   2.139   9.655 -0.0941 -0.8598  0.3116
  609TMC3    C5 9024   2.538   2.006   9.629  0.0791 -0.8919  0.3911
  609TMC3    C6 9025   2.451   1.915   9.572  0.3536 -0.3676  0.3678
  609TMC3     C 9026   2.322   2.318   9.661  0.0726  0.4668 -0.0914
  609TMC3     O 9027   2.203   2.340   9.648  0.6381 -0.0750 -0.4608
  609TMC3     H 9028   2.187   2.133   9.550  0.8995  1.3692  0.2882
  609TMC3    H1 9029   2.574   2.197   9.709 -2.0763 -0.1451  2.2500
  609TMC3    H2 9030   2.472   1.809   9.558 -1.2698 -0.7209  0.7063
  609TMC3    C7 9031   2.669   1.955   9.648  0.6926  0.4268 -0.6328
  609TMC3    C8 9032   2.222   1.864   9.513 -0.1187  0.1184  0.1742
  609TMC3    O1 9033   2.747   2.033   9.704 -0.0256 -0.0281  0.7471
  609TMC3    O2 9034   2.245   1.748   9.541  0.6955  0.2277 -0.4887
  610TMC3    C1 9035   4.580   3.106  12.373 -0.1329 -0.9131 -0.1120
  610TMC3    C2 9036   4.597   3.218  12.300 -0.3200  0.8544 -0.6496
  610TMC3    C3 9037   0.004   3.252  12.273  0.1263  0.3904  0.1700
  610TMC3    C4 9038   4.687   3.022  12.410  0.0352  0.9115 -0.2674
  610TMC3    C5 9039   0.096   3.058  12.382  0.2560  0.5955 -0.0132
  610TMC3    C6 9040   0.113   3.175  12.312 -0.6392  0.2065  0.0841
  610TMC3     C 9041   4.470   3.085  12.457  0.0591 -0.0955 -0.4010
  610TMC3     O 9042   4.421   2.977  12.473 -0.1985 -0.2779 -0.1295
  610TMC3     H 9043   4.509   3.273  12.267 -1.5734 -1.7111 -1.5742
  610TMC3    H1 9044   4.664   2.933  12.468  1.2742  0.8842  0.1818
  610TMC3    H2 9045   0.212   3.217  12.315 -0.3383 -0.6226  1.3693
  610TMC3    C7 9046   0.211   2.984  12.433 -0.6192 -0.2239  0.0454
  610TMC3    C8 9047   0.018   3.370  12.196 -0.0159 -0.1460  0.2613
  610TMC3    O1 9048   0.322   3.033  12.415  0.2578  0.2408 -0.6756
  610TMC3    O2 9049   4.648   3.448  12.193  1.0745  0.2307 -1.0637
  611MPD2     C 9050   4.050   2.805  10.471 -0.3230  0.0734  0.0053
  611MPD2    C1 9051   3.953   2.903  10.498  0.0534  0.6372  0.8890
  611MPD2    C2 9052   3.998   3.036  10.525 -0.6676  0.4928  0.4014
  611MPD2    C3 9053   4.132   3.072  10.517  0.5166  0.4890  0.3928
  611MPD2    C4 9054   4.223   2.974  10.496 -0.0359 -0.0950  0.2189
  611MPD2    C5 9055   4.183   2.847  10.468 -0.0839 -0.2351  0.0863
  611MPD2     H 9056   3.919   3.106  10.549  0.8880  1.7697  1.7805
  611MPD2    H1 9057   4.328   2.995  10.480  0.2663 -1.2769  0.6531
  611MPD2    H2 9058   4.022   2.704  10.442  1.8247 -0.8968  1.3483
  611MPD2    H3 9059   4.253   2.771  10.434 -0.6276  0.0210 -1.5880
  611MPD2     N 9060   4.163   3.210  10.504 -0.2191  0.4847 -0.1009
  611MPD2    H5 9061   4.086   3.276  10.504 -1.3341 -0.8171  1.6909
  611MPD2    N1 9062   3.818   2.864  10.474  0.4168  0.0205  0.5637
  611MPD2    H7 9063   3.797   2.767  10.453  1.1132  0.1708 -0.8528
  612TMC3    C1 9064   4.297   3.410  10.453  0.5213  0.0007  0.2131
  612TMC3    C2 9065   4.416   3.481  10.472 -0.4003  0.0523  0.3937
  612TMC3    C3 9066   4.421   3.614  10.435  0.3400 -0.5919  0.2650
  612TMC3    C4 9067   4.186   3.465  10.400 -0.4705  0.0916  0.3897
  612TMC3    C5 9068   4.196   3.599  10.357  0.0069  0.5418 -0.5831
  612TMC3    C6 9069   4.312   3.674  10.377  0.1461  0.4140  0.4944
  612TMC3     C 9070   4.288   3.269  10.496  0.1433 -0.5354  0.6163
  612TMC3     O 9071   4.398   3.219  10.504 -0.6441 -0.6391 -0.6102
  612TMC3     H 9072   4.502   3.424  10.506 -0.6504 -1.7491 -2.0070
  612TMC3    H1 9073   4.087   3.423  10.398 -0.0346 -0.8793 -0.8854
  612TMC3    H2 9074   4.308   3.782  10.377 -0.4895  0.3944 -2.0939
  612TMC3    C7 9075   4.071   3.669  10.326 -0.6578 -0.1025  0.0260
  612TMC3    C8 9076   4.545   3.689  10.441 -0.2583  0.3743 -0.4732
  612TMC3    O1 9077   3.965   3.610  10.343 -0.0294  0.2560 -0.3070
  612TMC3    O2 9078   4.539   3.808  10.419  0.8267  0.6791 -0.3484
  613MPD2     C 9079   2.935   1.098  16.959 -0.0141  0.1499  0.3639
  613MPD2    C1 9080   2.969   1.139  16.835 -0.0426 -0.7252 -0.3706
  613MPD2    C2 9081   2.867   1.139  16.737 -0.0816  0.3781  0.7604
  613MPD2    C3 9082   2.742   1.088  16.763  0.4112  0.0797  0.7223
  613MPD2    C4 9083   2.720   1.036  16.888 -0.0877 -0.0186  1.5099
  613MPD2    C5 9084   2.808   1.056  16.984  0.0664 -0.3181  0.4113
  613MPD2     H 9085   2.894   1.169  16.637 -0.2264  2.8064  1.4555
  613MPD2    H1 9086   2.622   0.998  16.916 -0.9181  1.2054  0.3233
  613MPD2    H2 9087   3.004   1.107  17.042 -0.5000  0.4781  0.7298
  613MPD2    H3 9088   2.784   1.027  17.086 -2.4455 -0.0822 -0.1166
  613MPD2     N 9089   2.660   1.052  16.659  0.2997  0.4898 -0.2457
  613MPD2    H5 9090   2.581   0.990  16.677 -1.3544  2.2280 -1.5947
  613MPD2    N1 9091   3.102   1.181  16.815 -0.4516  0.1575  0.6287
  613MPD2    H7 9092   3.167   1.160  16.890  0.1471  2.5026  0.7667
  614TMC3    C1 9093   3.292   1.198  16.678 -0.2787 -0.4884  0.5368
  614TMC3    C2 9094   3.319   1.066  16.697 -0.4289 -0.2814 -0.3705
  614TMC3    C3 9095   3.407   1.002  16.613  0.0755 -0.5424  0.7052
  614TMC3    C4 9096   3.358   1.270  16.583  0.3254 -0.8216  0.7446
  614TMC3    C5 9097   3.470   1.216  16.527  0.2386 -0.1502  0.4221
  614TMC3    C6 9098   3.496   1.079  16.541  0.0591  0.3917 -1.1903
  614TMC3     C 9099   3.153   1.232  16.700  0.9262 -0.7579  0.0546
  614TMC3     O 9100   3.098   1.311  16.622  0.2117  0.8369 -0.2874
  614TMC3     H 9101   3.272   1.007  16.774  3.3277 -0.6256  1.6706
  614TMC3    H1 9102   3.316   1.365  16.552 -0.5806 -0.7683  2.1334
  614TMC3    H2 9103   3.578   1.033  16.488 -0.2805  0.4546 -1.7724
  614TMC3    C7 9104   3.527   1.268  16.404  0.4947  0.4289  1.0662
  614TMC3    C8 9105   3.335   0.897  16.532  0.5217 -0.3242  0.0254
  614TMC3    O1 9106   3.637   1.226  16.372  0.4700  0.1890 -0.8114
  614TMC3    O2 9107   3.265   0.818  16.589  0.2333  0.2844 -0.5567
  615MPD2     C 9108   1.980   2.517  16.419  0.0066 -0.2549  0.6784
  615MPD2    C1 9109   2.051   2.624  16.371  0.5283 -0.1020 -0.1775
  615MPD2    C2 9110   2.135   2.606  16.261 -0.4543 -0.3918 -0.5761
  615MPD2    C3 9111   2.137   2.480  16.201  0.4223  0.2850 -0.2172
  615MPD2    C4 9112   2.063   2.377  16.256  0.1952 -0.0730 -0.1540
  615MPD2    C5 9113   1.991   2.392  16.370 -0.0731  1.1648  0.2467
  615MPD2     H 9114   2.195   2.688  16.225 -1.7685  0.9703  0.3464
  615MPD2    H1 9115   2.048   2.283  16.205  1.8517 -0.4496  0.0536
  615MPD2    H2 9116   1.906   2.530  16.497 -1.3765  0.1080 -0.6838
  615MPD2    H3 9117   1.938   2.304  16.404 -1.8180  1.8787 -0.6316
  615MPD2     N 9118   2.185   2.452  16.075  0.3817 -0.3432 -0.3775
  615MPD2    H5 9119   2.161   2.360  16.037 -1.0799  0.7821 -2.1792
  615MPD2    N1 9120   2.051   2.757  16.428  0.3144 -0.1032  0.6149
  615MPD2    H7 9121   2.126   2.811  16.386  1.0819 -1.0736  0.7297
  616TMC3    C1 9122   1.980   2.942  16.559  0.2104  0.4387 -0.0418
  616TMC3    C2 9123   2.039   3.029  16.469 -0.5287  0.1180 -0.2877
  616TMC3    C3 9124   2.113   3.125  16.526  0.4393 -0.9871  0.3921
  616TMC3    C4 9125   1.978   2.969  16.693  0.2436  0.1082  0.3313
  616TMC3    C5 9126   2.037   3.087  16.739  0.3503 -0.4667  0.3070
  616TMC3    C6 9127   2.120   3.159  16.655  0.2439  0.3429 -0.4749
  616TMC3     C 9128   1.978   2.802  16.535 -0.0970 -0.1338 -0.3843
  616TMC3     O 9129   1.891   2.740  16.600  0.2020 -0.0828  0.4031
  616TMC3     H 9130   2.043   3.001  16.365 -1.0295  2.1641 -0.8682
  616TMC3    H1 9131   1.935   2.894  16.758  0.1703  0.1734  0.3577
  616TMC3    H2 9132   2.162   3.256  16.680  1.2670 -0.6054  1.5055
  616TMC3    C7 9133   2.073   3.082  16.882  0.2667 -0.1184 -0.5372
  616TMC3    C8 9134   2.190   3.203  16.433 -0.1643 -0.2959  0.9735
  616TMC3    O1 9135   2.167   3.145  16.923  0.1126  0.0285  0.0072
  616TMC3    O2 9136   2.146   3.232  16.324  0.0275  0.0706  0.4266
  617MPD2     C 9137   1.034   0.908  13.736 -0.3143  0.1650  0.3928
  617MPD2    C1 9138   0.995   0.879  13.860 -0.0586  0.5610  0.2059
  617MPD2    C2 9139   0.868   0.880  13.909 -0.0007  0.2858  0.3662
  617MPD2    C3 9140   0.765   0.925  13.822 -0.2580  0.8968 -0.1375
  617MPD2    C4 9141   0.801   0.971  13.695 -0.2429  0.0612  0.9022
  617MPD2    C5 9142   0.930   0.953  13.652 -0.2534  0.0211  0.5306
  617MPD2     H 9143   0.841   0.861  14.013  0.7105 -0.0669  0.4827
  617MPD2    H1 9144   0.721   1.015  13.638 -0.0910 -0.8877 -0.0450
  617MPD2    H2 9145   1.139   0.918  13.711 -0.2771  0.1433  0.5370
  617MPD2    H3 9146   0.963   0.989  13.555  2.1233 -1.6681  0.7130
  617MPD2     N 9147   0.628   0.927  13.855 -0.3110 -0.6754  0.2611
  617MPD2    H5 9148   0.568   0.948  13.776 -0.2394  1.2501  0.7386
  617MPD2    N1 9149   1.106   0.874  13.953 -0.2333  0.2209  0.0628
  617MPD2    H7 9150   1.201   0.877  13.917 -0.0570 -1.1177  0.4244
  618TMC3    C1 9151   1.228   0.855  14.142 -0.0916 -0.2126 -1.0732
  618TMC3    C2 9152   1.261   0.732  14.192 -0.4987  0.1772  0.1864
  618TMC3    C3 9153   1.390   0.693  14.194 -0.2779 -0.1255 -0.0216
  618TMC3    C4 9154   1.327   0.949  14.110 -0.0473  0.2444 -0.2079
  618TMC3    C5 9155   1.458   0.912  14.121 -0.4390  0.5001 -0.0646
  618TMC3    C6 9156   1.487   0.783  14.159 -0.0732 -0.4333  0.0793
  618TMC3     C 9157   1.097   0.856  14.089  0.0103  0.0357 -0.1350
  618TMC3     O 9158   1.002   0.851  14.166 -0.4598  0.4734  0.0832
  618TMC3     H 9159   1.180   0.660  14.192 -0.2316 -0.1250 -0.6543
  618TMC3    H1 9160   1.310   1.052  14.083 -0.7032  0.6645  1.7822
  618TMC3    H2 9161   1.588   0.749  14.179 -0.7358 -1.8142  1.1443
  618TMC3    C7 9162   1.563   1.008  14.089  0.2240  0.2468  0.9577
  618TMC3    C8 9163   1.411   0.580  14.101 -0.0445 -0.9556  1.4100
  618TMC3    O1 9164   1.533   1.124  14.130  0.4115 -0.1816 -0.0567
  618TMC3    O2 9165   1.330   0.590  14.009 -0.2665  0.1602 -0.0100
  619MPD2     C 9166   1.878   2.114  14.318  0.1576 -0.3195 -0.1405
  619MPD2    C1 9167   1.856   2.139  14.186 -0.1498 -0.1300 -0.1988
  619MPD2    C2 9168   1.726   2.168  14.140 -0.4723 -0.6681 -0.2404
  619MPD2    C3 9169   1.628   2.173  14.237  1.2181  0.3955  0.0521
  619MPD2    C4 9170   1.663   2.162  14.369  0.7221  0.2274 -0.3996
  619MPD2    C5 9171   1.785   2.135  14.412 -0.1254  0.2864  0.0588
  619MPD2     H 9172   1.707   2.150  14.035 -1.9838 -0.6015  0.0243
  619MPD2    H1 9173   1.590   2.175  14.449 -1.0776 -1.9812 -1.6963
  619MPD2    H2 9174   1.982   2.090  14.341  1.1920  2.4707 -1.9777
  619MPD2    H3 9175   1.800   2.116  14.518 -0.9915 -1.2768 -0.0975
  619MPD2     N 9176   1.497   2.172  14.204  0.3501  0.3780 -0.0775
  619MPD2    H5 9177   1.433   2.160  14.282  1.0649 -2.4291  0.0796
  619MPD2    N1 9178   1.955   2.119  14.087  0.1172 -0.4853 -0.6665
  619MPD2    H7 9179   1.926   2.147  13.993 -2.1264  0.7469  0.4012
  620TMC3    C1 9180   2.148   2.108  13.962 -0.2081 -0.4762  0.0224
  620TMC3    C2 9181   2.061   2.121  13.859  0.1211  1.0003  0.4104
  620TMC3    C3 9182   2.092   2.207  13.760  0.3108 -0.8529  0.3016
  620TMC3    C4 9183   2.262   2.180  13.967 -0.4158 -0.2911 -0.2877
  620TMC3    C5 9184   2.292   2.256  13.857 -0.0229 -0.0504  0.2776
  620TMC3    C6 9185   2.202   2.280  13.759  0.2870  0.5553  0.4851
  620TMC3     C 9186   2.087   2.100  14.091  0.1408  0.2630 -0.8103
  620TMC3     O 9187   2.157   2.102  14.195  0.3581  0.2146  0.1226
  620TMC3     H 9188   1.978   2.052  13.846  0.4364  1.7499 -5.5472
  620TMC3    H1 9189   2.335   2.177  14.047 -1.0105  1.1901  0.3043
  620TMC3    H2 9190   2.238   2.347  13.681  0.8658 -1.3649 -0.9075
  620TMC3    C7 9191   2.402   2.353  13.851 -0.9288 -0.3731  0.3663
  620TMC3    C8 9192   1.989   2.224  13.659 -0.1750  0.8124  0.7190
  620TMC3    O1 9193   2.435   2.406  13.957 -0.1578 -0.1337 -0.8588
  620TMC3    O2 9194   1.890   2.153  13.667 -0.1123  0.5521 -0.4250
  621MPD2     C 9195   1.974   2.613  11.009  0.2711  0.0371  0.0920
  621MPD2    C1 9196   2.074   2.565  10.933 -0.3072 -0.3556  0.5631
  621MPD2    C2 9197   2.117   2.646  10.828 -0.0728  0.2903  0.4513
  621MPD2    C3 9198   2.052   2.765  10.794  0.3459  0.1774  0.0241
  621MPD2    C4 9199   1.947   2.808  10.871 -0.2015 -0.0422  0.5052
  621MPD2    C5 9200   1.905   2.732  10.983 -0.1668  0.7496 -0.2970
  621MPD2     H 9201   2.196   2.609  10.763 -0.2015 -0.1792  0.5599
  621MPD2    H1 9202   1.892   2.898  10.844 -0.9841 -0.6430  0.0733
  621MPD2    H2 9203   1.960   2.561  11.104 -1.9186  2.4403  1.0890
  621MPD2    H3 9204   1.831   2.777  11.048 -0.6086  1.2488 -1.1417
  621MPD2     N 9205   2.097   2.828  10.682 -0.9219 -0.5250  0.4648
  621MPD2    H5 9206   2.169   2.784  10.626 -0.8012 -0.0492  0.2407
  621MPD2    N1 9207   2.158   2.447  10.951  0.1458 -0.2545  0.1266
  621MPD2    H7 9208   2.222   2.428  10.874  2.6514  4.1319  1.0968
  622TMC3    C1 9209   2.201   2.222  11.030  0.1538 -0.3213 -0.1323
  622TMC3    C2 9210   2.115   2.120  11.055 -0.1130  0.1590 -0.4457
  622TMC3    C3 9211   2.124   2.011  10.963  0.0812 -0.5608 -0.0074
  622TMC3    C4 9212   2.289   2.221  10.921 -0.4116  0.6840 -0.1529
  622TMC3    C5 9213   2.273   2.119  10.830 -1.3266  0.2424  0.0863
  622TMC3    C6 9214   2.196   2.007  10.849  0.2028 -0.2014  0.2950
  622TMC3     C 9215   2.142   2.357  11.055 -0.0465  0.1474 -0.4214
  622TMC3     O 9216   2.065   2.371  11.155  0.1493 -0.4741 -0.2969
  622TMC3     H 9217   2.056   2.124  11.146  2.0013  1.1368  0.8708
  622TMC3    H1 9218   2.350   2.305  10.890 -1.2314  1.4842  0.3877
  622TMC3    H2 9219   2.187   1.918  10.788 -0.2600 -0.4658  0.7544
  622TMC3    C7 9220   2.326   2.145  10.698 -0.2251 -0.3196  0.9163
  622TMC3    C8 9221   2.027   1.901  10.975  0.3611  0.2059  0.5541
  622TMC3    O1 9222   2.377   2.252  10.684  0.6604 -0.3542 -0.0934
  622TMC3    O2 9223   2.056   1.785  10.950  0.1113 -1.0164  0.0264
  623MPD2     C 9224   1.382   3.016  16.474 -0.0892  0.6697 -0.2377
  623MPD2    C1 9225   1.292   2.937  16.543  0.3410  0.6326 -0.1854
  623MPD2    C2 9226   1.322   2.897  16.674 -0.2423  0.2833 -0.0353
  623MPD2    C3 9227   1.451   2.928  16.723 -0.0387  0.5729  0.4304
  623MPD2    C4 9228   1.532   3.015  16.653 -0.0907  0.0016  0.1569
  623MPD2    C5 9229   1.496   3.060  16.534  0.2140 -0.3027 -0.0673
  623MPD2     H 9230   1.250   2.832  16.723  0.7693 -0.9411 -0.1440
  623MPD2    H1 9231   1.623   3.050  16.702  0.0361 -0.0655 -0.0291
  623MPD2    H2 9232   1.355   3.049  16.374 -1.7382  2.1094  0.6721
  623MPD2    H3 9233   1.560   3.134  16.487  0.8326 -0.2102  0.9190
  623MPD2     N 9234   1.471   2.876  16.851 -0.0003 -0.0795  0.2872
  623MPD2    H5 9235   1.400   2.814  16.889 -1.8259  0.8564 -1.6073
  623MPD2    N1 9236   1.176   2.893  16.471 -0.7756  0.1564  0.3125
  623MPD2    H7 9237   1.171   2.906  16.370  0.8659  0.0349  0.2135
  624TMC3    C1 9238   1.634   2.687  17.222  0.0806  0.0535  0.2512
  624TMC3    C2 9239   1.510   2.694  17.283 -0.4348  0.3974  1.2935
  624TMC3    C3 9240   1.428   2.788  17.233 -0.0562 -0.3784  0.6549
  624TMC3    C4 9241   1.666   2.752  17.101 -0.1419  0.2599  0.0760
  624TMC3    C5 9242   1.564   2.826  17.052  0.0120 -0.2356 -0.0160
  624TMC3    C6 9243   1.443   2.844  17.112  0.6131 -0.2688 -0.8057
  624TMC3     C 9244   1.739   2.625  17.301  0.1818 -0.1784  0.7209
  624TMC3     O 9245   1.726   2.612  17.423  0.6949  0.1059 -0.1976
  624TMC3     H 9246   1.472   2.621  17.355  1.2349 -1.0385  0.7198
  624TMC3    H1 9247   1.767   2.750  17.062 -0.8073  0.3793 -1.6599
  624TMC3    H2 9248   1.366   2.908  17.071  0.7899  0.7494  0.4515
  624TMC3    C7 9249   1.584   2.894  16.925 -0.1880 -0.0975 -0.3701
  624TMC3    C8 9250   1.290   2.754  17.242 -0.2903 -0.2762  0.5117
  624TMC3    O1 9251   1.694   2.941  16.903  0.3261 -0.0447  0.1234
  624TMC3    O2 9252   1.265   2.635  17.243  0.2337 -0.2452  0.6052
  625MPD2     C 9253   1.916   4.500   1.282  0.2738 -0.1524 -0.2707
  625MPD2    C1 9254   1.910   4.448   1.152  0.2869  0.5391  0.4048
  625MPD2    C2 9255   2.017   4.400   1.087  0.1175  0.4929  0.3627
  625MPD2    C3 9256   2.139   4.389   1.153  0.3167  0.0314  0.1135
  625MPD2    C4 9257   2.150   4.435   1.285  0.9209 -0.2571  0.4779
  625MPD2    C5 9258   2.041   4.488   1.352  0.1621  0.4681 -0.4518
  625MPD2     H 9259   2.012   4.357   0.987 -0.2720 -1.0114  1.0243
  625MPD2    H1 9260   2.242   4.437   1.343 -0.0580 -1.3456  2.0795
  625MPD2    H2 9261   1.830   4.548   1.328 -1.4682 -2.4963 -1.1025
  625MPD2    H3 9262   2.049   4.529   1.452  1.6415 -2.4836  0.6532
  625MPD2     N 9263   2.252   4.333   1.085  0.2492 -0.2323  0.2183
  625MPD2    H5 9264   2.241   4.293   0.992 -1.8501 -0.0431  0.3861
  625MPD2    N1 9265   1.786   4.462   1.088 -0.7164 -0.1180 -0.1490
  625MPD2    H7 9266   1.713   4.510   1.139  0.8019  1.6081  0.3911
  626TMC3    C1 9267   1.602   4.411   0.951  0.4745  0.3467  0.2541
  626TMC3    C2 9268   1.539   4.377   0.830  0.2093 -0.0075 -0.2678
  626TMC3    C3 9269   1.406   4.392   0.818 -0.3264 -0.3615 -0.2267
  626TMC3    C4 9270   1.528   4.450   1.060  0.2474 -0.4045  0.1857
  626TMC3    C5 9271   1.385   4.459   1.042 -0.6688  0.2753  0.1107
  626TMC3    C6 9272   1.320   4.432   0.920  0.5406  0.4974 -0.4688
  626TMC3     C 9273   1.750   4.394   0.971 -1.1644  0.6143  0.4106
  626TMC3     O 9274   1.814   4.314   0.901  0.0916 -0.0623 -0.0929
  626TMC3     H 9275   1.599   4.343   0.746  1.4166  1.0749  0.1702
  626TMC3    H1 9276   1.569   4.464   1.159  0.7295 -4.2320  0.5324
  626TMC3    H2 9277   1.212   4.437   0.913  0.3241 -2.0114  1.0776
  626TMC3    C7 9278   1.301   4.465   1.162  0.1880 -0.2341  0.6519
  626TMC3    C8 9279   1.353   4.383   0.684 -0.1029 -0.5874  0.3303
  626TMC3    O1 9280   1.352   4.429   1.269 -0.5631  0.0885 -0.6545
  626TMC3    O2 9281   1.426   4.408   0.593  1.0278 -0.2440 -0.4201
  627MPD2     C 9282   4.543   0.065  14.629  0.3608  0.1540 -0.6387
  627MPD2    C1 9283   4.679   0.042  14.623 -0.4631 -0.1740 -0.3451
  627MPD2    C2 9284   4.717   4.653  14.544 -0.1732 -0.4452 -0.4884
  627MPD2    C3 9285   4.631   4.581  14.460  0.3397 -0.1306  0.9273
  627MPD2    C4 9286   4.498   4.613  14.465  0.9778 -0.5076  0.3514
  627MPD2    C5 9287   4.458   4.713  14.550  0.0131  0.2088 -0.0182
  627MPD2     H 9288   0.101   4.629  14.540 -0.1800 -0.6846  0.6681
  627MPD2    H1 9289   4.426   4.556  14.408  0.1311 -0.9472  1.8630
  627MPD2    H2 9290   4.508   0.153  14.681  1.1903 -1.9747  3.5103
  627MPD2    H3 9291   4.353   0.020  14.546  0.4868  1.9276 -0.0013
  627MPD2     N 9292   4.693   4.477  14.381  0.1025  0.7091 -0.2185
  627MPD2    H5 9293   0.072   4.472  14.387  0.2395  1.4917 -2.1777
  627MPD2    N1 9294   0.056   0.109  14.697  0.0655 -0.7281  0.9460
  627MPD2    H7 9295   0.151   0.082  14.674  0.5357  0.6131  1.3281
  628TMC3    C1 9296   0.165   0.248  14.851  1.0568  0.0657 -0.4058
  628TMC3    C2 9297   0.256   0.145  14.869  0.2349 -0.4169 -0.2027
  628TMC3    C3 9298   0.387   0.193  14.901  0.4299 -0.7859  0.0106
  628TMC3    C4 9299   0.202   0.387  14.844 -0.0827  0.3248  0.4025
  628TMC3    C5 9300   0.334   0.414  14.862  0.3094  0.1352 -0.4533
  628TMC3    C6 9301   0.427   0.322  14.895 -0.5213  0.0070 -0.0700
  628TMC3     C 9302   0.039   0.213  14.782 -0.6390  0.1185  0.2063
  628TMC3     O 9303   4.667   0.286  14.801 -0.3149 -0.7449 -0.2164
  628TMC3     H 9304   0.234   0.043  14.897 -1.9196  0.2369  0.4531
  628TMC3    H1 9305   0.126   0.462  14.823  1.1403  1.9619  1.9041
  628TMC3    H2 9306   0.503   0.351  14.966 -1.0377 -1.8254  1.2493
  628TMC3    C7 9307   0.391   0.543  14.825  0.5441  0.1172 -0.1195
  628TMC3    C8 9308   0.499   0.116  14.852  0.1891  0.2993 -0.2130
  628TMC3    O1 9309   0.504   0.573  14.867  0.4224 -0.0398  0.0933
  628TMC3    O2 9310   0.580   0.188  14.794  0.0124 -0.1694 -0.1136
  629MPD2     C 9311   2.645   3.410  16.315  0.1712 -0.3038  0.5111
  629MPD2    C1 9312   2.657   3.360  16.445  0.3893 -0.0392  0.3016
  629MPD2    C2 9313   2.550   3.294  16.496  0.4688 -0.4674 -0.1831
  629MPD2    C3 9314   2.428   3.288  16.429 -0.2493 -0.2841 -0.3372
  629MPD2    C4 9315   2.411   3.351  16.312  0.4239 -0.1717  0.3174
  629MPD2    C5 9316   2.518   3.417  16.257  0.0507  0.0196  0.2609
  629MPD2     H 9317   2.542   3.258  16.598  2.1966  1.3298  0.6193
  629MPD2    H1 9318   2.321   3.353  16.251 -0.3892  0.1562  1.5417
  629MPD2    H2 9319   2.720   3.471  16.267  1.0537 -2.4044 -0.7591
  629MPD2    H3 9320   2.509   3.476  16.167 -3.1021 -0.4405  0.2652
  629MPD2     N 9321   2.320   3.217  16.487  0.3096 -0.6408  0.5780
  629MPD2    H5 9322   2.347   3.165  16.570 -0.4584 -0.1869  1.1208
  629MPD2    N1 9323   2.778   3.358  16.511 -0.3126  0.1114  0.1572
  629MPD2    H7 9324   2.854   3.403  16.462  0.2364 -2.4393 -1.2953
  630TMC3    C1 9325   2.943   3.303  16.675  0.3121  0.1004 -0.3755
  630TMC3    C2 9326   3.033   3.386  16.623 -0.7136 -0.1186 -0.1286
  630TMC3    C3 9327   3.158   3.385  16.672 -0.1591 -0.2580  0.2400
  630TMC3    C4 9328   2.969   3.234  16.791  0.4690  0.3358  0.8859
  630TMC3    C5 9329   3.095   3.232  16.847  0.0342  0.0942  0.0190
  630TMC3    C6 9330   3.198   3.310  16.788  0.2678  0.2095 -0.4717
  630TMC3     C 9331   2.808   3.282  16.628  0.2245 -0.9841  0.5866
  630TMC3     O 9332   2.745   3.191  16.675 -0.8085 -0.3038 -0.7152
  630TMC3     H 9333   3.019   3.442  16.531  1.1100  1.8508  0.7870
  630TMC3    H1 9334   2.892   3.167  16.828  3.7826 -4.5929 -1.2185
  630TMC3    H2 9335   3.293   3.309  16.841 -0.2630 -0.2547  0.4852
  630TMC3    C7 9336   3.141   3.136  16.950  0.0896 -0.1049 -0.3666
  630TMC3    C8 9337   3.273   3.422  16.599 -0.5990  0.0278 -0.0015
  630TMC3    O1 9338   3.256   3.091  16.937 -0.5178  0.2802 -0.0924
  630TMC3    O2 9339   3.365   3.466  16.663  0.5367  0.2454 -0.7139
  631MPD2     C 9340   1.600   2.909  15.860  0.0101  0.9626  0.2855
  631MPD2    C1 9341   1.664   2.943  15.745 -0.3468 -0.3573 -0.0596
  631MPD2    C2 9342   1.758   2.859  15.693 -0.2563  0.3497  0.2441
  631MPD2    C3 9343   1.787   2.739  15.754 -0.3147 -0.0519 -0.2060
  631MPD2    C4 9344   1.720   2.708  15.868 -0.0448 -0.0471  0.1584
  631MPD2    C5 9345   1.631   2.795  15.927 -0.3808 -0.3510  0.3665
  631MPD2     H 9346   1.817   2.894  15.610  0.5079 -0.7390  0.3422
  631MPD2    H1 9347   1.742   2.617  15.921  0.5621 -0.6928 -1.1900
  631MPD2    H2 9348   1.537   2.980  15.913 -1.6255 -2.0257  2.3127
  631MPD2    H3 9349   1.579   2.774  16.019  0.0586 -0.8309  0.5061
  631MPD2     N 9350   1.902   2.669  15.714  0.6005  0.6119  0.2374
  631MPD2    H5 9351   1.965   2.725  15.657  1.7504 -1.6363 -0.7319
  631MPD2    N1 9352   1.625   3.067  15.684 -0.1515  0.1313 -0.5543
  631MPD2    H7 9353   1.572   3.131  15.742  1.7574  1.1066  0.1210
  632TMC3    C1 9354   1.603   3.244  15.523  0.4088 -0.3655 -0.5561
  632TMC3    C2 9355   1.475   3.261  15.551 -0.1183  0.2392 -0.1659
  632TMC3    C3 9356   1.417   3.364  15.486  0.2735 -0.2055 -0.3712
  632TMC3    C4 9357   1.671   3.306  15.424  0.0197  0.2573 -0.4441
  632TMC3    C5 9358   1.609   3.414  15.365  0.2912  0.0927  0.4128
  632TMC3    C6 9359   1.475   3.437  15.390  0.2810 -0.5904 -0.5332
  632TMC3     C 9360   1.659   3.112  15.558  0.0336  0.0092  0.3850
  632TMC3     O 9361   1.717   3.063  15.460 -1.2518  0.0971  0.1727
  632TMC3     H 9362   1.429   3.207  15.633  1.4523 -0.1983  0.4232
  632TMC3    H1 9363   1.767   3.264  15.394 -0.6535 -0.5558 -1.4734
  632TMC3    H2 9364   1.443   3.536  15.358 -1.2100 -1.2578 -1.0863
  632TMC3    C7 9365   1.674   3.484  15.257 -0.3217 -0.5917  0.3790
  632TMC3    C8 9366   1.297   3.410  15.550  0.6836 -0.4845  0.8839
  632TMC3    O1 9367   1.598   3.547  15.184  0.4701  0.1253  0.5955
  632TMC3    O2 9368   1.276   3.367  15.660  0.3642  0.5883 -1.0569
  633MPD2     C 9369   1.365   0.774  17.420 -0.0487  0.0394  0.5791
  633MPD2    C1 9370   1.345   0.751  17.289  0.8197  0.0793  0.3678
  633MPD2    C2 9371   1.265   0.644  17.254 -0.2146  0.2883 -0.2850
  633MPD2    C3 9372   1.217   0.551  17.349 -0.9836 -0.1368 -0.1366
  633MPD2    C4 9373   1.251   0.570  17.479  0.4044  0.2143 -0.2111
  633MPD2    C5 9374   1.322   0.682  17.516  0.4801  0.3962 -0.5651
  633MPD2     H 9375   1.255   0.617  17.150 -2.7173  2.0456 -0.4958
  633MPD2    H1 9376   1.234   0.492  17.553  2.1172 -1.0779 -1.1612
  633MPD2    H2 9377   1.430   0.854  17.455 -0.7030  0.5429  0.6474
  633MPD2    H3 9378   1.346   0.690  17.622 -1.9826  1.1692 -0.0800
  633MPD2     N 9379   1.148   0.430  17.320 -0.0862 -0.0507  0.2966
  633MPD2    H5 9380   1.133   0.366  17.397  1.5297 -1.0569 -0.2400
  633MPD2    N1 9381   1.412   0.819  17.185 -0.3222 -0.2637 -0.0347
  633MPD2    H7 9382   1.400   0.792  17.088 -1.7386  0.0343  0.0561
  634TMC3    C1 9383   1.507   1.006  17.068 -0.5516  0.8467  0.3039
  634TMC3    C2 9384   1.531   0.919  16.963 -0.2032  0.1437 -0.4115
  634TMC3    C3 9385   1.553   0.975  16.842 -0.4280  0.5410  0.4356
  634TMC3    C4 9386   1.493   1.142  17.059 -0.7305  0.0238  0.0497
  634TMC3    C5 9387   1.501   1.190  16.932 -0.0276  0.0971  0.0409
  634TMC3    C6 9388   1.543   1.114  16.826 -0.0229 -0.1428 -0.6259
  634TMC3     C 9389   1.472   0.944  17.199  0.0533 -0.0973 -0.9075
  634TMC3     O 9390   1.493   1.015  17.300 -0.0544 -0.6798 -0.6474
  634TMC3     H 9391   1.549   0.816  16.989 -2.5168 -0.0541  0.4183
  634TMC3    H1 9392   1.463   1.208  17.139  0.7483  0.6142  0.1050
  634TMC3    H2 9393   1.566   1.159  16.731 -0.5084 -0.3792 -0.8569
  634TMC3    C7 9394   1.459   1.329  16.893 -0.2315  0.4274 -0.7633
  634TMC3    C8 9395   1.553   0.880  16.735 -0.0876  0.8246 -0.0803
  634TMC3    O1 9396   1.477   1.356  16.776  0.3021 -0.3222  0.0642
  634TMC3    O2 9397   1.537   0.762  16.762 -0.2981  0.3540  0.2747
  635TMC3    C1 9398   1.560   1.106   0.121 -0.0786  0.8797  0.4258
  635TMC3    C2 9399   1.665   1.059   0.042  0.0297 -0.6601 -0.6607
  635TMC3    C3 9400   1.679   0.922   0.032 -0.1238 -0.1309 -0.3533
  635TMC3    C4 9401   1.468   1.023   0.188  0.3779 -0.5652  0.5101
  635TMC3    C5 9402   1.493   0.887   0.176  0.5717  0.1324 -0.1602
  635TMC3    C6 9403   1.596   0.834   0.100 -0.3733 -0.0955 -0.3602
  635TMC3     C 9404   1.550   1.247   0.134 -0.4211  1.0022  0.3170
  635TMC3     O 9405   1.502   1.284   0.241  0.1759 -0.2424 -0.1551
  635TMC3     H 9406   1.738   1.124  17.685 -2.8362  2.1857 -1.1828
  635TMC3    H1 9407   1.386   1.069   0.242  1.2087  1.8296 -0.2595
  635TMC3    H2 9408   1.603   0.726   0.105  1.0964 -0.0029 -0.3398
  635TMC3    C7 9409   1.394   0.801   0.236 -0.2647 -0.1974 -0.6751
  635TMC3    C8 9410   1.815   0.865   0.017 -0.1018 -0.2426 -0.9289
  635TMC3    O1 9411   1.391   0.691   0.183 -0.0171  0.2359 -0.5228
  635TMC3    O2 9412   1.831   0.761   0.079  0.2962 -0.1994 -0.1918
  636MPD2     C 9413   2.583   1.463  15.731  0.2744  0.4174 -0.5957
  636MPD2    C1 9414   2.583   1.516  15.852 -0.1448  0.2114 -0.2601
  636MPD2    C2 9415   2.595   1.436  15.966  0.3204 -0.1604 -0.5087
  636MPD2    C3 9416   2.600   1.296  15.950  0.2065  0.1605 -0.3979
  636MPD2    C4 9417   2.588   1.243  15.820 -0.0179 -0.9197  0.3632
  636MPD2    C5 9418   2.578   1.331  15.718 -0.0467 -0.2183  0.2586
  636MPD2     H 9419   2.605   1.482  16.064 -1.8797  1.0662 -0.8608
  636MPD2    H1 9420   2.573   1.137  15.801  1.5899 -1.1321  0.2421
  636MPD2    H2 9421   2.576   1.523  15.641 -0.1087  1.3035  0.0290
  636MPD2    H3 9422   2.560   1.284  15.622  0.9244 -1.5385  0.7240
  636MPD2     N 9423   2.589   1.220  16.069 -0.0282 -0.1158  0.0792
  636MPD2    H5 9424   2.577   1.263  16.160  2.8347 -0.0075  0.3973
  636MPD2    N1 9425   2.567   1.656  15.871 -0.0061 -0.3614 -0.9660
  636MPD2    H7 9426   2.566   1.690  15.967 -4.4535 -2.3035 -0.3247
  637TMC3    C1 9427   2.610   1.020  16.200 -0.0965 -0.1951  0.0974
  637TMC3    C2 9428   2.575   1.086  16.306  0.2060 -0.0105 -0.0109
  637TMC3    C3 9429   2.595   1.022  16.425 -0.2805  0.3976 -0.1570
  637TMC3    C4 9430   2.663   0.890  16.197  0.0280  0.9099 -0.2149
  637TMC3    C5 9431   2.701   0.844  16.319 -0.4559 -0.2938 -0.7689
  637TMC3    C6 9432   2.651   0.900  16.434  1.0122 -0.4994 -0.0671
  637TMC3     C 9433   2.607   1.083  16.069  1.0226  0.2866  0.4710
  637TMC3     O 9434   2.649   1.016  15.976 -0.2119  0.0148 -0.4356
  637TMC3     H 9435   2.538   1.187  16.306 -0.5918 -0.2910  2.8992
  637TMC3    H1 9436   2.686   0.836  16.106  3.2181  1.9018  0.0140
  637TMC3    H2 9437   2.677   0.849  16.527  1.5463 -0.7662 -0.3621
  637TMC3    C7 9438   2.839   0.799  16.337 -0.5726 -0.7398  0.0215
  637TMC3    C8 9439   2.656   1.104  16.531  0.6436 -0.6010 -0.5093
  637TMC3    O1 9440   2.881   0.784  16.451  0.0734 -0.4829  0.3585
  637TMC3    O2 9441   2.693   1.217  16.502  0.1231  0.1268 -0.0986
  638MPD2     C 9442   2.353   0.230  15.175 -0.5003  0.5845  0.1305
  638MPD2    C1 9443   2.400   0.121  15.111 -0.5318 -0.7786 -0.3262
  638MPD2    C2 9444   2.394   4.719  15.171  0.1950 -0.1671 -0.0324
  638MPD2    C3 9445   2.328   4.706  15.289 -0.0543  0.0065 -0.9581
  638MPD2    C4 9446   2.258   0.093  15.341 -0.2552 -0.6663  1.0208
  638MPD2    C5 9447   2.276   0.218  15.289 -0.0667 -0.5248 -0.1703
  638MPD2     H 9448   2.436   4.633  15.120 -0.4738 -0.0747 -0.7401
  638MPD2    H1 9449   2.178   0.074  15.411 -0.2875 -1.5571  0.7384
  638MPD2    H2 9450   2.380   0.333  15.152  0.9229  0.7574  2.6079
  638MPD2    H3 9451   2.221   0.298  15.338  1.0149  1.9067 -2.9739
  638MPD2     N 9452   2.308   4.575  15.328  0.3767  0.6203 -0.4473
  638MPD2    H5 9453   2.343   4.508  15.260  0.3039 -1.7317  1.8428
  638MPD2    N1 9454   2.469   0.139  14.985 -0.0547  0.6968  0.2876
  638MPD2    H7 9455   2.490   0.235  14.959  0.2917  0.7326  0.7144
  639TMC3    C1 9456   2.260   4.390  15.441  0.1902 -0.5563 -0.8022
  639TMC3    C2 9457   2.170   4.314  15.364  0.0639 -0.5489 -0.4339
  639TMC3    C3 9458   2.204   4.186  15.327  0.2054 -0.2421  0.7734
  639TMC3    C4 9459   2.381   4.333  15.478  0.8748  0.4705  0.1280
  639TMC3    C5 9460   2.406   4.200  15.440 -0.4912  0.2964 -0.4454
  639TMC3    C6 9461   2.318   4.125  15.370  0.0516 -0.5781 -0.3227
  639TMC3     C 9462   2.255   4.534  15.448 -0.7033  0.0351  0.4897
  639TMC3     O 9463   2.269   4.592  15.556  0.8357  0.0742  0.1977
  639TMC3     H 9464   2.091   4.365  15.310  0.4759  1.0689  0.4640
  639TMC3    H1 9465   2.451   4.404  15.520  1.6615 -0.9407  1.2171
  639TMC3    H2 9466   2.345   4.026  15.336 -1.6512 -1.2596  0.2714
  639TMC3    C7 9467   2.524   4.130  15.484 -0.3613 -0.1496 -0.6512
  639TMC3    C8 9468   2.155   4.139  15.195  0.6790  0.0500  0.0309
  639TMC3    O1 9469   2.537   4.004  15.474  0.0790  0.5830 -0.2507
  639TMC3    O2 9470   2.235   4.139  15.101  0.1138 -0.3490 -0.3195
  640MPD2     C 9471   3.270   3.337   9.909  0.1102  0.0546 -0.2831
  640MPD2    C1 9472   3.159   3.311   9.827 -0.2168  0.0394 -0.3254
  640MPD2    C2 9473   3.065   3.412   9.814  0.1740 -0.2877 -0.3300
  640MPD2    C3 9474   3.087   3.532   9.881 -0.1187  0.7456  0.6068
  640MPD2    C4 9475   3.195   3.559   9.960 -0.0758 -0.8685  0.1550
  640MPD2    C5 9476   3.283   3.453   9.975  1.0726 -0.0806 -0.1552
  640MPD2     H 9477   2.974   3.406   9.754  1.3048 -0.9048 -2.0084
  640MPD2    H1 9478   3.216   3.648  10.018 -0.5020  0.5561 -1.8862
  640MPD2    H2 9479   3.347   3.261   9.922 -0.8537 -1.0682 -1.1984
  640MPD2    H3 9480   3.378   3.470  10.024 -0.9578 -0.0759  3.8409
  640MPD2     N 9481   2.977   3.622   9.893  0.0199  0.0037  0.3912
  640MPD2    H5 9482   2.993   3.707   9.946  0.1661  0.9247 -1.1280
  640MPD2    N1 9483   3.140   3.177   9.778 -0.3859  0.0565  0.0456
  640MPD2    H7 9484   3.208   3.108   9.809 -1.3417 -0.6684  0.4949
  641TMC3    C1 9485   3.041   3.001   9.639  0.4351  1.2040 -0.1744
  641TMC3    C2 9486   3.157   2.914   9.657 -0.0322 -0.4085 -0.3151
  641TMC3    C3 9487   3.136   2.784   9.628  0.3192  0.7337 -0.2824
  641TMC3    C4 9488   2.935   2.959   9.570 -0.1651 -0.5305 -0.4582
  641TMC3    C5 9489   2.924   2.823   9.539  0.1008 -1.0341 -0.9296
  641TMC3    C6 9490   3.025   2.735   9.563  0.5503  0.8458 -0.0140
  641TMC3     C 9491   3.040   3.139   9.686 -0.4107 -0.3223  0.3789
  641TMC3     O 9492   2.944   3.205   9.661  0.3129 -0.2116  0.3770
  641TMC3     H 9493   3.253   2.943   9.698 -1.2065  1.2252  1.3008
  641TMC3    H1 9494   2.854   3.027   9.548 -0.4072 -0.1155  1.7512
  641TMC3    H2 9495   3.008   2.633   9.532  1.1920 -0.1521  2.9177
  641TMC3    C7 9496   2.795   2.765   9.494 -0.1521  0.0561 -0.0826
  641TMC3    C8 9497   3.223   2.684   9.686  0.0531 -0.3525 -0.7383
  641TMC3    O1 9498   2.800   2.641   9.488  0.0926  0.5497  0.6352
  641TMC3    O2 9499   3.233   2.580   9.628  0.0725  0.2782 -0.1815
  642TMC3    C1 9500   3.830   4.573  12.497 -0.5583  0.1112  0.6029
  642TMC3    C2 9501   3.890   4.586  12.621  0.0454 -0.1717 -0.5480
  642TMC3    C3 9502   3.871   4.488  12.711 -0.4649 -0.6503 -0.3311
  642TMC3    C4 9503   3.765   4.463  12.466 -0.5289 -0.0921  0.5930
  642TMC3    C5 9504   3.751   4.363  12.553  0.3474  0.6785 -0.5563
  642TMC3    C6 9505   3.791   4.380  12.683  0.3866  0.0559  0.1999
  642TMC3     C 9506   3.815   4.684  12.411 -0.1393 -0.3890  0.3427
  642TMC3     O 9507   3.915   0.034  12.396  0.3507  0.1800  0.0605
  642TMC3     H 9508   3.962   4.666  12.636  1.4623 -1.3136 -1.3142
  642TMC3    H1 9509   3.728   4.445  12.365 -1.3667 -1.8661  1.2219
  642TMC3    H2 9510   3.788   4.300  12.756  1.1241  0.0229  0.2012
  642TMC3    C7 9511   3.685   4.238  12.507  0.8692  0.0246 -0.0491
  642TMC3    C8 9512   3.899   4.524  12.845 -0.6938  0.4742 -0.3563
  642TMC3    O1 9513   3.709   4.201  12.390  0.1238 -0.1668  0.1109
  642TMC3    O2 9514   3.954   4.632  12.861 -0.3617  0.8978 -0.0386
  643TMC3    C1 9515   3.302   3.906   0.286  0.3666 -0.3733 -0.1203
  643TMC3    C2 9516   3.189   3.908   0.216  0.2078  0.8878 -0.1828
  643TMC3    C3 9517   3.216   3.943   0.086  0.1024 -0.1762  0.4345
  643TMC3    C4 9518   3.434   3.887   0.234 -0.3148 -0.0368 -0.0859
  643TMC3    C5 9519   3.445   3.903   0.098 -0.0448  0.2416 -0.0044
  643TMC3    C6 9520   3.340   3.954   0.028  0.1166  0.1730 -0.0967
  643TMC3     C 9521   3.293   3.907   0.428  0.2098  0.0670  0.3012
  643TMC3     O 9522   3.188   3.877   0.482  0.4895 -0.3548 -0.3781
  643TMC3     H 9523   3.092   3.910   0.263  0.6882 -1.2791  0.8947
  643TMC3    H1 9524   3.526   3.880   0.291 -1.6548  0.4994  2.1216
  643TMC3    H2 9525   3.360   3.988  17.618 -1.8815  1.0220 -0.1990
  643TMC3    C7 9526   3.572   3.891   0.031  0.1102 -0.2976 -0.2941
  643TMC3    C8 9527   3.120   4.022   0.018 -0.3988  0.7977  0.1817
  643TMC3    O1 9528   3.575   3.931  17.608 -1.3764 -0.2878  0.5505
  643TMC3    O2 9529   3.004   3.982   0.012 -0.6476 -0.9493  0.1035
  644MPD2     C 9530   3.260   3.996   9.445 -0.0052 -0.5250  0.2194
  644MPD2    C1 9531   3.166   3.904   9.406 -0.1417 -0.1070 -0.3696
  644MPD2    C2 9532   3.036   3.953   9.359  0.3169  0.5387  0.1603
  644MPD2    C3 9533   3.008   4.083   9.350 -0.0885  0.4674 -0.0439
  644MPD2    C4 9534   3.100   4.171   9.403 -0.6019  0.0892 -0.9164
  644MPD2    C5 9535   3.222   4.126   9.453  0.4861 -0.2347  0.1883
  644MPD2     H 9536   2.950   3.890   9.338  1.3441 -2.2244  4.4343
  644MPD2    H1 9537   3.084   4.278   9.407  1.6944  0.3938  0.0493
  644MPD2    H2 9538   3.352   3.966   9.494 -0.3490 -2.4994 -0.3561
  644MPD2    H3 9539   3.300   4.199   9.473  0.7871 -0.7314  0.8156
  644MPD2     N 9540   2.879   4.109   9.296 -0.2188 -0.2200  1.0544
  644MPD2    H5 9541   2.823   4.027   9.275  1.9481 -1.4692  0.2145
  644MPD2    N1 9542   3.208   3.768   9.399 -0.2481 -0.2946 -0.2613
  644MPD2    H7 9543   3.303   3.747   9.426 -0.6742 -2.8081 -0.7214
  645TMC3    C1 9544   2.688   4.241   9.257 -0.3812 -0.6534  0.3519
  645TMC3    C2 9545   2.647   4.360   9.204  0.1534  0.0363  0.8116
  645TMC3    C3 9546   2.521   4.386   9.210  0.4226  0.2403  0.7139
  645TMC3    C4 9547   2.612   4.150   9.320  0.0298 -0.2571 -0.2210
  645TMC3    C5 9548   2.483   4.185   9.335  0.1897 -0.7817  0.4247
  645TMC3    C6 9549   2.438   4.304   9.284  0.1506 -0.1418  0.3305
  645TMC3     C 9550   2.831   4.240   9.269 -0.1741 -0.1262  0.0070
  645TMC3     O 9551   2.885   4.351   9.274  0.1285  1.2024  0.1496
  645TMC3     H 9552   2.715   4.414   9.139  0.4464  2.1166  2.8473
  645TMC3    H1 9553   2.655   4.053   9.346  0.0659 -0.3374 -0.5783
  645TMC3    H2 9554   2.332   4.326   9.295 -0.0637 -0.3592 -1.3492
  645TMC3    C7 9555   2.379   4.085   9.357 -0.2207  0.3859  0.4055
  645TMC3    C8 9556   2.469   4.506   9.146 -0.6589 -0.0521 -0.1491
  645TMC3    O1 9557   2.281   4.127   9.412 -0.0965  0.0246  0.3387
  645TMC3    O2 9558   2.355   4.495   9.102  0.1748 -0.5829 -0.4303
  646MPD2     C 9559   2.652   3.529  14.562 -0.3611  0.5753 -0.1922
  646MPD2    C1 9560   2.555   3.522  14.660  0.6790  0.0354  0.3220
  646MPD2    C2 9561   2.438   3.598  14.638  0.3056  0.9241 -0.6659
  646MPD2    C3 9562   2.421   3.669  14.514 -0.1570 -0.4461  0.4269
  646MPD2    C4 9563   2.522   3.666  14.428 -0.4460  1.1556 -0.0816
  646MPD2    C5 9564   2.639   3.600  14.452 -0.2448 -0.2106 -0.5063
  646MPD2     H 9565   2.354   3.597  14.706  0.7148  0.9834 -0.1553
  646MPD2    H1 9566   2.516   3.728  14.339 -1.2155 -2.1656 -2.3550
  646MPD2    H2 9567   2.747   3.477  14.572  0.6854  2.0398 -2.7335
  646MPD2    H3 9568   2.719   3.599  14.379  0.8672  2.7176  0.6675
  646MPD2     N 9569   2.301   3.750  14.490  0.2922  0.6914  0.4893
  646MPD2    H5 9570   2.226   3.731  14.556 -0.8474  0.7740 -0.7857
  646MPD2    N1 9571   2.583   3.443  14.772  1.1606 -0.0493 -0.6525
  646MPD2    H7 9572   2.668   3.388  14.761  1.4939 -0.4739  4.0645
  647TMC3    C1 9573   2.619   3.388  14.996 -0.4606  0.3946  0.1094
  647TMC3    C2 9574   2.566   3.352  15.120  0.0448 -0.0725  0.1659
  647TMC3    C3 9575   2.629   3.254  15.190 -0.2171 -1.1235  0.9814
  647TMC3    C4 9576   2.737   3.336  14.948  0.4499  0.3073 -0.1252
  647TMC3    C5 9577   2.798   3.247  15.030  0.0009  0.7578 -0.0692
  647TMC3    C6 9578   2.747   3.200  15.148 -0.4364  0.0150 -1.4878
  647TMC3     C 9579   2.523   3.439  14.894 -0.0262  0.4790  0.0809
  647TMC3     O 9580   2.413   3.478  14.928  0.1682  0.0567 -0.4872
  647TMC3     H 9581   2.467   3.387  15.145 -0.9688 -3.1985  0.4940
  647TMC3    H1 9582   2.797   3.393  14.877  1.9196 -1.5869 -0.3964
  647TMC3    H2 9583   2.807   3.134  15.209 -2.6289 -1.9915 -1.4808
  647TMC3    C7 9584   2.942   3.224  15.016 -0.1193  0.1211 -0.1429
  647TMC3    C8 9585   2.600   3.242  15.335 -0.9005  1.0283  0.2398
  647TMC3    O1 9586   3.004   3.194  15.117  0.3894 -0.0287 -0.7631
  647TMC3    O2 9587   2.651   3.144  15.384 -0.2094 -0.1430  0.1607
  648TMC3    C1 9588   1.894   1.108  16.174 -0.3189  0.0343 -0.6290
  648TMC3    C2 9589   1.918   0.983  16.132 -0.0185  0.0832 -0.8407
  648TMC3    C3 9590   1.865   0.952  16.007 -0.1687 -0.5303 -0.3094
  648TMC3    C4 9591   1.832   1.197  16.098 -0.2761  0.1626  0.3910
  648TMC3    C5 9592   1.781   1.164  15.973 -0.6868  0.5103  0.3159
  648TMC3    C6 9593   1.805   1.043  15.922 -0.8357  0.6109  0.0740
  648TMC3     C 9594   1.917   1.138  16.312 -0.4041  0.1122 -0.3341
  648TMC3     O 9595   1.946   1.253  16.343 -0.1935 -0.2326  0.0028
  648TMC3     H 9596   1.984   0.908  16.173  1.6515  2.1716  0.3050
  648TMC3    H1 9597   1.827   1.301  16.128 -1.3870  0.8247 -2.0203
  648TMC3    H2 9598   1.779   1.019  15.820  1.6606 -0.8618 -0.2206
  648TMC3    C7 9599   1.687   1.251  15.906 -0.1741  0.1563 -0.5114
  648TMC3    C8 9600   1.920   0.834  15.941 -0.1317  0.0584  0.2754
  648TMC3    O1 9601   1.646   1.220  15.794  0.1871 -0.1238  0.4369
  648TMC3    O2 9602   1.942   0.835  15.817  0.8387  0.1115  0.0357
  649TMC3    C1 9603   1.772   2.090  13.100  0.3825  0.1901  0.0072
  649TMC3    C2 9604   1.849   2.009  13.015 -0.0070  0.3809  0.4063
  649TMC3    C3 9605   1.819   1.881  13.027  0.3578 -0.3897 -0.6882
  649TMC3    C4 9606   1.694   2.043  13.201  0.1683  0.5020 -0.1140
  649TMC3    C5 9607   1.671   1.911  13.207  0.5979 -0.0463 -0.0486
  649TMC3    C6 9608   1.729   1.826  13.120 -0.3664  0.5424 -0.0661
  649TMC3     C 9609   1.735   2.219  13.044 -0.6987 -0.2639 -0.4529
  649TMC3     O 9610   1.807   2.259  12.955 -0.2537 -0.5454  0.5596
  649TMC3     H 9611   1.909   2.044  12.932 -0.7453  1.5920  0.3850
  649TMC3    H1 9612   1.644   2.113  13.268 -1.7649 -0.3920 -0.6095
  649TMC3    H2 9613   1.680   1.731  13.098 -2.2090  1.8754 -1.7077
  649TMC3    C7 9614   1.567   1.859  13.309 -0.5746  0.0052  0.3924
  649TMC3    C8 9615   1.881   1.790  12.926 -0.0596  0.4623  1.0262
  649TMC3    O1 9616   1.489   1.946  13.350 -0.1800  0.1571  0.1307
  649TMC3    O2 9617   1.945   1.839  12.830 -0.1932  0.1019 -0.4485
  650TMC3    C1 9618   3.103   3.854  12.711 -0.6471  0.1776  0.1747
  650TMC3    C2 9619   3.040   3.971  12.687  0.6157  0.6749 -0.2402
  650TMC3    C3 9620   3.002   3.998  12.561  1.4288 -0.0875 -0.3484
  650TMC3    C4 9621   3.107   3.753  12.618 -0.1884  0.5047  0.4058
  650TMC3    C5 9622   3.063   3.783  12.496  0.6704  0.7882 -0.6035
  650TMC3    C6 9623   3.009   3.902  12.464  0.2390  0.2451  0.4143
  650TMC3     C 9624   3.136   3.822  12.850  0.0200 -0.2018 -0.2253
  650TMC3     O 9625   3.103   3.905  12.930 -0.4570 -0.0827 -0.7118
  650TMC3     H 9626   3.026   4.048  12.762 -3.5089  0.6263 -0.9858
  650TMC3    H1 9627   3.149   3.656  12.638  2.4376  1.7103  0.6847
  650TMC3    H2 9628   2.982   3.926  12.362 -0.4839  2.0413  1.0337
  650TMC3    C7 9629   3.120   3.702  12.388  0.2359 -0.3678 -0.2576
  650TMC3    C8 9630   2.919   4.117  12.535 -0.3500  0.0830  0.5644
  650TMC3    O1 9631   3.194   3.611  12.423  0.0315 -0.6854 -0.2503
  650TMC3    O2 9632   2.920   4.206  12.619 -0.1147 -0.5717  0.0197
  651MPD2     C 9633   1.991   0.888  10.615 -0.1203  0.2948 -0.5540
  651MPD2    C1 9634   1.948   0.985  10.708 -0.2444  0.1796  0.3060
  651MPD2    C2 9635   2.045   1.047  10.789 -0.8725  0.0489  0.1129
  651MPD2    C3 9636   2.174   1.047  10.763  0.0219  0.2614 -0.4395
  651MPD2    C4 9637   2.219   0.957  10.665  0.1537 -0.0997  0.0998
  651MPD2    C5 9638   2.130   0.873  10.598 -0.0998 -0.1651 -0.8037
  651MPD2     H 9639   2.021   1.106  10.876 -0.7722  1.0164 -0.5221
  651MPD2    H1 9640   2.318   0.959  10.621  0.4076 -1.2124  0.6031
  651MPD2    H2 9641   1.929   0.825  10.552  2.1398 -0.6430 -1.8540
  651MPD2    H3 9642   2.165   0.814  10.514  0.4654  0.1521 -0.7908
  651MPD2     N 9643   2.256   1.118  10.849 -0.2067 -0.9221  0.3155
  651MPD2    H5 9644   2.210   1.157  10.931  0.2163  0.8943 -0.2980
  651MPD2    N1 9645   1.815   1.005  10.737 -0.4117 -0.4473  0.3167
  651MPD2    H7 9646   1.794   1.066  10.816 -1.9663  1.6112 -1.7065
  652TMC3    C1 9647   2.614   1.246  11.109 -0.0450 -0.2604 -0.3046
  652TMC3    C2 9648   2.573   1.184  10.995 -0.6106  0.4574 -0.7471
  652TMC3    C3 9649   2.446   1.208  10.954  0.4113  0.0648 -0.7843
  652TMC3    C4 9650   2.542   1.338  11.181 -0.1755 -0.3844  0.1315
  652TMC3    C5 9651   2.424   1.362  11.128 -0.6377 -0.3036  0.4012
  652TMC3    C6 9652   2.374   1.305  11.014 -0.0400 -0.8179 -0.0142
  652TMC3     C 9653   2.752   1.226  11.147  0.1859 -0.2000  0.6108
  652TMC3     O 9654   2.780   1.210  11.270 -0.2052 -0.0622 -0.4943
  652TMC3     H 9655   2.637   1.118  10.939  1.5001  1.1182  0.8703
  652TMC3    H1 9656   2.591   1.391  11.261 -0.1026 -0.4714  0.1438
  652TMC3    H2 9657   2.273   1.333  10.987  0.8280  1.0223 -1.4425
  652TMC3    C7 9658   2.375   1.497  11.154 -0.1590 -0.3539 -0.3322
  652TMC3    C8 9659   2.392   1.130  10.849  0.4507  0.4312  0.5967
  652TMC3    O1 9660   2.403   1.542  11.265 -0.1581  0.1737  0.3437
  652TMC3    O2 9661   2.479   1.081  10.776  0.3215 -0.0107 -0.2608
  653MPD2     C 9662   1.019   0.933   0.219 -0.1735 -0.9052 -0.5560
  653MPD2    C1 9663   1.068   1.007   0.109  0.1791 -0.3689 -0.6570
  653MPD2    C2 9664   1.053   0.942  17.676 -0.7002  0.1483  0.1069
  653MPD2    C3 9665   0.989   0.822  17.661  0.4335  0.6837 -0.1359
  653MPD2    C4 9666   0.945   0.755   0.088  0.0920  0.5654  0.0042
  653MPD2    C5 9667   0.962   0.809   0.207  0.1518  0.2324 -0.7443
  653MPD2     H 9668   1.081   0.992  17.584 -1.4671 -0.2009 -0.3183
  653MPD2    H1 9669   0.906   0.654   0.083  1.0664  0.1501  0.7014
  653MPD2    H2 9670   1.023   0.971   0.320 -1.8344  0.0949 -0.8793
  653MPD2    H3 9671   0.926   0.763   0.298 -0.6744  0.0151 -1.1855
  653MPD2     N 9672   0.959   0.774  17.534 -0.2275 -0.1237  0.8952
  653MPD2    H5 9673   0.966   0.842  17.459  1.9041 -0.1093  1.1038
  653MPD2    N1 9674   1.113   1.143   0.117 -0.5955 -0.2727 -0.1109
  653MPD2    H7 9675   1.135   1.196   0.033 -1.8666  0.2172 -0.1306
  654TMC3    C1 9676   0.851   0.639  17.373 -0.0420 -0.1113  0.4625
  654TMC3    C2 9677   0.829   0.752  17.297  0.9487  0.3701 -0.1946
  654TMC3    C3 9678   0.755   0.742  17.188  0.2437  0.6897 -0.9419
  654TMC3    C4 9679   0.813   0.518  17.339  0.0214  0.1505 -0.4734
  654TMC3    C5 9680   0.735   0.506  17.228  0.4352  0.4599 -0.5432
  654TMC3    C6 9681   0.696   0.612  17.154 -0.2986 -0.2456 -0.2078
  654TMC3     C 9682   0.899   0.656  17.507  0.3613  0.1267  0.1607
  654TMC3     O 9683   0.876   0.568  17.588 -0.0151  0.2708  0.2625
  654TMC3     H 9684   0.833   0.847  17.350  1.0417 -0.1134  0.6528
  654TMC3    H1 9685   0.832   0.426  17.395  0.5142  0.2597 -0.4701
  654TMC3    H2 9686   0.646   0.603  17.058 -0.6289 -1.9992  0.1283
  654TMC3    C7 9687   0.689   0.373  17.174 -0.1781  0.0680 -0.0956
  654TMC3    C8 9688   0.748   0.855  17.100  0.4846  0.4691  0.4488
  654TMC3    O1 9689   0.653   0.374  17.057  0.5343 -0.1775  0.5483
  654TMC3    O2 9690   0.833   0.941  17.112 -0.1390  0.5418  0.5465
  655MPD2     C 9691   2.275   0.987  15.953  0.0258  1.5358 -1.0019
  655MPD2    C1 9692   2.304   1.089  15.864 -0.5182  0.3814 -0.3870
  655MPD2    C2 9693   2.344   1.047  15.740 -0.1397 -0.7464  0.4333
  655MPD2    C3 9694   2.355   0.911  15.702  0.1421  0.1777 -0.2172
  655MPD2    C4 9695   2.317   0.812  15.792  0.7200 -0.4289 -1.0872
  655MPD2    C5 9696   2.283   0.857  15.921 -0.0936  0.6939  0.6074
  655MPD2     H 9697   2.359   1.132  15.675  1.0677  0.2507  2.0130
  655MPD2    H1 9698   2.327   0.706  15.774 -0.2766 -0.4052 -1.7357
  655MPD2    H2 9699   2.253   0.991  16.059 -2.7400 -0.9447 -1.4911
  655MPD2    H3 9700   2.269   0.776  15.992 -0.6453 -1.1088 -1.5342
  655MPD2     N 9701   2.409   0.870  15.574 -0.2883  0.5050  0.3508
  655MPD2    H5 9702   2.416   0.771  15.554 -1.2182  0.0068  2.4444
  655MPD2    N1 9703   2.289   1.229  15.901 -0.1656  0.2396 -0.3775
  655MPD2    H7 9704   2.325   1.294  15.832  0.0804  1.0872  0.5526
  656TMC3    C1 9705   2.243   1.433  16.034  0.4556 -0.1355 -0.0086
  656TMC3    C2 9706   2.199   1.484  16.154  0.3164 -0.1531  0.0596
  656TMC3    C3 9707   2.165   1.613  16.162 -0.5126 -0.1247 -0.3488
  656TMC3    C4 9708   2.243   1.506  15.919  0.1212 -0.8339 -0.2531
  656TMC3    C5 9709   2.208   1.636  15.932 -0.5258  0.5447  0.3922
  656TMC3    C6 9710   2.178   1.691  16.051  0.2565 -0.0732 -0.4952
  656TMC3     C 9711   2.251   1.285  16.020 -0.1555  0.3449  0.3226
  656TMC3     O 9712   2.229   1.216  16.120 -0.2546 -0.0112 -0.3645
  656TMC3     H 9713   2.191   1.424  16.243 -1.1384  0.3980  0.2962
  656TMC3    H1 9714   2.260   1.457  15.824 -1.4254  0.0592 -0.9892
  656TMC3    H2 9715   2.147   1.795  16.044  0.4680 -0.0084 -0.4499
  656TMC3    C7 9716   2.173   1.686  15.805  0.4088 -0.6696  0.4781
  656TMC3    C8 9717   2.093   1.656  16.281 -0.3217  0.2675  0.7757
  656TMC3    O1 9718   2.241   1.636  15.715 -0.5068 -0.3304 -0.3022
  656TMC3    O2 9719   2.130   1.754  16.344  0.2136 -0.6946 -0.6844
  657TMC3    C1 9720   1.275   0.466  15.029  0.6563  0.3378 -0.5894
  657TMC3    C2 9721   1.248   0.460  15.163  0.0109 -0.2960  0.2740
  657TMC3    C3 9722   1.198   0.571  15.228  0.2586 -0.9543  1.1482
  657TMC3    C4 9723   1.231   0.565  14.948 -0.0573 -0.0211  0.0431
  657TMC3    C5 9724   1.180   0.674  15.020  0.2057  0.3841  0.7123
  657TMC3    C6 9725   1.156   0.677  15.152 -0.4550  0.4177  1.1728
  657TMC3     C 9726   1.315   0.344  14.964  0.6835 -0.6276  0.1104
  657TMC3     O 9727   1.263   0.305  14.857 -0.2199  0.0762 -0.1283
  657TMC3     H 9728   1.267   0.370  15.221  0.2232  0.0998  0.8180
  657TMC3    H1 9729   1.269   0.555  14.847  2.8861 -0.0109  1.1440
  657TMC3    H2 9730   1.115   0.761  15.207  0.0776  2.1038 -1.0227
  657TMC3    C7 9731   1.167   0.802  14.957 -0.3848  0.3418 -0.4299
  657TMC3    C8 9732   1.186   0.583  15.369 -0.0956  0.7309  0.0853
  657TMC3    O1 9733   1.162   0.896  15.031  0.1338  0.1087  1.0991
  657TMC3    O2 9734   1.190   0.699  15.411  0.2867 -0.2899 -0.3305
  658MPD2     C 9735   2.772   1.226  14.841  1.0538 -0.2858 -0.2898
  658MPD2    C1 9736   2.642   1.178  14.843 -0.3098  0.2958 -0.3644
  658MPD2    C2 9737   2.564   1.226  14.737  0.3279 -0.2481 -1.2371
  658MPD2    C3 9738   2.602   1.317  14.637  0.4492 -0.0062 -0.8804
  658MPD2    C4 9739   2.731   1.361  14.644 -0.6365 -0.8534 -0.2775
  658MPD2    C5 9740   2.816   1.305  14.737 -0.4110  0.9046 -0.3736
  658MPD2     H 9741   2.467   1.177  14.739  0.3886 -0.4070 -2.0646
  658MPD2    H1 9742   2.770   1.428  14.569  1.7475 -0.0412  1.7139
  658MPD2    H2 9743   2.842   1.194  14.917 -1.6887 -0.1490  2.3097
  658MPD2    H3 9744   2.919   1.339  14.734 -0.1536  0.1558 -0.2065
  658MPD2     N 9745   2.515   1.360  14.533 -0.0380 -0.6334 -0.8377
  658MPD2    H5 9746   2.430   1.305  14.532  0.0923 -0.8632  0.2553
  658MPD2    N1 9747   2.589   1.084  14.943 -0.2295 -0.1132 -0.1378
  658MPD2    H7 9748   2.492   1.059  14.929  0.0590 -0.5646 -1.3489
  659TMC3    C1 9749   2.568   0.961  15.146 -0.8144 -0.1725  0.9737
  659TMC3    C2 9750   2.582   0.968  15.280 -0.1425 -0.1198  0.4781
  659TMC3    C3 9751   2.509   0.886  15.358  0.1305 -0.3653  0.3378
  659TMC3    C4 9752   2.498   0.862  15.081  0.0108  0.1006  0.0651
  659TMC3    C5 9753   2.431   0.772  15.157 -0.1078  0.4215 -0.1111
  659TMC3    C6 9754   2.444   0.782  15.298  0.3283  0.6003 -0.1065
  659TMC3     C 9755   2.650   1.051  15.062 -0.3414 -0.4190 -0.3381
  659TMC3     O 9756   2.749   1.106  15.101 -0.1351  0.7846  0.1683
  659TMC3     H 9757   2.631   1.053  15.326 -1.2097  0.6998  0.1121
  659TMC3    H1 9758   2.493   0.849  14.974 -0.5807 -1.3487  0.2691
  659TMC3    H2 9759   2.384   0.719  15.362 -0.4322  1.4908  0.0703
  659TMC3    C7 9760   2.296   0.740  15.118  1.1558 -0.2946 -0.2730
  659TMC3    C8 9761   2.448   0.950  15.472  0.0373 -0.5862  0.4186
  659TMC3    O1 9762   2.211   0.732  15.206 -0.0264  0.1458  0.1758
  659TMC3    O2 9763   2.463   1.073  15.477 -0.0752  0.5567 -1.0044
  660MPD2     C 9764   0.316   0.244  13.125 -0.0529 -0.7147  0.6648
  660MPD2    C1 9765   0.309   0.189  12.995 -0.5927  0.6381  0.9569
  660MPD2    C2 9766   0.364   0.066  12.977  0.0965 -0.5143 -0.4444
  660MPD2    C3 9767   0.414   4.713  13.077 -0.5150  0.3964  0.0776
  660MPD2    C4 9768   0.413   0.042  13.207 -0.3587 -0.2673 -0.0596
  660MPD2    C5 9769   0.362   0.168  13.229 -0.2059 -0.7302 -0.7735
  660MPD2     H 9770   0.371   0.023  12.878  1.6546 -0.0487 -0.5316
  660MPD2    H1 9771   0.457   4.712  13.292  0.3814  1.0615  0.3868
  660MPD2    H2 9772   0.274   0.343  13.140  0.5482 -0.3359 -0.1502
  660MPD2    H3 9773   0.341   0.203  13.329  1.3675  0.3052 -0.8023
  660MPD2     N 9774   0.464   4.576  13.064 -0.0679  0.3589 -0.5763
  660MPD2    H5 9775   0.475   4.529  13.153 -1.0712  0.5039 -0.3763
  660MPD2    N1 9776   0.251   0.268  12.889  0.4773 -0.7214  0.3930
  660MPD2    H7 9777   0.222   0.359  12.923  1.3445  0.2191 -1.4211
  661TMC3    C1 9778   0.149   0.316  12.681 -0.0312  0.6237  0.8027
  661TMC3    C2 9779   0.163   0.322  12.541  0.1434  0.3968  0.5865
  661TMC3    C3 9780   0.058   0.370  12.469  0.9578 -0.2451 -0.4308
  661TMC3    C4 9781   0.033   0.350  12.740  0.5319  0.2250 -0.7094
  661TMC3    C5 9782   4.644   0.393  12.669  0.2242 -0.0523  0.0700
  661TMC3    C6 9783   4.660   0.404  12.532 -0.3881  0.0105  0.2471
  661TMC3     C 9784   0.239   0.232  12.760  0.7654 -0.5398 -0.2217
  661TMC3     O 9785   0.276   0.125  12.711 -0.6268 -0.2863 -0.2449
  661TMC3     H 9786   0.246   0.278  12.487 -0.9022 -0.2754 -0.4762
  661TMC3    H1 9787   0.026   0.341  12.848 -2.0178 -2.4414 -1.1023
  661TMC3    H2 9788   4.593   0.454  12.463  1.2244 -1.9117 -2.7374
  661TMC3    C7 9789   4.520   0.341  12.714 -0.2488  0.5448  0.5782
  661TMC3    C8 9790   0.085   0.391  12.322 -0.3064 -0.6234  0.3337
  661TMC3    O1 9791   4.522   0.313  12.832 -0.5867  0.2672 -0.4207
  661TMC3    O2 9792   0.172   0.325  12.267 -0.0232 -0.8121 -0.5477
  662MPD2     C 9793   0.538   4.636  17.534  0.7442  0.5157  0.2448
  662MPD2    C1 9794   0.535   4.572  17.656  0.0204  0.0581  0.0540
  662MPD2    C2 9795   0.526   4.642   0.081 -0.3376 -0.5847 -0.3524
  662MPD2    C3 9796   0.528   0.055   0.086 -0.3698 -0.0146 -0.3471
  662MPD2    C4 9797   0.533   0.125  17.658  0.2610  0.8005  0.3424
  662MPD2    C5 9798   0.525   0.048  17.542 -0.8871 -0.1080 -0.1317
  662MPD2     H 9799   0.528   4.586   0.174  1.3984  2.1359  1.2271
  662MPD2    H1 9800   0.527   0.232  17.641 -0.8363  0.9781  1.9099
  662MPD2    H2 9801   0.540   4.586  17.438 -1.0377 -1.2983  1.1375
  662MPD2    H3 9802   0.513   0.107  17.452 -0.0927 -0.6312 -0.5822
  662MPD2     N 9803   0.507   0.129   0.209 -0.5583  0.5386  0.2242
  662MPD2    H5 9804   0.513   0.230   0.216  3.4146  0.2733  0.9639
  662MPD2    N1 9805   0.552   4.436  17.669  0.1319 -0.0767 -0.2676
  662MPD2    H7 9806   0.537   4.405   0.074  2.9766  0.2189  0.2796
  663TMC3    C1 9807   0.582   4.201  17.640 -0.0464 -0.0098 -0.0035
  663TMC3    C2 9808   0.621   4.205   0.079  0.0521 -0.0285 -0.2127
  663TMC3    C3 9809   0.563   4.133   0.180 -0.0049  0.4189  0.9992
  663TMC3    C4 9810   0.487   4.122  17.596 -0.1962  0.5358  0.2562
  663TMC3    C5 9811   0.427   4.040  17.690 -0.4152 -0.3715  0.8237
  663TMC3    C6 9812   0.481   4.031   0.125  0.0020  0.0985 -0.5056
  663TMC3     C 9813   0.566   4.335  17.576 -0.3074  0.5706 -0.3801
  663TMC3     O 9814   0.554   4.336  17.452 -0.0675 -0.2197  0.2778
  663TMC3     H 9815   0.681   4.291   0.109 -0.5140  1.3223 -2.9645
  663TMC3    H1 9816   0.451   4.137  17.495 -2.3424  0.5848  1.0339
  663TMC3    H2 9817   0.424   3.983   0.203  0.0644 -0.3125 -0.7169
  663TMC3    C7 9818   0.327   3.947  17.645 -0.1692  0.1888  0.0209
  663TMC3    C8 9819   0.485   4.229   0.255 -0.3445  0.0848  0.6251
  663TMC3    O1 9820   0.237   4.001  17.579 -0.2805  0.0227  0.3409
  663TMC3    O2 9821   0.495   4.340   0.218  0.2338 -0.0100  0.5003
  664MPD2     C 9822   3.789   2.566   0.186  0.5745  0.4152 -0.3593
  664MPD2    C1 9823   3.840   2.696   0.192 -0.2772  0.0408 -0.1881
  664MPD2    C2 9824   3.917   2.732   0.300 -0.6438  0.1630 -0.0023
  664MPD2    C3 9825   3.961   2.642   0.392  0.8787 -0.1395 -1.1606
  664MPD2    C4 9826   3.915   2.515   0.384  0.3283  0.9259 -0.3066
  664MPD2    C5 9827   3.825   2.483   0.287 -0.1847 -0.4904  0.6781
  664MPD2     H 9828   3.942   2.837   0.303  3.3963 -0.7978 -0.4158
  664MPD2    H1 9829   3.947   2.443   0.459 -0.8387  1.9987  1.2093
  664MPD2    H2 9830   3.722   2.522   0.112 -0.2045 -1.6762  1.5805
  664MPD2    H3 9831   3.784   2.383   0.288 -1.6751  0.1485  3.5479
  664MPD2     N 9832   4.026   2.687   0.510 -0.6356 -0.0450 -0.1574
  664MPD2    H5 9833   4.066   2.780   0.505  2.1928 -1.2603  0.0981
  664MPD2    N1 9834   3.811   2.795   0.095 -0.2835  0.5483 -0.6306
  664MPD2    H7 9835   3.831   2.891   0.119 -0.6542  0.3838  0.3412
  665TMC3    C1 9836   4.137   2.697   0.727 -0.1004  0.5993 -0.5183
  665TMC3    C2 9837   4.191   2.631   0.830  0.2731  0.8443  0.2279
  665TMC3    C3 9838   4.245   2.705   0.934  0.1210 -0.2526 -0.7095
  665TMC3    C4 9839   4.143   2.831   0.720 -0.2567 -0.1647 -0.4049
  665TMC3    C5 9840   4.188   2.904   0.824 -0.2597 -0.4757  0.5728
  665TMC3    C6 9841   4.241   2.847   0.939  0.3758 -0.8762  0.4447
  665TMC3     C 9842   4.071   2.616   0.619  0.0264  0.1904 -1.0461
  665TMC3     O 9843   4.044   2.499   0.638 -0.5793  0.2156  0.0801
  665TMC3     H 9844   4.211   2.526   0.816 -0.7253  0.7752 -0.7016
  665TMC3    H1 9845   4.098   2.877   0.632 -0.0359  2.4040  0.8515
  665TMC3    H2 9846   4.257   2.897   1.034 -0.6030 -0.0562  0.1828
  665TMC3    C7 9847   4.166   3.048   0.820  0.2981 -0.7920  0.3191
  665TMC3    C8 9848   4.276   2.634   1.056  0.0420 -0.1011 -0.0859
  665TMC3    O1 9849   4.068   3.086   0.752 -0.5884 -0.2406  0.4831
  665TMC3    O2 9850   4.351   2.687   1.139 -0.0883 -0.1713 -0.2521
  666TMC3    C1 9851   2.151   2.966  10.518 -0.0223 -0.4083  0.2826
  666TMC3    C2 9852   2.207   2.863  10.458 -0.2244 -0.1383 -0.1073
  666TMC3    C3 9853   2.323   2.894  10.388 -0.4694 -0.4439 -0.5335
  666TMC3    C4 9854   2.182   3.094  10.487  0.4881  0.6027  0.2504
  666TMC3    C5 9855   2.296   3.123  10.418  0.2579  0.2759  0.1650
  666TMC3    C6 9856   2.374   3.019  10.381  0.2081 -0.0685  0.0698
  666TMC3     C 9857   2.063   2.945  10.631 -0.2453 -0.7244 -0.8810
  666TMC3     O 9858   2.005   3.040  10.683  0.1108 -0.1372  0.2417
  666TMC3     H 9859   2.174   2.760  10.462 -1.1849  0.1376 -0.8758
  666TMC3    H1 9860   2.108   3.173  10.497  0.3496  0.8350 -2.5452
  666TMC3    H2 9861   2.478   3.032  10.354 -0.2864  0.3851 -1.6031
  666TMC3    C7 9862   2.340   3.259  10.402 -0.2007 -0.0379  0.1892
  666TMC3    C8 9863   2.408   2.772  10.365 -0.7336  0.1626 -0.2384
  666TMC3    O1 9864   2.326   3.332  10.500  0.4007  0.9187 -0.4830
  666TMC3    O2 9865   2.364   2.670  10.420 -0.2395 -0.0546 -0.0852
  667MPD2     C 9866   4.366   2.426  15.062 -0.1328 -0.0201 -0.2258
  667MPD2    C1 9867   4.428   2.518  14.988 -0.5969 -0.1322  0.4516
  667MPD2    C2 9868   4.446   2.493  14.857 -1.0521 -0.1372  0.3989
  667MPD2    C3 9869   4.407   2.379  14.800  0.2018  0.0909  0.0846
  667MPD2    C4 9870   4.355   2.280  14.876  0.5375 -0.6818 -0.4839
  667MPD2    C5 9871   4.334   2.307  15.008 -0.0558  0.4375 -0.4739
  667MPD2     H 9872   4.487   2.563  14.785  0.1997  0.4222  1.6422
  667MPD2    H1 9873   4.325   2.184  14.836 -1.4451 -0.1919 -0.1955
  667MPD2    H2 9874   4.345   2.442  15.167  2.0423  0.8983  0.0552
  667MPD2    H3 9875   4.295   2.235  15.079 -1.9255 -0.7033 -2.6742
  667MPD2     N 9876   4.402   2.350  14.661 -0.7725  0.2246 -0.1070
  667MPD2    H5 9877   4.374   2.257  14.631 -1.9374  0.4088  0.4129
  667MPD2    N1 9878   4.448   2.637  15.053 -1.0077 -0.6096 -0.1640
  667MPD2    H7 9879   4.400   2.653  15.141 -1.6383 -0.1860 -0.5739
  668TMC3    C1 9880   4.534   2.856  15.075  0.5298 -0.2171  0.9260
  668TMC3    C2 9881   4.588   2.966  15.009 -0.7404  0.4208 -0.5498
  668TMC3    C3 9882   4.581   3.081  15.087  0.4567 -0.1046 -0.4394
  668TMC3    C4 9883   4.479   2.859  15.197  0.3290  0.0261 -0.1557
  668TMC3    C5 9884   4.463   2.977  15.266  0.8218 -0.4010 -0.6610
  668TMC3    C6 9885   4.522   3.089  15.209  0.4022 -0.3306 -0.3777
  668TMC3     C 9886   4.527   2.736  14.994  0.5303 -1.1012 -0.0930
  668TMC3     O 9887   4.598   2.732  14.895 -0.8736 -0.4790 -0.5885
  668TMC3     H 9888   4.638   2.961  14.913  0.9774  0.0080  0.3640
  668TMC3    H1 9889   4.448   2.771  15.253 -2.0769 -0.2492 -1.9331
  668TMC3    H2 9890   4.519   3.184  15.262  3.3019 -0.3325 -0.1993
  668TMC3    C7 9891   4.436   2.980  15.402  0.1884  0.1312 -0.0658
  668TMC3    C8 9892   4.628   3.209  15.025  0.1000 -0.5138 -0.2436
  668TMC3    O1 9893   4.499   3.071  15.459  0.2851  0.1232  0.2200
  668TMC3    O2 9894   4.587   3.310  15.078 -0.7883  0.1138 -0.5462
  669TMC3    C1 9895   2.348   2.893  14.205  0.8897  0.8567 -0.3636
  669TMC3    C2 9896   2.223   2.943  14.159 -0.5640 -0.3254 -0.3637
  669TMC3    C3 9897   2.220   3.051  14.083 -0.6537  1.2503  0.5038
  669TMC3    C4 9898   2.463   2.956  14.162 -0.1388  0.4702  0.2640
  669TMC3    C5 9899   2.448   3.051  14.068 -0.5079 -0.2104 -0.4345
  669TMC3    C6 9900   2.331   3.115  14.030 -0.4582  0.3159 -0.1105
  669TMC3     C 9901   2.336   2.775  14.292  0.2732 -0.1646  0.0499
  669TMC3     O 9902   2.227   2.742  14.334 -0.1676  0.1855  0.4203
  669TMC3     H 9903   2.135   2.894  14.199  1.1412 -0.9406  2.5672
  669TMC3    H1 9904   2.561   2.939  14.204 -0.4014  0.3883  0.8531
  669TMC3    H2 9905   2.331   3.197  13.959 -1.9008 -0.5151 -1.0631
  669TMC3    C7 9906   2.572   3.097  13.998  0.3300 -0.8453  0.4795
  669TMC3    C8 9907   2.097   3.052  14.000 -0.6308  0.2251 -0.4003
  669TMC3    O1 9908   2.567   3.209  13.940 -0.0959 -0.0043 -0.5031
  669TMC3    O2 9909   2.047   2.938  13.986 -0.4336 -0.3299 -0.2295
  670MPD2     C 9910   0.647   0.509  13.682 -0.0521  0.0613  0.0170
  670MPD2    C1 9911   0.754   0.537  13.768  0.1565  0.7061 -0.3502
  670MPD2    C2 9912   0.733   0.572  13.903 -0.6432 -0.0190 -0.3639
  670MPD2    C3 9913   0.605   0.566  13.957 -0.4258 -0.4322  0.6328
  670MPD2    C4 9914   0.507   0.539  13.870 -0.3928  0.1237 -0.1347
  670MPD2    C5 9915   0.528   0.500  13.737 -0.7169  0.1896  0.1707
  670MPD2     H 9916   0.820   0.592  13.963 -1.3222 -1.9447  1.2427
  670MPD2    H1 9917   0.408   0.516  13.907 -0.5900  1.9966  0.4994
  670MPD2    H2 9918   0.653   0.488  13.576  0.9444  1.1656 -0.1489
  670MPD2    H3 9919   0.447   0.465  13.674  0.9734 -0.0516 -1.8911
  670MPD2     N 9920   0.587   0.577  14.101  0.5189  0.1724  0.6880
  670MPD2    H5 9921   0.674   0.591  14.151 -0.0153  0.1800  1.6265
  670MPD2    N1 9922   0.889   0.540  13.724 -0.0500 -0.4418 -0.0170
  670MPD2    H7 9923   0.957   0.548  13.798  0.4118 -0.0724 -0.4798
  671TMC3    C1 9924   0.477   0.546  14.310  0.3741  0.0187 -0.3433
  671TMC3    C2 9925   0.601   0.514  14.354 -0.5047  0.4936 -0.1208
  671TMC3    C3 9926   0.599   0.420  14.458  0.3529 -0.8985 -0.1549
  671TMC3    C4 9927   0.363   0.495  14.368  0.9467 -0.4308  0.0935
  671TMC3    C5 9928   0.368   0.387  14.455  0.5135  0.0184  0.1618
  671TMC3    C6 9929   0.488   0.352  14.508  0.0340  0.6267 -0.4412
  671TMC3     C 9930   0.464   0.567  14.165  0.8058 -0.5032  0.3532
  671TMC3     O 9931   0.354   0.551  14.115 -0.1208 -0.0996  0.4565
  671TMC3     H 9932   0.692   0.557  14.314  1.2884 -2.5284  0.7219
  671TMC3    H1 9933   0.266   0.512  14.322  0.3245 -2.3039  0.7073
  671TMC3    H2 9934   0.499   0.259  14.562 -1.9640  1.4813  1.4388
  671TMC3    C7 9935   0.297   0.268  14.409  0.1601  0.3633 -0.3623
  671TMC3    C8 9936   0.720   0.341  14.451 -0.1725 -0.1330  0.3969
  671TMC3    O1 9937   0.352   0.173  14.348  0.0925 -0.2031 -0.4839
  671TMC3    O2 9938   0.761   0.326  14.336  0.4490 -0.4748  0.8199
  672MPD2     C 9939   1.136   0.371   0.807  0.6335  0.0366  0.1807
  672MPD2    C1 9940   1.249   0.440   0.826 -0.3472  0.3630  0.0475
  672MPD2    C2 9941   1.292   0.464   0.957 -0.2559 -0.2073 -0.5802
  672MPD2    C3 9942   1.205   0.437   1.065 -0.7254  0.2451  0.0730
  672MPD2    C4 9943   1.082   0.381   1.047  0.1907 -0.5374  0.0912
  672MPD2    C5 9944   1.052   0.344   0.918  0.3364 -0.6035 -0.6264
  672MPD2     H 9945   1.387   0.514   0.975 -0.5834  0.8934 -1.9268
  672MPD2    H1 9946   1.012   0.352   1.124 -0.4754  1.2161  0.1303
  672MPD2    H2 9947   1.102   0.347   0.707  0.0717 -0.1072  0.4027
  672MPD2    H3 9948   0.971   0.274   0.904 -0.8479  0.9180 -1.2874
  672MPD2     N 9949   1.254   0.457   1.197 -0.1720  1.0032  0.0647
  672MPD2    H5 9950   1.185   0.470   1.270 -1.5081  0.0262 -1.0172
  672MPD2    N1 9951   1.336   0.480   0.724 -0.0311  0.0841  0.0596
  672MPD2    H7 9952   1.417   0.533   0.756  1.4202 -1.1511 -1.6148
  673TMC3    C1 9953   1.471   0.476   0.539  0.0185 -0.6223  0.0014
  673TMC3    C2 9954   1.543   0.383   0.476  0.1509  0.0073 -0.1262
  673TMC3    C3 9955   1.648   0.429   0.398 -0.2547  0.5129  0.1977
  673TMC3    C4 9956   1.511   0.606   0.562 -0.2349  0.2482  0.0388
  673TMC3    C5 9957   1.615   0.643   0.479 -0.7326 -0.1627  0.6871
  673TMC3    C6 9958   1.678   0.559   0.394 -0.3913  0.4212  0.4947
  673TMC3     C 9959   1.354   0.422   0.604 -0.2836  0.1588  0.3089
  673TMC3     O 9960   1.292   0.336   0.542  0.4523 -0.2989 -0.6092
  673TMC3     H 9961   1.502   0.283   0.467 -2.7388  0.9048  3.0091
  673TMC3    H1 9962   1.441   0.668   0.617 -2.2804 -1.2655 -0.8315
  673TMC3    H2 9963   1.765   0.593   0.340  1.2498 -1.2045  2.1173
  673TMC3    C7 9964   1.652   0.781   0.469 -0.1977  0.0252  0.6198
  673TMC3    C8 9965   1.768   0.347   0.373 -0.0346 -0.8874  0.0751
  673TMC3    O1 9966   1.735   0.808   0.385  0.1210  0.5403 -0.4034
  673TMC3    O2 9967   1.817   0.359   0.259  0.3098  0.2068  0.2199
  674MPD2     C 9968   1.373   0.138   1.299  0.1887 -0.2138 -0.8252
  674MPD2    C1 9969   1.285   0.104   1.200 -0.4781  0.1812  0.9183
  674MPD2    C2 9970   1.155   0.095   1.230  0.4914  0.1273  0.1678
  674MPD2    C3 9971   1.109   0.112   1.358 -0.1602 -0.0856 -0.7736
  674MPD2    C4 9972   1.199   0.132   1.459  0.3377  0.2911  0.0891
  674MPD2    C5 9973   1.332   0.146   1.432 -0.5713  0.1626  0.1172
  674MPD2     H 9974   1.079   0.076   1.155 -1.2036 -0.0496  1.9395
  674MPD2    H1 9975   1.184   0.137   1.566 -1.4919  0.1069 -0.1616
  674MPD2    H2 9976   1.478   0.156   1.277  0.5925 -0.5879  0.8203
  674MPD2    H3 9977   1.397   0.182   1.510  0.7648 -0.7045 -0.6068
  674MPD2     N 9978   0.972   0.105   1.386 -1.0495  0.4650  0.0052
  674MPD2    H5 9979   0.914   0.102   1.303 -1.4817  0.4108  0.3135
  674MPD2    N1 9980   1.329   0.093   1.065 -0.3687  0.2275  0.3094
  674MPD2    H7 9981   1.414   0.144   1.045 -0.5965  0.2228 -0.6607
  675TMC3    C1 9982   1.297   0.062   0.831 -0.1415  0.3192 -0.2021
  675TMC3    C2 9983   1.200   0.042   0.734  0.4449  0.1872  0.0846
  675TMC3    C3 9984   1.228   0.001   0.604  0.8023 -1.3607  0.4565
  675TMC3    C4 9985   1.426   0.039   0.792  0.3134  0.2783 -0.7900
  675TMC3    C5 9986   1.452   0.012   0.659  0.8271  0.1443 -1.4708
  675TMC3    C6 9987   1.355   4.722   0.563 -0.0746 -0.0490 -0.5915
  675TMC3     C 9988   1.243   0.056   0.964 -0.2844 -0.0681  0.9433
  675TMC3     O 9989   1.143   4.709   0.961 -0.3872 -0.0480 -0.3260
  675TMC3     H 9990   1.097   0.071   0.751  0.1903 -0.2021 -0.8256
  675TMC3    H1 9991   1.510   0.052   0.859  0.6197  1.1312 -1.3292
  675TMC3    H2 9992   1.374   4.683   0.463  0.7858 -1.6872  0.2086
  675TMC3    C7 9993   1.597   4.710   0.632  0.3248 -0.6817  0.0501
  675TMC3    C8 9994   1.123   4.689   0.516 -0.7591 -0.5025  0.7134
  675TMC3    O1 9995   1.671   4.669   0.718 -0.2715  0.1530 -0.0017
  675TMC3    O2 9996   1.138   0.002   0.399 -0.4910 -0.0012 -0.3917
  676MPD2     C 9997   3.719   2.859  11.206  1.6024  0.3761 -0.3728
  676MPD2    C1 9998   3.606   2.919  11.250  0.3099 -0.3827  0.2382
  676MPD2    C2 9999   3.495   2.846  11.277  0.8937  0.5517 -0.1714
  676MPD2    C310000   3.484   2.710  11.246 -0.1034  0.5196  0.3683
  676MPD2    C410001   3.599   2.645  11.200 -0.4800  0.3809  0.0707
  676MPD2    C510002   3.715   2.724  11.187 -0.1828 -0.6228 -0.3601
  676MPD2     H10003   3.408   2.901  11.310 -0.4488 -0.7828 -1.4871
  676MPD2    H110004   3.605   2.537  11.189 -2.1668  0.4637 -1.7838
  676MPD2    H210005   3.809   2.914  11.181  1.1139  1.6511  0.7304
  676MPD2    H310006   3.806   2.673  11.157  0.1063 -0.9508  1.1138
  676MPD2     N10007   3.370   2.636  11.271  0.9556  0.0381 -0.0161
  676MPD2    H510008   3.370   2.541  11.238  0.9504 -0.5650  1.7368
  676MPD2    N110009   3.593   3.061  11.279 -0.4303 -0.0514  0.6985
  676MPD2    H710010   3.508   3.102  11.316 -0.0978  0.0124  1.3892
  677TMC3    C110011   3.648   3.281  11.284  0.2265  0.1065  0.4606
  677TMC3    C210012   3.585   3.293  11.407  0.1749  0.2522  0.6818
  677TMC3    C310013   3.525   3.414  11.423 -0.0817 -0.1024  0.1534
  677TMC3    C410014   3.670   3.379  11.193  0.1593  0.0304  0.2499
  677TMC3    C510015   3.615   3.500  11.227  0.4454 -1.0380 -0.5097
  677TMC3    C610016   3.532   3.515  11.337 -0.6397 -0.2347  0.1461
  677TMC3     C10017   3.677   3.151  11.228 -0.3022 -0.1143  0.2542
  677TMC3     O10018   3.761   3.137  11.139 -0.0241  0.3125  0.0605
  677TMC3     H10019   3.573   3.215  11.482  1.2671 -0.6327 -0.0794
  677TMC3    H110020   3.726   3.362  11.102 -0.5758 -1.6592  0.1225
  677TMC3    H210021   3.477   3.608  11.347 -0.2300  0.0340 -0.0430
  677TMC3    C710022   3.657   3.611  11.148 -0.0353  0.1964 -0.3751
  677TMC3    C810023   3.416   3.422  11.521 -0.0741 -0.5496  0.4231
  677TMC3    O110024   3.679   3.590  11.027 -0.9779 -0.1105 -0.0087
  677TMC3    O210025   3.333   3.508  11.508  0.0291 -0.5700  0.1932
  678MPD2     C10026   0.638   4.029   1.834  0.1225 -0.2032  0.5916
  678MPD2    C110027   0.579   3.944   1.746 -0.5749  0.0527 -0.2127
  678MPD2    C210028   0.450   3.968   1.706 -0.1886  0.4866  0.1062
  678MPD2    C310029   0.378   4.066   1.758 -0.6097 -0.1006 -0.7186
  678MPD2    C410030   0.436   4.153   1.858  0.0946 -0.8521 -0.4395
  678MPD2    C510031   0.564   4.133   1.891 -0.0306 -0.3302  0.2382
  678MPD2     H10032   0.409   3.904   1.629 -0.5468  1.2108 -0.2922
  678MPD2    H110033   0.388   4.242   1.897 -3.4143 -1.4118 -3.4525
  678MPD2    H210034   0.740   4.021   1.868 -0.4038 -0.2407  2.2075
  678MPD2    H310035   0.616   4.208   1.951 -0.3203  0.2721 -0.2568
  678MPD2     N10036   0.247   4.075   1.717  0.7199 -0.2922  0.1589
  678MPD2    H510037   0.221   4.010   1.644  1.5243 -1.0870  0.5776
  678MPD2    N110038   0.637   3.829   1.687 -0.4709  0.3562  0.3183
  678MPD2    H710039   0.588   3.775   1.616  0.5738 -0.4094  0.1739
  679TMC3    C110040   0.975   3.562   1.498 -0.3808 -0.5194  0.6845
  679TMC3    C210041   0.938   3.649   1.592  0.9250 -0.1712  0.3780
  679TMC3    C310042   0.806   3.679   1.617  0.2613  0.3442 -0.6939
  679TMC3    C410043   0.883   3.511   1.411  0.6588  0.0971  0.5753
  679TMC3    C510044   0.753   3.543   1.432 -0.3432 -0.0419  0.0552
  679TMC3    C610045   0.710   3.621   1.539 -0.2397 -0.2309 -0.1184
  679TMC3     C10046   1.105   3.491   1.508 -0.8873  0.6291  0.4477
  679TMC3     O10047   1.145   3.432   1.408 -0.5678 -0.1510 -0.3358
  679TMC3     H10048   1.007   3.704   1.655  0.8181  0.4526 -0.0368
  679TMC3    H110049   0.904   3.422   1.353 -0.6982 -0.2440  0.6077
  679TMC3    H210050   0.603   3.635   1.554 -0.0730 -1.2958  2.0257
  679TMC3    C710051   0.650   3.485   1.353 -0.8291 -0.0624  0.5522
  679TMC3    C810052   0.763   3.792   1.701 -0.2151 -0.2593  0.1731
  679TMC3    O110053   0.536   3.474   1.394 -0.2174  0.1478  0.3248
  679TMC3    O210054   0.856   3.845   1.763 -0.1172  0.1511 -0.5901
  680MPD2     C10055   0.674   2.161  13.445 -0.2946  0.0192 -0.7425
  680MPD2    C110056   0.712   2.158  13.579  0.9829  0.8934  0.1860
  680MPD2    C210057   0.719   2.271  13.656  0.7499  0.2820 -0.7503
  680MPD2    C310058   0.678   2.391  13.599  0.4583  0.7056  0.4462
  680MPD2    C410059   0.632   2.392  13.473  0.6158  0.0424 -0.0882
  680MPD2    C510060   0.635   2.280  13.388  0.3480  0.4061  0.7114
  680MPD2     H10061   0.764   2.265  13.754 -0.0212 -0.8101 -0.4661
  680MPD2    H110062   0.622   2.492  13.432 -2.7370  0.7519  2.4300
  680MPD2    H210063   0.664   2.070  13.388 -0.5149 -0.4294  0.0067
  680MPD2    H310064   0.607   2.284  13.284  0.5801  1.8167  0.7065
  680MPD2     N10065   0.688   2.517  13.669  0.4369  0.3965 -0.1968
  680MPD2    H510066   0.643   2.597  13.627  0.6640  0.5084 -0.2254
  680MPD2    N110067   0.757   2.045  13.640 -0.1052  0.0532  0.0379
  680MPD2    H710068   0.783   2.046  13.738  1.7459  2.0274 -0.4893
  681TMC3    C110069   0.822   1.820  13.670  0.6185 -0.6093  0.2230
  681TMC3    C210070   0.747   1.795  13.782  0.1769  0.4119  0.6988
  681TMC3    C310071   0.798   1.701  13.867 -0.5888  0.4695  0.0136
  681TMC3    C410072   0.938   1.747  13.636 -0.8994 -0.8612 -0.0821
  681TMC3    C510073   0.988   1.663  13.730 -0.3120 -0.6766  0.2976
  681TMC3    C610074   0.918   1.638  13.844 -0.4118  0.4100 -0.0337
  681TMC3     C10075   0.766   1.919  13.581  0.1268  0.0912 -0.6142
  681TMC3     O10076   0.776   1.893  13.460 -0.0911  0.2745  0.6842
  681TMC3     H10077   0.647   1.834  13.802 -0.9612 -0.7441 -2.7808
  681TMC3    H110078   0.990   1.768  13.544 -1.7915  2.7103  0.2302
  681TMC3    H210079   0.969   1.593  13.928  0.1492  1.9654  0.4693
  681TMC3    C710080   1.121   1.603  13.723 -0.1935  0.2617 -0.3025
  681TMC3    C810081   0.737   1.672  13.995  0.5938  0.0392  0.0699
  681TMC3    O110082   1.149   1.526  13.813 -1.1354 -0.5781  0.1141
  681TMC3    O210083   0.762   1.560  14.043  0.0595  0.1298 -0.1962
  682MPD2     C10084   2.849   4.342  10.814  0.3148  0.5851  0.3343
  682MPD2    C110085   2.721   4.300  10.838  0.0951 -0.1455 -0.4653
  682MPD2    C210086   2.659   4.345  10.952  0.4526  0.0297  0.0459
  682MPD2    C310087   2.714   4.439  11.033 -0.2697 -0.5353  0.0174
  682MPD2    C410088   2.837   4.487  11.007 -0.0566  0.0555 -0.1061
  682MPD2    C510089   2.909   4.432  10.902  0.0133 -0.5319 -0.6823
  682MPD2     H10090   2.564   4.298  10.976  0.2707 -0.1377 -1.0154
  682MPD2    H110091   2.885   4.568  11.062 -0.3291 -1.1790  1.9088
  682MPD2    H210092   2.915   4.304  10.737  1.2466  1.5558  0.6495
  682MPD2    H310093   3.013   4.458  10.886 -0.4877  0.0848 -2.8928
  682MPD2     N10094   2.650   4.481  11.153 -0.0671 -0.0418 -0.3636
  682MPD2    H510095   2.710   4.544  11.206  1.6549 -2.9283  1.1065
  682MPD2    N110096   2.640   4.230  10.742  0.3646 -1.1767 -0.2286
  682MPD2    H710097   2.542   4.230  10.766  0.3291 -0.9445 -0.3717
  683TMC3    C110098   2.628   4.580  11.543  0.1455  0.4980  0.0370
  683TMC3    C210099   2.589   4.475  11.622  0.4491  0.3869  0.0429
  683TMC3    C310100   2.522   4.369  11.570  0.5476  0.8975 -0.2575
  683TMC3    C410101   2.604   4.574  11.412  0.1363 -0.2017  0.8180
  683TMC3    C510102   2.535   4.465  11.357 -0.1968  0.8606 -0.1009
  683TMC3    C610103   2.487   4.365  11.438 -0.3789 -0.3919  0.0371
  683TMC3     C10104   2.663   4.700  11.616  0.1080  0.2677  0.8204
  683TMC3     O10105   2.638   4.702  11.740  0.0256 -0.2140  0.6700
  683TMC3     H10106   2.630   4.473  11.723  1.2460  0.4542 -0.2800
  683TMC3    H110107   2.624   4.657  11.344 -0.7497  0.6057  1.5356
  683TMC3    H210108   2.439   4.278  11.395  2.3615 -0.7427 -2.2697
  683TMC3    C710109   2.544   4.426  11.218  0.3112  0.1077  0.0488
  683TMC3    C810110   2.491   4.254  11.662  0.2808  0.3971 -0.2328
  683TMC3    O110111   2.478   4.329  11.183  0.0234  0.5597 -0.2250
  683TMC3    O210112   2.454   4.147  11.616  0.3640 -0.1457 -0.1016
  684MPD2     C10113   0.327   3.154  16.272 -0.5363 -0.3852 -0.0817
  684MPD2    C110114   0.435   3.164  16.349 -0.4496  0.1975  0.1624
  684MPD2    C210115   0.450   3.283  16.425  0.4389 -0.4884 -0.4518
  684MPD2    C310116   0.353   3.382  16.424  0.5486 -0.2115 -0.0841
  684MPD2    C410117   0.239   3.364  16.351 -0.1395  0.2377  0.1772
  684MPD2    C510118   0.228   3.248  16.280 -0.8643  0.0227  0.0278
  684MPD2     H10119   0.542   3.289  16.482  0.9022 -0.8022 -1.1551
  684MPD2    H110120   0.160   3.437  16.334  1.0344  1.0726 -1.7761
  684MPD2    H210121   0.302   3.075  16.202  1.1588 -0.2524 -0.8457
  684MPD2    H310122   0.137   3.227  16.224  0.8582  1.5186 -3.3332
  684MPD2     N10123   0.372   3.509  16.481  0.3018  0.4375 -0.3688
  684MPD2    H510124   0.296   3.576  16.473 -1.6011 -1.5018  1.0847
  684MPD2    N110125   0.529   3.062  16.346 -0.0167 -0.3702 -0.1637
  684MPD2    H710126   0.496   2.985  16.287 -1.1425  0.4247 -0.5704
  685TMC3    C110127   0.736   2.924  16.387  0.5904 -0.1408 -0.3340
  685TMC3    C210128   0.742   2.867  16.259 -1.0012 -0.2282  0.5407
  685TMC3    C310129   0.859   2.803  16.227  0.1019  0.1486 -0.0020
  685TMC3    C410130   0.837   2.915  16.481  0.3988 -0.3898 -0.4300
  685TMC3    C510131   0.950   2.847  16.440  0.1181  0.4873 -0.0296
  685TMC3    C610132   0.956   2.795  16.317  0.0495  0.4697 -0.3152
  685TMC3     C10133   0.655   3.054  16.408 -0.5825 -0.2336 -0.2042
  685TMC3     O10134   0.703   3.135  16.484 -0.8845  0.1707  0.1153
  685TMC3     H10135   0.667   2.899  16.188  1.5936  0.8919 -1.6769
  685TMC3    H110136   0.836   2.957  16.581 -0.7469  0.4517 -0.8024
  685TMC3    H210137   1.042   2.730  16.301 -0.3769 -0.6584  1.9809
  685TMC3    C710138   1.058   2.868  16.533 -0.0866  0.0062  0.4221
  685TMC3    C810139   0.844   2.687  16.143  0.1698  0.7252 -0.2858
  685TMC3    O110140   1.023   2.861  16.650  0.1095 -0.3636  0.2005
  685TMC3    O210141   0.946   2.622  16.138 -0.6126  0.2163 -0.1209
  686MPD2     C10142   2.021   3.119  15.671  0.2082  0.0111 -0.2182
  686MPD2    C110143   2.066   3.024  15.763 -0.4787 -0.0934  0.1731
  686MPD2    C210144   2.160   2.934  15.724 -0.0995 -0.1833  0.0997
  686MPD2    C310145   2.216   2.935  15.594 -1.1162  0.3205  0.7226
  686MPD2    C410146   2.180   3.041  15.511 -0.3437  0.5052 -0.0177
  686MPD2    C510147   2.075   3.123  15.546 -0.0986  0.6559 -0.6205
  686MPD2     H10148   2.188   2.868  15.806  1.9164  0.7855  0.1696
  686MPD2    H110149   2.233   3.052  15.417  0.8918 -0.0921  0.6160
  686MPD2    H210150   1.940   3.183  15.704  2.0342  1.6858  0.9901
  686MPD2    H310151   2.031   3.198  15.482 -1.6293 -1.3148 -1.8925
  686MPD2     N10152   2.318   2.852  15.546  0.2285  0.3298 -0.1863
  686MPD2    H510153   2.372   2.880  15.464 -0.6291  0.4308 -0.7181
  686MPD2    N110154   2.001   3.019  15.889 -0.0398 -0.3857 -0.3248
  686MPD2    H710155   1.922   3.080  15.907  1.2426  1.5505 -1.2910
  687TMC3    C110156   2.285   2.668  15.701  0.4569 -0.1517  0.1336
  687TMC3    C210157   2.152   2.637  15.664 -0.3537  0.0523 -0.2321
  687TMC3    C310158   2.088   2.531  15.721  0.1369 -0.2595  0.1357
  687TMC3    C410159   2.348   2.595  15.795  0.7306 -0.6491 -0.0210
  687TMC3    C510160   2.278   2.504  15.863 -0.4796 -0.3762  0.0186
  687TMC3    C610161   2.146   2.470  15.831  0.3013  0.0636 -0.4241
  687TMC3     C10162   2.377   2.747  15.614  0.5782  0.4497 -0.2804
  687TMC3     O10163   2.487   2.694  15.589  0.3004  0.4430  0.2242
  687TMC3     H10164   2.117   2.678  15.570  1.3580  0.4508 -0.6989
  687TMC3    H110165   2.443   2.631  15.833  0.3070 -1.8605  2.1898
  687TMC3    H210166   2.108   2.381  15.879 -0.0026  1.0390  1.1177
  687TMC3    C710167   2.281   2.527  16.003 -0.9605 -0.2643 -0.5322
  687TMC3    C810168   1.947   2.546  15.750 -0.2172  0.7282  0.0944
  687TMC3    O110169   2.353   2.617  16.045  0.6603  0.4703  0.3008
  687TMC3    O210170   1.899   2.475  15.837 -0.0339  0.3406 -0.2769
  688MPD2     C10171   1.212   1.789  17.472 -0.0035  0.3717 -0.0167
  688MPD2    C110172   1.264   1.664  17.499 -0.4236  0.6348  0.7711
  688MPD2    C210173   1.373   1.629  17.421  0.1888 -0.4125 -0.3462
  688MPD2    C310174   1.428   1.703  17.316 -0.0096 -0.0243 -0.2033
  688MPD2    C410175   1.361   1.818  17.287  0.3533 -1.0271 -0.4222
  688MPD2    C510176   1.263   1.867  17.374 -0.1854 -0.1700 -0.1072
  688MPD2     H10177   1.420   1.534  17.443 -1.3344 -1.3893 -1.3163
  688MPD2    H110178   1.385   1.877  17.200 -0.9220  1.2864  0.7684
  688MPD2    H210179   1.126   1.831  17.522 -1.6424 -0.0072 -2.5115
  688MPD2    H310180   1.232   1.970  17.359  1.5996  0.4797  0.6194
  688MPD2     N10181   1.528   1.659  17.233 -0.1303 -0.2471  0.7532
  688MPD2    H510182   1.562   1.735  17.175  0.1498 -0.9901 -0.0455
  688MPD2    N110183   1.224   1.589  17.611 -0.3009  0.4380 -0.0092
  688MPD2    H710184   1.275   1.504  17.627  0.7038  1.1713  0.6767
  689TMC3    C110185   1.168   1.556   0.141  0.0927 -0.2169 -0.5267
  689TMC3    C210186   1.220   1.618   0.255  0.3123  0.4638 -0.5907
  689TMC3    C310187   1.257   1.530   0.356 -0.0149  0.1158  0.2175
  689TMC3    C410188   1.155   1.422   0.127 -0.1462  0.3885 -0.5374
  689TMC3    C510189   1.196   1.340   0.230 -0.7648  0.1222  0.8421
  689TMC3    C610190   1.256   1.391   0.340 -1.0695 -0.5998  0.1915
  689TMC3     C10191   1.150   1.638   0.029  0.2570 -0.0705 -0.0139
  689TMC3     O10192   1.086   1.740   0.055  0.7545 -0.3501  0.2403
  689TMC3     H10193   1.216   1.726   0.263 -1.5226  0.4243 -0.7816
  689TMC3    H110194   1.094   1.381   0.047  1.8247 -2.5037 -0.5566
  689TMC3    H210195   1.293   1.325   0.417 -0.0702  2.3472  2.2306
  689TMC3    C710196   1.150   1.202   0.240 -0.2886 -0.0400  0.0308
  689TMC3    C810197   1.317   1.578   0.479  0.3860  0.1661  0.0495
  689TMC3    O110198   1.167   1.148   0.344 -0.2651 -0.5875 -0.1079
  689TMC3    O210199   1.299   1.507   0.577 -0.2094  0.1727 -1.0931
  690MPD2     C10200   3.928   3.534  15.948  0.0945 -0.5632  0.4923
  690MPD2    C110201   3.877   3.616  15.852 -0.1593  0.0080  0.0468
  690MPD2    C210202   3.956   3.718  15.811 -0.0853  0.2411  0.3123
  690MPD2    C310203   4.073   3.744  15.872 -0.3918  0.0237  0.3052
  690MPD2    C410204   4.125   3.659  15.968 -0.0442 -0.1422  0.1523
  690MPD2    C510205   4.052   3.549  16.009 -0.3712 -0.3778  0.2374
  690MPD2     H10206   3.933   3.789  15.733 -0.7149 -0.4270 -0.1135
  690MPD2    H110207   4.227   3.663  16.005 -0.5778  0.9722  1.4857
  690MPD2    H210208   3.864   3.456  15.989 -0.6860 -0.5459 -0.6918
  690MPD2    H310209   4.087   3.478  16.083 -0.1445  0.7750  1.2234
  690MPD2     N10210   4.151   3.851  15.819  0.5185  0.3581  0.3480
  690MPD2    H510211   4.116   3.889  15.731 -1.6790  0.4980  1.2768
  690MPD2    N110212   3.753   3.609  15.782  0.1993 -0.0901 -0.0809
  690MPD2    H710213   3.724   3.691  15.730  1.6201  1.2193  1.2012
  691TMC3    C110214   3.522   3.515  15.748 -1.0304 -0.9883 -0.3579
  691TMC3    C210215   3.445   3.615  15.796 -0.1487  0.0408  0.3816
  691TMC3    C310216   3.311   3.602  15.805  0.1744 -0.0289  0.2213
  691TMC3    C410217   3.471   3.398  15.698 -0.4051 -0.9497 -0.3091
  691TMC3    C510218   3.333   3.391  15.688 -0.1564  0.0900 -0.0585
  691TMC3    C610219   3.253   3.492  15.747 -0.2042  0.7614  0.6999
  691TMC3     C10220   3.663   3.501  15.799 -0.8137  0.1956 -0.9370
  691TMC3     O10221   3.671   3.405  15.871 -0.0919 -1.0123 -0.4425
  691TMC3     H10222   3.500   3.692  15.849 -0.2676 -0.4917  1.2826
  691TMC3    H110223   3.544   3.327  15.659 -0.1514 -0.4142 -0.8065
  691TMC3    H210224   3.144   3.487  15.748 -0.1939  0.6287  1.2067
  691TMC3    C710225   3.289   3.249  15.690  0.2096  0.6320  0.6401
  691TMC3    C810226   3.253   3.658  15.926  0.0714  0.3563  0.9722
  691TMC3    O110227   3.370   3.166  15.660  0.0507  0.8016 -0.3647
  691TMC3    O210228   3.334   3.684  16.015 -0.3904  0.3539 -0.5446
  692TMC3    C110229   0.298   0.100  16.061 -0.3643 -0.5015  1.0406
  692TMC3    C210230   0.421   0.136  16.109 -0.1895 -0.1954  1.1689
  692TMC3    C310231   0.524   0.045  16.112 -0.3116  0.2914 -0.6886
  692TMC3    C410232   0.276   4.698  16.005 -0.2820  0.4313 -0.5426
  692TMC3    C510233   0.377   4.601  16.021 -0.5337  0.8909  0.2171
  692TMC3    C610234   0.492   4.635  16.089  0.3438 -0.4419  0.5561
  692TMC3     C10235   0.184   0.184  16.081  0.0050 -0.5826 -0.7363
  692TMC3     O10236   0.074   0.134  16.096  0.3783  0.2203  0.3677
  692TMC3     H10237   0.422   0.213  16.186  1.5044  0.4769  0.4749
  692TMC3    H110238   0.184   4.680  15.951 -0.4438  0.1219 -0.1594
  692TMC3    H210239   0.582   4.575  16.090  0.6917  0.0513 -0.9945
  692TMC3    C710240   0.350   4.460  16.001  0.0555  0.1363 -0.0505
  692TMC3    C810241   0.631   0.071  16.211 -0.4121  0.1612  0.1531
  692TMC3    O110242   0.255   4.450  15.925 -0.7750 -0.3059  0.6062
  692TMC3    O210243   0.687   4.700  16.276  0.1597 -0.4940  0.0364
  693MPD2     C10244   4.244   2.573  10.704  0.2705  0.2511  0.5375
  693MPD2    C110245   4.213   2.442  10.711 -0.0255  0.1795  0.0256
  693MPD2    C210246   4.321   2.352  10.710 -0.2617  0.0894 -0.5309
  693MPD2    C310247   4.452   2.398  10.699 -0.2209 -0.0101 -0.2581
  693MPD2    C410248   4.479   2.532  10.701  0.5581  0.4002 -0.2704
  693MPD2    C510249   4.376   2.615  10.700 -0.2074 -0.0703  0.0981
  693MPD2     H10250   4.297   2.246  10.703  0.2693 -0.0763  0.1713
  693MPD2    H110251   4.579   2.573  10.697 -0.4037  2.5073 -2.4279
  693MPD2    H210252   4.173   2.653  10.725 -0.4035 -0.9344  2.7983
  693MPD2    H310253   4.392   2.722  10.700 -1.0379  0.0503 -1.5854
  693MPD2     N10254   4.565   2.304  10.706 -0.0549  0.4263  0.1753
  693MPD2    H510255   4.658   2.339  10.724 -0.0360  1.6249 -2.1946
  693MPD2    N110256   4.077   2.396  10.730 -0.3140 -0.0857 -0.4316
  693MPD2    H710257   4.004   2.466  10.737  0.1089  0.4564 -1.4200
  694TMC3    C110258   3.906   2.264  10.795  0.0097 -0.3231 -1.0108
  694TMC3    C210259   3.838   2.147  10.771 -0.7310  0.6665  0.2882
  694TMC3    C310260   3.732   2.111  10.864 -0.1498 -0.2866 -0.1877
  694TMC3    C410261   3.878   2.331  10.912  0.1239 -0.5398 -0.1437
  694TMC3    C510262   3.797   2.279  11.011 -0.0212 -0.2951 -0.8437
  694TMC3    C610263   3.710   2.173  10.984  0.3279 -0.5052  0.0396
  694TMC3     C10264   4.030   2.267  10.734  0.4300  0.5936 -0.2637
  694TMC3     O10265   4.077   2.160  10.696  0.1474 -0.1368  0.2137
  694TMC3     H10266   3.869   2.092  10.683  1.5562  1.1737  0.7831
  694TMC3    H110267   3.955   2.402  10.939  0.3239 -2.5128  4.4135
  694TMC3    H210268   3.642   2.133  11.058 -1.2675  1.3318 -0.4142
  694TMC3    C710269   3.809   2.333  11.146 -0.5508  0.5944  0.0260
  694TMC3    C810270   3.635   2.005  10.840 -0.4820  0.1635  0.3470
  694TMC3    O110271   3.862   2.442  11.147 -0.4216  0.0744 -0.2829
  694TMC3    O210272   3.555   1.980  10.926  0.7942  0.3021 -0.0398
  695MPD2     C10273   0.733   4.253  13.708 -0.2727  0.2451 -0.5926
  695MPD2    C110274   0.709   4.354  13.801  0.3369  0.0331 -0.1797
  695MPD2    C210275   0.579   4.411  13.805  0.5106 -0.6961  0.3906
  695MPD2    C310276   0.479   4.352  13.733  0.6932  0.4539  0.1091
  695MPD2    C410277   0.500   4.254  13.642 -0.0235  0.2832  0.9421
  695MPD2    C510278   0.629   4.206  13.632  0.8928  0.0563 -0.2269
  695MPD2     H10279   0.546   4.478  13.883 -1.1599 -1.6263  0.4857
  695MPD2    H110280   0.420   4.219  13.577  1.1766 -0.1809 -0.2790
  695MPD2    H210281   0.828   4.200  13.699 -0.8877 -0.8713 -0.5754
  695MPD2    H310282   0.644   4.132  13.555 -0.4908 -0.9625  0.4793
  695MPD2     N10283   0.356   4.421  13.756  0.6325 -0.3016 -0.2278
  695MPD2    H510284   0.346   4.496  13.824  1.3754 -0.8847  0.5241
  695MPD2    N110285   0.818   4.420  13.869 -0.3020  0.2594 -0.0862
  695MPD2    H710286   0.802   4.512  13.909  0.4905  1.2134 -1.9967
  696TMC3    C110287   0.153   4.507  13.707  0.3686 -0.0744  0.3661
  696TMC3    C210288   0.129   4.515  13.843  0.3401  0.1151  0.1768
  696TMC3    C310289   0.060   4.623  13.885 -0.1040  0.5246 -0.6385
  696TMC3    C410290   0.106   4.598  13.619  0.1012  0.2971  0.5426
  696TMC3    C510291   0.051   4.713  13.669  0.1615 -0.6350 -0.0836
  696TMC3    C610292   0.026   0.001  13.802 -0.9244  0.0212 -0.5248
  696TMC3     C10293   0.256   4.411  13.667 -0.3265 -0.1118 -0.3637
  696TMC3     O10294   0.253   4.381  13.548 -0.2629  0.6691  0.5021
  696TMC3     H10295   0.173   4.455  13.921  3.5697  1.4766 -0.5986
  696TMC3    H110296   0.095   4.586  13.512 -0.4364  2.3535  0.3610
  696TMC3    H210297   0.004   0.100  13.842  0.5329  0.2449 -0.2817
  696TMC3    C710298   0.074   0.111  13.589 -0.5943 -0.4449 -0.0047
  696TMC3    C810299   0.086   4.674  14.023  0.5605  0.1847  0.0400
  696TMC3    O110300   0.060   0.095  13.470  0.3309  0.2206 -0.1230
  696TMC3    O210301   0.196   4.661  14.068 -0.3102  0.0894  0.3294
  697MPD2     C10302   0.003   1.652  16.018  1.1289 -0.0546  0.2765
  697MPD2    C110303   4.689   1.632  15.887  0.3578  0.3838 -0.3265
  697MPD2    C210304   4.693   1.742  15.801 -0.6048  0.5602  0.7899
  697MPD2    C310305   0.029   1.859  15.842  0.0542  0.1591 -0.3617
  697MPD2    C410306   0.072   1.876  15.976  0.2410  0.6614 -0.0608
  697MPD2    C510307   0.059   1.769  16.058  0.2089 -0.1913 -0.0809
  697MPD2     H10308   4.664   1.732  15.697 -0.3074  1.3324  0.6297
  697MPD2    H110309   0.121   1.964  16.018 -0.4374  0.4653  1.1279
  697MPD2    H210310   0.006   1.567  16.086  2.3913  0.6492  1.1099
  697MPD2    H310311   0.090   1.775  16.162 -1.5895 -0.3523  0.4697
  697MPD2     N10312   0.035   1.970  15.748  0.4758  0.1077  0.1689
  697MPD2    H510313   4.697   1.969  15.667  2.8681  0.7032 -1.6227
  697MPD2    N110314   4.644   1.504  15.839 -0.2310 -0.2789 -0.3545
  697MPD2    H710315   4.628   1.505  15.739  1.6986  2.2107 -0.6215
  698TMC3    C110316   0.087   2.192  15.668 -0.9573  0.4923 -0.0128
  698TMC3    C210317   0.155   2.313  15.688  0.1751 -0.9236 -0.4359
  698TMC3    C310318   0.157   2.404  15.587 -0.1425 -0.1460 -0.6965
  698TMC3    C410319   0.025   2.168  15.549 -1.0189 -0.1334 -0.3002
  698TMC3    C510320   0.028   2.266  15.453 -0.0153 -0.2687  0.1943
  698TMC3    C610321   0.091   2.389  15.468  0.0494 -0.5331  0.9340
  698TMC3     C10322   0.104   2.088  15.770 -0.3286  0.2053  0.0980
  698TMC3     O10323   0.182   2.115  15.856 -0.0685 -0.5443  0.0383
  698TMC3     H10324   0.216   2.332  15.776  0.5290 -0.5290 -0.7649
  698TMC3    H110325   4.719   2.067  15.519  0.7372 -0.5218 -0.6351
  698TMC3    H210326   0.092   2.463  15.389  0.8852 -0.5999  0.8822
  698TMC3    C710327   4.669   2.252  15.329  0.0490 -0.1645  0.4013
  698TMC3    C810328   0.231   2.531  15.612 -0.2015  0.3646 -0.1380
  698TMC3    O110329   4.696   2.328  15.235  0.2600 -0.1043 -0.3822
  698TMC3    O210330   0.235   2.570  15.728  0.3329  0.8038 -0.9497
  699TMC3    C110331   0.513   4.373  12.957 -0.2912  0.0747 -0.3017
  699TMC3    C210332   0.560   4.319  13.075  0.1919 -0.8011  0.6856
  699TMC3    C310333   0.574   4.183  13.083  0.1128  0.6110 -0.7010
  699TMC3    C410334   0.458   4.295  12.861 -1.0900 -0.6196  0.2399
  699TMC3    C510335   0.451   4.163  12.881  0.0571 -0.1985  0.6629
  699TMC3    C610336   0.514   4.103  12.986 -0.5082  0.4185 -0.0071
  699TMC3     C10337   0.476   4.510  12.947 -0.1457 -0.0587  0.5953
  699TMC3     O10338   0.458   4.548  12.831  0.1505 -0.0062  0.6768
  699TMC3     H10339   0.606   4.379  13.152  0.9131  0.5289 -0.7986
  699TMC3    H110340   0.411   4.337  12.773  0.5335  0.0717 -0.2961
  699TMC3    H210341   0.499   3.996  13.000  0.4717  0.5515  2.0255
  699TMC3    C710342   0.333   4.105  12.822 -0.2136  0.2978  0.7124
  699TMC3    C810343   0.580   4.114  13.210  0.8357 -0.3226  0.5561
  699TMC3    O110344   0.244   4.185  12.807  0.3550  0.0350 -0.1779
  699TMC3    O210345   0.511   4.156  13.300 -0.2219 -0.5176  0.3872
  700TMC3    C110346   4.238   1.502  17.226 -0.6480  0.5409  0.7493
  700TMC3    C210347   4.300   1.387  17.205 -0.1744  0.9136  0.4101
  700TMC3    C310348   4.338   1.305  17.309  0.2071 -0.2268 -0.3764
  700TMC3    C410349   4.226   1.540  17.354 -0.2616 -0.4533 -0.5274
  700TMC3    C510350   4.262   1.456  17.458  0.6625 -0.5127 -0.1273
  700TMC3    C610351   4.321   1.339  17.437  0.1206  1.2932  0.6542
  700TMC3     C10352   4.209   1.593  17.113 -0.6127 -0.8330  0.4302
  700TMC3     O10353   4.196   1.552  17.000  0.4128 -0.1799  0.7358
  700TMC3     H10354   4.302   1.359  17.101  0.3996  0.3097  0.5861
  700TMC3    H110355   4.183   1.638  17.373  0.9775  0.0734 -0.4186
  700TMC3    H210356   4.352   1.279  17.522 -0.0655  0.0131 -0.1865
  700TMC3    C710357   4.271   1.526  17.587  0.8512 -0.2498  0.0018
  700TMC3    C810358   4.369   1.167  17.290 -0.1889  0.7126 -0.1333
  700TMC3    O110359   4.188   1.608  17.621  0.1708  0.1841  0.4321
  700TMC3    O210360   4.343   1.087  17.376 -0.2703  0.9828 -0.6546
  701TMC3    C110361   3.960   1.009  15.882 -0.1749  0.0020 -0.5710
  701TMC3    C210362   3.994   0.979  15.750  0.7818  0.1984  0.1310
  701TMC3    C310363   4.082   1.067  15.688  0.3339 -0.0691  0.0292
  701TMC3    C410364   4.018   1.105  15.955 -0.3930  0.1848  0.4364
  701TMC3    C510365   4.099   1.191  15.881  0.1100 -0.3276  0.1526
  701TMC3    C610366   4.143   1.167  15.754 -0.1080  0.7466 -0.3012
  701TMC3     C10367   3.840   0.956  15.934  0.0757 -0.3945  0.0106
  701TMC3     O10368   3.825   0.952  16.056  0.0717 -0.1175 -0.6734
  701TMC3     H10369   3.963   0.888  15.700  0.9739  0.7520 -1.0091
  701TMC3    H110370   3.971   1.130  16.049  1.0735  0.0084  1.2270
  701TMC3    H210371   4.228   1.220  15.712  1.2694 -1.7118 -0.6096
  701TMC3    C710372   4.144   1.317  15.941 -0.0672 -0.4221 -0.1194
  701TMC3    C810373   4.125   1.021  15.556  0.0305 -0.2787 -0.3305
  701TMC3    O110374   4.167   1.400  15.854 -0.5039 -0.5402  0.5904
  701TMC3    O210375   4.238   1.040  15.516  0.6941 -0.4829 -0.3690
  702MPD2     C10376   3.013   2.376  10.760 -0.2138  0.4276 -0.4294
  702MPD2    C110377   3.066   2.484  10.829  0.9120  0.6059 -0.1343
  702MPD2    C210378   3.147   2.571  10.759  0.2017  0.9361 -0.2099
  702MPD2    C310379   3.162   2.562  10.620  0.6099 -0.3270 -0.1849
  702MPD2    C410380   3.085   2.475  10.553 -0.6221 -0.1511  0.2472
  702MPD2    C510381   3.027   2.376  10.624  0.0263  0.5317  0.2518
  702MPD2     H10382   3.202   2.645  10.816  1.0736  0.8367 -0.9162
  702MPD2    H110383   3.089   2.458  10.446 -1.4247  0.4939  0.1188
  702MPD2    H210384   2.962   2.294  10.811 -0.5257  0.8290 -0.0958
  702MPD2    H310385   2.987   2.289  10.572 -0.3307  0.4533  0.6539
  702MPD2     N10386   3.249   2.645  10.537  0.1950  0.1491 -0.4681
  702MPD2    H510387   3.231   2.647  10.437  0.6366 -1.1385 -0.5844
  702MPD2    N110388   3.056   2.507  10.970 -0.1406  0.2760 -0.4961
  702MPD2    H710389   3.108   2.590  10.997  1.2601 -1.4132  1.9805
  703TMC3    C110390   3.407   2.803  10.479  0.6659  0.3303  0.5581
  703TMC3    C210391   3.330   2.860  10.385  0.4934 -0.3839  0.9674
  703TMC3    C310392   3.398   2.944  10.301  0.9494  0.1828  0.4757
  703TMC3    C410393   3.540   2.818  10.485  0.2718 -0.2475 -0.9115
  703TMC3    C510394   3.601   2.894  10.395 -0.1930 -0.0935 -0.1079
  703TMC3    C610395   3.532   2.959  10.296 -0.3134  0.3742 -0.0824
  703TMC3     C10396   3.350   2.722  10.588 -0.5688  0.4919 -0.7989
  703TMC3     O10397   3.391   2.733  10.701  0.1974  0.4421  0.0670
  703TMC3     H10398   3.226   2.831  10.373 -0.0429  1.8241  0.2809
  703TMC3    H110399   3.587   2.751  10.557 -0.5976 -1.8397 -1.8055
  703TMC3    H210400   3.575   3.031  10.228  0.2205  1.4750  1.4349
  703TMC3    C710401   3.720   2.955  10.440  0.0257  0.1254 -0.1102
  703TMC3    C810402   3.332   3.069  10.264 -0.3597 -0.4937 -0.3444
  703TMC3    O110403   3.717   3.074  10.419 -0.3613  0.3898 -0.2835
  703TMC3    O210404   3.379   3.137  10.176 -0.4919  0.1895  0.2639
  704TMC3    C110405   1.429   1.992  12.098  0.8108 -0.0663 -0.4222
  704TMC3    C210406   1.518   2.027  11.996  0.0642  0.8774 -0.3946
  704TMC3    C310407   1.629   1.947  11.971  0.2903 -0.4664 -0.0891
  704TMC3    C410408   1.460   1.886  12.181 -0.1752 -0.0775 -0.2973
  704TMC3    C510409   1.585   1.821  12.161 -0.0516  0.3974 -0.1258
  704TMC3    C610410   1.672   1.853  12.061 -0.0512 -0.4968  0.2552
  704TMC3     C10411   1.291   2.029  12.093  0.0157 -0.5069 -0.4956
  704TMC3     O10412   1.219   1.976  12.179  0.4038  0.0682 -0.2484
  704TMC3     H10413   1.500   2.111  11.929 -2.1062 -1.6000 -2.8930
  704TMC3    H110414   1.379   1.841  12.238 -0.2817  1.0965  0.4650
  704TMC3    H210415   1.761   1.793  12.044 -0.2009 -0.7535  0.3864
  704TMC3    C710416   1.589   1.685  12.210 -0.5165  0.3787 -0.3698
  704TMC3    C810417   1.616   1.893  11.834  0.0653  0.2186 -0.5890
  704TMC3    O110418   1.477   1.626  12.204 -0.0219  0.1395 -0.4035
  704TMC3    O210419   1.503   1.908  11.792 -0.7057  0.7815  0.1739
  705MPD2     C10420   0.679   4.260  16.760 -0.3650  0.3126 -0.0629
  705MPD2    C110421   0.651   4.334  16.647 -0.2349  0.2466  0.0936
  705MPD2    C210422   0.551   4.434  16.655 -0.2904  0.0200 -0.7204
  705MPD2    C310423   0.473   4.454  16.768 -0.1819 -0.4722 -0.5890
  705MPD2    C410424   0.509   4.389  16.879  0.4621 -0.0131 -0.0680
  705MPD2    C510425   0.617   4.302  16.880  0.3668  0.0198 -0.4444
  705MPD2     H10426   0.529   4.488  16.563  0.0148  0.1019 -0.7454
  705MPD2    H110427   0.464   4.405  16.977  1.1967  4.1607 -0.3883
  705MPD2    H210428   0.758   4.186  16.765 -1.7984 -1.2275 -0.0224
  705MPD2    H310429   0.635   4.257  16.977  2.0463  0.0930 -0.7325
  705MPD2     N10430   0.371   4.549  16.757 -0.1761 -0.4055 -0.2474
  705MPD2    H510431   0.336   4.576  16.666 -1.8697 -1.3093  0.1386
  705MPD2    N110432   0.716   4.320  16.527 -0.2343 -0.1666  0.1600
  705MPD2    H710433   0.684   4.370  16.445  1.5835  2.2298  0.9268
  706TMC3    C110434   0.805   4.128  16.170  0.8161  0.3228 -0.5081
  706TMC3    C210435   0.796   4.245  16.098 -0.6821  0.0020 -0.5634
  706TMC3    C310436   0.827   4.357  16.168  0.0755 -0.4730 -0.1867
  706TMC3    C410437   0.825   4.124  16.305  0.0819  0.5280 -0.3183
  706TMC3    C510438   0.853   4.240  16.365  0.1690  0.2990  0.7177
  706TMC3    C610439   0.851   4.359  16.301  0.5009  0.1421  0.1966
  706TMC3     C10440   0.882   4.017  16.113  0.6264  0.2434 -0.2036
  706TMC3     O10441   0.958   3.955  16.188 -0.1774 -0.0066 -0.0184
  706TMC3     H10442   0.821   4.248  15.993 -0.6022  0.3441 -0.5343
  706TMC3    H110443   0.840   4.033  16.362 -0.4995  0.0868 -0.8676
  706TMC3    H210444   0.872   4.449  16.358 -0.3492  0.1810  0.4473
  706TMC3    C710445   0.813   4.232  16.499  0.3478 -0.1173 -0.1653
  706TMC3    C810446   0.841   4.478  16.089 -1.2716 -0.0760  0.1160
  706TMC3    O110447   0.863   4.147  16.571  0.7776 -0.2419  0.3880
  706TMC3    O210448   0.785   4.477  15.983 -0.0154 -0.1807 -0.1150
  707TMC3    C110449   4.033   1.609   1.795 -0.3532  0.2145 -0.2970
  707TMC3    C210450   4.167   1.635   1.804 -0.1985  0.2504  0.9779
  707TMC3    C310451   4.243   1.543   1.874 -0.5057 -0.5709  0.3799
  707TMC3    C410452   3.964   1.512   1.860  0.3709  0.0521 -0.3238
  707TMC3    C510453   4.041   1.416   1.928 -0.4360  0.5378  0.1961
  707TMC3    C610454   4.179   1.429   1.935 -0.2825  0.1573 -0.5600
  707TMC3     C10455   3.956   1.726   1.757  0.7581  0.4767  0.2961
  707TMC3     O10456   3.999   1.831   1.794 -0.0210  0.2932 -0.3632
  707TMC3     H10457   4.210   1.715   1.746 -2.3257  0.3687 -0.4616
  707TMC3    H110458   3.856   1.515   1.866  0.4491  0.6924  0.8251
  707TMC3    H210459   4.238   1.357   1.991  0.3625  0.9012 -0.2743
  707TMC3    C710460   3.970   1.356   2.036 -0.5479  0.5438  0.2287
  707TMC3    C810461   4.383   1.550   1.878 -0.8192 -0.2436 -0.1523
  707TMC3    O110462   3.851   1.333   2.014 -0.4647  0.1434 -0.9288
  707TMC3    O210463   4.443   1.444   1.901 -0.4012  0.5541 -0.2543
  708MPD2     C10464   4.059   3.117  13.935 -0.4426  0.1279 -0.2835
  708MPD2    C110465   3.982   3.110  14.046  0.3732 -0.2381 -0.4892
  708MPD2    C210466   4.032   3.025  14.149  0.4652  0.0971  0.5156
  708MPD2    C310467   4.154   2.957  14.147  0.4216  0.0853 -0.4508
  708MPD2    C410468   4.229   2.973  14.035 -0.0410 -0.0992  0.2618
  708MPD2    C510469   4.179   3.048  13.928  0.4217  0.1161 -0.2008
  708MPD2     H10470   3.969   3.005  14.235  0.2872  0.2082  0.4109
  708MPD2    H110471   4.325   2.927  14.016 -0.8777 -1.7290 -0.0213
  708MPD2    H210472   4.005   3.142  13.844  1.6766  1.2957 -1.2473
  708MPD2    H310473   4.234   3.053  13.835  0.2948 -0.7776 -0.3245
  708MPD2     N10474   4.209   2.867  14.243  0.2481  0.1444 -0.4708
  708MPD2    H510475   4.305   2.841  14.221 -0.8191 -1.2650 -3.4551
  708MPD2    N110476   3.855   3.169  14.054 -0.2963  0.2861 -0.0425
  708MPD2    H710477   3.816   3.197  13.964 -1.1921  1.4034  0.6970
  709TMC3    C110478   3.638   3.212  14.154  0.4596  0.4066  0.5672
  709TMC3    C210479   3.582   3.141  14.051 -0.0696  0.0569 -0.1106
  709TMC3    C310480   3.453   3.092  14.063 -0.0779  0.7235  0.0953
  709TMC3    C410481   3.573   3.227  14.270  0.0049  0.4548  0.3011
  709TMC3    C510482   3.454   3.159  14.287 -0.3964 -0.0826 -0.0163
  709TMC3    C610483   3.394   3.093  14.186  0.1213  0.2965  0.1358
  709TMC3     C10484   3.779   3.189  14.171  0.0454 -0.5906 -0.9842
  709TMC3     O10485   3.810   3.157  14.283  0.4318  0.4253  0.3695
  709TMC3     H10486   3.639   3.116  13.962  0.7742 -2.3324  1.1132
  709TMC3    H110487   3.622   3.271  14.357 -1.1878  0.6698  0.8648
  709TMC3    H210488   3.300   3.041  14.202 -0.8735  2.3893  1.0279
  709TMC3    C710489   3.447   3.096  14.415 -0.1643  0.0468 -0.2794
  709TMC3    C810490   3.409   2.985  13.978 -0.8851  0.8933 -0.8089
  709TMC3    O110491   3.336   3.061  14.464  0.5706  0.8521  0.3633
  709TMC3    O210492   3.335   2.899  14.028 -0.3813 -0.1712 -0.6113
  710TMC3    C110493   0.146   4.051   1.147  0.5413  0.6702  0.1042
  710TMC3    C210494   0.121   4.099   1.025 -0.4723 -0.2313 -0.8394
  710TMC3    C310495   0.124   4.008   0.923 -0.2989 -0.0091 -0.1929
  710TMC3    C410496   0.181   3.924   1.169  0.3444  0.1279  0.1441
  710TMC3    C510497   0.179   3.830   1.074 -0.0832 -0.1652  0.4660
  710TMC3    C610498   0.148   3.874   0.946  0.0886 -0.3686 -0.4506
  710TMC3     C10499   0.179   4.135   1.259 -0.0349 -0.7302  0.1560
  710TMC3     O10500   0.275   4.100   1.329  0.8323 -0.2651 -0.2986
  710TMC3     H10501   0.110   4.207   1.024  0.6955 -0.0940  0.5889
  710TMC3    H110502   0.188   3.895   1.273 -1.3902 -1.7161 -0.2473
  710TMC3    H210503   0.150   3.798   0.869 -0.3659 -0.4509 -0.3783
  710TMC3    C710504   0.270   3.723   1.100 -1.1042  0.1573 -0.4211
  710TMC3    C810505   0.167   4.043   0.786 -0.2938  1.0041 -0.1282
  710TMC3    O110506   0.289   3.698   1.216 -0.5398 -0.2732 -0.0200
  710TMC3    O210507   0.185   3.955   0.699  0.0371 -0.5676 -0.3631
  711TMC3    C110508   4.282   0.562  15.229  0.2036  0.1543  0.6939
  711TMC3    C210509   4.328   0.650  15.323 -0.2811 -0.3679  0.0227
  711TMC3    C310510   4.452   0.703  15.319  0.0967  0.1637 -0.6545
  711TMC3    C410511   4.373   0.504  15.145  0.7599  0.1231  0.3976
  711TMC3    C510512   4.500   0.550  15.141  0.5856 -0.1663 -0.5636
  711TMC3    C610513   4.538   0.659  15.220  0.3352 -0.4223  0.0687
  711TMC3     C10514   4.159   0.483  15.271  0.0772  0.3602 -0.2181
  711TMC3     O10515   4.157   0.364  15.243 -0.5452  0.2021  0.6472
  711TMC3     H10516   4.267   0.681  15.407 -3.2487  1.9049 -3.0326
  711TMC3    H110517   4.340   0.432  15.070  0.6952 -0.8306  1.3293
  711TMC3    H210518   4.636   0.705  15.224  0.9866 -1.6119 -2.0477
  711TMC3    C710519   4.608   0.448  15.161  0.4982 -0.3596  0.5661
  711TMC3    C810520   4.517   0.717  15.446  0.2200 -0.2748 -0.1387
  711TMC3    O110521   4.690   0.476  15.249  0.6369  0.9190 -0.2301
  711TMC3    O210522   4.456   0.775  15.529  0.2902 -0.3314 -0.5928
  712MPD2     C10523   1.247   1.384  14.283 -0.2193  0.0163  0.2620
  712MPD2    C110524   1.136   1.421  14.206 -0.4902  0.3466 -0.0907
  712MPD2    C210525   1.115   1.556  14.187  0.1726  0.3813 -0.5244
  712MPD2    C310526   1.212   1.650  14.213 -1.2205 -0.2278  0.1584
  712MPD2    C410527   1.336   1.607  14.273 -0.3033 -0.7263  0.1242
  712MPD2    C510528   1.347   1.479  14.317 -0.1052 -0.7660  0.4135
  712MPD2     H10529   1.030   1.590  14.129 -1.0245 -0.3022  0.8198
  712MPD2    H110530   1.420   1.674  14.287 -1.0986  0.4475 -0.6394
  712MPD2    H210531   1.260   1.287  14.329 -1.3103 -0.4580 -0.4329
  712MPD2    H310532   1.433   1.431  14.363 -0.6370 -0.6596  1.4939
  712MPD2     N10533   1.215   1.779  14.163  0.0973 -0.2274 -0.1136
  712MPD2    H510534   1.309   1.816  14.164 -0.2977  0.8246 -1.6628
  712MPD2    N110535   1.038   1.332  14.155  0.2470 -0.0878 -0.5015
  712MPD2    H710536   0.959   1.379  14.112  1.4334  1.2559 -1.2161
  713TMC3    C110537   1.160   1.972  14.059  0.5551 -0.4383 -0.1309
  713TMC3    C210538   1.268   2.037  14.105  0.3384 -0.1909 -0.1567
  713TMC3    C310539   1.306   2.158  14.053 -0.1897  0.0113  0.2763
  713TMC3    C410540   1.088   2.040  13.963 -0.6129 -0.4150 -0.6406
  713TMC3    C510541   1.118   2.164  13.918  0.2122  0.5554  0.5547
  713TMC3    C610542   1.240   2.218  13.950 -0.8328  0.1916 -0.2062
  713TMC3     C10543   1.113   1.849  14.113  0.7419  0.0869 -0.1207
  713TMC3     O10544   0.996   1.821  14.107 -0.4967 -0.4663 -0.0201
  713TMC3     H10545   1.333   1.998  14.182  1.0705  2.4776  0.5652
  713TMC3    H110546   0.999   1.998  13.916 -0.3207 -1.9340  0.1786
  713TMC3    H210547   1.282   2.313  13.920 -1.3269  1.3081  2.6535
  713TMC3    C710548   1.066   2.197  13.788 -0.1788 -0.2180  0.1336
  713TMC3    C810549   1.449   2.191  14.074  0.1733 -0.3330  0.2266
  713TMC3    O110550   1.056   2.109  13.708 -0.1510 -0.4828  0.2277
  713TMC3    O210551   1.504   2.235  13.976 -0.4588  0.0357  0.3885
  714MPD2     C10552   2.816   0.179   1.598 -0.4262  1.0122  0.5545
  714MPD2    C110553   2.902   0.137   1.503 -0.1057  0.4155 -0.1970
  714MPD2    C210554   2.856   0.150   1.376 -1.0540  0.3399 -0.2649
  714MPD2    C310555   2.732   0.211   1.344  0.3182  0.2075  0.2572
  714MPD2    C410556   2.652   0.264   1.451 -0.2667 -0.0824 -0.7147
  714MPD2    C510557   2.693   0.243   1.580 -0.5440 -0.1452  0.4057
  714MPD2     H10558   2.919   0.123   1.293 -1.4147  1.7378 -0.9939
  714MPD2    H110559   2.560   0.319   1.432  1.0198  2.6598  1.0734
  714MPD2    H210560   2.852   0.175   1.701  1.1606  1.3827  0.0215
  714MPD2    H310561   2.639   0.277   1.668 -0.0122  1.5971  0.0684
  714MPD2     N10562   2.703   0.221   1.203 -0.3994  0.7326 -0.3990
  714MPD2    H510563   2.769   0.182   1.136  0.0645  0.6789  0.0889
  714MPD2    N110564   3.027   0.089   1.534  0.2155  0.0769  0.1663
  714MPD2    H710565   3.051   0.083   1.633 -1.6952  1.7005  0.7380
  715TMC3    C110566   3.242   0.003   1.527  0.2157  0.4143 -0.6941
  715TMC3    C210567   3.330   4.629   1.485 -0.1892 -0.0981 -0.5613
  715TMC3    C310568   3.441   4.609   1.564 -0.8269 -1.2542 -0.0143
  715TMC3    C410569   3.279   0.091   1.628  0.3756  0.3373 -0.4928
  715TMC3    C510570   3.396   0.076   1.692  0.2772  0.2431  0.0975
  715TMC3    C610571   3.475   4.690   1.672 -0.1569 -0.2408 -0.5605
  715TMC3     C10572   3.119   0.034   1.448  0.3978  0.4925  0.3784
  715TMC3     O10573   3.113   4.708   1.337 -0.3180  0.7167  0.1292
  715TMC3     H10574   3.297   4.573   1.398  1.0208 -0.9372 -0.4709
  715TMC3    H110575   3.214   0.174   1.655 -2.6581 -2.1642 -0.1708
  715TMC3    H210576   3.572   4.684   1.720 -0.1646 -4.5182 -1.0854
  715TMC3    C710577   3.447   0.170   1.797  0.2738 -0.3186  0.4710
  715TMC3    C810578   3.535   4.515   1.510  0.1517  0.2887  0.3299
  715TMC3    O110579   3.526   0.123   1.877  0.4491  0.8298 -0.8439
  715TMC3    O210580   3.501   4.450   1.416 -0.3946 -0.4163 -0.1652
  716MPD2     C10581   3.418   2.695  10.002  0.8246  0.7943  0.0067
  716MPD2    C110582   3.359   2.642   9.892  0.4938 -0.3064  0.3116
  716MPD2    C210583   3.368   2.505   9.877  0.7126 -0.2095 -0.8140
  716MPD2    C310584   3.435   2.428   9.963 -0.5846 -0.1337 -0.3766
  716MPD2    C410585   3.502   2.483  10.073 -0.5617 -0.1344  0.1312
  716MPD2    C510586   3.492   2.619  10.091  0.1561  0.0678 -0.3942
  716MPD2     H10587   3.323   2.452   9.793  2.2809  0.7728 -2.2736
  716MPD2    H110588   3.561   2.424  10.143 -3.3892 -1.7016  1.2168
  716MPD2    H210589   3.429   2.802  10.012  1.0297  0.8191 -0.4652
  716MPD2    H310590   3.529   2.662  10.183 -0.1368  1.1380 -0.7839
  716MPD2     N10591   3.440   2.289   9.935 -0.6121  0.2124  0.3927
  716MPD2    H510592   3.379   2.252   9.863  0.9444  1.8182 -1.7624
  716MPD2    N110593   3.287   2.725   9.804  0.3479 -0.1829  0.0717
  716MPD2    H710594   3.272   2.821   9.832 -3.0735 -0.8133  0.4655
  717TMC3    C110595   3.451   2.054   9.968  0.3848  0.0693 -0.1148
  717TMC3    C210596   3.361   2.050   9.861  0.5924  0.0966  0.1882
  717TMC3    C310597   3.330   1.927   9.816 -0.5890  0.7158  0.1408
  717TMC3    C410598   3.503   1.939  10.030  0.1466  0.2409 -0.5379
  717TMC3    C510599   3.472   1.822   9.972  0.0305 -0.2961 -0.2324
  717TMC3    C610600   3.391   1.821   9.867  0.1609 -0.1486  0.4949
  717TMC3     C10601   3.496   2.195  10.011 -0.2374  0.0382 -0.6874
  717TMC3     O10602   3.582   2.212  10.099 -0.0856  0.3496  0.6646
  717TMC3     H10603   3.319   2.136   9.809 -0.6951 -1.1958 -0.9103
  717TMC3    H110604   3.571   1.956  10.113 -1.0907 -0.5992  0.6514
  717TMC3    H210605   3.356   1.725   9.830  0.0098  1.0764 -2.4825
  717TMC3    C710606   3.520   1.701  10.038 -0.1424  0.1065 -0.0352
  717TMC3    C810607   3.205   1.923   9.741 -1.4580  0.3955  0.0634
  717TMC3    O110608   3.611   1.716  10.114  0.4095  0.2802 -0.1076
  717TMC3    O210609   3.133   2.022   9.739  0.1786  0.4796 -0.4333
  718MPD2     C10610   2.746   1.338  13.325 -0.6818 -0.5544 -0.4196
  718MPD2    C110611   2.690   1.355  13.200 -0.3503 -0.5930 -0.4838
  718MPD2    C210612   2.618   1.249  13.156 -0.3197  0.5511  0.0415
  718MPD2    C310613   2.598   1.132  13.222 -0.1532 -0.0024 -0.4010
  718MPD2    C410614   2.654   1.117  13.342 -0.1554 -0.2551  0.2959
  718MPD2    C510615   2.730   1.220  13.388 -0.1082  0.0055 -0.1513
  718MPD2     H10616   2.566   1.270  13.063  0.9278 -0.2289 -0.8306
  718MPD2    H110617   2.622   1.036  13.406  0.2732  1.5299  2.7896
  718MPD2    H210618   2.802   1.418  13.371 -2.3423 -0.6900  1.8273
  718MPD2    H310619   2.771   1.209  13.487  1.7365  0.9255 -0.8090
  718MPD2     N10620   2.519   1.028  13.166  0.6159  0.2709 -0.5519
  718MPD2    H510621   2.496   0.950  13.226  1.0671  0.7703  0.2643
  718MPD2    N110622   2.689   1.471  13.123 -0.2773 -0.2114 -0.0824
  718MPD2    H710623   2.640   1.460  13.035 -1.5570 -1.5421  0.7973
  719TMC3    C110624   2.739   1.677  13.031  0.0638 -1.0657 -0.3233
  719TMC3    C210625   2.613   1.650  12.979  0.5023 -0.2081  0.5411
  719TMC3    C310626   2.586   1.652  12.849 -0.1688  0.0136  0.8032
  719TMC3    C410627   2.843   1.704  12.945 -0.0167 -0.5140  0.8550
  719TMC3    C510628   2.808   1.724  12.815  0.2679  0.2698  0.0385
  719TMC3    C610629   2.682   1.697  12.762 -0.3181 -0.2257  0.6468
  719TMC3     C10630   2.768   1.584  13.143  0.0992 -0.2035  0.6713
  719TMC3     O10631   2.840   1.616  13.240 -0.0274  0.2417 -0.4454
  719TMC3     H10632   2.529   1.618  13.040 -0.9455  1.4221 -0.6104
  719TMC3    H110633   2.936   1.734  12.992  0.1478 -1.2260  0.9853
  719TMC3    H210634   2.652   1.713  12.658 -0.3516 -2.6479  0.2808
  719TMC3    C710635   2.904   1.767  12.717  0.4145  0.4362  0.2716
  719TMC3    C810636   2.520   1.529  12.814  0.5206 -0.1609  0.0403
  719TMC3    O110637   2.854   1.811  12.611  0.6424  0.1943 -0.0625
  719TMC3    O210638   2.524   1.445  12.904 -0.5554 -0.0508  0.6221
  720MPD2     C10639   1.185   3.571  14.075  0.2074  0.2810  0.8074
  720MPD2    C110640   1.288   3.604  13.992  0.6526  0.0566  0.6485
  720MPD2    C210641   1.416   3.637  14.046 -0.3038  0.2848  0.9158
  720MPD2    C310642   1.440   3.624  14.178  0.2373 -0.0723  0.2331
  720MPD2    C410643   1.330   3.598  14.259  0.3605  0.6626 -0.2020
  720MPD2    C510644   1.205   3.572  14.207 -0.5292 -0.1677 -0.0298
  720MPD2     H10645   1.496   3.675  13.983 -0.5127  1.5284  1.4020
  720MPD2    H110646   1.335   3.593  14.367  0.3963  1.2733 -0.1759
  720MPD2    H210647   1.082   3.549  14.051 -0.3281  1.3104  2.1834
  720MPD2    H310648   1.125   3.558  14.279 -0.0664 -5.3625 -0.5090
  720MPD2     N10649   1.568   3.650  14.231 -0.4254 -0.2093 -0.5113
  720MPD2    H510650   1.643   3.666  14.164  0.3909 -0.6877  0.2863
  720MPD2    N110651   1.266   3.613  13.858 -0.1254  0.1163  0.0551
  720MPD2    H710652   1.344   3.641  13.800 -1.0492  0.7173 -0.9085
  721TMC3    C110653   1.743   3.639  14.398 -0.3697  0.5399 -0.3072
  721TMC3    C210654   1.778   3.621  14.525 -0.5058 -0.2469  0.8846
  721TMC3    C310655   1.902   3.569  14.550  0.2152  0.2178 -0.7951
  721TMC3    C410656   1.839   3.632  14.300  0.2934 -0.0673 -0.2727
  721TMC3    C510657   1.963   3.589  14.331  0.8274  0.5926 -0.3016
  721TMC3    C610658   2.002   3.556  14.455 -0.4491 -1.0266 -0.2837
  721TMC3     C10659   1.603   3.653  14.364  0.5056 -0.1536 -0.7519
  721TMC3     O10660   1.526   3.661  14.464  0.4121  0.0414  0.0787
  721TMC3     H10661   1.707   3.648  14.602 -0.0961  3.8996 -0.1834
  721TMC3    H110662   1.831   3.670  14.199 -2.3082 -1.1189 -0.4407
  721TMC3    H210663   2.096   3.507  14.478  0.4137  1.8668  2.3440
  721TMC3    C710664   2.064   3.588  14.229  0.3456 -0.0561 -0.0281
  721TMC3    C810665   1.965   3.592  14.677 -0.4950  0.0769 -0.1961
  721TMC3    O110666   2.072   3.682  14.150 -0.2621 -0.2555  0.4973
  721TMC3    O210667   2.085   3.609  14.670 -0.1048  0.0847  0.7300
  722MPD2     C10668   0.471   1.941  13.115  0.5160 -0.6431 -0.1072
  722MPD2    C110669   0.464   2.060  13.048 -0.1236  0.4215  0.1311
  722MPD2    C210670   0.339   2.097  13.002 -0.1640  0.0634 -0.1384
  722MPD2    C310671   0.225   2.021  13.029  0.2766 -0.2218  0.0430
  722MPD2    C410672   0.232   1.914  13.115 -0.1663 -0.0411 -0.1627
  722MPD2    C510673   0.360   1.874  13.155 -0.0253 -0.6763  0.2630
  722MPD2     H10674   0.324   2.186  12.943  0.7196 -0.7941 -1.6368
  722MPD2    H110675   0.143   1.857  13.136 -0.6729  0.6973 -0.3006
  722MPD2    H210676   0.566   1.905  13.154 -0.1410  0.9519  2.9698
  722MPD2    H310677   0.368   1.788  13.220  1.3146 -0.3441  0.5435
  722MPD2     N10678   0.100   2.053  12.972 -0.1186  0.4814  0.2814
  722MPD2    H510679   0.087   2.141  12.923 -1.9532  0.5667  0.9094
  722MPD2    N110680   0.575   2.145  13.000 -0.2258  0.4429 -0.2245
  722MPD2    H710681   0.548   2.226  12.946 -0.5545  0.3725 -0.1638
  723TMC3    C110682   4.584   2.054  12.923 -0.0106  0.8048 -0.4843
  723TMC3    C210683   4.481   1.973  12.885  0.2055 -0.1803 -0.5161
  723TMC3    C310684   4.358   2.034  12.850 -0.2472 -0.2158  0.3625
  723TMC3    C410685   4.574   2.189  12.920 -0.9109  0.9218  0.3348
  723TMC3    C510686   4.456   2.252  12.885 -0.1340 -0.5961  0.4787
  723TMC3    C610687   4.348   2.170  12.846  0.1775  0.1557  0.5643
  723TMC3     C10688   4.700   1.984  12.979  0.3217 -0.3054  0.6294
  723TMC3     O10689   4.675   1.876  13.034  0.7116  0.2620  0.4286
  723TMC3     H10690   4.488   1.867  12.860 -0.6321  0.1804 -2.2991
  723TMC3    H110691   4.650   2.256  12.960  1.0782  0.0836 -2.0488
  723TMC3    H210692   4.252   2.217  12.829 -0.2731  0.0389  2.8366
  723TMC3    C710693   4.423   2.392  12.930  0.0684  1.1234 -0.5146
  723TMC3    C810694   4.240   1.949  12.868  0.5619  0.3693  0.3946
  723TMC3    O110695   4.502   2.453  13.004 -0.9390 -0.1450 -0.0364
  723TMC3    O210696   4.136   2.009  12.850  0.0032  0.1814 -0.2833
  724TMC3    C110697   0.006   4.536   9.743 -0.0616 -0.5091  0.3883
  724TMC3    C210698   4.652   4.651   9.749 -0.4075 -0.1824 -0.1139
  724TMC3    C310699   4.711   0.044   9.709 -0.4203  0.2147  0.3593
  724TMC3    C410700   0.123   4.518   9.672 -0.1997  0.2814 -0.3629
  724TMC3    C510701   0.174   4.641   9.629  0.0840 -0.3542 -0.0113
  724TMC3    C610702   0.113   0.041   9.646 -0.3291  0.0603 -0.1519
  724TMC3     C10703   4.645   4.418   9.779  0.3136 -0.1215  0.4339
  724TMC3     O10704   4.532   4.420   9.730 -0.5445  0.6962 -0.0928
  724TMC3     H10705   4.578   4.653   9.828  0.2245 -0.9342  0.4929
  724TMC3    H110706   0.183   4.430   9.688 -0.9786 -0.0384  0.8541
  724TMC3    H210707   0.145   0.129   9.592  0.1052  0.9074  1.4899
  724TMC3    C710708   0.284   4.636   9.536 -0.1396  0.4829 -0.4065
  724TMC3    C810709   4.639   0.168   9.726 -0.0916 -1.0725  0.0233
  724TMC3    O110710   0.321   0.023   9.498 -0.3811 -0.0352 -0.1713
  724TMC3    O210711   4.518   0.160   9.735  0.3845  0.3718  0.6992
  725TMC3    C110712   1.536   3.899  12.951 -0.1395  0.4725 -0.7336
  725TMC3    C210713   1.480   3.861  12.834 -0.0207  1.1115 -0.0442
  725TMC3    C310714   1.515   3.735  12.782  0.4461  0.1175 -0.2397
  725TMC3    C410715   1.624   3.825  13.020 -0.0484  0.0314  0.1015
  725TMC3    C510716   1.652   3.701  12.974 -0.0696 -0.2742 -0.1418
  725TMC3    C610717   1.601   3.653  12.858  0.0903 -0.0215 -0.2616
  725TMC3     C10718   1.550   4.043  12.961 -0.0513 -0.6739 -0.2683
  725TMC3     O10719   1.532   4.115  12.862  0.1055  0.5749  0.1030
  725TMC3     H10720   1.412   3.927  12.783  0.6118  0.9432 -1.1068
  725TMC3    H110721   1.677   3.862  13.107  0.4924  1.3525 -0.7854
  725TMC3    H210722   1.636   3.555  12.827  2.7593 -0.0907  2.9981
  725TMC3    C710723   1.772   3.628  13.033  0.1293  0.5351  0.7149
  725TMC3    C810724   1.450   3.683  12.659  0.0278  0.3076  0.0941
  725TMC3    O110725   1.833   3.555  12.960  0.3152 -0.0200  0.1145
  725TMC3    O210726   1.449   3.562  12.635 -0.3926 -0.0345 -0.1261
  726MPD2     C10727   4.502   0.918  10.981  0.1117  0.2777 -0.3662
  726MPD2    C110728   4.407   0.931  10.884 -0.1770 -0.1566  0.2510
  726MPD2    C210729   4.345   0.814  10.830 -0.1075 -0.0692  0.2351
  726MPD2    C310730   4.361   0.692  10.897 -0.3063 -0.2091 -0.5420
  726MPD2    C410731   4.457   0.685  10.993  0.7512  0.2282 -0.2621
  726MPD2    C510732   4.526   0.795  11.034  0.8017 -0.5462 -0.4802
  726MPD2     H10733   4.272   0.830  10.752  1.2691  0.6352 -0.9133
  726MPD2    H110734   4.473   0.593  11.047  0.2650  2.1486  3.1059
  726MPD2    H210735   4.550   1.002  11.030 -1.2474 -1.0491  3.1924
  726MPD2    H310736   4.589   0.787  11.122  1.4296 -1.8974 -1.0553
  726MPD2     N10737   4.306   0.568  10.854  0.2521 -0.3121 -0.4291
  726MPD2    H510738   4.340   0.487  10.905 -0.0623  0.7232  1.4178
  726MPD2    N110739   4.382   1.053  10.823 -0.0611 -0.2805 -0.6315
  726MPD2    H710740   4.307   1.052  10.755  0.6440  1.3217 -1.4224
  727TMC3    C110741   4.423   1.273  10.744  0.0722  0.1037 -0.6091
  727TMC3    C210742   4.510   1.379  10.757 -0.6522  0.0315 -0.2151
  727TMC3    C310743   4.535   1.458  10.652 -0.1753  0.1702  0.7886
  727TMC3    C410744   4.385   1.238  10.617  0.2608 -0.2868 -0.2607
  727TMC3    C510745   4.427   1.314  10.510 -0.5745 -0.6837 -0.3454
  727TMC3    C610746   4.501   1.426  10.523 -0.4555 -0.7452  0.5314
  727TMC3     C10747   4.439   1.175  10.853 -0.0847  0.5560 -0.3027
  727TMC3     O10748   4.529   1.198  10.931  0.8000 -0.0212 -0.6582
  727TMC3     H10749   4.553   1.401  10.854 -0.0752 -1.3857 -0.1373
  727TMC3    H110750   4.354   1.137  10.595  1.2042 -0.6639  0.1644
  727TMC3    H210751   4.530   1.487  10.438  1.9719 -1.8006  0.5778
  727TMC3    C710752   4.376   1.288  10.379  0.0425  0.4375 -0.0422
  727TMC3    C810753   4.662   1.535  10.655 -0.1182  0.4119 -0.6946
  727TMC3    O110754   4.423   1.343  10.278  0.3910  0.0309  0.1166
  727TMC3    O210755   0.003   1.544  10.552 -0.4770  0.3471 -0.2428
  728TMC3    C110756   4.308   4.010  15.772 -0.6993  0.4323  0.4511
  728TMC3    C210757   4.323   4.126  15.848 -0.0893 -0.0636 -1.0776
  728TMC3    C310758   4.243   4.229  15.807  0.0145  0.6391 -0.2462
  728TMC3    C410759   4.233   4.011  15.652 -0.0385 -0.7921 -0.3389
  728TMC3    C510760   4.154   4.122  15.627  0.7971  0.3509 -0.1275
  728TMC3    C610761   4.144   4.230  15.713  1.0024  0.3916  0.3574
  728TMC3     C10762   4.266   3.901  15.869 -0.2746 -0.3577  0.4649
  728TMC3     O10763   4.306   3.888  15.984 -0.0720  0.3292 -0.1504
  728TMC3     H10764   4.397   4.136  15.926 -2.8881 -0.1305  1.5781
  728TMC3    H110765   4.227   3.921  15.593 -1.2480 -0.1746 -1.1620
  728TMC3    H210766   4.081   4.317  15.700  0.4655 -0.1558 -0.6928
  728TMC3    C710767   4.016   4.086  15.579  0.4150  0.5802  0.4457
  728TMC3    C810768   4.245   4.339  15.894 -0.1069  0.1898 -0.1140
  728TMC3    O110769   3.994   3.965  15.580 -0.5560  0.5295  0.1112
  728TMC3    O210770   4.287   4.316  16.007 -0.1890 -0.2005 -0.6008
  729MPD2     C10771   1.151   4.541  16.495 -0.5129  0.1236 -0.2745
  729MPD2    C110772   1.162   4.677  16.519  0.0032 -0.1802  0.6783
  729MPD2    C210773   1.089   0.006  16.624  0.3647  0.1073  0.0272
  729MPD2    C310774   1.005   4.657  16.705 -0.4723  0.2825 -0.4594
  729MPD2    C410775   0.998   4.522  16.672  0.3797 -1.0659 -0.0433
  729MPD2    C510776   1.063   4.462  16.569 -0.4993 -0.5231  0.4467
  729MPD2     H10777   1.127   0.105  16.649 -0.4515  0.6266 -0.8153
  729MPD2    H110778   0.965   4.456  16.751 -2.4911 -1.0015 -1.2011
  729MPD2    H210779   1.221   4.503  16.423  1.4769 -0.0268  1.7399
  729MPD2    H310780   1.054   4.354  16.564  0.7162 -0.6377  0.6488
  729MPD2     N10781   0.952   4.700  16.830 -0.2220 -0.1420 -0.1993
  729MPD2    H510782   0.927   4.629  16.898 -0.5291 -1.8648 -2.0903
  729MPD2    N110783   1.266   0.025  16.461  0.1581  0.5543  0.0501
  729MPD2    H710784   1.312   4.694  16.388 -1.6167 -1.4778  0.4030
  730TMC3    C110785   0.980   0.110  17.023 -0.1206 -0.0481 -0.1593
  730TMC3    C210786   1.035   0.013  17.094  0.2029 -0.0491  0.5751
  730TMC3    C310787   1.106   0.047  17.207 -0.1127 -0.3432  0.4552
  730TMC3    C410788   0.988   0.238  17.065 -0.1397  0.1429 -0.4886
  730TMC3    C510789   1.056   0.269  17.183  0.0400  0.2741  0.1983
  730TMC3    C610790   1.122   0.174  17.257 -0.3409  0.6535 -0.8314
  730TMC3     C10791   0.970   0.104  16.880 -0.0314  0.0995 -0.6985
  730TMC3     O10792   0.979   0.209  16.819  0.2597  0.0034  0.0682
  730TMC3     H10793   1.029   4.631  17.063 -0.3190  0.9171 -2.5240
  730TMC3    H110794   0.935   0.320  17.020 -2.7771 -1.3977 -0.2201
  730TMC3    H210795   1.174   0.191  17.350  0.7600  0.3551 -1.3797
  730TMC3    C710796   1.095   0.407  17.194 -0.1826 -0.6526  0.1231
  730TMC3    C810797   1.210   4.680  17.258 -0.1839 -0.4280  0.0581
  730TMC3    O110798   1.078   0.486  17.098 -0.4215 -0.3015 -0.2151
  730TMC3    O210799   1.208   4.673  17.379  0.5925  0.0268  0.6623
  731MPD2     C10800   2.097   3.243  12.127  0.4331  0.1261 -0.3880
  731MPD2    C110801   2.050   3.276  12.251  0.7195 -0.7070  1.0033
  731MPD2    C210802   2.049   3.175  12.347  0.3504 -0.4063  0.0349
  731MPD2    C310803   2.125   3.060  12.334  0.2913 -0.1789 -0.1428
  731MPD2    C410804   2.177   3.033  12.207  0.1578 -0.4275 -0.1544
  731MPD2    C510805   2.164   3.124  12.112 -0.3978  0.6010  0.4742
  731MPD2     H10806   2.000   3.191  12.442 -0.8439  0.5572 -0.7568
  731MPD2    H110807   2.238   2.946  12.186  2.6730  1.5454 -1.1775
  731MPD2    H210808   2.101   3.312  12.044  0.0515  0.8819  0.2202
  731MPD2    H310809   2.213   3.110  12.016 -1.4068  2.0463 -0.2653
  731MPD2     N10810   2.122   2.962  12.436  0.1901  0.2029 -0.1811
  731MPD2    H510811   2.067   2.981  12.519 -0.1224 -1.2002 -0.0666
  731MPD2    N110812   1.976   3.395  12.264 -0.3209 -0.4404 -0.4363
  731MPD2    H710813   1.979   3.455  12.182 -0.4450  0.4044  0.1810
  732TMC3    C110814   1.867   3.575  12.372  0.2775 -0.0804  0.2466
  732TMC3    C210815   1.803   3.609  12.255  0.4490 -0.4992 -0.2341
  732TMC3    C310816   1.736   3.730  12.252 -0.4234  0.9799 -0.2074
  732TMC3    C410817   1.864   3.640  12.492  0.2752 -0.8218 -0.7057
  732TMC3    C510818   1.817   3.771  12.473  0.4205  0.3367 -0.3520
  732TMC3    C610819   1.764   3.816  12.350  0.4603  0.0812 -0.2513
  732TMC3     C10820   1.920   3.445  12.381  0.3942 -0.0428 -0.3330
  732TMC3     O10821   1.934   3.398  12.494 -0.6151  0.2052  0.7756
  732TMC3     H10822   1.797   3.544  12.168  0.4058  1.5375 -1.7745
  732TMC3    H110823   1.909   3.612  12.587 -0.6404 -0.9244 -0.2996
  732TMC3    H210824   1.727   3.917  12.339 -1.6475 -0.6524  0.2138
  732TMC3    C710825   1.837   3.863  12.582 -0.4604 -0.2895  0.2223
  732TMC3    C810826   1.676   3.782  12.126 -0.7069  0.2526 -0.3095
  732TMC3    O110827   1.752   3.947  12.606  0.8058 -0.1862  0.1557
  732TMC3    O210828   1.687   3.900  12.104 -0.2924 -0.9918  0.2852
  733TMC3    C110829   2.174   0.847  12.990 -0.2418  0.2369  0.6606
  733TMC3    C210830   2.293   0.873  13.055 -0.0332  0.1568  0.1607
  733TMC3    C310831   2.406   0.907  12.983  0.0239 -0.3405 -0.3680
  733TMC3    C410832   2.169   0.837  12.852  0.0612 -0.3369 -0.3323
  733TMC3    C510833   2.285   0.870  12.784 -0.7094 -0.8445 -0.2080
  733TMC3    C610834   2.397   0.899  12.847 -0.3011 -0.2167  0.5818
  733TMC3     C10835   2.045   0.841  13.060  0.4180 -0.2167 -0.5900
  733TMC3     O10836   1.946   0.848  12.988  0.4840  0.5153 -0.0419
  733TMC3     H10837   2.299   0.869  13.164 -3.1131  0.1486  0.3324
  733TMC3    H110838   2.074   0.826  12.801  1.6585 -0.9336 -3.1696
  733TMC3    H210839   2.489   0.910  12.791 -0.8265  2.0289  0.1582
  733TMC3    C710840   2.244   0.969  12.689  0.5023 -0.0465  0.7724
  733TMC3    C810841   2.489   1.022  13.026  0.2796 -0.1395 -0.1616
  733TMC3    O110842   2.145   0.964  12.621  0.1330  0.4784  0.0588
  733TMC3    O210843   2.526   1.095  12.933 -0.6824 -0.4322  0.6104
  734MPD2     C10844   3.991   3.485  12.416 -0.1842 -0.1390 -0.4297
  734MPD2    C110845   4.051   3.406  12.320  0.1836 -0.0233  0.1183
  734MPD2    C210846   4.145   3.468  12.235 -0.1673 -0.0375 -0.2602
  734MPD2    C310847   4.167   3.600  12.247  0.5038 -0.4185 -0.1807
  734MPD2    C410848   4.104   3.688  12.335 -0.4099 -0.1837 -0.3752
  734MPD2    C510849   4.013   3.628  12.422  0.3527  0.7674 -0.4845
  734MPD2     H10850   4.193   3.412  12.155 -1.6843  0.2926 -1.3974
  734MPD2    H110851   4.130   3.792  12.352 -1.5288 -0.2732  1.9564
  734MPD2    H210852   3.915   3.443  12.481  0.8070 -1.2748  0.0003
  734MPD2    H310853   3.971   3.702  12.489 -0.6187 -0.3064  0.0880
  734MPD2     N10854   4.256   3.654  12.152 -0.0958 -1.0745  0.6501
  734MPD2    H510855   4.280   3.586  12.080 -0.1696  1.7107 -2.0262
  734MPD2    N110856   4.016   3.269  12.301  0.3813 -0.1254  0.1261
  734MPD2    H710857   3.934   3.235  12.350 -0.8084 -0.0347 -1.7907
  735TMC3    C110858   4.041   3.042  12.218 -0.7077 -0.4797 -0.2295
  735TMC3    C210859   3.942   3.035  12.126 -0.3110 -0.5590  0.4763
  735TMC3    C310860   3.956   2.962  12.009  0.5486  0.0008 -0.4376
  735TMC3    C410861   4.146   2.953  12.215  0.1649  0.2779 -0.3897
  735TMC3    C510862   4.177   2.905  12.094  0.0591 -0.2412  0.1474
  735TMC3    C610863   4.084   2.904  11.992  0.3407  0.3953 -0.3981
  735TMC3     C10864   4.086   3.177  12.221  0.1953 -0.9092 -0.0780
  735TMC3     O10865   4.180   3.194  12.150  0.0475 -0.3548 -0.5687
  735TMC3     H10866   3.847   3.083  12.147  0.1540  0.9651 -0.9742
  735TMC3    H110867   4.221   2.958  12.293  1.5259 -0.7426 -1.6411
  735TMC3    H210868   4.111   2.850  11.902 -1.0692 -1.2356  0.1410
  735TMC3    C710869   4.319   2.889  12.055  0.2494 -0.1382  0.2161
  735TMC3    C810870   3.915   3.038  11.894  0.4972  0.6810  0.4426
  735TMC3    O110871   4.357   2.953  11.957 -0.2044 -0.3872  0.3776
  735TMC3    O210872   3.859   2.983  11.798 -0.0021 -0.1222  0.2766
  736MPD2     C10873   4.589   2.699  12.225 -0.4831  0.5963  0.0310
  736MPD2    C110874   4.527   2.789  12.135 -0.1140  0.0269 -1.2022
  736MPD2    C210875   4.613   2.873  12.069  0.2082  0.6976  0.0959
  736MPD2    C310876   0.029   2.861  12.081 -0.4502 -0.1226 -0.4290
  736MPD2    C410877   0.085   2.770  12.166 -0.3098  0.1416  0.2603
  736MPD2    C510878   0.002   2.688  12.232 -0.3706 -0.1085 -0.5206
  736MPD2     H10879   4.581   2.932  11.984 -1.2212  0.3431  0.3849
  736MPD2    H110880   0.190   2.744  12.174 -0.5494 -0.3841  1.7309
  736MPD2    H210881   4.531   2.632  12.288 -0.4322 -1.6473 -2.2911
  736MPD2    H310882   0.047   2.625  12.308 -1.1516 -0.7436 -0.5825
  736MPD2     N10883   0.121   2.939  12.012 -0.4521 -0.5621  0.1321
  736MPD2    H510884   0.221   2.924  12.024 -0.2016 -0.1793 -1.3868
  736MPD2    N110885   4.391   2.791  12.126  0.1810  0.0663 -0.4358
  736MPD2    H710886   4.341   2.731  12.191  1.3059 -2.9026 -2.3043
  737TMC3    C110887   0.195   3.085  11.841 -0.3284  0.4018  0.8005
  737TMC3    C210888   0.185   3.207  11.787  0.3124 -0.3129 -0.3631
  737TMC3    C310889   0.262   3.231  11.673 -0.5529  0.6905  0.5581
  737TMC3    C410890   0.265   2.985  11.787  0.6276  0.4989 -0.3519
  737TMC3    C510891   0.332   3.012  11.670  0.4320  0.2903 -0.5055
  737TMC3    C610892   0.341   3.134  11.614  0.1224  0.1782 -0.1144
  737TMC3     C10893   0.097   3.056  11.945 -0.7304  0.4749 -0.2346
  737TMC3     O10894   4.717   3.127  11.949  0.0812  0.3968 -0.0474
  737TMC3     H10895   0.117   3.278  11.832  0.4215 -0.4277 -0.0165
  737TMC3    H110896   0.266   2.885  11.828  0.7514 -0.9346 -3.8189
  737TMC3    H210897   0.388   3.144  11.517 -0.9977 -0.2085 -0.6994
  737TMC3    C710898   0.398   2.902  11.603  0.1710  0.2901 -0.8766
  737TMC3    C810899   0.257   3.362  11.618 -0.4641 -0.5328 -0.2169
  737TMC3    O110900   0.354   2.793  11.637  0.5936  0.5251 -0.4730
  737TMC3    O210901   0.174   3.436  11.668  0.8295  0.0780 -0.1861
  738MPD2     C10902   0.438   2.743  15.595  0.6127 -0.0163 -0.0327
  738MPD2    C110903   0.394   2.671  15.485 -0.4718 -0.1840  0.8283
  738MPD2    C210904   0.468   2.683  15.372 -0.2630 -0.0013  1.1169
  738MPD2    C310905   0.578   2.769  15.369 -0.5016 -0.8268  0.1767
  738MPD2    C410906   0.620   2.846  15.479  1.0726  0.1692 -0.3312
  738MPD2    C510907   0.543   2.831  15.587  0.0780 -0.1108  0.4712
  738MPD2     H10908   0.443   2.621  15.287  1.0012 -1.8365  2.0922
  738MPD2    H110909   0.710   2.907  15.486  0.1305  1.5375 -0.0949
  738MPD2    H210910   0.406   2.726  15.697  0.9435  0.3612  0.1355
  738MPD2    H310911   0.579   2.880  15.677 -0.2069 -1.5647  1.3780
  738MPD2     N10912   0.665   2.785  15.259  0.3585  0.3546 -0.3007
  738MPD2    H510913   0.749   2.841  15.271  0.0567  1.1478 -1.9317
  738MPD2    N110914   0.288   2.580  15.493 -0.2080 -0.3179 -0.0880
  738MPD2    H710915   0.262   2.538  15.404 -0.8388  0.0232 -0.0640
  739TMC3    C110916   0.790   2.729  15.076 -1.2960 -0.0472  0.3125
  739TMC3    C210917   0.792   2.728  14.934  0.3737  0.0161  0.2729
  739TMC3    C310918   0.912   2.709  14.868  0.6752 -0.9796 -0.1249
  739TMC3    C410919   0.903   2.710  15.144  0.9541  0.8027  0.1819
  739TMC3    C510920   1.025   2.703  15.079 -0.1711 -0.3284  0.0284
  739TMC3    C610921   1.034   2.695  14.942 -0.1747  0.8060 -0.0756
  739TMC3     C10922   0.662   2.719  15.138 -0.2074  0.0593 -0.9830
  739TMC3     O10923   0.579   2.657  15.075  0.4874 -0.2649  0.5233
  739TMC3     H10924   0.696   2.729  14.884 -0.1192  4.0353  1.3082
  739TMC3    H110925   0.904   2.708  15.252 -1.9386 -1.5108  0.1643
  739TMC3    H210926   1.126   2.686  14.886 -0.9399  0.5428 -1.2862
  739TMC3    C710927   1.126   2.669  15.168  0.1872  0.5950 -0.9455
  739TMC3    C810928   0.927   2.709  14.727 -0.3682 -0.1658 -0.1492
  739TMC3    O110929   1.125   2.732  15.275 -0.3378  0.1599  0.2913
  739TMC3    O210930   0.822   2.713  14.664  0.6198 -0.2640 -0.4884
  740TMC3    C110931   0.883   3.962  14.397 -0.5307  0.4797  0.6135
  740TMC3    C210932   0.897   3.861  14.486 -0.5355  0.7767  0.7844
  740TMC3    C310933   1.020   3.810  14.508  0.7044 -0.2474  0.1684
  740TMC3    C410934   0.991   4.012  14.326  0.3499  0.2275  0.1539
  740TMC3    C510935   1.114   3.958  14.352 -0.4519 -0.1563  0.1673
  740TMC3    C610936   1.134   3.853  14.443  0.5311  0.5563 -0.7108
  740TMC3     C10937   0.784   4.063  14.424 -0.0818  0.3789 -0.1858
  740TMC3     O10938   0.778   4.160  14.350  0.2547  0.4958 -0.3404
  740TMC3     H10939   0.807   3.812  14.523  0.1102 -1.7129 -0.9260
  740TMC3    H110940   0.983   4.091  14.252 -1.0845 -0.7552 -0.7547
  740TMC3    H210941   1.230   3.805  14.460 -0.1185 -0.9806 -1.4160
  740TMC3    C710942   1.230   3.977  14.266  0.6324  0.0391 -0.1443
  740TMC3    C810943   1.029   3.693  14.595 -0.5964 -0.0454  0.0064
  740TMC3    O110944   1.340   3.968  14.323 -0.7885 -0.0411 -0.4642
  740TMC3    O210945   0.925   3.637  14.634 -0.3630 -0.0649  0.4346
  741TMC3    C110946   1.030   3.268  13.938 -0.9359  0.5618  0.4108
  741TMC3    C210947   0.909   3.220  13.989 -0.7652  0.2853  0.5388
  741TMC3    C310948   0.897   3.178  14.118  0.3941  0.4974  0.5225
  741TMC3    C410949   1.147   3.255  14.014  0.7496  0.9355  0.2118
  741TMC3    C510950   1.129   3.219  14.149 -0.2036 -0.4160 -0.2597
  741TMC3    C610951   1.006   3.187  14.206 -0.5438  0.0743  0.1563
  741TMC3     C10952   1.047   3.309  13.801 -0.3836  0.0691  0.3097
  741TMC3     O10953   1.161   3.320  13.753  0.4556 -0.0734  0.7664
  741TMC3     H10954   0.813   3.227  13.939 -0.9137 -1.2122  0.6345
  741TMC3    H110955   1.239   3.290  13.970  1.0912 -2.0166 -1.4167
  741TMC3    H210956   0.995   3.138  14.302 -1.4163 -1.9295 -0.9661
  741TMC3    C710957   1.254   3.215  14.220  0.6077 -0.1510 -0.1420
  741TMC3    C810958   0.761   3.134  14.164  0.3650  0.3489  0.0902
  741TMC3    O110959   1.358   3.214  14.156 -0.3902  0.0134  0.0184
  741TMC3    O210960   0.676   3.120  14.072  0.3843 -0.3157 -0.0583
  742TMC3    C110961   0.880   1.828  15.290 -0.2637  0.1209 -0.0307
  742TMC3    C210962   0.773   1.812  15.201  0.5670 -0.1415 -0.8876
  742TMC3    C310963   0.786   1.706  15.117  0.0992  0.1666 -0.3347
  742TMC3    C410964   0.998   1.760  15.290  0.1110  1.2981  0.4259
  742TMC3    C510965   1.007   1.674  15.183 -0.5206  0.1099 -0.5460
  742TMC3    C610966   0.904   1.634  15.100  0.1754 -0.3781 -0.3860
  742TMC3     C10967   0.869   1.935  15.392  0.3737  0.2397 -0.6134
  742TMC3     O10968   0.943   1.936  15.491  0.1725  0.2622  0.1481
  742TMC3     H10969   0.678   1.854  15.232 -0.7768 -1.9325 -2.5766
  742TMC3    H110970   1.082   1.791  15.351 -0.5886  0.6705  1.6988
  742TMC3    H210971   0.914   1.541  15.044 -0.4396 -1.6025  1.5456
  742TMC3    C710972   1.110   1.569  15.188  0.1650 -0.1499  0.1724
  742TMC3    C810973   0.660   1.639  15.081  0.0478 -0.0005 -0.1068
  742TMC3    O110974   1.128   1.493  15.093  0.0174 -0.1703 -0.2310
  742TMC3    O210975   0.663   1.516  15.081  0.2805  0.0177  0.1994
  743MPD2     C10976   0.312   2.530   2.012  0.2019  0.0254  0.1414
  743MPD2    C110977   0.319   2.551   1.874  0.4287  0.2250  0.0320
  743MPD2    C210978   0.361   2.671   1.817  0.1544  1.0535  0.1592
  743MPD2    C310979   0.401   2.772   1.901  0.4702  0.5210 -0.0870
  743MPD2    C410980   0.385   2.752   2.040  0.0452  0.3179  0.6096
  743MPD2    C510981   0.345   2.633   2.089  0.4854  0.1058 -0.5264
  743MPD2     H10982   0.378   2.679   1.711  0.0784 -2.1413 -0.0891
  743MPD2    H110983   0.395   2.831   2.114 -0.5177  2.1108 -1.2587
  743MPD2    H210984   0.307   2.433   2.060  0.7868 -0.4209 -0.6952
  743MPD2    H310985   0.347   2.616   2.196 -0.6876 -0.5982 -0.6190
  743MPD2     N10986   0.431   2.899   1.858 -0.1718  0.2309 -0.0679
  743MPD2    H510987   0.439   2.909   1.757  0.5878  0.6350  0.0346
  743MPD2    N110988   0.273   2.444   1.795 -0.0983 -0.2831 -0.1219
  743MPD2    H710989   0.226   2.365   1.836  1.2364 -1.0501 -0.0740
  744TMC3    C110990   0.168   2.337   1.615 -0.8734 -0.2288 -0.7074
  744TMC3    C210991   0.131   2.251   1.707  0.3432  0.5814  0.2185
  744TMC3    C310992   4.718   2.245   1.745  0.0688 -0.2547  0.2488
  744TMC3    C410993   0.067   2.391   1.531  0.6210  0.3086 -0.0120
  744TMC3    C510994   4.657   2.364   1.560  0.1371 -0.0624 -0.4786
  744TMC3    C610995   4.618   2.293   1.670  0.3617 -0.3471 -0.0367
  744TMC3     C10996   0.264   2.437   1.659 -0.1476 -0.7462  0.9048
  744TMC3     O10997   0.319   2.501   1.571  0.4649  0.6503 -0.0259
  744TMC3     H10998   0.208   2.196   1.760  0.3130  0.5753  0.2563
  744TMC3    H110999   0.101   2.458   1.453  0.1553 -0.4406 -0.8522
  744TMC3    H211000   4.514   2.290   1.702  0.2764  0.5882 -0.2164
  744TMC3    C711001   4.558   2.404   1.461 -0.8067  0.0854  0.1472
  744TMC3    C811002   4.665   2.133   1.821 -0.1440  0.7623 -0.1034
  744TMC3    O111003   4.594   2.491   1.382 -0.9585 -0.1322 -0.0834
  744TMC3    O211004   4.560   2.154   1.884  0.2646  0.9139  0.2664
  745TMC3    C111005   0.918   1.148  14.125  0.1225 -0.7021 -0.5834
  745TMC3    C211006   0.830   1.157  14.232  0.0207  1.1663 -0.0544
  745TMC3    C311007   0.703   1.212  14.208  0.0480 -0.3887  0.4767
  745TMC3    C411008   0.883   1.196  14.004 -0.3929 -0.1559 -0.3262
  745TMC3    C511009   0.756   1.247  13.983  0.3692 -0.6978  0.2076
  745TMC3    C611010   0.666   1.263  14.092 -0.0144 -0.1343  0.1296
  745TMC3     C11011   1.039   1.197  14.173 -0.5392 -0.6449  0.5330
  745TMC3     O11012   1.111   1.131  14.244 -0.1319 -0.3924 -0.1582
  745TMC3     H11013   0.855   1.110  14.327 -0.8169  1.3689  0.2652
  745TMC3    H111014   0.961   1.189  13.929 -0.9693 -1.4540 -0.7977
  745TMC3    H211015   0.562   1.292  14.083  0.7110  2.2260 -0.7514
  745TMC3    C711016   0.716   1.290  13.849  0.3552 -0.1804  0.9385
  745TMC3    C811017   0.658   1.289  14.323  0.7567  0.2728 -0.0564
  745TMC3    O111018   0.598   1.319  13.829 -0.3442  0.2166 -0.6036
  745TMC3    O211019   0.547   1.340  14.315 -0.2527  0.3581 -0.2677
  746TMC3    C111020   3.157   2.591  11.336 -0.4487 -0.2719  0.4201
  746TMC3    C211021   3.145   2.520  11.216 -0.2186 -0.6865  0.8629
  746TMC3    C311022   3.017   2.473  11.191  0.0361  0.2633 -0.7182
  746TMC3    C411023   3.051   2.634  11.409  0.3496  0.0503 -0.3893
  746TMC3    C511024   2.919   2.604  11.361  0.6599 -0.5335 -0.3811
  746TMC3    C611025   2.905   2.516  11.256 -0.7679 -0.0672  0.5575
  746TMC3     C11026   3.265   2.688  11.341 -0.0253 -0.5190  0.3686
  746TMC3     O11027   3.244   2.796  11.395 -0.4381  0.0938  0.4600
  746TMC3     H11028   3.223   2.494  11.146 -1.3674 -0.5401 -0.4785
  746TMC3    H111029   3.069   2.700  11.493 -0.0462  0.9832 -1.0392
  746TMC3    H211030   2.806   2.490  11.220 -0.9354  0.0637  0.9162
  746TMC3    C711031   2.827   2.713  11.366  0.1846  0.6107 -0.4573
  746TMC3    C811032   2.987   2.432  11.059  0.7886 -0.2431  0.1794
  746TMC3    O111033   2.767   2.730  11.263 -0.2571 -0.0612 -0.5311
  746TMC3    O211034   2.886   2.366  11.037 -0.0432 -0.2626  0.5325
  747TMC3    C111035   1.085   2.947  10.790  0.1685 -0.4029 -0.1758
  747TMC3    C211036   0.991   2.869  10.857 -0.2131 -0.0675 -0.1011
  747TMC3    C311037   0.916   2.927  10.955 -0.0115  0.2866 -0.4487
  747TMC3    C411038   1.122   3.072  10.839 -0.0568  0.2239  0.3416
  747TMC3    C511039   1.062   3.115  10.951 -0.0187 -0.5535  0.7055
  747TMC3    C611040   0.953   3.050  11.009  0.3290  0.0250 -0.2045
  747TMC3     C11041   1.185   2.893  10.700  0.2827  0.6788  0.2898
  747TMC3     O11042   1.288   2.953  10.689 -0.3379  0.2600  0.0269
  747TMC3     H11043   0.968   2.772  10.816 -0.7470 -0.9695  2.3418
  747TMC3    H111044   1.189   3.136  10.783 -1.6098  0.2734 -1.4575
  747TMC3    H211045   0.897   3.102  11.086  0.1805 -0.1828 -0.1727
  747TMC3    C711046   1.086   3.250  10.995  0.0729  0.1537  1.1260
  747TMC3    C811047   0.824   2.845  11.030  0.1998  0.2969  1.1006
  747TMC3    O111048   0.993   3.306  11.049 -0.0767 -0.0328  0.0457
  747TMC3    O211049   0.787   2.737  10.985 -0.5229  0.0683 -0.4206
  748MPD2     C11050   3.072   4.343   2.380 -0.5820  0.6382  0.0367
  748MPD2    C111051   3.040   4.252   2.282  0.8646  0.5420  0.2793
  748MPD2    C211052   3.142   4.215   2.192  0.7601  0.3941 -0.4262
  748MPD2    C311053   3.272   4.260   2.209  0.2142 -0.0862  1.1234
  748MPD2    C411054   3.297   4.358   2.301 -0.2931  0.5262  0.0462
  748MPD2    C511055   3.196   4.394   2.389  0.0165  0.1270  0.4636
  748MPD2     H11056   3.114   4.143   2.116 -3.9942  0.4669  1.3113
  748MPD2    H111057   3.395   4.397   2.326  0.1171  0.4290 -1.3778
  748MPD2    H211058   3.002   4.379   2.455 -1.8510 -1.0670 -0.3338
  748MPD2    H311059   3.220   4.476   2.456 -1.7429  1.3242 -0.3508
  748MPD2     N11060   3.361   4.192   2.131 -0.2247  0.2868  0.3787
  748MPD2    H511061   3.327   4.123   2.064 -2.5240  0.2970  1.5520
  748MPD2    N111062   2.909   4.198   2.274  1.0380 -0.0637  0.0752
  748MPD2    H711063   2.837   4.233   2.337 -0.9829 -2.3431 -0.9972
  749TMC3    C111064   3.559   4.127   2.033  0.5621 -0.0850 -0.4226
  749TMC3    C211065   3.695   4.136   2.036  0.2017 -1.1871  0.3256
  749TMC3    C311066   3.767   4.092   1.930 -0.8043  0.5602 -0.0168
  749TMC3    C411067   3.493   4.100   1.911 -0.3729  0.4385 -0.0985
  749TMC3    C511068   3.572   4.070   1.802 -0.2227 -0.0107  0.1768
  749TMC3    C611069   3.706   4.067   1.809  0.0517 -0.0424  0.0077
  749TMC3     C11070   3.492   4.210   2.135 -0.0120  0.7332  0.0438
  749TMC3     O11071   3.561   4.270   2.216 -0.1704  0.5239 -0.4672
  749TMC3     H11072   3.737   4.147   2.136  0.1226 -1.4038  0.3827
  749TMC3    H111073   3.386   4.108   1.896 -0.7746 -3.5178  0.7230
  749TMC3    H211074   3.768   4.077   1.720 -0.7956  0.1318 -0.5561
  749TMC3    C711075   3.520   4.092   1.674  0.4932 -0.2644 -0.1036
  749TMC3    C811076   3.908   4.104   1.957  0.0092  1.0094  0.9337
  749TMC3    O111077   3.421   4.164   1.663  0.4962  0.6707 -0.3202
  749TMC3    O211078   3.936   4.167   2.057 -0.3322 -0.0960  0.5706
  750MPD2     C11079   3.592   0.053  11.576  0.0084 -0.3598  0.3156
  750MPD2    C111080   3.467   0.068  11.516 -0.1173  0.5862 -0.2993
  750MPD2    C211081   3.444   4.715  11.402  0.0857  0.2715 -0.0315
  750MPD2    C311082   3.530   4.616  11.360 -0.6417 -0.2130 -0.2480
  750MPD2    C411083   3.654   4.605  11.413  0.2121 -0.6179 -0.4060
  750MPD2    C511084   3.687   4.682  11.527 -0.3698 -0.5081 -0.3260
  750MPD2     H11085   3.353   0.003  11.345  0.9066  3.5341 -0.7608
  750MPD2    H111086   3.725   4.529  11.384 -0.6694 -2.3164  1.9259
  750MPD2    H211087   3.633   0.125  11.646  1.4929 -0.2196 -0.7038
  750MPD2    H311088   3.788   4.675  11.566 -0.4180  0.1686 -0.0832
  750MPD2     N11089   3.499   4.516  11.268 -0.0128  0.4456 -0.2121
  750MPD2    H511090   3.558   4.444  11.227 -2.5876 -3.2790  2.6460
  750MPD2    N111091   3.374   0.165  11.571 -0.6091 -0.5064  0.1884
  750MPD2    H711092   3.398   0.204  11.662  1.3420  0.2626 -0.6530
  751TMC3    C111093   3.365   4.410  11.107 -0.2587 -0.0191 -0.3516
  751TMC3    C211094   3.235   4.364  11.073 -0.4821  0.7841 -0.0383
  751TMC3    C311095   3.221   4.284  10.967 -0.2939 -0.1979 -0.4538
  751TMC3    C411096   3.482   4.373  11.041  0.8269 -0.2091 -0.3082
  751TMC3    C511097   3.460   4.284  10.938  0.4472 -0.1286  0.5932
  751TMC3    C611098   3.331   4.245  10.898 -0.7100 -0.1277  0.9041
  751TMC3     C11099   3.373   4.508  11.216  0.3754  0.2980 -0.6551
  751TMC3     O11100   3.265   4.542  11.258 -0.4965  0.2489 -0.0146
  751TMC3     H11101   3.145   4.400  11.122 -0.9526  0.5933 -0.7622
  751TMC3    H111102   3.576   4.421  11.066  1.0191  0.3012 -2.0063
  751TMC3    H211103   3.329   4.182  10.810 -1.6631  1.0975  0.0375
  751TMC3    C711104   3.572   4.224  10.869 -0.5402  0.1758 -0.3938
  751TMC3    C811105   3.123   4.182  10.980  0.8227  0.3053 -0.3570
  751TMC3    O111106   3.679   4.289  10.881  0.1791  0.9463 -0.8175
  751TMC3    O211107   3.143   4.083  10.913  0.7436  0.2013 -0.3286
  752TMC3    C111108   2.171   0.049  16.990 -0.0525 -0.5438 -0.3350
  752TMC3    C211109   2.048   0.060  17.036  0.1067  0.1416  0.1441
  752TMC3    C311110   2.027   0.127  17.158 -0.2729  0.8535  0.4250
  752TMC3    C411111   2.279   0.109  17.044  0.3915  0.3833 -0.2951
  752TMC3    C511112   2.251   0.201  17.143 -0.0762  0.2193  0.6090
  752TMC3    C611113   2.130   0.205  17.211 -0.2516 -0.5868 -0.1184
  752TMC3     C11114   2.183   0.004  16.851  0.7931  0.2466 -0.0945
  752TMC3     O11115   2.296   0.006  16.802  0.8004 -0.0458  0.0362
  752TMC3     H11116   1.965   0.006  16.992 -1.7308  1.4137  2.0130
  752TMC3    H111117   2.375   0.109  16.993  1.0394  0.6322  0.9289
  752TMC3    H211118   2.116   0.267  17.299  2.0309  0.0140 -0.1917
  752TMC3    C711119   2.358   0.272  17.202  0.4928  0.2017  0.2395
  752TMC3    C811120   1.894   0.160  17.197 -0.0385  0.0192  0.4141
  752TMC3    O111121   2.349   0.292  17.320  0.2084 -0.1870 -0.5443
  752TMC3    O211122   1.816   0.165  17.099  0.3834  0.5989  0.2498
  753TMC3    C111123   4.349   1.130  13.969 -0.0720 -0.2616 -0.3738
  753TMC3    C211124   4.360   1.180  14.094 -0.1589 -0.6624  0.9878
  753TMC3    C311125   4.280   1.134  14.194 -0.2497  0.4077  0.1610
  753TMC3    C411126   4.264   1.030  13.944 -0.0772 -0.9652 -0.4398
  753TMC3    C511127   4.182   0.985  14.042  0.0185  0.1025 -0.3404
  753TMC3    C611128   4.193   1.030  14.172 -0.4240  0.6401  1.0849
  753TMC3     C11129   4.415   1.215  13.869 -0.0626 -0.4680 -0.3001
  753TMC3     O11130   4.450   1.327  13.902  0.1493  0.0934 -0.0151
  753TMC3     H11131   4.448   1.237  14.122  0.5785 -2.1337  1.6661
  753TMC3    H111132   4.267   0.986  13.845  3.2086  0.0215 -0.7691
  753TMC3    H211133   4.127   0.993  14.250 -1.4701 -1.4333 -0.7703
  753TMC3    C711134   4.105   0.874  14.009  0.0044 -0.4287  0.0897
  753TMC3    C811135   4.307   1.162  14.337 -0.0278 -0.0857  0.0883
  753TMC3    O111136   4.096   0.839  13.893  0.4189 -0.2162  0.3524
  753TMC3    O211137   4.271   1.073  14.415 -0.0123  0.2212  0.1723
  754MPD2     C11138   2.587   0.033  12.591 -0.0626  0.4808  0.6868
  754MPD2    C111139   2.519   4.650  12.634 -0.1742 -0.2834 -0.0102
  754MPD2    C211140   2.381   4.662  12.651  0.4818  0.7021 -0.4288
  754MPD2    C311141   2.314   0.061  12.632  0.2619 -0.5707 -0.5325
  754MPD2    C411142   2.388   0.163  12.587 -0.5076 -0.1377  1.6008
  754MPD2    C511143   2.525   0.151  12.572  0.4884  0.3081 -0.3153
  754MPD2     H11144   2.331   4.575  12.691  1.5331  0.0094 -0.6353
  754MPD2    H111145   2.336   0.255  12.562  0.9649  0.2848  0.0268
  754MPD2    H211146   2.690   0.033  12.557  0.2850  2.2112  1.7611
  754MPD2    H311147   2.588   0.221  12.519 -1.0700  4.1433  2.8501
  754MPD2     N11148   2.172   0.078  12.655  0.5857  0.3432  0.0989
  754MPD2    H511149   2.138   0.169  12.630 -2.2548 -0.9089 -0.5150
  754MPD2    N111150   2.582   4.528  12.657 -0.0752 -0.3063  0.1134
  754MPD2    H711151   2.681   4.543  12.672 -0.2657 -0.7875  1.8185
  755MPD2     C11152   2.360   0.003  13.437 -0.0199 -0.0474 -0.2290
  755MPD2    C111153   2.233   0.039  13.466  0.1870  0.2378 -0.6246
  755MPD2    C211154   2.151   0.074  13.357 -0.4139  0.0648  0.3892
  755MPD2    C311155   2.194   0.082  13.230 -0.1319  0.1234  0.6514
  755MPD2    C411156   2.327   0.069  13.212 -0.3554 -0.2383  0.2429
  755MPD2    C511157   2.412   0.029  13.314 -0.4102  0.6158  0.0265
  755MPD2     H11158   2.044   0.079  13.377 -0.6397 -0.3901 -0.7243
  755MPD2    H111159   2.376   0.080  13.116 -0.7521  3.1908  0.4027
  755MPD2    H211160   2.424   4.683  13.514 -0.5323 -1.2733 -0.4670
  755MPD2    H311161   2.511   4.713  13.291  0.2278  1.4958  1.2604
  755MPD2     N11162   2.117   0.123  13.113  0.4944 -0.7961 -0.3630
  755MPD2    H511163   2.171   0.144  13.029  2.2705  0.7423  1.1630
  755MPD2    N111164   2.172   0.035  13.594 -0.1611  0.1293 -0.1194
  755MPD2    H711165   2.081   0.081  13.595 -0.9562 -1.5114  2.1860
  756MPD2     C11166   3.051   0.744   9.505  0.0648 -0.0274  0.7004
  756MPD2    C111167   2.959   0.660   9.574  0.9164  0.0729 -0.6871
  756MPD2    C211168   2.876   0.590   9.491  0.0993 -0.0376 -0.3384
  756MPD2    C311169   2.873   0.601   9.350  0.3196 -0.7961 -0.4633
  756MPD2    C411170   2.967   0.678   9.294  0.2589 -0.1688  0.9699
  756MPD2    C511171   3.055   0.744   9.370 -0.4133  0.5801 -0.6136
  756MPD2     H11172   2.825   0.515   9.551 -0.3297  1.9113  1.7267
  756MPD2    H111173   2.975   0.684   9.186 -1.1753  0.4223  0.8891
  756MPD2    H211174   3.136   0.787   9.557  0.6856 -0.7988  0.3419
  756MPD2    H311175   3.139   0.798   9.329  1.0574  0.5847  2.3710
  756MPD2     N11176   2.778   0.527   9.277  0.1047 -0.0682 -0.2820
  756MPD2    H511177   2.718   0.459   9.323  0.0007 -0.7773 -1.4652
  756MPD2    N111178   2.947   0.641   9.711  0.0411  0.3808  0.0674
  756MPD2    H711179   2.878   0.573   9.742 -0.0288 -0.2290 -1.4111
  757MPD2     C11180   2.423   4.537   9.588 -0.1769 -0.0102 -0.2179
  757MPD2    C111181   2.541   4.578   9.537 -0.2432 -0.4522  0.2792
  757MPD2    C211182   2.552   4.690   9.452 -0.0313 -0.0243 -0.0933
  757MPD2    C311183   2.448   0.039   9.402 -0.2332 -0.1629 -0.0333
  757MPD2    C411184   2.320   4.721   9.448  0.1727 -0.0230 -0.1686
  757MPD2    C511185   2.316   4.608   9.542 -0.8053 -0.4181 -0.3635
  757MPD2     H11186   2.651   4.710   9.413 -1.0608 -0.4834 -2.9093
  757MPD2    H111187   2.229   0.042   9.408 -1.6741 -0.0297  4.0714
  757MPD2    H211188   2.400   4.450   9.647 -0.6568 -0.7407 -1.4718
  757MPD2    H311189   2.217   4.595   9.584 -0.9334 -0.8286 -0.7862
  757MPD2     N11190   2.478   0.147   9.313 -0.4080  0.6245 -0.2104
  757MPD2    H511191   2.575   0.172   9.297 -0.1855  0.8324  1.3961
  757MPD2    N111192   2.653   4.512   9.597  0.3010 -0.2322  0.1189
  757MPD2    H711193   2.640   4.435   9.661 -1.2898  2.6444  3.2671
  758MPD2     C11194   3.228   3.956  16.179  0.3076 -0.0249 -0.2032
  758MPD2    C111195   3.310   3.939  16.287 -0.7023 -0.0681  0.0664
  758MPD2    C211196   3.313   4.027  16.394 -0.8605  0.1411 -0.0053
  758MPD2    C311197   3.230   4.134  16.393 -0.4358  0.2006 -0.4180
  758MPD2    C411198   3.135   4.149  16.286  0.6530  0.1402  0.3065
  758MPD2    C511199   3.139   4.059  16.183  0.0597 -0.3020  0.0877
  758MPD2     H11200   3.395   4.019  16.465 -0.8747  0.0989  0.0065
  758MPD2    H111201   3.070   4.235  16.282  1.2000  0.4456 -2.0220
  758MPD2    H211202   3.229   3.894  16.090  1.1364  1.1149 -0.9748
  758MPD2    H311203   3.074   4.083  16.099  2.3004 -1.5704 -2.0394
  758MPD2     N11204   3.236   4.240  16.488  0.0481  0.0141  0.4968
  758MPD2    H511205   3.175   4.317  16.464  1.4833  0.8356 -0.5703
  758MPD2    N111206   3.408   3.832  16.276 -0.3153 -0.0440 -0.3976
  758MPD2    H711207   3.415   3.794  16.182 -1.5808 -0.1799 -0.4452
  759MPD2     C11208   1.565   2.798  10.708 -0.1293  0.2408 -0.8143
  759MPD2    C111209   1.571   2.686  10.624  0.5811  0.7068 -0.1925
  759MPD2    C211210   1.646   2.694  10.507 -0.2648 -0.5324 -0.5115
  759MPD2    C311211   1.714   2.809  10.469 -0.1697  0.4643 -0.6605
  759MPD2    C411212   1.714   2.911  10.565  0.2445 -0.6927  0.1391
  759MPD2    C511213   1.643   2.905  10.681 -0.9408  0.5396 -0.3978
  759MPD2     H11214   1.649   2.616  10.432  0.4136  0.5041 -1.5602
  759MPD2    H111215   1.764   3.005  10.548  3.1833 -2.1142  0.8770
  759MPD2    H211216   1.494   2.802  10.791  1.5732 -2.7287  0.7619
  759MPD2    H311217   1.640   2.988  10.750 -1.1669 -0.8996  1.3284
  759MPD2     N11218   1.772   2.814  10.338 -0.6239  0.1658 -0.1921
  759MPD2    H511219   1.762   2.727  10.286  0.0672  1.3229 -2.2692
  759MPD2    N111220   1.510   2.558  10.651  0.1313  0.5552  0.4012
  759MPD2    H711221   1.532   2.490  10.579  1.4798  0.0082  1.3288
  760MPD2     C11222   0.947   0.164  11.867 -0.0928  0.4485  0.1708
  760MPD2    C111223   1.082   0.170  11.840 -0.1267  0.6686  0.1096
  760MPD2    C211224   1.152   0.052  11.841 -0.4552  0.5746 -0.0404
  760MPD2    C311225   1.094   4.651  11.859 -0.0838 -0.4104  0.0023
  760MPD2    C411226   0.963   4.642  11.889 -0.0466  0.0757 -0.6214
  760MPD2    C511227   0.892   0.038  11.892  0.5598 -0.5309  0.0917
  760MPD2     H11228   1.259   0.062  11.829 -0.7406  1.3486 -1.9038
  760MPD2    H111229   0.910   4.551  11.915  0.9313  0.6392  3.2823
  760MPD2    H211230   0.882   0.251  11.868 -0.3229  0.2714  0.4435
  760MPD2    H311231   0.787   0.026  11.918  1.2753 -0.5973  2.8947
  760MPD2     N11232   1.158   4.531  11.870  0.5921  0.3848  0.1148
  760MPD2    H511233   1.121   4.466  11.938 -1.6993  0.4536 -1.0586
  760MPD2    N111234   1.155   0.284  11.814 -0.6734 -0.4711 -0.5342
  760MPD2    H711235   1.249   0.268  11.779 -0.3155 -1.7284  0.9650
  761MPD2     C11236   2.750   3.923  11.222  0.5519  0.4107  0.0855
  761MPD2    C111237   2.851   3.880  11.136 -0.6972  0.1292  0.4301
  761MPD2    C211238   2.941   3.975  11.086  0.2558  0.4938  0.4980
  761MPD2    C311239   2.921   4.110  11.103 -0.2851  0.4103  0.4499
  761MPD2    C411240   2.814   4.148  11.186 -0.4910 -0.7082  0.2397
  761MPD2    C511241   2.734   4.055  11.241 -0.1023 -0.0391  0.4320
  761MPD2     H11242   3.036   3.938  11.049  0.4918  1.5029  0.0777
  761MPD2    H111243   2.804   4.255  11.201 -0.6950 -0.5234 -1.2083
  761MPD2    H211244   2.677   3.864  11.278  0.6021  0.9169  0.6862
  761MPD2    H311245   2.648   4.085  11.299 -0.0637  2.3921 -0.7902
  761MPD2     N11246   3.013   4.209  11.064  0.0677  0.8358 -0.6292
  761MPD2    H511247   3.001   4.305  11.095 -0.1966  0.1748  1.3369
  761MPD2    N111248   2.865   3.738  11.116 -0.1203 -0.6376  0.3007
  761MPD2    H711249   2.805   3.671  11.164 -1.3441 -0.4230 -0.9506
  762MPD2     C11250   3.004   3.435  10.406 -0.0163  0.1518  0.5833
  762MPD2    C111251   3.021   3.345  10.508  0.0605  0.2412  0.4945
  762MPD2    C211252   3.106   3.235  10.493 -0.1256 -0.3591  0.2788
  762MPD2    C311253   3.165   3.213  10.374 -0.4883 -0.5920 -0.2784
  762MPD2    C411254   3.142   3.295  10.265  0.7000  0.5493  0.3919
  762MPD2    C511255   3.066   3.410  10.288  0.1484 -1.0017 -0.9409
  762MPD2     H11256   3.124   3.162  10.571  2.9739 -1.1949 -1.1822
  762MPD2    H111257   3.190   3.284  10.168  0.5696  0.9675  0.2780
  762MPD2    H211258   2.940   3.522  10.417 -5.2753 -3.6221 -0.3503
  762MPD2    H311259   3.053   3.482  10.209  2.1382 -0.2612 -0.6002
  762MPD2     N11260   3.243   3.097  10.364 -0.1747  0.5399  0.0683
  762MPD2    H511261   3.247   3.046  10.452  1.4428 -1.2919 -1.0780
  762MPD2    N111262   2.962   3.368  10.631 -0.1699 -0.1422 -0.5014
  762MPD2    H711263   2.893   3.442  10.633 -0.1166 -0.0675 -1.1926
  763MPD2     C11264   4.567   4.672  16.484 -0.2048 -0.3187 -0.4237
  763MPD2    C111265   4.660   0.002  16.397  0.2383  0.8460  0.2538
  763MPD2    C211266   0.021   0.114  16.430 -0.3879  1.2847 -0.1960
  763MPD2    C311267   4.719   0.187  16.545  0.6734  0.3447 -0.3132
  763MPD2    C411268   4.623   0.145  16.632 -1.1956 -0.0558  0.0844
  763MPD2    C511269   4.542   0.032  16.598 -0.2657  0.9079  0.6657
  763MPD2     H11270   0.094   0.153  16.360  0.8151  0.8772  0.8249
  763MPD2    H111271   4.608   0.203  16.722  1.2440  0.7671 -0.0260
  763MPD2    H211272   4.501   4.591  16.457 -0.7643  0.0316 -0.1101
  763MPD2    H311273   4.471   4.719  16.673  1.4125 -0.9308  1.3857
  763MPD2     N11274   0.066   0.306  16.580 -0.9259  0.8963 -0.4347
  763MPD2    H511275   0.038   0.362  16.660  1.1432 -0.4134  1.1953
  763MPD2    N111276   4.677   4.675  16.267  0.2434  0.3810 -0.7957
  763MPD2    H711277   0.003   0.021  16.210 -2.2584  2.5569 -0.2872
  764MPD2     C11278   2.601   1.188  17.315 -0.0134 -0.5789 -0.5068
  764MPD2    C111279   2.538   1.112  17.224 -0.0265 -0.0630  0.2736
  764MPD2    C211280   2.523   0.978  17.250 -0.4303 -0.4213  0.1449
  764MPD2    C311281   2.574   0.923  17.366  0.9068 -0.3254  0.0697
  764MPD2    C411282   2.656   0.997  17.448 -0.9755  0.3576 -0.1217
  764MPD2    C511283   2.671   1.131  17.416  0.2837 -0.7233  0.1525
  764MPD2     H11284   2.460   0.916  17.188  1.6029 -2.7245  0.4207
  764MPD2    H111285   2.718   0.950  17.523 -2.2640  0.9430  1.3078
  764MPD2    H211286   2.600   1.296  17.303 -0.4145 -0.5627 -0.3213
  764MPD2    H311287   2.723   1.201  17.480  2.2772  2.1730 -4.7112
  764MPD2     N11288   2.531   0.793  17.391  0.3193  0.3735  0.1640
  764MPD2    H511289   2.484   0.754  17.311  1.2421  1.9598 -1.1474
  764MPD2    N111290   2.478   1.160  17.106  0.7762 -0.1061  0.3102
  764MPD2    H711291   2.419   1.094  17.056  2.7395  0.1794 -2.4147
  765MPD2     C11292   2.854   3.726  16.243  0.4198  0.2723  0.3063
  765MPD2    C111293   2.804   3.728  16.114 -0.1155 -0.2339  0.0702
  765MPD2    C211294   2.895   3.701  16.009  0.2924 -0.1927 -0.4930
  765MPD2    C311295   3.031   3.679  16.030 -0.1275 -0.3046 -0.1148
  765MPD2    C411296   3.074   3.662  16.163 -0.1571 -0.0184 -0.2750
  765MPD2    C511297   2.985   3.687  16.264  0.2781 -0.4049 -0.0009
  765MPD2     H11298   2.858   3.699  15.907  0.0026  1.3872 -0.4222
  765MPD2    H111299   3.176   3.637  16.190  0.7141  1.5533 -2.0397
  765MPD2    H211300   2.791   3.762  16.324  1.3422 -0.2140  1.2302
  765MPD2    H311301   3.026   3.681  16.364 -1.0347 -1.0876  0.4917
  765MPD2     N11302   3.115   3.673  15.921 -0.4771 -0.0377 -0.0795
  765MPD2    H511303   3.074   3.677  15.828 -0.2504 -0.1463 -0.1839
  765MPD2    N111304   2.670   3.755  16.073  0.0789  0.6921  0.0263
  765MPD2    H711305   2.648   3.738  15.976  1.3830  4.3631 -0.9345
  766MPD2     C11306   2.009   3.798  15.551 -0.1688 -0.4598  0.3460
  766MPD2    C111307   2.145   3.803  15.568  0.1376 -0.9041 -0.3611
  766MPD2    C211308   2.227   3.793  15.460 -0.2204  0.7009 -0.4246
  766MPD2    C311309   2.167   3.781  15.330 -0.6355 -0.1654 -0.0929
  766MPD2    C411310   2.031   3.790  15.324 -0.2540  0.4529  0.1889
  766MPD2    C511311   1.953   3.789  15.429 -1.0842  0.3728  0.1517
  766MPD2     H11312   2.334   3.809  15.473 -0.0358 -1.0181  0.1379
  766MPD2    H111313   1.981   3.786  15.228 -3.1861 -0.3779  1.7137
  766MPD2    H211314   1.947   3.799  15.639 -0.8421  1.5420 -0.1329
  766MPD2    H311315   1.845   3.792  15.420 -1.1737 -2.3324  0.4003
  766MPD2     N11316   2.243   3.783  15.209  0.7886 -0.0590 -0.3964
  766MPD2    H511317   2.188   3.793  15.124  0.9775  2.6602 -0.2054
  766MPD2    N111318   2.186   3.828  15.707  0.2014 -0.5456  0.2072
  766MPD2    H711319   2.127   3.877  15.774 -1.1134 -0.1060 -1.2631
  767MPD2     C11320   1.813   4.023  15.126  0.4221  0.0380  0.2136
  767MPD2    C111321   1.945   4.049  15.096 -0.3987 -0.6426  0.4146
  767MPD2    C211322   1.985   4.015  14.967  0.1930  0.2170  0.2175
  767MPD2    C311323   1.896   3.974  14.871 -0.0431 -0.3967 -0.1720
  767MPD2    C411324   1.766   3.950  14.902 -0.3015 -0.1136  0.1208
  767MPD2    C511325   1.730   3.980  15.027  0.6018  0.0334  0.2305
  767MPD2     H11326   2.091   4.029  14.950 -0.4897  1.0426 -3.3653
  767MPD2    H111327   1.697   3.911  14.829 -1.3620 -1.9083  2.0848
  767MPD2    H211328   1.777   4.059  15.221  1.8312 -0.3917  0.9128
  767MPD2    H311329   1.627   3.966  15.059  1.0651 -2.7534  0.5185
  767MPD2     N11330   1.953   3.972  14.742  0.0043  0.0707  0.2285
  767MPD2    H511331   2.053   3.990  14.738  0.4332 -2.0602  1.6623
  767MPD2    N111332   2.028   4.089  15.202 -0.1347  0.0278  0.3115
  767MPD2    H711333   1.984   4.084  15.294 -1.1687 -0.7871 -0.2151
  768MPD2     C11334   2.487   2.697  10.811 -0.6346 -0.1880  0.1808
  768MPD2    C111335   2.435   2.715  10.936 -0.6902  0.0557  0.2634
  768MPD2    C211336   2.436   2.613  11.025  0.3395  0.0876  0.7053
  768MPD2    C311337   2.508   2.502  11.000 -0.0575 -0.7083 -0.0897
  768MPD2    C411338   2.569   2.484  10.876  0.2713 -0.0135  0.2565
  768MPD2    C511339   2.543   2.577  10.779  0.9598  0.0179 -0.5315
  768MPD2     H11340   2.402   2.637  11.126 -1.2322  1.8181 -0.2226
  768MPD2    H111341   2.635   2.406  10.840  0.5235 -0.7465  2.2829
  768MPD2    H211342   2.474   2.761  10.724 -1.3650 -0.2770  0.2199
  768MPD2    H311343   2.576   2.564  10.677  0.9235 -1.6855 -0.3338
  768MPD2     N11344   2.537   2.393  11.088 -0.3086  0.4047  0.1858
  768MPD2    H511345   2.604   2.326  11.052  0.0540  0.9302 -0.1237
  768MPD2    N111346   2.363   2.836  10.963 -0.2489  0.2487 -0.0773
  768MPD2    H711347   2.323   2.833  11.056  0.1287 -0.3624  0.0644
  769MPD2     C11348   3.959   0.827  15.128 -0.1082  0.0032 -0.6081
  769MPD2    C111349   3.847   0.865  15.194  0.3054  0.1860 -0.5559
  769MPD2    C211350   3.879   0.923  15.315  0.0353 -0.4467  0.0304
  769MPD2    C311351   4.004   0.930  15.364 -0.4258  0.2885  0.2479
  769MPD2    C411352   4.111   0.885  15.295  0.4975  0.0042 -0.1572
  769MPD2    C511353   4.090   0.838  15.173 -0.3392 -0.0380  0.2915
  769MPD2     H11354   3.794   0.960  15.371 -0.3655  0.7612 -1.3678
  769MPD2    H111355   4.216   0.894  15.318  0.5910 -0.0770 -0.5508
  769MPD2    H211356   3.957   0.779  15.030 -2.0093  1.1831 -1.1503
  769MPD2    H311357   4.166   0.818  15.098 -0.1821  3.7904 -0.5416
  769MPD2     N11358   4.009   0.983  15.494 -0.3947 -0.5026 -0.1674
  769MPD2    H511359   3.924   1.021  15.533  0.1483 -0.1027  0.6382
  769MPD2    N111360   3.718   0.845  15.141  0.2030 -0.4681  0.3894
  769MPD2    H711361   3.713   0.770  15.074 -2.4647 -1.1826  1.3981
  770MPD2     C11362   3.086   0.254  15.623 -0.0772 -0.4373 -0.0780
  770MPD2    C111363   3.175   0.209  15.528  0.8564 -0.3626  0.0022
  770MPD2    C211364   3.230   0.295  15.440 -0.5757  0.1397 -0.1823
  770MPD2    C311365   3.192   0.425  15.442 -0.7942 -0.1596  0.5156
  770MPD2    C411366   3.103   0.463  15.533  0.7257 -0.7124 -0.5875
  770MPD2    C511367   3.055   0.383  15.628 -0.1336 -1.0974 -0.2438
  770MPD2     H11368   3.294   0.265  15.357  0.7025 -2.7532  1.8613
  770MPD2    H111369   3.067   0.566  15.536 -1.7171 -1.5644 -0.6908
  770MPD2    H211370   3.031   0.184  15.685  0.7479 -0.8876  0.1521
  770MPD2    H311371   2.983   0.433  15.693  0.0606 -0.9267 -0.1597
  770MPD2     N11372   3.252   0.511  15.350 -1.0652 -0.9908  0.6550
  770MPD2    H511373   3.307   0.467  15.276  0.9923  1.7954  0.5513
  770MPD2    N111374   3.207   0.076  15.530 -0.3752  0.4126 -0.1464
  770MPD2    H711375   3.157   0.018  15.597  0.4140  0.7789  0.7579
  771MPD2     C11376   4.708   3.189  13.847  0.1253  0.3882 -0.7206
  771MPD2    C111377   4.660   3.295  13.782  0.4295  0.5799 -0.3590
  771MPD2    C211378   4.548   3.276  13.708 -0.6512  0.3512  0.7021
  771MPD2    C311379   4.489   3.154  13.684 -0.3029 -0.2213 -0.7027
  771MPD2    C411380   4.552   3.042  13.737 -0.1012 -0.2674  0.4630
  771MPD2    C511381   4.663   3.064  13.818  0.1011  1.2271 -0.2579
  771MPD2     H11382   4.511   3.360  13.650 -3.1689  0.2410  2.1676
  771MPD2    H111383   4.515   2.940  13.725  1.7025 -0.7633 -0.8540
  771MPD2    H211384   0.062   3.193  13.924  0.6913  0.2713 -1.2814
  771MPD2    H311385   0.002   2.984  13.860 -2.2185  0.2115  1.1834
  771MPD2     N11386   4.370   3.148  13.602  0.0661 -0.4569  0.0089
  771MPD2    H511387   4.317   3.230  13.573 -0.0982 -0.9167 -0.9924
  771MPD2    N111388   0.000   3.420  13.788 -0.1587  0.0480 -0.7540
  771MPD2    H711389   4.669   3.489  13.737 -1.1578 -0.2803 -0.1475
  772MPD2     C11390   4.597   4.160  13.843  0.1159 -0.3384 -0.3590
  772MPD2    C111391   4.563   4.029  13.811  0.3373 -0.4129 -0.2656
  772MPD2    C211392   4.430   3.988  13.828  0.0813  0.0042  0.0518
  772MPD2    C311393   4.334   4.070  13.869 -0.4349  0.0413 -0.0384
  772MPD2    C411394   4.370   4.201  13.898  0.2679 -0.1536  0.4851
  772MPD2    C511395   4.499   4.242  13.888  0.5538  0.3911  0.2361
  772MPD2     H11396   4.409   3.882  13.818 -0.7367  0.1921 -0.2083
  772MPD2    H111397   4.304   4.275  13.942  0.8957  0.8779 -0.2972
  772MPD2    H211398   4.701   4.191  13.846  0.0209 -0.0608  0.2337
  772MPD2    H311399   4.530   4.343  13.916  2.0191  0.0305 -0.0692
  772MPD2     N11400   4.198   4.036  13.879  0.6842  0.0588  0.3918
  772MPD2    H511401   4.140   4.101  13.931  0.4552  1.0600 -1.1204
  772MPD2    N111402   4.661   3.925  13.789  0.2075  0.5436 -0.6857
  772MPD2    H711403   4.636   3.831  13.762  2.4129  0.0582 -1.0319
  773MPD2     C11404   3.576   0.152   0.364  0.3412 -0.2637  0.1510
  773MPD2    C111405   3.588   0.069   0.253  0.1643  0.7606 -0.4271
  773MPD2    C211406   3.639   4.665   0.269  0.2578  1.0286  0.0900
  773MPD2    C311407   3.710   4.632   0.381  0.6021  0.2957  0.9960
  773MPD2    C411408   3.705   4.716   0.490 -0.3292  0.3384  0.3448
  773MPD2    C511409   3.633   0.103   0.478  0.1742 -0.5839 -0.4654
  773MPD2     H11410   3.636   4.595   0.187  0.4632 -1.1526  1.9636
  773MPD2    H111411   3.749   4.685   0.585  1.0272  0.2572 -0.3041
  773MPD2    H211412   3.515   0.242   0.369 -2.3366 -2.0339 -0.7990
  773MPD2    H311413   3.623   0.171   0.562 -0.2379  0.0042 -0.9895
  773MPD2     N11414   3.779   4.507   0.379  0.6787  0.4697 -0.1079
  773MPD2    H511415   3.781   4.456   0.292  0.8612  0.3615 -0.0413
  773MPD2    N111416   3.507   0.096   0.136 -0.0742 -0.3170 -0.7030
  773MPD2    H711417   3.508   0.025   0.063 -1.3550 -0.6287 -0.4310
  774MPD2     C11418   2.326   3.983  13.520 -0.3265  0.5697 -0.2612
  774MPD2    C111419   2.463   3.965  13.507  0.4142  0.1511  0.3457
  774MPD2    C211420   2.521   3.996  13.382 -0.5593 -0.7381  0.4261
  774MPD2    C311421   2.450   4.038  13.272  0.8878 -0.3673 -0.0761
  774MPD2    C411422   2.312   4.039  13.289  0.5624 -0.7487  0.0972
  774MPD2    C511423   2.252   4.020  13.413 -0.3643 -0.4836  0.3901
  774MPD2     H11424   2.628   4.006  13.370 -0.6510 -1.0074 -0.6019
  774MPD2    H111425   2.245   4.076  13.213 -0.5268 -0.8743  0.9898
  774MPD2    H211426   2.272   3.979  13.615 -1.6980 -0.5853 -1.0762
  774MPD2    H311427   2.146   4.033  13.429 -0.1200 -1.1912  2.5410
  774MPD2     N11428   2.514   4.089  13.160  0.3304  0.3138 -0.3924
  774MPD2    H511429   2.616   4.093  13.161  0.3295  0.3238 -0.1875
  774MPD2    N111430   2.541   3.933  13.627  0.5392  0.9598  0.1203
  774MPD2    H711431   2.482   3.914  13.707 -0.4120 -0.0076 -0.8080
  775MPD2     C11432   4.042   0.576  15.850 -0.0419  0.0768  0.2494
  775MPD2    C111433   4.070   0.662  15.955  0.2311  0.4948 -0.1398
  775MPD2    C211434   4.165   0.759  15.937 -0.0346 -0.9906 -0.2355
  775MPD2    C311435   4.242   0.762  15.816  0.5126  0.3667  0.1704
  775MPD2    C411436   4.216   0.661  15.725 -0.2589 -0.4277  0.5681
  775MPD2    C511437   4.110   0.580  15.733 -0.2115  0.1637  0.2577
  775MPD2     H11438   4.172   0.840  16.008  0.6926 -0.5084 -0.8667
  775MPD2    H111439   4.268   0.651  15.630 -0.1337  1.0021  0.4802
  775MPD2    H211440   3.959   0.510  15.871  0.2359  0.1464  1.5533
  775MPD2    H311441   4.076   0.514  15.654  0.5944  0.0345  0.0220
  775MPD2     N11442   4.335   0.864  15.781 -0.1279  0.5715  0.3857
  775MPD2    H511443   4.372   0.857  15.686  1.9252  1.6573  1.1149
  775MPD2    N111444   3.997   0.650  16.072  0.3003 -0.1153  0.4965
  775MPD2    H711445   3.922   0.582  16.070 -2.0809  2.5009  0.1420
  776MPD2     C11446   3.318   0.646  12.086 -0.3171 -0.1685  0.7893
  776MPD2    C111447   3.264   0.649  11.956  0.0988 -0.3821  0.4846
  776MPD2    C211448   3.270   0.779  11.900 -0.3226  0.7921  0.0144
  776MPD2    C311449   3.320   0.895  11.962  0.4982 -0.3839  0.2835
  776MPD2    C411450   3.370   0.875  12.089 -0.1554  0.4506  0.1009
  776MPD2    C511451   3.361   0.758  12.152 -0.3530 -0.7954  0.0836
  776MPD2     H11452   3.242   0.790  11.796 -2.4150 -0.4297  0.4561
  776MPD2    H111453   3.401   0.955  12.155  1.4653  0.3589 -0.5465
  776MPD2    H211454   3.328   0.553  12.140 -1.2173 -1.5106 -1.3409
  776MPD2    H311455   3.394   0.741  12.254 -0.4441  0.3072  0.2995
  776MPD2     N11456   3.309   1.022  11.899 -0.3364  0.2662 -0.4814
  776MPD2    H511457   3.266   1.014  11.807  0.9965 -1.6827 -0.9487
  776MPD2    N111458   3.218   0.536  11.878 -0.0248  0.6854 -0.4152
  776MPD2    H711459   3.187   0.555  11.783 -0.7650 -0.8583 -0.4779
  777MPD2     C11460   4.158   3.479   1.082  0.3316 -0.1392 -0.1843
  777MPD2    C111461   4.261   3.401   1.130 -0.3881  0.4149  0.2198
  777MPD2    C211462   4.295   3.281   1.067  0.7351 -0.0554  0.3116
  777MPD2    C311463   4.229   3.246   0.949  0.3732 -0.3671 -0.9863
  777MPD2    C411464   4.141   3.334   0.895  0.4870 -0.1795  0.1895
  777MPD2    C511465   4.113   3.448   0.958  0.2174 -0.5708 -0.6823
  777MPD2     H11466   4.364   3.212   1.115  1.7876  0.8654  0.1507
  777MPD2    H111467   4.091   3.313   0.801  1.0307 -1.8623  0.2734
  777MPD2    H211468   4.128   3.576   1.122 -0.0979 -0.1326 -0.5197
  777MPD2    H311469   4.043   3.518   0.914 -0.4881 -1.6531 -1.2636
  777MPD2     N11470   4.244   3.112   0.908  0.5803 -0.0979  0.3437
  777MPD2    H511471   4.331   3.063   0.926  1.7855  2.9564  2.8870
  777MPD2    N111472   4.324   3.445   1.245  0.4146  0.8523 -0.0512
  777MPD2    H711473   4.285   3.534   1.274  2.1417 -0.3430  5.8609
  778MPD2     C11474   0.031   3.448  14.893 -0.0451  0.3276 -0.0186
  778MPD2    C111475   0.074   3.315  14.878  0.0241  0.5242 -0.4649
  778MPD2    C211476   0.178   3.284  14.794  1.0534 -0.2698  0.5048
  778MPD2    C311477   0.243   3.389  14.730  0.2711 -0.2753 -0.0339
  778MPD2    C411478   0.188   3.522  14.738  0.0356 -0.7719 -0.7705
  778MPD2    C511479   0.079   3.545  14.809 -0.8545  0.7275 -0.1061
  778MPD2     H11480   0.222   3.186  14.784 -0.5645 -1.1649  2.0602
  778MPD2    H111481   0.236   3.606  14.688 -2.0618 -0.0490 -1.5746
  778MPD2    H211482   4.667   3.478  14.951 -0.5623 -0.2295 -0.5023
  778MPD2    H311483   0.038   3.645  14.798 -1.4270  0.2972 -1.9819
  778MPD2     N11484   0.343   3.349  14.633  0.0428  0.4988  0.0045
  778MPD2    H511485   0.384   3.258  14.653 -0.2620  0.3187 -0.2092
  778MPD2    N111486   0.011   3.204  14.940 -0.4449  0.5565 -0.1834
  778MPD2    H711487   0.048   3.111  14.922  3.2318  1.4339  2.9898
  779MPD2     C11488   4.633   2.341  14.157 -0.0121 -0.0478  0.0461
  779MPD2    C111489   4.692   2.366  14.283  0.0075 -0.4574 -0.1744
  779MPD2    C211490   4.703   2.499  14.326  0.5169 -1.1111 -0.3719
  779MPD2    C311491   4.648   2.600  14.252  0.0820  0.1968  0.3589
  779MPD2    C411492   4.589   2.575  14.129 -0.3698 -0.0058  0.1378
  779MPD2    C511493   4.597   2.450  14.085  0.1054  0.2504 -0.5428
  779MPD2     H11494   0.018   2.509  14.427  0.8717 -1.8107 -0.4370
  779MPD2    H111495   4.547   2.655  14.068  0.9895  1.1784  0.7404
  779MPD2    H211496   4.624   2.243  14.113  0.1726 -0.2744  0.5230
  779MPD2    H311497   4.538   2.433  13.996 -0.2517 -0.9126 -0.0830
  779MPD2     N11498   4.650   2.732  14.293 -0.2073  0.4840 -0.1689
  779MPD2    H511499   4.720   2.761  14.361  0.4406 -1.8332  0.1636
  779MPD2    N111500   0.017   2.260  14.369 -0.3600  0.0080 -0.0537
  779MPD2    H711501   0.061   2.278  14.459  2.1409  2.0488 -1.6799
  780MPD2     C11502   4.469   1.682   1.515  0.2592  0.3597 -0.3054
  780MPD2    C111503   4.376   1.740   1.431  0.1136  0.5705 -0.2064
  780MPD2    C211504   4.407   1.854   1.363 -0.4610  0.0242  0.1145
  780MPD2    C311505   4.530   1.906   1.369 -0.5713  0.4671 -0.0123
  780MPD2    C411506   4.622   1.847   1.452  0.9096 -0.4609  0.5939
  780MPD2    C511507   4.594   1.735   1.524 -0.2184 -1.0915  0.0627
  780MPD2     H11508   4.330   1.891   1.297 -0.4659 -1.3720 -0.6706
  780MPD2    H111509   0.002   1.883   1.464  1.6876 -2.5215  0.1559
  780MPD2    H211510   4.453   1.591   1.571 -0.3829  0.2366 -0.6919
  780MPD2    H311511   4.672   1.696   1.588 -0.6509 -2.7901 -0.4511
  780MPD2     N11512   4.548   2.017   1.287  0.2082 -0.3569  0.0367
  780MPD2    H511513   4.472   2.036   1.222  0.8033  0.0424 -0.5345
  780MPD2    N111514   4.251   1.673   1.415  0.3551  0.4189 -0.4240
  780MPD2    H711515   4.248   1.581   1.458  0.5864 -0.0180 -1.3490
  781MPD2     C11516   0.721   4.258  11.990 -0.2791  0.7999  0.1807
  781MPD2    C111517   0.833   4.187  11.969 -0.4589  0.2771 -0.0008
  781MPD2    C211518   0.877   4.159  11.838 -0.2126 -0.1361 -0.2746
  781MPD2    C311519   0.807   4.206  11.726  0.1172 -0.5745  0.8832
  781MPD2    C411520   0.699   4.291  11.750 -0.3599 -0.4023  0.4893
  781MPD2    C511521   0.658   4.320  11.880  0.5071 -0.0243  0.0574
  781MPD2     H11522   0.963   4.093  11.828  0.1284  0.1980  0.4906
  781MPD2    H111523   0.642   4.335  11.669 -0.2085 -0.0276  0.5854
  781MPD2    H211524   0.681   4.272  12.090  1.1996 -0.4568  0.9518
  781MPD2    H311525   0.569   4.380  11.895  0.8795  0.3047  0.9136
  781MPD2     N11526   0.839   4.178  11.590 -0.1594 -0.1522  0.4683
  781MPD2    H511527   0.788   4.235  11.523  0.7013  0.0619  0.0033
  781MPD2    N111528   0.912   4.150  12.078 -0.6291 -0.3127 -0.2410
  781MPD2    H711529   0.994   4.091  12.064 -0.8518 -0.1926 -1.9897
  782MPD2     C11530   4.348   4.677  10.144  0.2143 -0.1537 -0.2819
  782MPD2    C111531   4.282   4.617  10.246  0.1014  0.3157  0.1007
  782MPD2    C211532   4.211   4.691  10.338  0.1279 -0.0855 -0.3340
  782MPD2    C311533   4.199   0.105  10.321 -0.2140 -0.3636  0.7155
  782MPD2    C411534   4.261   0.165  10.211  0.1333  0.8867 -0.0579
  782MPD2    C511535   4.339   0.095  10.121 -0.0723  0.1397 -0.4734
  782MPD2     H11536   4.146   4.640  10.408 -0.1162  0.5171 -0.1191
  782MPD2    H111537   4.256   0.271  10.191  0.1864  0.5802 -1.6835
  782MPD2    H211538   4.414   4.618  10.080 -0.1718  2.0622 -2.7089
  782MPD2    H311539   4.390   0.149  10.042  1.6637  1.7063  1.7268
  782MPD2     N11540   4.149   0.187  10.424  0.1525 -0.3578 -0.1782
  782MPD2    H511541   4.155   0.287  10.405 -1.5843 -0.5921 -2.0009
  782MPD2    N111542   4.286   4.476  10.265 -0.2587 -0.0705 -0.2493
  782MPD2    H711543   4.357   4.422  10.215 -1.2110 -0.6014 -1.0179
  783MPD2     C11544   3.626   3.892  10.739  0.6581 -0.0497  0.1656
  783MPD2    C111545   3.643   4.024  10.758  0.0801 -0.1159 -0.4478
  783MPD2    C211546   3.759   4.081  10.703  0.2748  0.2724 -0.7647
  783MPD2    C311547   3.862   4.001  10.657  0.3444  0.7812 -0.5814
  783MPD2    C411548   3.834   3.864  10.638  0.5574  0.1923  0.6531
  783MPD2    C511549   3.718   3.813  10.676 -0.2405  0.0933 -0.0368
  783MPD2     H11550   3.777   4.186  10.723  2.6049 -0.0756 -1.0516
  783MPD2    H111551   3.909   3.792  10.607  3.7860  3.5026  0.7254
  783MPD2    H211552   3.531   3.850  10.767  0.4126 -0.2720 -0.9934
  783MPD2    H311553   3.698   3.708  10.660 -0.1989  0.2722 -1.2850
  783MPD2     N11554   3.985   4.056  10.613  0.2219 -0.5716  0.5232
  783MPD2    H511555   3.984   4.158  10.606  4.4609 -0.4624  1.3639
  783MPD2    N111556   3.554   4.094  10.836 -0.3176 -0.0735 -0.4468
  783MPD2    H711557   3.459   4.057  10.839 -1.1367  2.0524 -0.1478
  784MPD2     C11558   2.174   0.068   0.562  0.1549  0.6084 -0.0499
  784MPD2    C111559   2.080   0.085   0.667 -0.1723  0.8741 -0.5100
  784MPD2    C211560   1.960   0.156   0.637 -0.3788  0.0626 -0.1959
  784MPD2    C311561   1.941   0.216   0.510 -0.6658  0.1485  1.1349
  784MPD2    C411562   2.031   0.198   0.405  0.8225 -0.5712  1.0178
  784MPD2    C511563   2.140   0.121   0.437 -0.2046  0.2287 -0.0294
  784MPD2     H11564   1.893   0.181   0.718 -2.4755  0.7484 -2.1300
  784MPD2    H111565   2.027   0.250   0.310 -0.6592  0.5094  1.6718
  784MPD2    H211566   2.271   0.020   0.569  0.4532  0.8744 -2.3289
  784MPD2    H311567   2.213   0.103   0.359 -1.3586  0.8507 -1.2404
  784MPD2     N11568   1.812   0.291   0.494  0.0415  0.9282 -0.2423
  784MPD2    H511569   1.749   0.298   0.573 -1.2147 -1.3645 -1.0308
  784MPD2    N111570   2.102   0.047   0.799 -0.3344 -0.0890 -0.2132
  784MPD2    H711571   2.031   0.074   0.866 -0.4939  1.8527 -1.1680
  785MPD2     C11572   1.792   3.730  10.784 -0.1792  0.2461  0.4806
  785MPD2    C111573   1.659   3.758  10.767  0.0442 -0.7332 -0.2708
  785MPD2    C211574   1.576   3.662  10.717  0.0433  0.1763  0.5354
  785MPD2    C311575   1.634   3.536  10.692 -0.6600 -0.3871 -0.1176
  785MPD2    C411576   1.772   3.510  10.719  0.1400 -0.2816  0.0685
  785MPD2    C511577   1.851   3.606  10.775 -0.6169 -0.1059  0.2500
  785MPD2     H11578   1.474   3.679  10.683 -0.1510  1.9952  2.0386
  785MPD2    H111579   1.812   3.410  10.709 -0.4298 -0.6109  1.1066
  785MPD2    H211580   1.861   3.807  10.817  1.6034 -1.3027  0.3743
  785MPD2    H311581   1.955   3.579  10.770 -0.2540  1.4179 -0.4326
  785MPD2     N11582   1.552   3.433  10.664 -0.2403 -0.3386 -0.5376
  785MPD2    H511583   1.454   3.459  10.661 -0.4330 -1.0899 -0.8707
  785MPD2    N111584   1.607   3.894  10.775  0.5433  0.1450 -0.3091
  785MPD2    H711585   1.513   3.903  10.739  0.8430  1.9366 -0.6423
  786MPD2     C11586   0.215   1.635  14.811  0.5445 -0.1621 -0.2112
  786MPD2    C111587   0.303   1.535  14.847  0.5934 -0.7067 -0.3153
  786MPD2    C211588   0.415   1.555  14.926 -0.0308  0.0141 -0.0602
  786MPD2    C311589   0.448   1.683  14.962  0.8997 -0.6587 -0.6673
  786MPD2    C411590   0.371   1.786  14.918  0.4430 -0.3920  0.4337
  786MPD2    C511591   0.256   1.763  14.845 -0.2318 -0.3716 -0.2845
  786MPD2     H11592   0.475   1.474  14.966 -2.0425 -0.1120  2.6766
  786MPD2    H111593   0.390   1.889  14.946  0.1630  0.0126 -0.8642
  786MPD2    H211594   0.121   1.619  14.760 -1.5226  0.5853  3.3449
  786MPD2    H311595   0.199   1.846  14.805 -2.2492 -2.4335 -1.6455
  786MPD2     N11596   0.571   1.725  15.030  0.2379  0.1793  0.2082
  786MPD2    H511597   0.592   1.824  15.035 -0.1913  0.2737  0.1341
  786MPD2    N111598   0.275   1.400  14.806  1.3328  0.2442  0.2372
  786MPD2    H711599   0.332   1.326  14.846  1.2814 -0.3001 -0.7145
  787MPD2     C11600   0.143   0.916  15.234 -0.1487  0.3251  0.1569
  787MPD2    C111601   0.185   0.887  15.108 -0.5148 -0.5962  0.2606
  787MPD2    C211602   0.262   0.775  15.088  0.3247 -0.4657 -0.1124
  787MPD2    C311603   0.292   0.686  15.187  0.1036 -0.4995 -0.3500
  787MPD2    C411604   0.247   0.716  15.314 -0.2746 -0.1641 -0.8333
  787MPD2    C511605   0.177   0.831  15.333 -0.0696  0.0726 -0.1977
  787MPD2     H11606   0.305   0.763  14.989 -2.0949 -0.5736 -1.1483
  787MPD2    H111607   0.277   0.664  15.404  1.1493 -0.7776 -1.6559
  787MPD2    H211608   0.077   0.998  15.259  0.5932  1.0667 -0.3000
  787MPD2    H311609   0.157   0.857  15.437  1.1306  3.0355 -0.7278
  787MPD2     N11610   0.390   0.584  15.169  0.3555 -0.0871  0.2694
  787MPD2    H511611   0.438   0.589  15.080  0.6394 -2.0335  0.3064
  787MPD2    N111612   0.155   0.979  15.004  0.0519 -0.2123 -0.5168
  787MPD2    H711613   0.157   1.080  15.018  1.5708  0.1202 -3.0720
  788MPD2     C11614   2.376   4.531   0.454  0.8705 -0.1979 -0.1718
  788MPD2    C111615   2.392   4.405   0.506 -0.4780  0.6903  0.2193
  788MPD2    C211616   2.340   4.300   0.434  0.3127  0.3295  0.0946
  788MPD2    C311617   2.300   4.315   0.299 -0.3248 -0.6400  0.0792
  788MPD2    C411618   2.303   4.441   0.246  0.5760  0.0881  0.6126
  788MPD2    C511619   2.333   4.547   0.325  0.7927 -0.3065 -0.0791
  788MPD2     H11620   2.335   4.200   0.475  0.6682 -0.0202 -0.7319
  788MPD2    H111621   2.275   4.455   0.142 -0.8614 -0.9576  0.8487
  788MPD2    H211622   2.395   4.620   0.514  1.3281  1.1508 -2.2976
  788MPD2    H311623   2.316   4.643   0.277 -1.0120 -0.8078 -0.4538
  788MPD2     N11624   2.261   4.210   0.212 -0.2417 -0.4013 -0.1108
  788MPD2    H511625   2.218   4.235   0.124 -1.0586 -1.8526 -0.1110
  788MPD2    N111626   2.445   4.387   0.639 -0.0106 -0.2216  0.3051
  788MPD2    H711627   2.446   4.468   0.700 -0.7650 -0.0355  0.0677
  789MPD2     C11628   2.467   4.293  16.310 -0.3230 -0.2778  0.2704
  789MPD2    C111629   2.452   4.223  16.425 -0.4446 -0.1650 -0.3487
  789MPD2    C211630   2.336   4.239  16.487 -0.1700 -0.1851 -0.2174
  789MPD2    C311631   2.238   4.318  16.438 -0.3238 -0.3030 -0.9246
  789MPD2    C411632   2.247   4.366  16.308 -0.4421  0.8956  0.0429
  789MPD2    C511633   2.361   4.351  16.243  0.3368  0.0945 -0.8903
  789MPD2     H11634   2.326   4.188  16.582  1.1204  1.2149  0.6624
  789MPD2    H111635   2.168   4.417  16.254 -1.5522 -1.2660 -0.3572
  789MPD2    H211636   2.548   4.269  16.242  1.2014  3.6895  0.7010
  789MPD2    H311637   2.363   4.374  16.137  1.6609 -0.9119 -1.0745
  789MPD2     N11638   2.121   4.343  16.514 -0.1357 -0.0147  0.4602
  789MPD2    H511639   2.056   4.405  16.467  0.5382  0.1960 -0.2071
  789MPD2    N111640   2.547   4.134  16.480 -0.5820  0.1495 -0.1788
  789MPD2    H711641   2.525   4.092  16.570 -0.3226  0.8581  0.2138
  790MPD2     C11642   3.365   1.590  13.451 -0.1566 -0.4118 -0.0582
  790MPD2    C111643   3.385   1.470  13.513 -0.0084  0.4287  0.0436
  790MPD2    C211644   3.375   1.355  13.437 -0.1137  0.5777  0.6380
  790MPD2    C311645   3.363   1.365  13.302 -0.6351 -0.2770 -0.0277
  790MPD2    C411646   3.355   1.487  13.245 -0.2760 -0.3940 -0.6499
  790MPD2    C511647   3.354   1.602  13.317  0.0849 -0.5630  0.6263
  790MPD2     H11648   3.371   1.259  13.488  0.7199 -0.8474 -1.9681
  790MPD2    H111649   3.365   1.505  13.138 -0.7013 -0.1265 -0.6452
  790MPD2    H211650   3.382   1.683  13.505 -2.0877  0.7764 -1.5170
  790MPD2    H311651   3.357   1.696  13.263  3.3908 -0.7330  0.4717
  790MPD2     N11652   3.364   1.247  13.224  0.0638  1.0916 -0.2727
  790MPD2    H511653   3.376   1.160  13.276 -1.2034  0.5946 -0.8093
  790MPD2    N111654   3.382   1.470  13.662 -0.1644 -0.5527 -0.2880
  790MPD2    H711655   3.348   1.554  13.708 -0.3079 -0.9829  0.4000
  791MPD2     C11656   2.912   1.114  12.554 -0.4063 -0.0980 -0.1013
  791MPD2    C111657   2.952   1.015  12.639  0.0736  0.2087  0.4526
  791MPD2    C211658   2.882   0.898  12.625 -0.7236  0.3144  0.9818
  791MPD2    C311659   2.769   0.886  12.556  0.1565  0.2365  1.1310
  791MPD2    C411660   2.721   0.991  12.478  0.4945 -0.3186 -0.0942
  791MPD2    C511661   2.797   1.103  12.482  0.4448  0.8046 -0.3262
  791MPD2     H11662   2.906   0.814  12.689  0.3288  0.8214  1.2476
  791MPD2    H111663   2.626   1.002  12.427  0.7735  2.3765 -0.0031
  791MPD2    H211664   2.968   1.207  12.550 -3.1030  1.4226 -1.7041
  791MPD2    H311665   2.772   1.191  12.424  1.3867  0.1816 -1.6789
  791MPD2     N11666   2.693   0.772  12.582  0.3845  0.7900  0.3820
  791MPD2    H511667   2.722   0.702  12.650  0.6320  0.5892  0.0734
  791MPD2    N111668   3.067   1.030  12.720 -0.7079 -1.0618  0.3378
  791MPD2    H711669   3.109   1.122  12.720  1.1669 -1.9428  2.6301
  792MPD2     C11670   3.636   0.525  11.590 -0.1006  0.5567 -0.6604
  792MPD2    C111671   3.521   0.585  11.542  0.5295  0.1248 -0.4733
  792MPD2    C211672   3.459   0.541  11.427  0.5295 -0.1037 -0.3848
  792MPD2    C311673   3.513   0.429  11.358  1.0066  0.0612 -0.1455
  792MPD2    C411674   3.625   0.364  11.410 -0.1017 -0.1582  0.0567
  792MPD2    C511675   3.683   0.411  11.524 -0.3964  0.1283 -0.2705
  792MPD2     H11676   3.375   0.593  11.383  0.0411 -0.5700  0.0054
  792MPD2    H111677   3.657   0.268  11.370 -0.9264  0.5568 -2.3333
  792MPD2    H211678   3.691   0.568  11.673 -0.1550 -0.4254 -0.1100
  792MPD2    H311679   3.764   0.349  11.562 -1.6373 -1.3889 -0.1012
  792MPD2     N11680   3.468   0.390  11.229  0.0842 -0.1940 -0.2290
  792MPD2    H511681   3.528   0.323  11.184 -1.4926 -0.8907 -1.2870
  792MPD2    N111682   3.490   0.709  11.599  0.1922  0.2591 -0.2654
  792MPD2    H711683   3.567   0.750  11.651 -0.3950  1.8948 -0.6843
  793MPD2     C11684   2.727   0.345  10.424 -0.1613 -0.0879 -0.4186
  793MPD2    C111685   2.848   0.377  10.369 -0.2493 -0.2810 -0.7721
  793MPD2    C211686   2.960   0.361  10.450  0.3340  0.3928  0.0535
  793MPD2    C311687   2.952   0.343  10.586 -0.6253  0.4939  0.5830
  793MPD2    C411688   2.827   0.331  10.645  0.1855  0.3123  0.9334
  793MPD2    C511689   2.719   0.340  10.562  0.3020 -0.2292  0.5184
  793MPD2     H11690   3.056   0.379  10.403  0.5169 -4.6472 -1.4498
  793MPD2    H111691   2.809   0.316  10.751  0.2955  0.2936  0.9497
  793MPD2    H211692   2.633   0.347  10.370  0.0928 -0.3597 -0.8747
  793MPD2    H311693   2.621   0.334  10.608 -0.2476 -0.5641 -0.6976
  793MPD2     N11694   3.074   0.344  10.660  0.5087  0.3447 -0.8669
  793MPD2    H511695   3.155   0.373  10.607  1.9088  2.4629  2.4212
  793MPD2    N111696   2.864   0.427  10.238  0.3454 -0.5563 -0.3735
  793MPD2    H711697   2.958   0.457  10.213  0.4285 -0.4024  0.1146
  794MPD2     C11698   3.194   0.680  17.237  0.2346 -0.1776  0.4848
  794MPD2    C111699   3.204   0.542  17.212 -0.9567  0.5216  0.2688
  794MPD2    C211700   3.147   0.504  17.095  0.0051 -0.1334 -0.1175
  794MPD2    C311701   3.099   0.593  16.999  0.0961 -0.2292 -0.2759
  794MPD2    C411702   3.100   0.725  17.024  0.5843  0.3179 -0.3822
  794MPD2    C511703   3.150   0.767  17.139  0.2553  0.5572  0.5317
  794MPD2     H11704   3.138   0.396  17.082  3.7047 -0.4361 -0.2507
  794MPD2    H111705   3.059   0.805  16.962 -3.0396  0.3185  2.0353
  794MPD2    H211706   3.230   0.714  17.333  0.6810 -0.9854  0.6038
  794MPD2    H311707   3.151   0.872  17.163 -0.2007  0.7338 -0.2210
  794MPD2     N11708   3.032   0.555  16.880 -0.2671  0.1181  0.6476
  794MPD2    H511709   2.988   0.635  16.836  1.3833  1.6942  1.8242
  794MPD2    N111710   3.250   0.441  17.302  0.3216  0.3213  0.0798
  794MPD2    H711711   3.271   0.352  17.256  1.1125  0.8865 -0.6588
  795MPD2     C11712   1.057   2.592  13.459 -0.4939 -0.2787 -0.0384
  795MPD2    C111713   1.024   2.459  13.434  0.4458 -0.4921  0.2115
  795MPD2    C211714   1.028   2.365  13.540 -0.1986  0.1199  0.2028
  795MPD2    C311715   1.079   2.408  13.666  0.6425 -0.2896  0.1326
  795MPD2    C411716   1.107   2.539  13.688 -0.7969  0.5252  0.8445
  795MPD2    C511717   1.100   2.637  13.583 -0.8182  0.2034  0.3691
  795MPD2     H11718   0.994   2.264  13.523  0.5061  0.1439 -1.2764
  795MPD2    H111719   1.132   2.576  13.787 -0.5820  0.3224  0.8674
  795MPD2    H211720   1.047   2.669  13.383 -0.6175  0.4915  0.7627
  795MPD2    H311721   1.135   2.735  13.612 -0.6654  0.0647  0.6506
  795MPD2     N11722   1.078   2.328  13.779 -0.0591  0.0210  0.3168
  795MPD2    H511723   1.113   2.365  13.867  1.6418 -1.3762  0.2319
  795MPD2    N111724   0.979   2.408  13.311 -0.6300  0.2704 -0.1786
  795MPD2    H711725   0.944   2.314  13.325  0.5146  0.0153  0.8949
  796MPD2     C11726   0.330   3.980  16.108  0.1754 -0.0852  0.5478
  796MPD2    C111727   0.412   4.040  16.202 -1.0881  0.4523 -0.3120
  796MPD2    C211728   0.447   4.170  16.184 -0.3335 -0.0414  0.5342
  796MPD2    C311729   0.400   4.237  16.077  0.7421  0.5828 -0.0169
  796MPD2    C411730   0.324   4.178  15.984 -0.1038  0.8021  1.0500
  796MPD2    C511731   0.293   4.046  15.995  0.0137 -0.3008 -0.2560
  796MPD2     H11732   0.502   4.229  16.255 -1.8238 -0.1780  1.8034
  796MPD2    H111733   0.276   4.220  15.897 -1.5304 -0.5532  1.1910
  796MPD2    H211734   0.291   3.879  16.115 -0.7632  0.1688 -0.9679
  796MPD2    H311735   0.222   4.001  15.927 -1.8377  3.0108 -0.5094
  796MPD2     N11736   0.423   4.375  16.080 -0.4416  0.4088 -0.1479
  796MPD2    H511737   0.474   4.419  16.156  0.3986 -2.4479  0.9527
  796MPD2    N111738   0.439   3.967  16.316 -0.3054  0.0824  0.3257
  796MPD2    H711739   0.427   3.867  16.303  3.2663 -0.3455  0.5254
  797MPD2     C11740   1.131   3.005  17.666 -0.2620 -0.4670  0.4535
  797MPD2    C111741   1.203   3.101   0.041 -0.0446 -0.8495 -0.3943
  797MPD2    C211742   1.172   3.233   0.029 -0.3405 -0.0413 -0.4543
  797MPD2    C311743   1.077   3.271  17.632  0.7443 -0.5993 -0.1675
  797MPD2    C411744   1.001   3.184  17.565 -0.3779  0.0414  0.9048
  797MPD2    C511745   1.022   3.050  17.589 -0.0501  0.4611  0.2602
  797MPD2     H11746   1.237   3.311   0.069 -1.4274  0.9359 -0.6085
  797MPD2    H111747   0.933   3.214  17.486 -2.8068  0.6409  3.2057
  797MPD2    H211748   1.143   2.901  17.691 -0.8278 -0.3537  1.1859
  797MPD2    H311749   0.965   2.976  17.534 -0.7658 -0.0035  1.6370
  797MPD2     N11750   1.072   3.410  17.623 -0.3229 -0.6141 -0.1873
  797MPD2    H511751   1.121   3.470  17.689 -1.5568 -0.0314  0.1888
  797MPD2    N111752   1.306   3.069   0.129  0.3461 -0.3333  0.0274
  797MPD2    H711753   1.341   3.158   0.163 -1.3889  0.6205 -0.6571
  798MPD2     C11754   1.640   3.641  17.637 -0.6263 -0.5464 -0.2032
  798MPD2    C111755   1.521   3.621   0.018 -0.4980  0.7324  0.2705
  798MPD2    C211756   1.520   3.511   0.106 -0.2456  0.7477  0.0802
  798MPD2    C311757   1.630   3.432   0.136  0.7017 -0.0833  0.0885
  798MPD2    C411758   1.754   3.469   0.077  0.2302  0.3979  0.4917
  798MPD2    C511759   1.753   3.570  17.669 -0.3905  0.0102  0.1887
  798MPD2     H11760   1.429   3.483   0.158  1.1002 -2.5308  0.6991
  798MPD2    H111761   1.843   3.410   0.097 -0.6064 -0.1272  2.7223
  798MPD2    H211762   1.660   3.722  17.567  1.9139 -1.0757 -0.0836
  798MPD2    H311763   1.847   3.604  17.627 -0.3621 -0.6055 -0.2581
  798MPD2     N11764   1.617   3.315   0.212  0.2749 -0.0180 -0.0250
  798MPD2    H511765   1.522   3.288   0.236 -0.2880  0.9287 -1.2044
  798MPD2    N111766   1.407   3.700  17.676 -0.2179  0.2665  0.0897
  798MPD2    H711767   1.416   3.747  17.587 -0.7684 -1.1307 -0.6992
  799MPD2     C11768   0.425   0.833  14.744  0.2182  0.2111 -0.0450
  799MPD2    C111769   0.364   0.734  14.670  0.2406  0.5906  0.8319
  799MPD2    C211770   0.315   0.760  14.540 -0.6741  0.8366  0.0264
  799MPD2    C311771   0.336   0.890  14.485 -0.6027  0.6575 -0.2286
  799MPD2    C411772   0.416   0.980  14.559  0.6868  0.2768 -0.5470
  799MPD2    C511773   0.457   0.953  14.686 -0.2874  0.2284 -0.8994
  799MPD2     H11774   0.258   0.690  14.479  1.0482  0.3762 -1.0715
  799MPD2    H111775   0.459   1.060  14.500 -1.9842  1.6774 -0.6348
  799MPD2    H211776   0.457   0.805  14.844  1.3083 -0.4850 -0.5837
  799MPD2    H311777   0.519   1.025  14.739  0.9689 -1.2311 -0.3724
  799MPD2     N11778   0.293   0.937  14.357 -0.2608  0.0043 -0.5334
  799MPD2    H511779   0.323   1.029  14.325 -1.3596  0.9825  1.2656
  799MPD2    N111780   0.325   0.609  14.727 -0.2717  0.4321 -0.4384
  799MPD2    H711781   0.245   0.568  14.680  1.0650 -2.1985 -0.4136
  800MPD2     C11782   0.786   1.623  14.692  0.2604  0.1726 -0.1439
  800MPD2    C111783   0.901   1.569  14.643 -0.4623  0.4576 -0.1617
  800MPD2    C211784   0.890   1.470  14.546  0.4959 -0.1604  0.6408
  800MPD2    C311785   0.768   1.417  14.507  0.7857 -0.9038  0.3012
  800MPD2    C411786   0.654   1.464  14.569  0.1967  0.3769 -0.1958
  800MPD2    C511787   0.666   1.580  14.642 -0.4400  0.1968 -0.5458
  800MPD2     H11788   0.979   1.433  14.497  1.4467  0.0749  2.1686
  800MPD2    H111789   0.555   1.424  14.548  1.9265 -2.5936 -2.6771
  800MPD2    H211790   0.781   1.697  14.771 -1.7480  1.6227 -1.6096
  800MPD2    H311791   0.567   1.611  14.673  0.0550  1.5562 -0.3226
  800MPD2     N11792   0.762   1.314  14.416  0.5563 -0.3518  0.1339
  800MPD2    H511793   0.854   1.279  14.391 -0.0403  0.6824 -3.5400
  800MPD2    N111794   1.021   1.630  14.683  0.0930  0.1030  0.0495
  800MPD2    H711795   1.009   1.720  14.728  2.7056 -0.9669  2.8614
  801MPD2     C11796   1.139   2.268  14.386 -0.9455 -0.3942 -0.2941
  801MPD2    C111797   1.089   2.186  14.490  0.1122 -0.2370 -0.4121
  801MPD2    C211798   0.981   2.226  14.564  0.4341  0.3133 -0.2240
  801MPD2    C311799   0.912   2.346  14.548  0.9372 -0.1273 -0.4109
  801MPD2    C411800   0.963   2.428  14.449 -0.2993 -0.3444 -0.1301
  801MPD2    C511801   1.073   2.386  14.373  0.0643 -0.1729  0.0704
  801MPD2     H11802   0.934   2.149  14.626  3.0292  0.1915  1.6066
  801MPD2    H111803   0.924   2.528  14.431  1.1860  0.2516  0.0003
  801MPD2    H211804   1.222   2.248  14.319  0.4247  2.4869  0.5378
  801MPD2    H311805   1.107   2.446  14.289  0.4379 -0.6843 -0.1387
  801MPD2     N11806   0.780   2.371  14.592 -0.0358 -0.0622 -0.6451
  801MPD2    H511807   0.727   2.437  14.535  0.7345  3.5609  2.8250
  801MPD2    N111808   1.151   2.063  14.533 -0.3613  0.5538 -0.5671
  801MPD2    H711809   1.103   2.007  14.602 -0.4420 -0.2075 -1.2510
  802MPD2     C11810   4.557   2.359  17.622 -0.7681 -0.5336  0.3114
  802MPD2    C111811   4.661   2.349   0.016  0.4532 -0.0525  1.1659
  802MPD2    C211812   0.007   2.228   0.029 -0.5988 -0.3753 -0.1826
  802MPD2    C311813   4.685   2.114  17.644 -0.7626  0.2118 -0.1265
  802MPD2    C411814   4.568   2.121  17.573  0.3092 -0.3981 -0.7242
  802MPD2    C511815   4.511   2.245  17.563 -0.0206 -0.0159 -0.4751
  802MPD2     H11816   0.089   2.220   0.099  0.5997  1.1247 -1.4126
  802MPD2    H111817   4.523   2.039  17.520 -0.1374 -0.6347  0.0189
  802MPD2    H211818   4.481   2.435  17.612  3.6071  3.7597 -0.4526
  802MPD2    H311819   4.424   2.257  17.499  0.1190  0.8933 -0.4914
  802MPD2     N11820   0.054   2.007  17.651 -0.8701  0.0776  0.0466
  802MPD2    H511821   0.141   2.016   0.012  1.3347 -0.4943 -3.5090
  802MPD2    N111822   4.709   2.458   0.097  0.2603 -0.1898 -0.1927
  802MPD2    H711823   0.069   2.434   0.151 -0.9512 -1.4720  1.0550
  803MPD2     C11824   1.031   0.875  11.745  0.2148  0.4760 -0.6681
  803MPD2    C111825   1.144   0.959  11.741 -0.3545 -0.5876  0.7606
  803MPD2    C211826   1.232   0.941  11.847 -0.0225 -0.1925  0.2498
  803MPD2    C311827   1.207   0.861  11.958 -0.4242  0.0447 -0.0809
  803MPD2    C411828   1.097   0.775  11.951 -0.5823  0.0181 -0.4331
  803MPD2    C511829   1.010   0.784  11.846  0.2509  0.2361  0.0589
  803MPD2     H11830   1.307   1.018  11.855  1.0874 -1.1220 -1.4129
  803MPD2    H111831   1.079   0.698  12.026  3.2090 -1.4423 -1.0303
  803MPD2    H211832   0.946   0.881  11.679 -0.3004  1.3153  0.0594
  803MPD2    H311833   0.920   0.725  11.843 -0.0011  0.5956  0.5784
  803MPD2     N11834   1.294   0.870  12.068 -0.2789 -0.2897  0.3173
  803MPD2    H511835   1.356   0.950  12.074 -1.5182  0.6273  0.8200
  803MPD2    N111836   1.159   1.057  11.638 -0.3627  0.1621  0.3351
  803MPD2    H711837   1.241   1.115  11.626 -0.1555  0.2244  1.9873
  804MPD2     C11838   0.937   2.061  17.229  0.4758 -0.6151 -0.0486
  804MPD2    C111839   0.927   1.999  17.353  0.0821  0.1533 -0.0665
  804MPD2    C211840   0.974   2.071  17.464 -0.2371  0.4172  0.3024
  804MPD2    C311841   1.047   2.187  17.446 -0.8255 -0.4086  0.5179
  804MPD2    C411842   1.086   2.229  17.316  0.1675  0.7727  0.0116
  804MPD2    C511843   1.015   2.170  17.212 -0.4708 -0.2927 -0.3134
  804MPD2     H11844   0.969   2.030  17.564  0.3779 -0.8593 -0.2029
  804MPD2    H111845   1.151   2.312  17.291 -2.2317  2.7310  0.2564
  804MPD2    H211846   0.905   2.007  17.141  0.6987  1.6777 -1.5567
  804MPD2    H311847   1.025   2.199  17.108 -0.4993 -1.6199 -0.6943
  804MPD2     N11848   1.104   2.237  17.564  0.1592  0.1621  0.4219
  804MPD2    H511849   1.060   2.201  17.648  1.6092  0.2867  1.2310
  804MPD2    N111850   0.868   1.876  17.375 -0.3105  0.5492 -0.2486
  804MPD2    H711851   0.867   1.850  17.473 -3.5469 -1.4692 -0.8235
  805MPD2     C11852   4.692   0.690  15.694 -0.6808 -0.0563  0.3412
  805MPD2    C111853   4.713   0.618  15.574 -0.2349 -0.6523  0.2128
  805MPD2    C211854   0.095   0.530  15.558  1.0015  0.1888  0.2066
  805MPD2    C311855   0.197   0.532  15.653  0.4917 -0.7480 -0.1316
  805MPD2    C411856   0.170   0.591  15.780  0.0643  0.0117 -0.4071
  805MPD2    C511857   0.050   0.655  15.807 -0.5801 -0.3311 -0.5902
  805MPD2     H11858   0.117   0.475  15.467  2.7270  0.3999  0.4996
  805MPD2    H111859   0.243   0.570  15.858  0.3230  0.2907 -0.5730
  805MPD2    H211860   4.608   0.757  15.700 -1.1732 -0.5166 -1.3822
  805MPD2    H311861   0.029   0.696  15.905 -0.3819 -4.2011  1.0536
  805MPD2     N11862   0.319   0.473  15.637 -0.3430  0.0822 -0.3504
  805MPD2    H511863   0.332   0.453  15.538  2.7010  0.9367 -0.1203
  805MPD2    N111864   4.625   0.633  15.459  0.3651  0.3438  0.2610
  805MPD2    H711865   4.643   0.579  15.375 -2.3962  1.1197 -0.8378
  806MPD2     C11866   0.659   4.480   0.464  0.7019 -0.0017  0.7722
  806MPD2    C111867   0.685   4.500   0.596  0.1813 -0.5398 -0.8794
  806MPD2    C211868   0.802   4.559   0.628 -0.1686 -0.4759 -0.5276
  806MPD2    C311869   0.893   4.595   0.533 -0.6569  0.1304  0.1499
  806MPD2    C411870   0.871   4.562   0.400  0.6536  1.0749  0.5196
  806MPD2    C511871   0.750   4.509   0.367  0.4626  0.1189  0.6362
  806MPD2     H11872   0.819   4.590   0.731  1.0083  2.6931 -1.6620
  806MPD2    H111873   0.946   4.574   0.324  1.0731  0.1212  0.7851
  806MPD2    H211874   0.571   4.433   0.421  1.5031 -1.3599  0.6125
  806MPD2    H311875   0.720   4.498   0.263 -0.1992  0.2853  0.8066
  806MPD2     N11876   1.012   4.643   0.582  0.2661  0.2414  0.2607
  806MPD2    H511877   1.026   4.630   0.682 -0.8848 -2.0935  0.1103
  806MPD2    N111878   0.582   4.470   0.690  0.1419 -0.0729 -0.5468
  806MPD2    H711879   0.493   4.438   0.653 -0.5343  0.1989  0.8284
  807MPD2     C11880   0.659   3.913   1.159  0.2409 -0.0961 -0.2236
  807MPD2    C111881   0.640   4.031   1.224 -0.1019  0.1666 -0.2720
  807MPD2    C211882   0.726   4.057   1.326 -0.6560 -0.2153  0.2964
  807MPD2    C311883   0.830   3.976   1.359  0.7631 -0.1565  0.5250
  807MPD2    C411884   0.854   3.864   1.280  0.6410  0.4543 -0.7762
  807MPD2    C511885   0.767   3.834   1.174  0.4358 -0.5198  0.6295
  807MPD2     H11886   0.712   4.152   1.377 -1.0214  0.1226 -0.4351
  807MPD2    H111887   0.932   3.790   1.296  0.0670 -0.0700 -0.4169
  807MPD2    H211888   0.592   3.870   1.085  1.7363 -2.8516  0.0323
  807MPD2    H311889   0.787   3.740   1.122  1.1436  1.8337 -3.3827
  807MPD2     N11890   0.911   4.014   1.471  0.8152 -0.4153 -0.5446
  807MPD2    H511891   0.877   4.088   1.531 -0.0048 -1.0656 -0.2101
  807MPD2    N111892   0.548   4.125   1.181 -0.6673  0.2221 -0.0924
  807MPD2    H711893   0.545   4.201   1.248  1.9549  1.5193 -1.4359
  808MPD2     C11894   1.011   0.800  10.096 -0.1648  0.3572 -0.1646
  808MPD2    C111895   0.944   0.919  10.076  0.2259  0.0064 -0.5208
  808MPD2    C211896   1.013   1.035  10.087  0.5221  0.4887  0.5352
  808MPD2    C311897   1.148   1.032  10.117 -0.5179 -1.0303 -0.4521
  808MPD2    C411898   1.207   0.918  10.149  0.0342  0.4024  0.4489
  808MPD2    C511899   1.145   0.801  10.133 -0.9382  0.1212 -0.1953
  808MPD2     H11900   0.968   1.133  10.078 -1.2876 -0.2044  1.8723
  808MPD2    H111901   1.315   0.912  10.157  0.2757  1.3171 -2.2669
  808MPD2    H211902   0.956   0.707  10.092  2.6353 -1.3126  0.5369
  808MPD2    H311903   1.218   0.721  10.143 -0.4288  0.7114  0.8818
  808MPD2     N11904   1.223   1.156  10.117 -0.1667 -0.1705 -0.3659
  808MPD2    H511905   1.317   1.149  10.154  0.1889 -0.5998 -1.3564
  808MPD2    N111906   0.803   0.924  10.046 -0.4642  0.3112  0.2353
  808MPD2    H711907   0.757   1.010  10.018  0.2263  0.4212 -0.5621
  809MPD2     C11908   2.054   1.068  10.027 -0.2101 -0.1274  0.0037
  809MPD2    C111909   2.061   1.199  10.074  0.5510  0.6947 -0.0895
  809MPD2    C211910   1.937   1.265  10.075 -0.2607 -0.2756  0.2404
  809MPD2    C311911   1.813   1.205  10.039  0.5958  0.2392  0.4217
  809MPD2    C411912   1.819   1.081   9.979  0.2546 -0.9577 -0.3340
  809MPD2    C511913   1.939   1.014   9.975 -0.3900  0.2716  0.4772
  809MPD2     H11914   1.926   1.368  10.106 -1.0036 -0.1671 -0.3963
  809MPD2    H111915   1.730   1.037   9.937  0.7091 -1.7714 -0.4515
  809MPD2    H211916   2.147   1.014  10.015 -0.1348 -0.1192  0.5497
  809MPD2    H311917   1.942   0.912   9.937  0.9260  1.2621 -2.0355
  809MPD2     N11918   1.686   1.275  10.043 -0.7642  0.5910 -0.7829
  809MPD2    H511919   1.606   1.227  10.004 -0.9104  0.3322 -0.1523
  809MPD2    N111920   2.179   1.266  10.100 -0.0284  0.2222  0.6345
  809MPD2    H711921   2.165   1.356  10.145 -1.0836  0.9935 -1.2321
  810MPD2     C11922   0.821   0.847  10.478 -0.6209 -1.1615 -0.2318
  810MPD2    C111923   0.696   0.906  10.478 -0.1883 -0.0113 -0.3526
  810MPD2    C211924   0.684   1.044  10.467 -0.2247  0.0911 -0.2015
  810MPD2    C311925   0.799   1.123  10.443 -0.6790  0.0801  0.5830
  810MPD2    C411926   0.919   1.059  10.432  0.5453 -0.1966 -0.1141
  810MPD2    C511927   0.927   0.924  10.451 -0.4962 -0.6348 -0.3880
  810MPD2     H11928   0.586   1.091  10.466 -1.1681 -1.8657  0.0089
  810MPD2    H111929   1.006   1.107  10.387 -0.2584  0.0060 -1.4545
  810MPD2    H211930   0.841   0.742  10.494 -0.8260 -0.8285  2.1539
  810MPD2    H311931   1.026   0.882  10.435 -1.9492 -3.8084 -0.9927
  810MPD2     N11932   0.793   1.262  10.440  0.6366  0.2280  0.5344
  810MPD2    H511933   0.883   1.308  10.434  0.9316 -0.5915 -1.3310
  810MPD2    N111934   0.579   0.831  10.482  0.3242 -0.4373 -0.4169
  810MPD2    H711935   0.490   0.879  10.480  0.6902  0.2671 -0.1139
  811MPD2     C11936   4.516   0.782  10.224 -0.2630  0.0356 -0.7938
  811MPD2    C111937   4.647   0.826  10.240 -1.3326  0.2111 -1.3405
  811MPD2    C211938   4.693   0.931  10.163  0.0397  0.0302 -0.3297
  811MPD2    C311939   4.619   0.984  10.071 -0.1250 -0.0381 -0.3445
  811MPD2    C411940   4.489   0.947  10.054 -0.0759 -0.0957  0.1588
  811MPD2    C511941   4.429   0.847  10.136  0.3837  0.0032 -0.8243
  811MPD2     H11942   0.067   0.978  10.173 -0.1243  0.6825 -1.8603
  811MPD2    H111943   4.416   0.986   9.984  1.2922 -0.3658 -1.4038
  811MPD2    H211944   4.470   0.718  10.298  3.2018  1.6670  2.7956
  811MPD2    H311945   4.325   0.817  10.132  0.0034  0.8155  2.7151
  811MPD2     N11946   4.684   1.094  10.002 -0.1476 -0.0345  0.0354
  811MPD2    H511947   0.060   1.110  10.026 -0.8273  3.3235  0.5167
  811MPD2    N111948   0.011   0.765  10.340 -0.3463 -0.6978 -0.3092
  811MPD2    H711949   4.698   0.677  10.377  0.5743 -1.3739 -1.0272
  812MPD2     C11950   4.434   1.207  12.561  0.1999 -0.5184  0.0440
  812MPD2    C111951   4.301   1.202  12.581 -0.3412 -0.1102  0.8569
  812MPD2    C211952   4.244   1.078  12.623  0.2690 -0.2339 -0.4051
  812MPD2    C311953   4.326   0.968  12.647  0.8036 -0.1419 -0.5640
  812MPD2    C411954   4.457   0.979  12.629  0.3823 -0.1451 -0.0984
  812MPD2    C511955   4.510   1.094  12.588  0.1999 -0.5678 -0.7194
  812MPD2     H11956   4.137   1.061  12.613  0.4601 -0.9688 -1.2318
  812MPD2    H111957   4.528   0.899  12.650 -0.8898 -1.4362 -0.7173
  812MPD2    H211958   4.487   1.296  12.527  1.5331 -1.3584 -0.0688
  812MPD2    H311959   4.617   1.091  12.571  0.8933 -0.3591  3.6756
  812MPD2     N11960   4.272   0.846  12.699  0.7323 -0.1815  0.0972
  812MPD2    H511961   4.172   0.829  12.696  0.2573  2.5506  0.8582
  812MPD2    N111962   4.230   1.318  12.555 -0.2927 -0.6538  0.5566
  812MPD2    H711963   4.288   1.399  12.535 -0.0652 -0.8012  0.6237
  813MPD2     C11964   3.552   2.467  13.117 -0.1728 -0.2339 -0.1143
  813MPD2    C111965   3.483   2.583  13.109  0.2688  0.3241 -0.2382
  813MPD2    C211966   3.359   2.589  13.173  0.1531 -0.0830 -0.3013
  813MPD2    C311967   3.311   2.480  13.248  0.2625 -0.1698 -0.0081
  813MPD2    C411968   3.379   2.365  13.251 -0.5535 -0.4898  0.2578
  813MPD2    C511969   3.500   2.357  13.186  0.1119  0.0208 -0.6168
  813MPD2     H11970   3.301   2.680  13.169 -0.5339 -0.5919 -2.2016
  813MPD2    H111971   3.350   2.279  13.309  1.1500 -0.9855  0.3831
  813MPD2    H211972   3.649   2.454  13.071 -1.0917 -0.7567 -1.9317
  813MPD2    H311973   3.561   2.267  13.189 -0.1607 -0.1518 -0.2813
  813MPD2     N11974   3.184   2.508  13.315 -0.1268  0.2951  0.0629
  813MPD2    H511975   3.149   2.600  13.291  2.0001  1.0481 -0.1245
  813MPD2    N111976   3.541   2.688  13.037  0.1934 -0.2663  0.1853
  813MPD2    H711977   3.641   2.681  13.019  0.2135  0.4213  0.0256
  814MPD2     C11978   3.500   3.783  12.651  0.1352 -0.8238  0.4353
  814MPD2    C111979   3.585   3.806  12.545  0.0359 -0.4484 -0.5238
  814MPD2    C211980   3.633   3.941  12.533 -0.0651 -0.0908 -0.1069
  814MPD2    C311981   3.586   4.042  12.621 -0.2991 -0.2635 -0.0599
  814MPD2    C411982   3.517   4.005  12.729  0.2143 -1.0749 -0.1107
  814MPD2    C511983   3.479   3.875  12.750 -0.4215  0.2205 -0.3601
  814MPD2     H11984   3.698   3.971  12.452 -0.4629 -0.1171 -0.4336
  814MPD2    H111985   3.481   4.069  12.809 -0.2869 -0.0529 -1.1641
  814MPD2    H211986   3.461   3.684  12.673  0.5432 -1.9245 -3.7854
  814MPD2    H311987   3.426   3.834  12.836 -0.6001 -0.6826 -0.8958
  814MPD2     N11988   3.635   4.173  12.614 -0.6414 -0.8747  0.3133
  814MPD2    H511989   3.616   4.230  12.696  0.2020 -2.6558  1.7421
  814MPD2    N111990   3.627   3.706  12.451 -0.4404 -0.3672  0.8116
  814MPD2    H711991   3.684   3.746  12.377 -0.1462  2.0285  2.3323
  815MPD2     C11992   3.817   2.643  11.932 -0.4211  0.3171 -0.8185
  815MPD2    C111993   3.816   2.504  11.935 -0.3938  0.0084  0.1439
  815MPD2    C211994   3.698   2.435  11.974 -0.4207 -0.5148 -0.1267
  815MPD2    C311995   3.593   2.511  12.026 -0.1504 -0.2819 -1.0509
  815MPD2    C411996   3.594   2.649  12.015  0.2663 -0.0078 -0.1224
  815MPD2    C511997   3.708   2.707  11.975 -0.0962 -0.2080 -1.0588
  815MPD2     H11998   3.685   2.328  11.981 -1.0566 -0.5113 -1.3111
  815MPD2    H111999   3.513   2.703  12.062 -0.3063 -0.9107 -0.0743
  815MPD2    H212000   3.897   2.700  11.887 -1.8616  0.4603 -3.1805
  815MPD2    H312001   3.720   2.815  11.966 -2.0225  0.1774  1.1128
  815MPD2     N12002   3.481   2.439  12.073 -0.7898 -0.2512 -0.0427
  815MPD2    H512003   3.477   2.340  12.050  2.7043 -1.0062  2.5724
  815MPD2    N112004   3.932   2.438  11.893 -0.2898  0.0612 -0.4364
  815MPD2    H712005   4.009   2.497  11.863 -0.2724  1.2763  2.0153
  816MPD2     C12006   4.399   0.916  17.143 -0.2184  0.0495 -0.3340
  816MPD2    C112007   4.427   1.035  17.090  0.5272 -0.6193  0.0181
  816MPD2    C212008   4.479   1.041  16.963  0.2883 -0.5546  0.0084
  816MPD2    C312009   4.516   0.930  16.892 -0.1426 -0.1287 -0.5866
  816MPD2    C412010   4.502   0.810  16.942 -0.4918  0.5845 -0.7948
  816MPD2    C512011   4.438   0.804  17.068  0.9621  0.3546 -0.6442
  816MPD2     H12012   4.505   1.138  16.922 -1.1807 -0.5725 -0.9566
  816MPD2    H112013   4.534   0.719  16.892  0.9537 -1.2914  3.5594
  816MPD2    H212014   4.363   0.896  17.243 -1.5791  2.8924 -0.2587
  816MPD2    H312015   4.427   0.703  17.104  0.6616  1.1720  1.5874
  816MPD2     N12016   4.577   0.957  16.767  0.5169 -0.4022 -0.5644
  816MPD2    H512017   4.573   1.054  16.739 -2.3400 -0.5460 -0.6834
  816MPD2    N112018   4.398   1.150  17.156 -0.5745 -0.3608 -0.0375
  816MPD2    H712019   4.425   1.236  17.109  2.5449 -1.6012 -0.5015
  817MPD2     C12020   3.700   3.110   9.937 -0.0927 -0.7620  0.6263
  817MPD2    C112021   3.670   3.023   9.844 -0.8519 -0.6897  0.0684
  817MPD2    C212022   3.596   3.060   9.732  0.1215 -0.3340  0.3231
  817MPD2    C312023   3.553   3.198   9.723 -1.0351 -0.7434  0.5436
  817MPD2    C412024   3.590   3.288   9.826  0.4766  0.2442  0.0120
  817MPD2    C512025   3.668   3.248   9.926  0.2085 -0.0248  0.3844
  817MPD2     H12026   3.578   2.984   9.656  1.4409  1.2657 -1.5909
  817MPD2    H112027   3.560   3.392   9.826  1.0540  0.4112  0.2078
  817MPD2    H212028   3.744   3.084  10.033  1.7238 -0.1759 -0.0556
  817MPD2    H312029   3.671   3.305  10.017 -2.3347  0.4111  0.2018
  817MPD2     N12030   3.471   3.236   9.614 -0.3185  0.7864 -0.2492
  817MPD2    H512031   3.446   3.164   9.546  0.3552  0.2568  0.0648
  817MPD2    N112032   3.710   2.885   9.857  0.3692  0.5715  0.2134
  817MPD2    H712033   3.698   2.820   9.780  1.8125  1.8571 -1.0921
  818MPD2     C12034   2.727   3.547  10.232  0.9080 -0.1891  0.3150
  818MPD2    C112035   2.615   3.578  10.303  0.0500  0.7892 -0.0322
  818MPD2    C212036   2.515   3.482  10.327 -0.5004  0.3385  0.3545
  818MPD2    C312037   2.521   3.359  10.268  0.4453 -0.5055 -0.7745
  818MPD2    C412038   2.629   3.331  10.178 -0.5851  0.5862  0.6999
  818MPD2    C512039   2.729   3.427  10.160 -0.1414 -0.3928  0.1081
  818MPD2     H12040   2.430   3.514  10.387 -1.4102 -0.1518 -0.6595
  818MPD2    H112041   2.642   3.233  10.133 -1.9415  1.7348 -2.1917
  818MPD2    H212042   2.808   3.608  10.195  0.6073  1.3234  2.1685
  818MPD2    H312043   2.803   3.417  10.082  0.1736  1.0551  0.2198
  818MPD2     N12044   2.419   3.265  10.293 -0.4257 -0.1504 -0.9746
  818MPD2    H512045   2.422   3.189  10.225  0.7891  1.2444 -2.4875
  818MPD2    N112046   2.590   3.707  10.352 -0.1085 -0.0346 -0.2695
  818MPD2    H712047   2.512   3.720  10.416  0.7958  0.5261  0.7242
  819MPD2     C12048   0.882   0.082  15.511 -0.1269 -0.1781 -0.1109
  819MPD2    C112049   0.803   0.023  15.602 -0.0482  0.0388 -0.5576
  819MPD2    C212050   0.857   4.655  15.691  0.2560  0.2065  1.1303
  819MPD2    C312051   0.992   4.624  15.688 -0.2390 -0.2109  0.3467
  819MPD2    C412052   1.069   4.682  15.588  0.0390  0.4533 -0.0124
  819MPD2    C512053   1.012   0.050  15.498 -0.4475 -0.5945  0.2572
  819MPD2     H12054   0.785   4.605  15.755 -0.7247 -0.6278 -0.6291
  819MPD2    H112055   1.171   4.657  15.563  0.0923  0.7296 -0.0742
  819MPD2    H212056   0.837   0.149  15.438  0.8609 -0.3509 -0.8664
  819MPD2    H312057   1.068   0.101  15.420 -0.6358 -0.2221  0.3632
  819MPD2     N12058   1.030   4.502  15.755 -0.3958  0.4933  0.4941
  819MPD2    H512059   0.970   4.462  15.827  1.4797  0.7499  2.1924
  819MPD2    N112060   0.666   0.054  15.596  0.1437  0.4568  0.2116
  819MPD2    H712061   0.632   0.093  15.508 -0.1986  1.3315  0.7315
  820MPD2     C12062   4.554   0.089  15.069 -0.2627  0.3485  0.0159
  820MPD2    C112063   4.605   0.197  15.140  0.4178  0.1849 -0.0449
  820MPD2    C212064   4.674   0.161  15.258 -0.0602 -0.6664  1.0106
  820MPD2    C312065   4.704   0.030  15.292  0.3408 -0.5518 -0.2274
  820MPD2    C412066   4.645   4.648  15.222  0.7132  0.1498 -0.1494
  820MPD2    C512067   4.567   4.681  15.113  0.3149  0.2341  0.2336
  820MPD2     H12068   4.716   0.247  15.309 -0.9101 -0.5772  1.5449
  820MPD2    H112069   4.661   4.546  15.256  1.0028  0.8500  1.8198
  820MPD2    H212070   4.500   0.105  14.975 -0.9620 -0.3173  0.3028
  820MPD2    H312071   4.530   4.607  15.043  0.7419  1.0393 -0.8424
  820MPD2     N12072   0.072   0.000  15.389  0.8559  0.5023  0.2450
  820MPD2    H512073   0.090   4.625  15.414  1.1558  0.3280 -0.6551
  820MPD2    N112074   4.568   0.330  15.105 -0.6311  0.8830 -0.8249
  820MPD2    H712075   4.493   0.334  15.037  1.3963  0.4002 -3.1105
  821MPD2     C12076   0.747   1.437  13.599  0.3486  0.0245 -0.0836
  821MPD2    C112077   0.838   1.341  13.641 -0.6739  0.3017 -0.9907
  821MPD2    C212078   0.953   1.305  13.574 -0.8233  0.0625  0.4038
  821MPD2    C312079   0.988   1.386  13.466 -0.1372 -0.4363  0.3015
  821MPD2    C412080   0.898   1.478  13.422 -0.7043  0.0154 -0.5092
  821MPD2    C512081   0.777   1.501  13.479  0.4946  0.1309  0.0621
  821MPD2     H12082   1.016   1.223  13.607  0.3243  0.5436 -0.5889
  821MPD2    H112083   0.915   1.550  13.343  1.2973 -0.4060 -0.4685
  821MPD2    H212084   0.651   1.458  13.643  1.1903  1.1173  1.2277
  821MPD2    H312085   0.706   1.569  13.433  1.1557  0.8263  0.0664
  821MPD2     N12086   1.105   1.381  13.389  0.0642  0.1416  0.1154
  821MPD2    H512087   1.122   1.459  13.326  1.8682 -1.2938 -1.1789
  821MPD2    N112088   0.823   1.272  13.760  0.1475 -0.1991  0.2733
  821MPD2    H712089   0.906   1.226  13.795  0.0359  0.3369  1.2479
  822MPD2     C12090   1.568   1.504  15.817  0.0876  0.0956  0.8099
  822MPD2    C112091   1.573   1.462  15.948  0.7586 -0.6477 -0.3186
  822MPD2    C212092   1.532   1.551  16.047 -0.1721 -0.5211  0.6526
  822MPD2    C312093   1.488   1.677  16.026 -0.3412 -0.0938 -0.2980
  822MPD2    C412094   1.481   1.718  15.896  0.9333 -0.1335 -0.2692
  822MPD2    C512095   1.520   1.634  15.799  0.1998 -0.9267  0.2497
  822MPD2     H12096   1.536   1.517  16.150  0.8451  0.2054  0.8477
  822MPD2    H112097   1.444   1.817  15.872  0.1832  0.2053  2.2990
  822MPD2    H212098   1.580   1.440  15.731 -1.4552 -0.0700  0.7124
  822MPD2    H312099   1.509   1.666  15.696 -0.5461  0.6331  0.8241
  822MPD2     N12100   1.449   1.751  16.141  0.3974 -0.0212 -0.2225
  822MPD2    H512101   1.458   1.693  16.224 -2.5354  0.3684  0.3521
  822MPD2    N112102   1.635   1.344  15.996 -0.6255  1.0248 -0.8191
  822MPD2    H712103   1.630   1.330  16.096  0.3748  0.5878 -0.8286
  823MPD2     C12104   1.198   1.766  16.951  0.0022  0.4170 -0.3684
  823MPD2    C112105   1.265   1.714  16.844 -0.0007 -0.5529 -0.3892
  823MPD2    C212106   1.325   1.593  16.856 -0.4000 -0.6714  0.5366
  823MPD2    C312107   1.327   1.524  16.974 -0.0916 -0.5032  0.3332
  823MPD2    C412108   1.252   1.572  17.075 -0.2576 -0.0913  0.6977
  823MPD2    C512109   1.196   1.694  17.064 -0.3130 -0.1998 -0.0728
  823MPD2     H12110   1.382   1.552  16.773 -1.3049 -1.0517  0.1048
  823MPD2    H112111   1.231   1.516  17.165  1.4596 -1.5023  0.2327
  823MPD2    H212112   1.139   1.857  16.944 -1.9513 -0.9258 -1.2042
  823MPD2    H312113   1.138   1.736  17.145 -0.9036  0.2551 -0.7365
  823MPD2     N12114   1.386   1.395  16.989  0.1588  0.5140  0.0893
  823MPD2    H512115   1.369   1.353  17.079  0.3404  1.0264  0.3671
  823MPD2    N112116   1.263   1.782  16.717 -0.1110 -0.7755  0.1795
  823MPD2    H712117   1.213   1.870  16.712  0.8364 -0.2304  0.2884
  824MPD2     C12118   1.926   0.508  16.100 -0.0387  0.3987 -0.3863
  824MPD2    C112119   1.951   0.596  16.002 -0.1189  0.5786 -0.0899
  824MPD2    C212120   2.031   0.556  15.897 -0.7714 -0.0308  0.0680
  824MPD2    C312121   2.074   0.419  15.883  0.6927 -0.2141 -1.0727
  824MPD2    C412122   2.029   0.330  15.980  0.3749 -0.1935 -0.6448
  824MPD2    C512123   1.957   0.377  16.080  0.8157  0.4907 -0.0916
  824MPD2     H12124   2.060   0.634  15.829  0.0529 -0.0223  0.4318
  824MPD2    H112125   2.053   0.224  15.984  0.1632 -0.1801  1.0887
  824MPD2    H212126   1.871   0.521  16.193 -2.9261  0.7018 -2.1441
  824MPD2    H312127   1.927   0.307  16.157  2.7401  0.3140  0.5096
  824MPD2     N12128   2.156   0.389  15.777  0.2916  0.0582  0.4837
  824MPD2    H512129   2.184   0.466  15.717  3.6672 -0.0866  1.8353
  824MPD2    N112130   1.904   0.725  16.025  0.5220  0.4382 -0.5472
  824MPD2    H712131   1.856   0.741  16.113  0.8059  0.6254 -0.4251
  825MPD2     C12132   2.810   0.561  15.267 -0.5624 -0.0895  0.1086
  825MPD2    C112133   2.748   0.573  15.389  0.5420 -0.2555 -0.1734
  825MPD2    C212134   2.757   0.693  15.458  0.9177 -0.7117  0.2734
  825MPD2    C312135   2.839   0.794  15.414  0.0208 -0.1710 -0.1001
  825MPD2    C412136   2.897   0.781  15.290  0.0323  0.1135  0.4272
  825MPD2    C512137   2.883   0.664  15.222  0.6156 -0.0520  0.4137
  825MPD2     H12138   2.715   0.712  15.556  2.1589 -0.4541  0.7640
  825MPD2    H112139   2.957   0.859  15.245 -1.9342  1.9190  0.9002
  825MPD2    H212140   2.793   0.471  15.209 -3.2745  0.0613  0.6430
  825MPD2    H312141   2.921   0.664  15.121  0.0472  0.3114  0.1982
  825MPD2     N12142   2.846   0.912  15.493  0.0067  0.0733  0.0702
  825MPD2    H512143   2.793   0.916  15.579 -1.0191  0.3644 -0.5807
  825MPD2    N112144   2.660   0.474  15.435  0.1582 -0.6232 -0.4068
  825MPD2    H712145   2.650   0.383  15.392  1.4594 -0.8297 -0.2703
  826MPD2     C12146   2.411   0.344  14.155 -0.3469 -0.3650  0.2115
  826MPD2    C112147   2.424   0.341  14.016  0.4240  0.5054  0.0069
  826MPD2    C212148   2.378   0.437  13.936 -0.2691 -0.3042 -0.6304
  826MPD2    C312149   2.330   0.556  13.996 -0.6437 -0.4099 -0.2743
  826MPD2    C412150   2.330   0.562  14.133 -0.6125 -0.3451  0.1824
  826MPD2    C512151   2.374   0.455  14.207 -0.6637 -0.1480 -0.4913
  826MPD2     H12152   2.395   0.441  13.829  0.9922 -2.2537 -0.5003
  826MPD2    H112153   2.296   0.649  14.187 -0.1732 -0.5424  0.7729
  826MPD2    H212154   2.439   0.260  14.218  0.5811  0.9341  1.5335
  826MPD2    H312155   2.371   0.463  14.315  0.7127  0.0990 -0.4764
  826MPD2     N12156   2.275   0.665  13.930 -0.4020  0.7621  0.7848
  826MPD2    H512157   2.239   0.743  13.984  3.9777  2.2781  1.5395
  826MPD2    N112158   2.500   0.227  13.976 -0.2227  0.0423 -0.1252
  826MPD2    H712159   2.565   0.188  14.044 -0.3686  0.3237  0.1747
  827MPD2     C12160   2.835   1.198  10.381 -0.0613  0.7917 -0.8255
  827MPD2    C112161   2.793   1.220  10.508 -0.2814 -0.7493  0.2403
  827MPD2    C212162   2.715   1.126  10.571  0.3003  1.0408 -0.1596
  827MPD2    C312163   2.689   1.005  10.507 -0.0842 -0.2680  0.4310
  827MPD2    C412164   2.719   0.995  10.370  0.3433  0.3274 -0.3029
  827MPD2    C512165   2.794   1.089  10.309 -0.0076 -0.5222  0.5990
  827MPD2     H12166   2.690   1.127  10.676  1.1626 -1.9254  0.0724
  827MPD2    H112167   2.700   0.904  10.314  1.8090 -1.0953  1.5223
  827MPD2    H212168   2.895   1.267  10.322  1.5010  0.3081  0.2047
  827MPD2    H312169   2.835   1.058  10.214  0.5012  2.2732 -0.0937
  827MPD2     N12170   2.615   0.912  10.577 -0.4933  0.1754 -0.0464
  827MPD2    H512171   2.572   0.935  10.666 -1.4393 -2.2384  0.1166
  827MPD2    N112172   2.833   1.349  10.558  0.0590 -0.6726 -0.0326
  827MPD2    H712173   2.864   1.419  10.491 -1.5442  0.4676  0.3985
  828MPD2     C12174   1.561   2.327  12.288  0.2521  0.8662 -1.0787
  828MPD2    C112175   1.465   2.411  12.240 -0.1303 -0.1704  0.1092
  828MPD2    C212176   1.509   2.511  12.155 -0.2644  0.0421 -0.3844
  828MPD2    C312177   1.648   2.530  12.119 -0.6835 -0.4130 -0.0850
  828MPD2    C412178   1.741   2.439  12.165 -0.8594 -0.2731  0.0793
  828MPD2    C512179   1.690   2.344  12.253 -0.6212  0.0201  0.1342
  828MPD2     H12180   1.427   2.572  12.118 -1.4408 -0.0733  2.0789
  828MPD2    H112181   1.843   2.461  12.137 -1.0197 -0.3570 -0.5675
  828MPD2    H212182   1.537   2.249  12.359  2.5031 -0.9171 -2.2529
  828MPD2    H312183   1.760   2.289  12.315  0.0402  1.0135  0.2730
  828MPD2     N12184   1.683   2.634  12.032 -0.1356  0.0069 -1.1602
  828MPD2    H512185   1.782   2.649  12.013 -0.0492  0.0665 -0.6684
  828MPD2    N112186   1.330   2.416  12.279 -0.2922 -0.2479 -0.6824
  828MPD2    H712187   1.271   2.489  12.241  0.5133  0.0892 -1.2970
  829MPD2     C12188   0.711   2.671  11.732  0.0298 -0.2851  0.0769
  829MPD2    C112189   0.635   2.599  11.821  1.6809 -1.0107 -0.5333
  829MPD2    C212190   0.699   2.533  11.927  0.4498  0.1387 -0.1292
  829MPD2    C312191   0.840   2.546  11.942  1.1142  0.0048 -0.0778
  829MPD2    C412192   0.911   2.635  11.862  1.1125 -0.2537 -0.3083
  829MPD2    C512193   0.843   2.693  11.751  0.1171  0.1160 -0.0942
  829MPD2     H12194   0.644   2.460  11.985 -0.7898  0.1575 -1.2891
  829MPD2    H112195   1.013   2.667  11.875  1.3594 -1.3216  0.4276
  829MPD2    H212196   0.660   2.709  11.644  0.0609  0.4012  0.3536
  829MPD2    H312197   0.905   2.758  11.690  1.3903  1.9904  3.1777
  829MPD2     N12198   0.912   2.480  12.048  0.3385  0.0845  0.7993
  829MPD2    H512199   1.012   2.495  12.045  0.3455 -0.2132 -0.5218
  829MPD2    N112200   0.501   2.575  11.787  0.4192  0.0508  0.0218
  829MPD2    H712201   0.463   2.606  11.699  0.1620 -2.8356 -0.8965
  830MPD2     C12202   1.774   4.030  15.890  0.1479 -0.0526  0.0870
  830MPD2    C112203   1.676   4.077  15.804  0.4063 -0.2036 -0.0839
  830MPD2    C212204   1.712   4.175  15.715 -0.2078 -0.6081  0.8563
  830MPD2    C312205   1.838   4.237  15.714  0.0476  0.2557  0.4296
  830MPD2    C412206   1.931   4.188  15.796 -0.5089  0.3483  0.3063
  830MPD2    C512207   1.904   4.089  15.887  0.2827  0.7869  0.0371
  830MPD2     H12208   1.634   4.217  15.653  0.7379 -0.2836 -0.1311
  830MPD2    H112209   2.027   4.238  15.801  1.0283 -2.4840 -1.1430
  830MPD2    H212210   1.744   3.960  15.966 -1.7574 -1.4002 -1.8853
  830MPD2    H312211   1.978   4.055  15.958  0.4135  1.1964  0.0990
  830MPD2     N12212   1.859   4.355  15.643 -0.4172 -0.5242  0.2667
  830MPD2    H512213   1.936   4.414  15.670 -0.9029  0.6860 -0.9872
  830MPD2    N112214   1.542   4.048  15.834 -0.3033  0.2467 -0.2985
  830MPD2    H712215   1.513   4.011  15.924  0.4145  1.0351  0.2579
  831MPD2     C12216   1.867   1.698  16.474  0.4749 -0.1929  0.1941
  831MPD2    C112217   1.875   1.594  16.383  0.0020  0.0335 -0.6987
  831MPD2    C212218   1.765   1.514  16.361 -0.2878  0.3085  0.5573
  831MPD2    C312219   1.646   1.535  16.438 -0.2154 -0.4606 -0.3073
  831MPD2    C412220   1.640   1.648  16.521 -0.2747 -0.0075 -0.4480
  831MPD2    C512221   1.754   1.723  16.546 -0.3501  0.5255  0.7005
  831MPD2     H12222   1.779   1.431  16.293  0.7306  0.0836  1.0531
  831MPD2    H112223   1.556   1.670  16.587  0.5547  0.3627  0.4998
  831MPD2    H212224   1.952   1.764  16.485 -1.3805  2.3973 -1.1637
  831MPD2    H312225   1.755   1.806  16.616 -2.8984  1.5955 -0.5030
  831MPD2     N12226   1.528   1.450  16.432  0.6676 -0.2875  0.2659
  831MPD2    H512227   1.453   1.472  16.496 -0.7935 -0.7873 -1.2846
  831MPD2    N112228   1.984   1.572  16.299  0.3946 -0.0085  0.0648
  831MPD2    H712229   1.985   1.498  16.229  0.5817 -0.5005  0.5912
  832MPD2     C12230   0.354   2.544  17.462  0.2523  0.0288 -0.5045
  832MPD2    C112231   0.270   2.645  17.505  0.6313  0.6231  0.4937
  832MPD2    C212232   0.136   2.642  17.465  0.1891  0.4064 -0.2372
  832MPD2    C312233   0.095   2.539  17.382  0.5971 -0.3542  0.3544
  832MPD2    C412234   0.181   2.434  17.343 -0.5560  1.2122  0.1584
  832MPD2    C512235   0.311   2.438  17.385  0.2853  0.2131 -0.0365
  832MPD2     H12236   0.063   2.689  17.530 -1.4208 -0.5411 -1.3478
  832MPD2    H112237   0.142   2.355  17.280 -0.6899 -0.3750  2.2410
  832MPD2    H212238   0.460   2.541  17.484  0.2127  0.3908 -0.2581
  832MPD2    H312239   0.371   2.357  17.346  0.3133 -0.2766  1.0325
  832MPD2     N12240   4.681   2.511  17.342  0.2402 -0.5153 -0.2764
  832MPD2    H512241   4.663   2.420  17.301  0.5935 -0.4573 -0.5624
  832MPD2    N112242   0.322   2.740  17.603 -0.2842  0.3618 -0.2278
  832MPD2    H712243   0.407   2.714  17.653  1.4681  1.3578 -2.7069
  833MPD2     C12244   2.067   4.532  12.345  0.2884 -0.7569 -0.3815
  833MPD2    C112245   2.002   4.648  12.302 -0.2969 -0.5413 -0.0549
  833MPD2    C212246   2.073   0.041  12.277  0.2578 -0.3058 -0.3767
  833MPD2    C312247   2.209   0.039  12.279  0.1221 -0.2052 -0.5087
  833MPD2    C412248   2.281   4.645  12.303 -0.0746 -0.2567  0.3401
  833MPD2    C512249   2.208   4.530  12.332 -0.2564  0.2963 -0.4270
  833MPD2     H12250   2.029   0.132  12.238  0.1533  0.6208  1.8597
  833MPD2    H112251   2.388   4.637  12.316  0.1782  2.5345 -0.1547
  833MPD2    H212252   2.014   4.439  12.362 -0.0204 -0.4024  0.6059
  833MPD2    H312253   2.260   4.440  12.361 -0.3645  0.9698  1.9122
  833MPD2     N12254   2.289   0.159  12.248  0.1380 -0.6513 -0.2105
  833MPD2    H512255   2.389   0.141  12.250  0.1664 -0.5316 -0.9084
  833MPD2    N112256   1.857   4.644  12.298  0.5324  0.3043  0.2690
  833MPD2    H712257   1.803   4.560  12.316 -0.1088  0.4711 -0.9308
  834MPD2     C12258   2.818   0.296  11.535 -0.2336  0.1853 -0.7120
  834MPD2    C112259   2.738   0.211  11.603 -0.0516 -0.6835  0.0115
  834MPD2    C212260   2.681   0.255  11.719 -0.4722  0.2518  0.3206
  834MPD2    C312261   2.703   0.378  11.759  0.5252 -0.4487 -0.0702
  834MPD2    C412262   2.789   0.458  11.693 -0.2851 -0.3388  0.3947
  834MPD2    C512263   2.854   0.412  11.590  0.4453  0.0969 -0.0685
  834MPD2     H12264   2.597   0.195  11.752 -0.4215 -1.8112 -3.3354
  834MPD2    H112265   2.798   0.561  11.726 -1.1286  0.4378 -1.7576
  834MPD2    H212266   2.868   0.268  11.442 -1.0188  0.2790 -1.1598
  834MPD2    H312267   2.929   0.476  11.544  1.8225  1.0894  3.5444
  834MPD2     N12268   2.636   0.432  11.874 -0.5910  0.4905 -0.1277
  834MPD2    H512269   2.632   0.533  11.879 -0.5472  0.6708 -3.4175
  834MPD2    N112270   2.703   0.083  11.544  0.4433 -0.3486  0.4203
  834MPD2    H712271   2.731   0.071  11.448 -1.7039 -0.3685 -0.2083
  835MPD2     C12272   2.131   1.867  11.424 -0.6364 -0.5945 -0.3111
  835MPD2    C112273   2.044   1.953  11.487  0.1659 -0.7752  0.6713
  835MPD2    C212274   2.086   2.033  11.594 -0.1071  0.0456 -0.5722
  835MPD2    C312275   2.214   2.025  11.640 -0.4403  0.6332  0.2626
  835MPD2    C412276   2.298   1.934  11.581  0.3560 -1.1895  0.6487
  835MPD2    C512277   2.257   1.858  11.470  1.0175 -0.4702  0.0240
  835MPD2     H12278   2.010   2.098  11.637  0.3041 -0.0536  0.3080
  835MPD2    H112279   2.395   1.910  11.622  1.2302 -0.4681 -0.9839
  835MPD2    H212280   2.104   1.812  11.334 -0.4723 -1.9681  0.4837
  835MPD2    H312281   2.315   1.778  11.425 -0.4728 -1.6020  0.1235
  835MPD2     N12282   2.267   2.089  11.758 -0.0653 -0.1804 -0.0798
  835MPD2    H512283   2.354   2.052  11.794  0.0653  0.0524 -0.1563
  835MPD2    N112284   1.910   1.969  11.442  0.2007 -0.3326  0.1845
  835MPD2    H712285   1.850   2.033  11.491 -1.0640  0.6264 -2.6019
  836MPD2     C12286   2.256   2.432  12.626 -0.1992 -0.2682 -0.3109
  836MPD2    C112287   2.169   2.417  12.520 -0.8083 -0.2029 -0.2850
  836MPD2    C212288   2.032   2.403  12.537 -0.3649  0.7983  0.0972
  836MPD2    C312289   1.989   2.386  12.665 -0.2801  0.0887 -0.4948
  836MPD2    C412290   2.075   2.385  12.775 -0.0631 -0.1008 -1.2568
  836MPD2    C512291   2.212   2.393  12.751 -0.6999 -0.6795  0.0566
  836MPD2     H12292   1.967   2.381  12.454 -0.4465 -0.9893  0.6374
  836MPD2    H112293   2.045   2.370  12.878 -0.3228  0.4331 -1.2526
  836MPD2    H212294   2.362   2.446  12.607  0.1559 -1.1904  0.9058
  836MPD2    H312295   2.281   2.395  12.835  1.1822  3.7410 -1.5301
  836MPD2     N12296   1.861   2.338  12.686  0.1761 -0.3605 -0.0559
  836MPD2    H512297   1.839   2.279  12.766  0.0092  0.1029  0.2401
  836MPD2    N112298   2.235   2.411  12.393  0.3214 -0.4345 -0.3501
  836MPD2    H712299   2.336   2.404  12.398  0.6594  2.2537 -3.1347
  837MPD2     C12300   0.615   1.512   9.770  0.5819 -0.1398 -0.1010
  837MPD2    C112301   0.510   1.562   9.845  0.3296  0.1335 -0.1708
  837MPD2    C212302   0.517   1.694   9.889  0.3003 -0.6583  0.1188
  837MPD2    C312303   0.626   1.773   9.857 -0.0154 -0.4068 -0.0182
  837MPD2    C412304   0.728   1.722   9.781  0.8945  0.4913  0.2082
  837MPD2    C512305   0.719   1.593   9.731 -0.0188 -0.3462 -0.1618
  837MPD2     H12306   0.426   1.736   9.929  0.4178 -0.1353 -0.1581
  837MPD2    H112307   0.805   1.786   9.739  0.8533  0.7498  0.5300
  837MPD2    H212308   0.604   1.408   9.740 -1.8388  0.3574 -0.8851
  837MPD2    H312309   0.803   1.544   9.683 -0.0143 -1.5409  1.0578
  837MPD2     N12310   0.606   1.912   9.884  0.0468 -0.2790  0.1405
  837MPD2    H512311   0.522   1.931   9.937 -0.4889 -1.3203 -0.3348
  837MPD2    N112312   0.378   1.502   9.871  0.2907 -0.6491 -0.0388
  837MPD2    H712313   0.313   1.563   9.918  0.5084  1.1143 -2.0297
  838MPD2     C12314   3.509   4.460  11.748  0.0096 -0.0533  1.0244
  838MPD2    C112315   3.577   4.344  11.719  0.4416  0.3372  0.1616
  838MPD2    C212316   3.515   4.243  11.657 -0.1547  0.2034 -0.6665
  838MPD2    C312317   3.376   4.259  11.621 -0.2673  0.7922  0.3996
  838MPD2    C412318   3.306   4.376  11.657  0.6743  0.2877 -0.2775
  838MPD2    C512319   3.374   4.474  11.723  0.0840  0.6346 -0.6603
  838MPD2     H12320   3.570   4.155  11.627 -0.5455 -0.5531  0.8393
  838MPD2    H112321   3.200   4.383  11.632  1.0522 -0.3367 -2.0699
  838MPD2    H212322   3.552   4.552  11.787  2.8335 -0.7788 -0.3595
  838MPD2    H312323   3.326   4.564  11.758  0.8740  1.3510 -1.4347
  838MPD2     N12324   3.303   4.157  11.556 -0.2164  0.5740 -0.3977
  838MPD2    H512325   3.202   4.165  11.548 -0.3777 -1.8308 -0.9873
  838MPD2    N112326   3.718   4.333  11.732 -0.4244  0.2126 -0.4421
  838MPD2    H712327   3.748   4.245  11.692  1.0144  0.5864 -0.2100
  839MPD2     C12328   3.815   3.844  11.068  0.0882 -0.1825 -0.2031
  839MPD2    C112329   3.771   3.830  11.197  0.3918 -0.5105 -0.3468
  839MPD2    C212330   3.821   3.916  11.295 -0.2582  0.2424 -0.3785
  839MPD2    C312331   3.902   4.029  11.256 -0.3855  0.6343 -0.6822
  839MPD2    C412332   3.926   4.047  11.114  0.0424 -0.3783 -0.5720
  839MPD2    C512333   3.888   3.950  11.028  0.0002  0.2440  0.4913
  839MPD2     H12334   3.804   3.899  11.401  0.3839  0.0179 -0.3138
  839MPD2    H112335   3.986   4.129  11.078 -1.5228  0.8046 -0.4863
  839MPD2    H212336   3.793   3.772  10.990  2.3074 -1.0337 -0.0264
  839MPD2    H312337   3.908   3.962  10.922  1.3735 -0.5330  0.6621
  839MPD2     N12338   3.948   4.129  11.349  0.3710 -0.1367  0.0642
  839MPD2    H512339   4.005   4.203  11.310 -0.0771 -1.0285 -2.2587
  839MPD2    N112340   3.699   3.712  11.229  0.2593  0.0493  0.4200
  839MPD2    H712341   3.690   3.701  11.329 -1.9504  0.0873  0.2214
  840MPD2     C12342   3.402   1.716  10.490  0.3477  0.5044 -0.6722
  840MPD2    C112343   3.367   1.733  10.623  0.2181 -0.6348  0.4514
  840MPD2    C212344   3.445   1.814  10.703 -0.2781 -0.7591  0.7507
  840MPD2    C312345   3.549   1.879  10.641  0.2139  0.4087  0.4357
  840MPD2    C412346   3.572   1.872  10.499  0.5950  0.5478  0.6180
  840MPD2    C512347   3.495   1.787  10.422  0.3543  0.4975 -0.7822
  840MPD2     H12348   3.430   1.834  10.809 -0.0909 -1.6692  0.9504
  840MPD2    H112349   3.655   1.924  10.453  3.0668 -1.5479  2.7569
  840MPD2    H212350   3.350   1.644  10.428 -0.2108 -1.0086  1.5483
  840MPD2    H312351   3.515   1.772  10.316  0.0279 -2.4724 -0.4293
  840MPD2     N12352   3.630   1.973  10.706  0.3981  0.1061 -0.5480
  840MPD2    H512353   3.702   2.017  10.649  0.4301  0.2709 -0.3800
  840MPD2    N112354   3.251   1.663  10.661 -0.3773  0.0026 -0.3435
  840MPD2    H712355   3.201   1.606  10.594  0.8845 -1.7959  0.2437
  841MPD2     C12356   3.692   2.608  14.140 -0.5458  0.1206  0.2268
  841MPD2    C112357   3.697   2.475  14.143 -0.9074  1.4104 -0.5845
  841MPD2    C212358   3.819   2.415  14.160  0.2738  0.3762  0.1221
  841MPD2    C312359   3.933   2.491  14.159 -0.6390  0.7547  0.1821
  841MPD2    C412360   3.931   2.625  14.130  0.6868 -0.3110 -0.0136
  841MPD2    C512361   3.803   2.682  14.128 -0.0320  0.1394  0.7932
  841MPD2     H12362   3.822   2.310  14.189  0.8223  0.9301  2.0613
  841MPD2    H112363   4.012   2.695  14.115 -0.7166  1.4482  0.6619
  841MPD2    H212364   3.593   2.651  14.145 -0.6223  0.0604 -0.8160
  841MPD2    H312365   3.797   2.788  14.107 -0.2642 -0.3377 -1.5208
  841MPD2     N12366   4.053   2.425  14.188 -0.5766  0.4753  0.8172
  841MPD2    H512367   4.039   2.329  14.216 -1.9941  0.5141  0.2185
  841MPD2    N112368   3.591   2.381  14.142  0.0743  0.1594  0.4388
  841MPD2    H712369   3.617   2.284  14.154  0.0968  0.4200  2.5092
  842MPD2     C12370   2.983   3.010  17.255 -0.1913 -0.3846  0.4183
  842MPD2    C112371   3.083   3.046  17.171  0.4566 -0.1343 -0.0429
  842MPD2    C212372   3.214   3.022  17.217  0.1092  0.3103 -0.0813
  842MPD2    C312373   3.241   2.974  17.345 -0.4415 -0.3576 -0.7386
  842MPD2    C412374   3.137   2.936  17.424  0.6400  0.4424  0.5386
  842MPD2    C512375   3.009   2.954  17.374  0.0356 -0.1319 -1.0979
  842MPD2     H12376   3.293   3.059  17.153  1.5094 -0.1755  1.3744
  842MPD2    H112377   3.148   2.914  17.530  2.0920  1.6229  0.6344
  842MPD2    H212378   2.880   3.027  17.226  0.0653  0.6192  0.0715
  842MPD2    H312379   2.934   2.930  17.449 -0.9166  3.0033 -1.0512
  842MPD2     N12380   3.367   2.965  17.400 -0.3290  0.1375  0.1505
  842MPD2    H512381   3.391   2.916  17.485  0.2692  0.2817  0.0626
  842MPD2    N112382   3.048   3.107  17.048  0.2370  0.1141  0.4337
  842MPD2    H712383   2.952   3.136  17.033  0.3728  0.9152  1.1304
  843MPD2     C12384   0.742   3.329   0.137  0.1422  0.3336  0.0727
  843MPD2    C112385   0.844   3.311   0.223  0.3083  0.0564 -0.8455
  843MPD2    C212386   0.903   3.429   0.277 -0.0459 -0.4057 -0.3882
  843MPD2    C312387   0.869   3.556   0.240 -0.2239 -0.3922 -0.4365
  843MPD2    C412388   0.761   3.566   0.160  0.6049  0.5391 -0.1271
  843MPD2    C512389   0.697   3.457   0.108 -0.3135 -0.1789  0.3806
  843MPD2     H12390   0.981   3.427   0.353 -0.0832 -1.5958 -0.3813
  843MPD2    H112391   0.704   3.656   0.140 -1.3585 -0.2764  1.8268
  843MPD2    H212392   0.694   3.247   0.084  0.1370  0.2292  0.2394
  843MPD2    H312393   0.611   3.471   0.043 -1.4121 -3.3473  1.1757
  843MPD2     N12394   0.940   3.673   0.278 -0.0220 -0.3510  0.1907
  843MPD2    H512395   0.909   3.761   0.238  2.2866 -0.8375 -2.6725
  843MPD2    N112396   0.889   3.175   0.255  0.2845 -0.0115 -0.5887
  843MPD2    H712397   0.848   3.102   0.199 -0.2803  0.1204 -0.3456
  844MPD2     C12398   0.271   2.183  16.919  0.2764 -0.2688  0.1660
  844MPD2    C112399   0.299   2.151  17.054 -0.3329  0.9867  0.0852
  844MPD2    C212400   0.400   2.229  17.107 -0.3508 -0.2784  0.7004
  844MPD2    C312401   0.462   2.337  17.046  0.7100  0.2993 -0.4447
  844MPD2    C412402   0.424   2.368  16.914 -0.4529 -0.0545 -0.2655
  844MPD2    C512403   0.333   2.289  16.850 -1.1582 -0.7074 -0.5556
  844MPD2     H12404   0.445   2.190  17.197 -0.1930 -0.0899  0.7012
  844MPD2    H112405   0.462   2.456  16.864 -0.8263  0.4729  0.3712
  844MPD2    H212406   0.191   2.132  16.867 -0.1243  0.6686 -0.1352
  844MPD2    H312407   0.303   2.305  16.747 -0.0802  0.0084 -0.7680
  844MPD2     N12408   0.578   2.395  17.111  0.4617 -0.1979  0.0179
  844MPD2    H512409   0.604   2.347  17.197 -3.9591 -1.6610  0.5120
  844MPD2    N112410   0.227   2.062  17.133 -0.0660 -0.7596 -0.1651
  844MPD2    H712411   0.227   2.066  17.235  1.6793  2.4274 -0.3016
  845MPD2     C12412   0.417   3.272  17.420 -0.2243  0.0685 -0.0571
  845MPD2    C112413   0.346   3.183  17.347  0.3749  0.3430  0.4599
  845MPD2    C212414   0.402   3.065  17.316 -0.3687  0.4027 -0.5583
  845MPD2    C312415   0.530   3.032  17.343 -0.0293 -0.2380 -0.1877
  845MPD2    C412416   0.608   3.122  17.404  0.0183  0.1301 -0.3690
  845MPD2    C512417   0.544   3.238  17.445 -0.8513  0.1716  0.9231
  845MPD2     H12418   0.341   2.992  17.264 -1.5138  0.8985  0.0933
  845MPD2    H112419   0.714   3.116  17.424  0.1564 -0.1593 -1.2227
  845MPD2    H212420   0.384   3.372  17.445  1.1566 -0.0932  2.4487
  845MPD2    H312421   0.600   3.307  17.508  0.9674 -0.6795  0.2417
  845MPD2     N12422   0.580   2.901  17.316 -0.3331  0.3915 -0.1701
  845MPD2    H512423   0.522   2.840  17.259  0.9558  1.1483 -2.2857
  845MPD2    N112424   0.209   3.217  17.328  0.0080 -0.9864 -0.2958
  845MPD2    H712425   0.182   3.311  17.356  0.1930 -1.6342  2.0561
  846MPD2     C12426   1.439   3.948  13.795 -0.5117 -0.6582  0.0712
  846MPD2    C112427   1.302   3.988  13.795  0.0931 -0.0147  0.5047
  846MPD2    C212428   1.226   4.012  13.905 -0.1428 -0.1389  0.3468
  846MPD2    C312429   1.279   3.988  14.026 -0.1157  0.2471 -0.3183
  846MPD2    C412430   1.412   3.952  14.036  0.0297 -0.3161 -0.1374
  846MPD2    C512431   1.490   3.927  13.923 -0.7751 -0.5237 -0.3718
  846MPD2     H12432   1.121   4.037  13.893 -0.3426 -1.7580 -1.4378
  846MPD2    H112433   1.461   3.929  14.130 -1.2514  1.4691  0.9566
  846MPD2    H212434   1.507   3.930  13.713  1.0486  2.8127  0.6207
  846MPD2    H312435   1.595   3.898  13.923 -0.4534  0.6436 -1.2631
  846MPD2     N12436   1.190   3.983  14.136  0.0991 -0.3375 -0.0754
  846MPD2    H512437   1.090   3.981  14.116  0.3713 -1.6945 -1.3007
  846MPD2    N112438   1.238   4.029  13.681  0.6932  0.2577 -0.1285
  846MPD2    H712439   1.145   4.064  13.703  1.0881  0.1425  1.6771
  847MPD2     C12440   1.593   4.465  14.470 -0.0362  0.4923 -0.5715
  847MPD2    C112441   1.642   4.578  14.535 -0.5046  0.3482 -0.2259
  847MPD2    C212442   1.769   4.570  14.584 -0.0781  0.6058  0.3285
  847MPD2    C312443   1.845   4.460  14.572  0.6640  0.6653 -0.1861
  847MPD2    C412444   1.803   4.352  14.502  0.2221  0.8485  0.0066
  847MPD2    C512445   1.675   4.354  14.451 -0.0014  0.3243 -0.7148
  847MPD2     H12446   1.814   4.659  14.625 -0.7846  1.3183 -0.4264
  847MPD2    H112447   1.862   4.264  14.480 -0.4541  0.2413  0.6066
  847MPD2    H212448   1.487   4.468  14.447 -0.0270 -0.2403 -0.7158
  847MPD2    H312449   1.640   4.265  14.401 -0.2846  0.5574 -0.9344
  847MPD2     N12450   1.971   4.466  14.635  0.1462 -0.3687  0.1874
  847MPD2    H512451   1.988   4.550  14.690  0.9446 -0.6200  0.3170
  847MPD2    N112452   1.576   4.702  14.561 -0.3585  0.3090 -0.1442
  847MPD2    H712453   1.634   0.044  14.615 -0.0109  0.1451 -0.3204
  848MPD2     C12454   3.935   2.883  17.148  0.1978 -0.6855  0.2643
  848MPD2    C112455   4.039   2.865  17.065  1.0432  0.1321 -0.2787
  848MPD2    C212456   4.051   2.935  16.941  0.3346  0.1159 -0.0386
  848MPD2    C312457   3.958   3.025  16.898  0.2793  1.2424  0.6460
  848MPD2    C412458   3.846   3.037  16.975 -0.4863 -0.1324 -0.1056
  848MPD2    C512459   3.835   2.967  17.095 -0.4074 -0.0822 -0.5172
  848MPD2     H12460   4.137   2.921  16.876 -0.9027 -1.0642 -1.3928
  848MPD2    H112461   3.763   3.099  16.943 -1.9577 -1.4806  1.0784
  848MPD2    H212462   3.918   2.845  17.248 -2.0069 -2.9071 -0.9527
  848MPD2    H312463   3.751   2.997  17.156  0.1575  0.1674  0.1338
  848MPD2     N12464   3.960   3.087  16.774 -0.0384  0.3873 -0.1715
  848MPD2    H512465   3.879   3.149  16.765  0.7104  1.1280 -1.8661
  848MPD2    N112466   4.140   2.770  17.097 -0.2933 -0.4125 -0.0828
  848MPD2    H712467   4.208   2.751  17.024  1.8201 -1.1605  2.0954
  849MPD2     C12468   3.529   2.901  14.645  0.4734 -0.2388  0.2310
  849MPD2    C112469   3.613   2.952  14.544  0.6956 -0.2128 -0.0305
  849MPD2    C212470   3.745   2.907  14.547  0.2695  0.8057  0.0701
  849MPD2    C312471   3.799   2.823  14.644  0.7485 -0.4133  0.8968
  849MPD2    C412472   3.714   2.775  14.740  0.1661  0.3084 -0.7790
  849MPD2    C512473   3.583   2.813  14.734  0.1355  0.4543 -0.4681
  849MPD2     H12474   3.814   2.944  14.472  0.8813 -0.5730 -0.0626
  849MPD2    H112475   3.749   2.705  14.815  0.5449  1.7718  0.4156
  849MPD2    H212476   3.428   2.933  14.666  0.7684  0.2794  0.8623
  849MPD2    H312477   3.512   2.764  14.800 -0.8468  4.5029  1.4528
  849MPD2     N12478   3.934   2.784  14.626 -0.7237  0.3550  0.3047
  849MPD2    H512479   3.977   2.797  14.534 -6.1755  1.5890 -2.0837
  849MPD2    N112480   3.575   3.048  14.446  0.6612 -0.0473 -0.5385
  849MPD2    H712481   3.656   3.075  14.391  0.6758  0.6447 -0.1755
  850MPD2     C12482   1.896   0.829  14.793  0.1048 -0.3730  0.1609
  850MPD2    C112483   1.907   0.813  14.931 -0.2525  0.7731 -0.1840
  850MPD2    C212484   2.026   0.780  14.992 -0.8407  0.2591  0.2554
  850MPD2    C312485   2.146   0.767  14.921 -0.3575 -0.4681 -0.8408
  850MPD2    C412486   2.141   0.797  14.787  0.3841 -0.3366  0.0658
  850MPD2    C512487   2.020   0.827  14.724  0.3767  0.2920 -0.0676
  850MPD2     H12488   2.023   0.756  15.098 -0.9774 -1.2316 -0.0802
  850MPD2    H112489   2.230   0.799  14.724  1.0477  1.0345  1.0436
  850MPD2    H212490   1.807   0.859  14.739 -0.4259  0.2290  1.3544
  850MPD2    H312491   2.021   0.844  14.616 -0.8731 -1.1730 -0.2912
  850MPD2     N12492   2.277   0.742  14.979 -0.4623 -0.2226  0.0587
  850MPD2    H512493   2.348   0.737  14.907 -1.8055 -1.2578 -1.2018
  850MPD2    N112494   1.802   0.841  15.012  0.3201  0.7280  0.1411
  850MPD2    H712495   1.813   0.817  15.110  2.1278 -0.1276 -0.2660
  851MPD2     C12496   1.607   0.564  15.682  0.6194  0.4701 -0.7517
  851MPD2    C112497   1.596   0.515  15.552 -0.4045 -0.3393  0.5810
  851MPD2    C212498   1.639   0.384  15.527  0.1447 -0.7083  0.0402
  851MPD2    C312499   1.693   0.312  15.627 -0.5468  0.1603 -0.0951
  851MPD2    C412500   1.703   0.361  15.762  0.4964 -0.4885  0.2579
  851MPD2    C512501   1.660   0.493  15.786  0.2099  0.5983  0.0497
  851MPD2     H12502   1.623   0.343  15.428 -0.1353  0.4188 -0.3862
  851MPD2    H112503   1.755   0.305  15.838  3.4268 -1.3719 -2.3794
  851MPD2    H212504   1.581   0.669  15.694  0.6278  0.1186  2.3239
  851MPD2    H312505   1.669   0.554  15.875  2.3790  0.4826 -0.0863
  851MPD2     N12506   1.753   0.192  15.594  0.5260  0.5114  0.1130
  851MPD2    H512507   1.753   0.158  15.498  1.4726 -0.3279  0.4144
  851MPD2    N112508   1.554   0.606  15.456 -0.4578  0.2194 -0.2091
  851MPD2    H712509   1.529   0.701  15.482 -0.6004  0.0470  0.2802
  852MPD2     C12510   1.587   3.083   9.979  0.0015  0.4377 -0.7261
  852MPD2    C112511   1.609   3.177  10.082  0.3116  0.2101  0.3715
  852MPD2    C212512   1.702   3.282  10.058  0.0228  0.2884 -0.3382
  852MPD2    C312513   1.765   3.294   9.938 -0.3514 -0.4293 -0.8245
  852MPD2    C412514   1.740   3.211   9.835 -0.3215 -0.2377 -0.3586
  852MPD2    C512515   1.651   3.109   9.858 -0.1303 -0.5090 -0.1208
  852MPD2     H12516   1.719   3.359  10.133  0.0853 -0.1781  0.1278
  852MPD2    H112517   1.800   3.213   9.745 -0.3967 -1.1772 -0.4291
  852MPD2    H212518   1.532   2.992   9.999  0.0969  0.4731 -0.3079
  852MPD2    H312519   1.646   3.031   9.782 -0.6604 -1.3478  0.7720
  852MPD2     N12520   1.864   3.401   9.924  0.2098  0.2091 -0.6411
  852MPD2    H512521   1.893   3.444  10.011  0.7317 -0.5479 -0.4535
  852MPD2    N112522   1.546   3.167  10.208 -0.2267  0.0532 -0.9445
  852MPD2    H712523   1.566   3.241  10.275  2.1214 -1.0956 -0.3879
  853MPD2     C12524   3.140   2.802  12.653 -0.7190 -1.5058 -0.3898
  853MPD2    C112525   3.094   2.917  12.596 -0.3748  0.2232 -0.0481
  853MPD2    C212526   3.080   2.925  12.453  0.2193  0.8246  0.5505
  853MPD2    C312527   3.134   2.823  12.376  0.1817 -0.4032  0.2712
  853MPD2    C412528   3.178   2.709  12.436 -0.6992  0.0582  0.1995
  853MPD2    C512529   3.185   2.702  12.569  0.1744  0.1207  0.8873
  853MPD2     H12530   3.037   3.015  12.409 -0.1529  0.9888  1.2446
  853MPD2    H112531   3.194   2.621  12.376 -2.1673  1.5892 -2.4272
  853MPD2    H212532   3.148   2.793  12.760 -1.2110 -1.7491 -0.3709
  853MPD2    H312533   3.227   2.616  12.621  0.1417 -0.1368  0.4869
  853MPD2     N12534   3.119   2.807  12.240 -0.2611 -0.1744 -0.2123
  853MPD2    H512535   3.128   2.713  12.202  0.4900 -1.0592  2.1655
  853MPD2    N112536   3.059   3.022  12.684  0.9173 -0.6181  0.1919
  853MPD2    H712537   3.075   3.019  12.784 -0.6143  0.0754  0.4533
  854MPD2     C12538   0.186   2.718  12.684  0.3358  0.3604  0.2337
  854MPD2    C112539   0.257   2.797  12.601 -0.3985 -0.0165 -0.5262
  854MPD2    C212540   0.389   2.822  12.618 -0.2662  0.1544  0.1840
  854MPD2    C312541   0.456   2.758  12.716  0.1129  0.6909  0.1772
  854MPD2    C412542   0.382   2.679  12.805  0.6251  0.3193 -0.1370
  854MPD2    C512543   0.250   2.651  12.780  0.1433 -0.9813  0.3991
  854MPD2     H12544   0.436   2.901  12.561 -2.0235 -0.7847 -2.5678
  854MPD2    H112545   0.433   2.630  12.886 -1.0106  0.6892  1.1135
  854MPD2    H212546   0.080   2.698  12.672  0.7772 -0.7630 -1.9140
  854MPD2    H312547   0.189   2.584  12.839 -1.9089  1.7423  1.3109
  854MPD2     N12548   0.590   2.796  12.762 -0.3703 -0.5077  0.0285
  854MPD2    H512549   0.629   2.761  12.850  0.0975 -1.3892 -0.5223
  854MPD2    N112550   0.174   2.872  12.508 -0.2986  0.4771 -0.2920
  854MPD2    H712551   0.074   2.858  12.515 -0.0954 -0.4164  0.6209
  855MPD2     C12552   1.168   3.010  13.542 -0.3048  0.4530  0.6580
  855MPD2    C112553   1.034   2.967  13.520  0.5615  0.2414  0.4369
  855MPD2    C212554   0.983   2.972  13.391 -0.3640  1.1160  0.1302
  855MPD2    C312555   1.059   3.026  13.290  0.4791 -0.7046 -0.3699
  855MPD2    C412556   1.180   3.083  13.318 -0.4067  0.0230 -0.1967
  855MPD2    C512557   1.241   3.064  13.440  0.0535  0.2052 -0.0489
  855MPD2     H12558   0.881   2.941  13.369  0.0860  0.7231 -1.3944
  855MPD2    H112559   1.238   3.118  13.233  0.1798 -0.4523  0.0058
  855MPD2    H212560   1.218   3.010  13.639  0.3202 -0.0574  0.3360
  855MPD2    H312561   1.343   3.094  13.463  0.4918  0.4531 -2.2959
  855MPD2     N12562   1.014   3.039  13.159 -0.6788 -0.3307 -0.5708
  855MPD2    H512563   1.073   3.099  13.103 -2.0912  1.1274 -0.4850
  855MPD2    N112564   0.947   2.924  13.622  0.2026  0.0027  0.7895
  855MPD2    H712565   0.847   2.909  13.617  0.2737 -0.3050  0.1681
  856MPD2     C12566   1.863   4.551  13.579 -0.0523  0.5507  0.2398
  856MPD2    C112567   1.949   4.485  13.663 -0.1595 -0.4866 -0.7980
  856MPD2    C212568   1.942   4.499  13.796  0.3196  0.0118  0.8528
  856MPD2    C312569   1.840   4.579  13.851  0.0135  0.5340 -0.1508
  856MPD2    C412570   1.750   4.646  13.771  0.6142 -0.7373  0.7964
  856MPD2    C512571   1.768   4.635  13.634  0.6151  0.0453 -0.1115
  856MPD2     H12572   2.017   4.444  13.852  1.8488 -0.2213 -1.4557
  856MPD2    H112573   1.670   4.705  13.814  1.3415  0.1797  0.8899
  856MPD2    H212574   1.874   4.547  13.471  0.0117  0.2592  0.2573
  856MPD2    H312575   1.700   4.694  13.574 -1.6833 -1.4711  1.0265
  856MPD2     N12576   1.826   4.593  13.993 -0.2972  0.6680 -0.7849
  856MPD2    H512577   1.748   4.648  14.025  1.3382  0.4795  3.5950
  856MPD2    N112578   2.057   4.402  13.618  0.4859 -0.0792 -0.1323
  856MPD2    H712579   2.126   4.377  13.688  3.5619  2.1526 -2.3768
  857MPD2     C12580   4.019   1.501  12.973 -0.1201 -0.4292 -0.0035
  857MPD2    C112581   4.154   1.478  12.957 -0.2117  0.4457 -0.3685
  857MPD2    C212582   4.229   1.587  12.915  0.5899  0.0358 -0.2807
  857MPD2    C312583   4.175   1.713  12.891 -0.3659  0.3163 -0.0533
  857MPD2    C412584   4.043   1.729  12.909  0.7684  0.6787 -0.8198
  857MPD2    C512585   3.966   1.625  12.960 -0.1388  0.3105  0.0808
  857MPD2     H12586   4.337   1.589  12.907  0.5239  2.2296 -0.4201
  857MPD2    H112587   3.993   1.825  12.895 -0.7784 -0.1851 -1.1925
  857MPD2    H212588   3.960   1.418  13.011 -0.6871  0.6082  1.3740
  857MPD2    H312589   3.862   1.639  12.988  0.1495  2.1309  0.2517
  857MPD2     N12590   4.269   1.819  12.876 -0.2209 -0.5605 -0.3508
  857MPD2    H512591   4.369   1.801  12.875 -0.2266 -0.6158 -0.0054
  857MPD2    N112592   4.208   1.347  12.968  0.2031 -0.4380  0.5366
  857MPD2    H712593   4.145   1.274  12.998 -2.3737  0.7772 -1.8855
  858MPD2     C12594   0.081   0.751  17.080  0.7629  0.4114 -0.7927
  858MPD2    C112595   0.201   0.690  17.080  0.1804 -0.2873 -0.1832
  858MPD2    C212596   0.292   0.710  17.179 -0.9809  0.0755  0.1432
  858MPD2    C312597   0.251   0.772  17.296  0.6472  0.5712 -0.7606
  858MPD2    C412598   0.124   0.817  17.304 -1.0632  0.4031 -0.0273
  858MPD2    C512599   0.041   0.810  17.195 -0.5184  0.0540 -0.6229
  858MPD2     H12600   0.391   0.666  17.177 -1.0519 -0.0425 -0.6151
  858MPD2    H112601   0.070   0.855  17.391  0.4434  2.4305  0.0084
  858MPD2    H212602   0.013   0.741  16.996 -1.8386  2.5315  1.0548
  858MPD2    H312603   4.668   0.858  17.212  1.3422  3.2873  0.7632
  858MPD2     N12604   0.340   0.795  17.403  0.4725  0.1209  0.0554
  858MPD2    H512605   0.302   0.845  17.483 -1.6036  0.9700 -1.4999
  858MPD2    N112606   0.228   0.618  16.960  0.0950 -0.0003 -0.2204
  858MPD2    H712607   0.143   0.582  16.917 -0.0023 -0.4583  0.3564
  859MPD2     C12608   3.782   2.525  15.512 -0.3025  0.1861  0.9978
  859MPD2    C112609   3.737   2.547  15.384 -0.1764 -0.2578 -0.5695
  859MPD2    C212610   3.696   2.442  15.304 -0.4659 -0.5952  0.1605
  859MPD2    C312611   3.718   2.316  15.355  0.3273 -1.0377 -0.3927
  859MPD2    C412612   3.751   2.296  15.486  0.5315  0.4459 -0.1615
  859MPD2    C512613   3.790   2.400  15.560 -0.0725 -0.0422  0.4538
  859MPD2     H12614   3.649   2.456  15.207  1.6016 -1.1345 -0.9205
  859MPD2    H112615   3.756   2.199  15.535  0.1910  0.5921  0.1624
  859MPD2    H212616   3.823   2.603  15.575 -1.5108  0.2015  1.7488
  859MPD2    H312617   3.838   2.377  15.654  1.7325  3.0766  0.2982
  859MPD2     N12618   3.699   2.205  15.277 -0.4308 -0.3727 -0.9096
  859MPD2    H512619   3.702   2.114  15.321  1.6988 -0.4852 -1.2793
  859MPD2    N112620   3.733   2.685  15.342  0.1107  0.1743  0.1042
  859MPD2    H712621   3.756   2.756  15.410 -0.2897  0.2988  0.1054
  860MPD2     C12622   1.505   3.840  11.879  0.7914 -0.0761 -0.2304
  860MPD2    C112623   1.513   3.719  11.948  0.4164  0.5435  0.9905
  860MPD2    C212624   1.447   3.609  11.899 -0.5252 -0.0119  0.4641
  860MPD2    C312625   1.368   3.611  11.788  0.3969 -0.4211 -0.0111
  860MPD2    C412626   1.353   3.726  11.717  0.0508  0.4098  0.0978
  860MPD2    C512627   1.431   3.834  11.759  0.0929  0.2609 -0.3170
  860MPD2     H12628   1.466   3.513  11.945  2.5927  0.7532  0.7492
  860MPD2    H112629   1.296   3.738  11.626 -0.6506 -0.1503  0.4599
  860MPD2    H212630   1.544   3.931  11.923  2.2049 -1.6205  1.6891
  860MPD2    H312631   1.420   3.919  11.693 -1.2267 -1.2247 -1.9858
  860MPD2     N12632   1.287   3.499  11.763  0.0146  0.1819 -0.5661
  860MPD2    H512633   1.304   3.419  11.824 -0.1246 -0.0505 -0.8314
  860MPD2    N112634   1.599   3.690  12.054 -0.2505  0.2525  0.8012
  860MPD2    H712635   1.596   3.593  12.084 -0.3970 -0.2547 -0.8486
  861MPD2     C12636   4.008   1.065  11.493 -0.5882 -0.1348 -0.7130
  861MPD2    C112637   4.058   1.190  11.486 -0.7396 -0.1125 -0.0362
  861MPD2    C212638   4.008   1.278  11.394  0.3115  0.5639 -0.5273
  861MPD2    C312639   3.895   1.242  11.323  0.0617 -0.1603  0.3665
  861MPD2    C412640   3.844   1.118  11.335 -0.3321  0.1915 -0.1814
  861MPD2    C512641   3.893   1.032  11.424 -0.0712  0.0141 -0.1338
  861MPD2     H12642   4.058   1.373  11.384  1.1140  0.1609 -0.3789
  861MPD2    H112643   3.757   1.100  11.274  1.3624  1.6770 -3.0459
  861MPD2    H212644   4.049   0.991  11.561 -2.2641 -0.6101 -0.2166
  861MPD2    H312645   3.849   0.933  11.422  0.4624 -0.2480  1.0988
  861MPD2     N12646   3.835   1.341  11.238  0.6009 -0.3142 -0.3085
  861MPD2    H512647   3.763   1.312  11.173 -1.8170 -0.3799  2.3767
  861MPD2    N112648   4.176   1.231  11.556 -0.2857 -0.0441 -0.1667
  861MPD2    H712649   4.218   1.317  11.521  1.2461 -0.4449  0.6877
  862MPD2     C12650   3.688   1.447  10.535 -0.5695  0.5344 -0.1392
  862MPD2    C112651   3.743   1.380  10.643 -0.8830  0.2785 -0.4093
  862MPD2    C212652   3.769   1.245  10.638 -0.1796  0.3099  0.0556
  862MPD2    C312653   3.731   1.166  10.534 -0.0768 -0.1498 -0.2753
  862MPD2    C412654   3.666   1.234  10.437  0.0727  0.0205 -0.0099
  862MPD2    C512655   3.643   1.370  10.433  0.1520 -1.1357 -0.3662
  862MPD2     H12656   3.823   1.202  10.722  3.4764  1.8018 -1.5455
  862MPD2    H112657   3.619   1.175  10.359 -0.3628  0.9256 -0.4359
  862MPD2    H212658   3.662   1.552  10.543  0.1719  0.7924 -1.1577
  862MPD2    H312659   3.588   1.418  10.353  1.6366  0.3705 -0.4921
  862MPD2     N12660   3.751   1.023  10.517 -0.0516  0.4279 -0.1783
  862MPD2    H512661   3.705   0.970  10.443  0.8124 -0.6290  0.0278
  862MPD2    N112662   3.777   1.441  10.762  0.2663 -0.0286 -0.1492
  862MPD2    H712663   3.801   1.375  10.836 -1.9980 -0.4896  0.1722
  863MPD2     C12664   3.455   4.327  17.254  0.1830 -0.5291 -0.6594
  863MPD2    C112665   3.528   4.362  17.146  0.4334  0.3344  0.4004
  863MPD2    C212666   3.660   4.337  17.130  0.3993  0.4395 -0.4559
  863MPD2    C312667   3.724   4.274  17.230  0.0913  0.2983 -0.5159
  863MPD2    C412668   3.655   4.250  17.347  0.6975 -0.3073  0.0192
  863MPD2    C512669   3.523   4.277  17.355  0.0738 -0.1513  0.4066
  863MPD2     H12670   3.711   4.372  17.041  0.7904 -1.8671 -1.1281
  863MPD2    H112671   3.709   4.205  17.430 -0.7468 -2.4516 -0.2071
  863MPD2    H212672   3.351   4.350  17.276  0.8197  1.4768  0.1520
  863MPD2    H312673   3.476   4.238  17.445  0.8728 -2.7565 -0.2963
  863MPD2     N12674   3.857   4.244  17.222  0.5573  0.1447 -0.2388
  863MPD2    H512675   3.901   4.208  17.306  0.7960 -0.0477 -0.4441
  863MPD2    N112676   3.478   4.423  17.032 -0.0254 -0.0809  0.2707
  863MPD2    H712677   3.541   4.432  16.954 -0.7634 -2.0301 -0.5393
  864MPD2     C12678   3.611   0.561  17.644 -0.6684 -0.3984 -0.1264
  864MPD2    C112679   3.677   0.543  17.528  0.0980  0.0406 -0.1609
  864MPD2    C212680   3.746   0.655  17.476 -0.0831 -0.0279 -0.2017
  864MPD2    C312681   3.734   0.783  17.534  0.0834  0.5213  0.4733
  864MPD2    C412682   3.657   0.797  17.646 -0.2704 -0.1926  0.4874
  864MPD2    C512683   3.594   0.687   0.001 -0.2412  0.8072  0.2354
  864MPD2     H12684   3.822   0.649  17.399 -1.0152 -2.0175 -0.9467
  864MPD2    H112685   3.665   0.886   0.016  0.2504  0.6089 -0.7452
  864MPD2    H212686   3.565   0.481   0.008 -0.7405  0.7544  1.4810
  864MPD2    H312687   3.541   0.694   0.095  0.2862  0.9012  0.5246
  864MPD2     N12688   3.786   0.902  17.479 -1.0414 -0.3531  0.1800
  864MPD2    H512689   3.757   0.989  17.523  0.0748  0.7800 -1.3188
  864MPD2    N112690   3.692   0.409  17.477 -0.2093  0.3454 -0.4496
  864MPD2    H712691   3.642   0.339  17.531  0.2139  0.3321 -0.0669
  865MPD2     C12692   3.491   0.751  16.822  0.8367  1.0694 -0.1419
  865MPD2    C112693   3.614   0.805  16.777 -0.4354 -1.3441  0.3182
  865MPD2    C212694   3.663   0.911  16.847 -0.1332  0.4544 -1.3033
  865MPD2    C312695   3.593   0.962  16.953 -0.6142 -0.8699  0.2377
  865MPD2    C412696   3.471   0.920  16.993 -0.8132  0.7151  0.2869
  865MPD2    C512697   3.424   0.808  16.923 -0.1499  0.1385  0.2201
  865MPD2     H12698   3.765   0.942  16.828  0.1608  0.1311 -0.2787
  865MPD2    H112699   3.423   0.956  17.083  0.9269  0.8643  1.1561
  865MPD2    H212700   3.456   0.658  16.780  0.4395  1.6640 -1.1314
  865MPD2    H312701   3.331   0.762  16.955  0.3171  0.0525  1.4556
  865MPD2     N12702   3.661   1.061  17.024 -0.2039  0.5918 -0.0006
  865MPD2    H512703   3.756   1.069  16.989  0.5978  1.8061  2.4451
  865MPD2    N112704   3.676   0.742  16.665  0.1480  0.6018 -0.1638
  865MPD2    H712705   3.652   0.644  16.654 -0.1203  0.7194 -0.5811
  866MPD2     C12706   0.286   1.966  11.637 -0.1705  0.2187 -0.0078
  866MPD2    C112707   0.243   1.917  11.514 -0.4725  0.1354 -0.2998
  866MPD2    C212708   0.109   1.900  11.479  0.1155  0.2456 -0.0375
  866MPD2    C312709   0.013   1.921  11.577  0.1275  0.7250 -0.0579
  866MPD2    C412710   0.052   1.944  11.705  0.9419 -0.5227  0.7620
  866MPD2    C512711   0.186   1.964  11.735  0.0365  0.1811  0.1361
  866MPD2     H12712   0.082   1.884  11.376  0.1138  0.5260 -0.0828
  866MPD2    H112713   4.701   1.953  11.785 -0.0832  1.6139 -0.4338
  866MPD2    H212714   0.389   1.971  11.671 -0.1502  0.2945 -0.0833
  866MPD2    H312715   0.220   1.969  11.838  1.8557 -1.3835 -0.4065
  866MPD2     N12716   4.596   1.910  11.559  0.3885 -0.5312 -0.1652
  866MPD2    H512717   4.534   1.908  11.639  0.6038 -1.4995 -0.0231
  866MPD2    N112718   0.348   1.884  11.428 -0.0410 -0.1531  0.2695
  866MPD2    H712719   0.441   1.920  11.446 -0.1551  0.2540  0.0320
  867MPD2     C12720   2.348   0.648  16.390 -0.2279 -0.3420  0.2200
  867MPD2    C112721   2.423   0.670  16.504  0.8688  0.0089  0.8339
  867MPD2    C212722   2.401   0.788  16.578 -0.6958 -0.5267  0.8625
  867MPD2    C312723   2.300   0.876  16.537 -0.7853 -0.0179 -0.0764
  867MPD2    C412724   2.220   0.847  16.428  0.0295  0.9781  0.2959
  867MPD2    C512725   2.247   0.732  16.358  0.7742 -0.5067  0.1890
  867MPD2     H12726   2.459   0.804  16.668 -0.1344 -1.2530  0.6297
  867MPD2    H112727   2.132   0.904  16.403  0.3665  0.2490 -2.5437
  867MPD2    H212728   2.359   0.564  16.323 -0.3188 -2.3192  2.6764
  867MPD2    H312729   2.188   0.709  16.270  1.2727 -1.6160  0.1403
  867MPD2     N12730   2.282   0.999  16.592  0.5012 -0.6108 -0.3245
  867MPD2    H512731   2.236   1.068  16.533  0.4361  0.6512  1.1917
  867MPD2    N112732   2.524   0.572  16.534  0.0182  0.6740 -0.9708
  867MPD2    H712733   2.519   0.487  16.478  0.3490  1.6616 -2.4908
  868MPD2     C12734   0.245   3.756  12.879  0.9143  0.3428  0.0934
  868MPD2    C112735   0.222   3.888  12.850  0.5767 -0.1984 -0.1530
  868MPD2    C212736   0.091   3.929  12.860  0.5878 -0.0313  0.0532
  868MPD2    C312737   4.709   3.846  12.878  0.6482  0.7380  0.0390
  868MPD2    C412738   0.019   3.713  12.898 -0.1484 -0.4665 -0.2477
  868MPD2    C512739   0.146   3.671  12.891  0.4271  0.0926 -0.0425
  868MPD2     H12740   0.073   4.035  12.841  0.2750  0.0545  0.8526
  868MPD2    H112741   4.673   3.629  12.902 -0.7171  0.0146  0.0595
  868MPD2    H212742   0.340   3.705  12.869  0.9933  0.4268  0.3974
  868MPD2    H312743   0.170   3.565  12.897 -0.2294 -0.1351 -1.6415
  868MPD2     N12744   4.587   3.905  12.886 -0.3119  0.0335 -0.4439
  868MPD2    H512745   4.580   4.006  12.879  1.1329  0.1542 -0.1527
  868MPD2    N112746   0.336   3.966  12.828 -0.1871  0.3073  0.5136
  868MPD2    H712747   0.427   3.923  12.838  1.2314  3.2086 -0.1068
  869MPD2     C12748   1.464   2.089   1.716 -0.5820  0.2406  0.4030
  869MPD2    C112749   1.504   2.203   1.781  0.2481 -0.2955 -0.0251
  869MPD2    C212750   1.479   2.324   1.724 -0.0744 -0.1342  0.6596
  869MPD2    C312751   1.424   2.336   1.593  0.3376 -0.0722 -0.5493
  869MPD2    C412752   1.395   2.219   1.529 -0.2133  0.9596  0.5615
  869MPD2    C512753   1.409   2.097   1.591  0.1888  0.3413  0.0516
  869MPD2     H12754   1.509   2.416   1.773  2.5822 -1.6159  1.8067
  869MPD2    H112755   1.378   2.227   1.423  0.1796  2.2285  0.5979
  869MPD2    H212756   1.479   1.991   1.760  0.1696 -0.6435 -1.8419
  869MPD2    H312757   1.378   2.010   1.535  1.8078 -0.3445  0.2364
  869MPD2     N12758   1.410   2.455   1.524 -0.6665  0.5069  0.2893
  869MPD2    H512759   1.367   2.450   1.432  0.8429  0.0497 -0.3843
  869MPD2    N112760   1.570   2.173   1.903  0.1588 -0.2189 -1.1913
  869MPD2    H712761   1.582   2.077   1.932 -0.2572  0.5991  1.6327
  870MPD2     C12762   1.044   1.254   2.272  0.2968 -0.3606 -0.0798
  870MPD2    C112763   0.908   1.242   2.290 -0.3950  0.5838 -0.7584
  870MPD2    C212764   0.829   1.280   2.184 -0.0873  0.4171 -0.7096
  870MPD2    C312765   0.876   1.350   2.074  0.0591 -0.2987  0.6571
  870MPD2    C412766   1.012   1.364   2.067  0.1071  0.6941 -0.3102
  870MPD2    C512767   1.095   1.308   2.161  0.3050  0.1341 -0.1122
  870MPD2     H12768   0.722   1.263   2.193 -0.1444 -0.1827 -2.4949
  870MPD2    H112769   1.059   1.418   1.985  3.9820 -0.1953  1.3530
  870MPD2    H212770   1.114   1.234   2.352  0.0950 -2.0111 -0.3205
  870MPD2    H312771   1.203   1.317   2.149  0.0461 -0.0337 -2.6019
  870MPD2     N12772   0.790   1.398   1.980  0.1570  0.1645 -0.5373
  870MPD2    H512773   0.693   1.403   2.008 -0.0058  1.6335 -1.3792
  870MPD2    N112774   0.859   1.185   2.411  0.3852  0.2963 -0.6737
  870MPD2    H712775   0.933   1.155   2.474  0.0871  0.7216 -0.1201
  871MPD2     C12776   1.579   0.966  16.381  0.0798 -0.0471  0.2384
  871MPD2    C112777   1.554   0.886  16.491  0.5070  0.2602  0.2132
  871MPD2    C212778   1.525   0.750  16.469 -0.2530 -0.1592  0.0845
  871MPD2    C312779   1.519   0.704  16.337  0.4334 -0.1429 -0.4518
  871MPD2    C412780   1.531   0.788  16.231  0.2094 -0.1992  0.3560
  871MPD2    C512781   1.562   0.920  16.257 -0.3208 -0.2762 -0.0613
  871MPD2     H12782   1.514   0.678  16.550  0.4812  1.0009  1.2079
  871MPD2    H112783   1.518   0.763  16.126  2.4445  1.7171 -0.3929
  871MPD2    H212784   1.620   1.065  16.397  0.7044 -0.3466  0.4877
  871MPD2    H312785   1.571   0.976  16.164  1.8330  0.2670  0.4645
  871MPD2     N12786   1.488   0.563  16.323 -0.2737  0.3363 -0.2971
  871MPD2    H512787   1.446   0.520  16.405  0.3492  0.0919 -0.1052
  871MPD2    N112788   1.570   0.942  16.613 -0.1772  0.0571 -0.3181
  871MPD2    H712789   1.581   1.042  16.630  0.6129  0.2326 -1.8713
  872MPD2     C12790   2.547   3.447  14.152  0.0808 -0.7379 -0.2220
  872MPD2    C112791   2.485   3.566  14.107  0.1861 -0.3383  0.6014
  872MPD2    C212792   2.354   3.586  14.139 -0.1088 -0.5842 -0.0982
  872MPD2    C312793   2.287   3.486  14.210  0.6298 -0.2488 -0.6567
  872MPD2    C412794   2.350   3.371  14.248  0.9485  0.3401  0.1161
  872MPD2    C512795   2.481   3.349  14.219 -0.1265  0.2995  0.4547
  872MPD2     H12796   2.295   3.671  14.108 -0.4051 -0.7974 -0.1182
  872MPD2    H112797   2.305   3.291  14.305 -1.4686  0.1808 -2.0106
  872MPD2    H212798   2.653   3.434  14.136  0.4793  1.5937  0.5583
  872MPD2    H312799   2.533   3.259  14.249  0.6392  1.5013  2.7482
  872MPD2     N12800   2.152   3.486  14.251  0.4229 -0.5493  0.1542
  872MPD2    H512801   2.119   3.416  14.317  1.9405 -1.3123  0.1080
  872MPD2    N112802   2.552   3.668  14.042  0.2227 -0.5444 -0.3152
  872MPD2    H712803   2.498   3.745  14.003  1.3821  0.2864 -0.2835
  873MPD2     C12804   4.369   3.932   1.154 -0.1446  0.2714 -0.4167
  873MPD2    C112805   4.466   3.876   1.233  0.6586  0.0015  0.3012
  873MPD2    C212806   4.534   3.761   1.190 -0.0980 -0.2054 -0.3293
  873MPD2    C312807   4.476   3.690   1.080 -0.4786 -0.8540 -0.2277
  873MPD2    C412808   4.367   3.743   1.017  0.5321  0.3880  0.2475
  873MPD2    C512809   4.320   3.868   1.049  0.0848  0.5427 -0.0675
  873MPD2     H12810   4.621   3.723   1.242  0.1265  0.5201 -0.1827
  873MPD2    H112811   4.320   3.707   0.926  1.3793 -1.7207  0.6648
  873MPD2    H212812   4.312   4.019   1.186 -0.1020  0.2976 -0.4119
  873MPD2    H312813   4.236   3.912   0.996  0.2995  1.0884  0.0465
  873MPD2     N12814   4.531   3.572   1.023  0.3062  0.6411 -0.2031
  873MPD2    H512815   4.476   3.532   0.948  0.5458 -0.6139  0.2887
  873MPD2    N112816   4.503   3.963   1.338 -0.3460  0.2966  0.5239
  873MPD2    H712817   4.450   4.049   1.337  1.7626  1.5864  0.8478
  874MPD2     C12818   3.366   3.434  16.252  0.1177  0.8064  0.6766
  874MPD2    C112819   3.381   3.412  16.389  0.1308 -0.1099  0.6423
  874MPD2    C212820   3.511   3.396  16.438  0.5066 -0.2343  0.4742
  874MPD2    C312821   3.628   3.416  16.360 -0.7586 -0.3535  0.3122
  874MPD2    C412822   3.611   3.459  16.229 -0.7279  0.6121 -0.1700
  874MPD2    C512823   3.485   3.464  16.180  0.2515 -0.4033 -0.0421
  874MPD2     H12824   3.541   3.377  16.540  0.3644  0.4059  0.6365
  874MPD2    H112825   3.693   3.485  16.164 -1.2536 -2.5275 -2.0889
  874MPD2    H212826   3.267   3.436  16.208  0.2522  0.3743  0.3647
  874MPD2    H312827   3.481   3.492  16.075  0.2476  0.6840  0.2474
  874MPD2     N12828   3.755   3.385  16.416 -0.1167 -0.1277  0.4826
  874MPD2    H512829   3.755   3.343  16.508  0.5524  1.5145  1.2333
  874MPD2    N112830   3.258   3.402  16.465  0.2316  0.1947 -0.6070
  874MPD2    H712831   3.171   3.383  16.416  0.1110  0.5537 -0.5274
  875MPD2     C12832   4.405   1.913  15.043  0.2298 -0.1532 -1.1113
  875MPD2    C112833   4.504   2.010  15.006 -0.1989 -0.1030  0.6737
  875MPD2    C212834   4.553   2.100  15.101 -0.0640  0.5461 -0.6601
  875MPD2    C312835   4.512   2.085  15.231 -0.0258  1.2568 -0.0227
  875MPD2    C412836   4.415   1.990  15.268 -0.7012 -0.3081 -0.1294
  875MPD2    C512837   4.368   1.903  15.171  0.0958  0.0191 -0.5487
  875MPD2     H12838   4.628   2.173  15.072  1.5537 -1.1051 -0.6363
  875MPD2    H112839   4.393   1.954  15.369  0.0389 -1.4498 -0.3770
  875MPD2    H212840   4.368   1.834  14.978  1.1436  1.1835 -3.2741
  875MPD2    H312841   4.279   1.844  15.186 -0.7517  1.8456  1.6106
  875MPD2     N12842   4.585   2.144  15.337 -0.1600 -0.5090 -0.1762
  875MPD2    H512843   4.555   2.113  15.429  1.7447  0.5721  0.7969
  875MPD2    N112844   4.547   2.009  14.869  0.1776  0.0221  0.0273
  875MPD2    H712845   4.484   1.952  14.812  0.2159  1.0916 -1.0804
  876MPD2     C12846   3.668   3.156  16.113 -0.0042 -0.1112 -0.0086
  876MPD2    C112847   3.791   3.121  16.087 -0.6859 -0.2524  0.1590
  876MPD2    C212848   3.862   3.059  16.189  0.7606 -0.0728  0.9594
  876MPD2    C312849   3.796   3.024  16.309 -0.0969 -0.1803  0.7401
  876MPD2    C412850   3.663   3.069  16.335 -0.4202  0.7752  0.3319
  876MPD2    C512851   3.604   3.127  16.231 -0.8779 -0.6803 -0.3934
  876MPD2     H12852   3.961   3.018  16.171  1.1360  0.9903  0.6368
  876MPD2    H112853   3.600   3.041  16.418  1.7932  1.7108  2.3478
  876MPD2    H212854   3.612   3.206  16.035 -0.7648 -2.2242 -0.8254
  876MPD2    H312855   3.502   3.160  16.246 -0.8825  0.9165 -3.8332
  876MPD2     N12856   3.860   2.935  16.389  0.4286  0.2688 -0.6635
  876MPD2    H512857   3.959   2.919  16.374  0.4492 -0.4261  0.2091
  876MPD2    N112858   3.849   3.168  15.965 -0.0342  0.5720 -0.7457
  876MPD2    H712859   3.795   3.224  15.899 -2.6104  1.7885  2.4105
  877MPD2     C12860   3.699   3.379  15.253  0.7017  0.1765 -0.3420
  877MPD2    C112861   3.828   3.427  15.278  0.4239  0.7542  0.1807
  877MPD2    C212862   3.891   3.485  15.172  0.3865 -0.6906 -0.6256
  877MPD2    C312863   3.831   3.511  15.046 -0.0941 -0.2604  0.2900
  877MPD2    C412864   3.703   3.465  15.027  0.3208 -0.0664 -0.6219
  877MPD2    C512865   3.641   3.405  15.134  0.4650 -0.2098 -0.1256
  877MPD2     H12866   3.997   3.503  15.181  0.0540  0.0800  1.7447
  877MPD2    H112867   3.656   3.470  14.929  1.3301  1.3770 -1.0300
  877MPD2    H212868   3.640   3.325  15.325  0.7255  1.3214  0.5325
  877MPD2    H312869   3.543   3.364  15.113 -0.1399 -0.0146  2.2417
  877MPD2     N12870   3.895   3.565  14.938 -0.1277 -0.5557 -0.0294
  877MPD2    H512871   3.851   3.547  14.848 -0.8616 -2.4432  0.7013
  877MPD2    N112872   3.895   3.417  15.403 -0.1609 -0.7270 -0.0263
  877MPD2    H712873   3.988   3.458  15.410 -0.6352  0.2322  0.7855
  878MPD2     C12874   3.395   2.738  13.519 -0.3168  0.1453  0.9132
  878MPD2    C112875   3.478   2.845  13.511 -0.0708  0.3908  0.6687
  878MPD2    C212876   3.491   2.919  13.629 -0.0583  0.4142 -0.0207
  878MPD2    C312877   3.422   2.898  13.746  0.5679  0.4860 -0.7712
  878MPD2    C412878   3.339   2.791  13.748  0.2993 -0.7011  0.2775
  878MPD2    C512879   3.330   2.715  13.633 -0.0819  0.5201 -0.0885
  878MPD2     H12880   3.556   3.005  13.638  1.6308 -0.9176  0.6348
  878MPD2    H112881   3.289   2.757  13.838  2.7857 -1.0707  1.5076
  878MPD2    H212882   3.382   2.670  13.436 -0.1915  0.4747  0.6218
  878MPD2    H312883   3.262   2.630  13.641 -0.4341  0.8674  0.6199
  878MPD2     N12884   3.450   2.996  13.849  0.0209  0.7051  0.0774
  878MPD2    H512885   3.495   3.082  13.819  0.7925 -0.0176 -0.8355
  878MPD2    N112886   3.539   2.877  13.383  0.2325 -0.2590  0.1894
  878MPD2    H712887   3.509   2.823  13.303 -1.1917  1.0832 -0.1718
  879MPD2     C12888   0.190   4.333  17.128  0.9506 -0.4044  0.2308
  879MPD2    C112889   0.116   4.328  17.246 -0.2834  0.3332  0.4710
  879MPD2    C212890   4.719   4.256  17.244 -0.2107 -0.1625 -0.5350
  879MPD2    C312891   4.676   4.195  17.127 -0.2541 -0.5649  0.3782
  879MPD2    C412892   0.025   4.207  17.015 -0.2105  0.4749  0.6193
  879MPD2    C512893   0.141   4.274  17.011 -0.1767  0.4189  1.8760
  879MPD2     H12894   4.663   4.249  17.337 -1.2835 -0.7142 -1.2260
  879MPD2    H112895   4.714   4.156  16.925  1.1257 -0.7030  0.7927
  879MPD2    H212896   0.282   4.388  17.127  0.1590  0.9134  0.0784
  879MPD2    H312897   0.210   4.274  16.927 -0.1955 -1.3604  1.8658
  879MPD2     N12898   4.564   4.110  17.113  0.3462 -1.0790 -0.2437
  879MPD2    H512899   4.558   4.054  17.029 -0.0661  0.4136 -1.2147
  879MPD2    N112900   0.171   4.375  17.371  0.3284 -0.5623  0.2455
  879MPD2    H712901   0.256   4.429  17.356  0.3114 -0.7172 -0.4081
  880MPD2     C12902   1.558   1.267   0.560 -0.2104  0.1535 -0.0247
  880MPD2    C112903   1.465   1.201   0.636 -0.0050 -0.6957  0.6543
  880MPD2    C212904   1.476   1.061   0.639 -0.0901 -0.5840 -0.8829
  880MPD2    C312905   1.575   1.001   0.566 -0.1474 -0.5224  1.0224
  880MPD2    C412906   1.669   1.069   0.503  0.8704 -0.1586 -0.1020
  880MPD2    C512907   1.651   1.202   0.497 -0.1298 -0.9045 -1.1032
  880MPD2     H12908   1.409   0.994   0.693 -1.6775  1.5941 -0.1494
  880MPD2    H112909   1.755   1.037   0.446 -1.1703 -2.3565 -1.9845
  880MPD2    H212910   1.561   1.375   0.554 -3.2957  0.1814 -1.1951
  880MPD2    H312911   1.712   1.250   0.421 -0.1908 -1.2782 -1.3900
  880MPD2     N12912   1.577   0.857   0.560 -0.8471  0.2364  0.5476
  880MPD2    H512913   1.510   0.814   0.622 -2.4641  2.3234  0.2492
  880MPD2    N112914   1.360   1.280   0.698 -0.5230  0.1709 -0.4784
  880MPD2    H712915   1.356   1.377   0.668  1.0671  1.0863  2.2075
  881MPD2     C12916   0.723   1.172   0.112  0.1279  0.3860 -0.3576
  881MPD2    C112917   0.765   1.304   0.121 -0.2660  0.7863  0.6894
  881MPD2    C212918   0.820   1.353   0.237 -0.0192 -0.2215 -1.0983
  881MPD2    C312919   0.827   1.273   0.355  0.5660  0.1860  0.3337
  881MPD2    C412920   0.785   1.142   0.342  0.3853 -0.0112 -0.5536
  881MPD2    C512921   0.738   1.096   0.217  0.0356  0.1937  0.4052
  881MPD2     H12922   0.873   1.447   0.244  0.3361 -0.5712  0.7302
  881MPD2    H112923   0.764   1.075   0.425 -0.6841  0.2978 -0.5784
  881MPD2    H212924   0.713   1.135   0.010 -1.1582 -0.2718  0.0084
  881MPD2    H312925   0.723   0.989   0.207 -1.8491  0.6236 -1.2841
  881MPD2     N12926   0.898   1.305   0.470  0.3290 -0.0368  0.0161
  881MPD2    H512927   0.926   1.224   0.525 -0.2782  0.3717  0.9164
  881MPD2    N112928   0.784   1.364  17.684 -0.0441  0.7599 -0.0684
  881MPD2    H712929   0.758   1.305  17.606 -0.3135  1.0358 -0.1855
  882MPD2     C12930   3.969   3.491  14.108 -0.2381  0.4424 -0.3506
  882MPD2    C112931   3.907   3.540  14.217  0.1627 -0.1408  0.7445
  882MPD2    C212932   3.770   3.566  14.207 -0.0696  0.3884 -0.3968
  882MPD2    C312933   3.705   3.541  14.092 -0.8426  0.2334  0.0461
  882MPD2    C412934   3.765   3.484  13.984 -0.0767  0.2764  0.4155
  882MPD2    C512935   3.901   3.466  13.987  1.3564  0.1878  0.0011
  882MPD2     H12936   3.721   3.602  14.296 -0.1385  1.7512 -0.9743
  882MPD2    H112937   3.723   3.477  13.884  2.0076  2.4251 -0.6228
  882MPD2    H212938   4.076   3.470  14.111 -0.4117 -0.2218  1.0376
  882MPD2    H312939   3.950   3.420  13.901  0.7557  0.7453 -0.6457
  882MPD2     N12940   3.565   3.564  14.077 -0.6668  0.2811  0.2304
  882MPD2    H512941   3.526   3.515  13.997  1.6322  1.1782 -1.4260
  882MPD2    N112942   3.972   3.549  14.343  0.2542 -0.2981  0.3416
  882MPD2    H712943   4.060   3.501  14.361  0.1906 -0.4480  0.2534
  883MPD2     C12944   1.074   3.689  16.589 -0.0918  0.0065 -0.0021
  883MPD2    C112945   1.111   3.669  16.457 -0.1392  0.8635  0.7599
  883MPD2    C212946   1.238   3.644  16.427  0.1038 -0.5863 -0.1472
  883MPD2    C312947   1.329   3.657  16.530  0.1915 -0.1045 -0.5806
  883MPD2    C412948   1.295   3.695  16.657  0.4761  0.0703  0.6258
  883MPD2    C512949   1.163   3.707  16.696 -0.5991 -0.5522  0.3590
  883MPD2     H12950   1.265   3.620  16.325  0.8130 -0.3751 -0.0072
  883MPD2    H112951   1.372   3.694  16.733  0.6898  0.9033  0.4234
  883MPD2    H212952   0.971   3.699  16.622  0.3136  1.3488  0.8594
  883MPD2    H312953   1.132   3.713  16.799 -0.2964 -1.2135  0.4913
  883MPD2     N12954   1.462   3.642  16.490 -0.0306  0.4054 -0.6283
  883MPD2    H512955   1.469   3.604  16.397 -3.2419 -1.7576  0.0065
  883MPD2    N112956   1.018   3.656  16.355  0.1719  0.1467  0.1112
  883MPD2    H712957   1.055   3.630  16.264  1.5103  4.7262 -0.6661
  884MPD2     C12958   2.962   4.126  15.728 -0.0933  0.0069  0.1595
  884MPD2    C112959   2.957   4.249  15.657  0.1518 -0.3977  0.3568
  884MPD2    C212960   2.840   4.273  15.588  0.4324  0.9427  0.3248
  884MPD2    C312961   2.738   4.182  15.588 -0.4276 -0.3905 -0.1426
  884MPD2    C412962   2.744   4.067  15.671 -0.2998  0.2507  0.1266
  884MPD2    C512963   2.854   4.045  15.743  0.3979  1.2432 -0.7203
  884MPD2     H12964   2.843   4.348  15.510  0.0378 -0.2913 -0.8757
  884MPD2    H112965   2.660   4.000  15.688 -2.4770  3.1600  0.8421
  884MPD2    H212966   3.054   4.091  15.773 -0.5234  0.1846  1.1858
  884MPD2    H312967   2.850   3.952  15.799 -0.7432  1.1780 -0.9017
  884MPD2     N12968   2.623   4.219  15.521  0.6316 -0.0017 -0.4633
  884MPD2    H512969   2.608   4.317  15.502  3.0091  0.5480  0.5135
  884MPD2    N112970   3.067   4.347  15.645  0.0371  0.3841  0.5967
  884MPD2    H712971   3.039   4.436  15.606  1.1705 -1.1221 -3.7481
  885MPD2     C12972   1.027   4.230   0.602  0.2395 -1.1614  0.4851
  885MPD2    C112973   1.144   4.296   0.575 -0.0781  0.2057  0.2541
  885MPD2    C212974   1.166   4.337   0.444  0.1191  0.1584  0.2990
  885MPD2    C312975   1.077   4.314   0.339 -0.0451 -0.3239 -0.1764
  885MPD2    C412976   0.963   4.242   0.367  0.1518  0.7805 -0.1029
  885MPD2    C512977   0.942   4.196   0.496  0.1456  0.4190  0.0081
  885MPD2     H12978   1.253   4.396   0.417  2.3327 -0.8598  5.1228
  885MPD2    H112979   0.877   4.229   0.302  0.5380  0.3971 -0.5420
  885MPD2    H212980   0.992   4.211   0.703  0.6556  1.6808  1.1637
  885MPD2    H312981   0.849   4.151   0.529 -1.1456  3.3574  0.4017
  885MPD2     N12982   1.114   4.358   0.211 -0.4861  0.2737 -0.2940
  885MPD2    H512983   1.210   4.392   0.205  0.2278 -1.7372 -0.6391
  885MPD2    N112984   1.226   4.323   0.686  0.1856  0.3266 -0.1288
  885MPD2    H712985   1.192   4.289   0.775 -0.2267  1.2288  0.0585
  886MPD2     C12986   2.302   3.358  15.736 -0.3602 -0.7360 -0.5435
  886MPD2    C112987   2.388   3.253  15.719 -0.5776  0.2140  0.1283
  886MPD2    C212988   2.455   3.239  15.597 -0.3010 -0.1035  0.2645
  886MPD2    C312989   2.445   3.335  15.497 -0.3889 -0.5899  0.4570
  886MPD2    C412990   2.356   3.440  15.522  0.6858  0.0495 -0.2547
  886MPD2    C512991   2.284   3.454  15.637 -0.2890  0.2394  0.0965
  886MPD2     H12992   2.534   3.164  15.602  0.2101  0.3600 -0.9073
  886MPD2    H112993   2.341   3.510  15.441 -0.2516 -0.1546 -0.2521
  886MPD2    H212994   2.267   3.375  15.837  0.8818 -1.4028 -0.0029
  886MPD2    H312995   2.217   3.539  15.644  0.9769  1.4350 -2.0730
  886MPD2     N12996   2.513   3.341  15.375  0.7724 -0.0429 -0.3717
  886MPD2    H512997   2.487   3.413  15.309  0.1117 -0.4306 -0.5286
  886MPD2    N112998   2.417   3.148  15.809  0.3666 -0.0052 -0.2734
  886MPD2    H712999   2.485   3.080  15.777 -1.6347 -2.9940  1.8152
  887MPD2     C13000   3.049   2.854  15.901  0.1514 -0.5345  0.0289
  887MPD2    C113001   2.975   2.973  15.917  1.1792  0.5576 -0.5964
  887MPD2    C213002   3.011   3.091  15.860  0.5962 -0.2716  0.1455
  887MPD2    C313003   3.133   3.096  15.798  0.5863 -0.1361 -0.1703
  887MPD2    C413004   3.216   2.983  15.793 -0.0701 -0.4831 -0.1028
  887MPD2    C513005   3.170   2.863  15.839 -0.5242  0.5481 -0.2009
  887MPD2     H13006   2.958   3.184  15.873  0.1491 -0.4632 -0.3315
  887MPD2    H113007   3.319   2.983  15.758 -0.7455  0.1800 -2.1058
  887MPD2    H213008   3.013   2.755  15.924  2.7655 -1.0945  1.7818
  887MPD2    H313009   3.240   2.779  15.836 -1.3714 -0.1519 -0.4760
  887MPD2     N13010   3.172   3.222  15.747 -0.1209 -0.7737 -0.2963
  887MPD2    H513011   3.112   3.304  15.753  1.0356  0.0110  0.4310
  887MPD2    N113012   2.848   2.977  15.974  0.1637  0.3105 -0.2873
  887MPD2    H713013   2.798   3.065  15.969  1.5557  1.1162  0.1812
  888MPD2     C13014   0.312   3.025  15.274  0.0243  0.6499 -0.1534
  888MPD2    C113015   0.196   3.086  15.325 -0.4871  0.2979 -0.4701
  888MPD2    C213016   0.182   3.220  15.300 -0.2018 -0.1561  0.2546
  888MPD2    C313017   0.280   3.290  15.233  0.2915  0.5404  0.1848
  888MPD2    C413018   0.400   3.235  15.202 -0.3277  0.2591 -0.0390
  888MPD2    C513019   0.414   3.104  15.219 -0.2154  0.1601 -0.5841
  888MPD2     H13020   0.092   3.275  15.324 -1.1348 -1.1940 -0.8261
  888MPD2    H113021   0.480   3.295  15.161  0.4571 -0.7421  0.0394
  888MPD2    H213022   0.335   2.920  15.293 -0.2114  0.7637  0.7557
  888MPD2    H313023   0.508   3.063  15.185  0.0539 -0.7432  1.2614
  888MPD2     N13024   0.256   3.427  15.205  0.4526  0.3585 -0.0439
  888MPD2    H513025   0.173   3.470  15.245  0.5364  1.3295 -0.9196
  888MPD2    N113026   0.105   3.022  15.405  0.4486  0.1287  0.3810
  888MPD2    H713027   0.039   3.074  15.461 -0.9477  0.0799 -1.1986
  889MPD2     C13028   4.204   2.622  12.760  0.2783  0.1731 -0.1838
  889MPD2    C113029   4.276   2.575  12.872 -0.3230  0.1366  0.4805
  889MPD2    C213030   4.254   2.636  13.000 -0.1457  0.6047  0.5529
  889MPD2    C313031   4.188   2.754  13.010  0.3856 -0.1062 -0.5521
  889MPD2    C413032   4.127   2.802  12.889 -0.7425  0.3186 -0.2343
  889MPD2    C513033   4.130   2.731  12.772 -0.1423  0.8782  0.2928
  889MPD2     H13034   4.303   2.592  13.086  1.9561  0.9142 -0.4863
  889MPD2    H113035   4.082   2.900  12.894 -2.7160 -0.4603 -2.7280
  889MPD2    H213036   4.198   2.570  12.665  0.8079  2.0606 -1.2425
  889MPD2    H313037   4.078   2.776  12.688 -0.8323 -2.1833 -0.9026
  889MPD2     N13038   4.162   2.819  13.128 -0.3000 -0.0640 -0.9260
  889MPD2    H513039   4.217   2.784  13.206 -0.1821 -1.4094 -1.6093
  889MPD2    N113040   4.318   2.442  12.862 -0.3305  0.3058  0.2338
  889MPD2    H713041   4.305   2.394  12.773  0.3910 -0.0470  0.3230
  890MPD2     C13042   3.612   4.168  15.280  0.4511 -0.3606  0.5326
  890MPD2    C113043   3.670   4.295  15.299  0.6381  0.4694  0.5537
  890MPD2    C213044   3.788   4.295  15.371  0.4792  0.3984  0.1625
  890MPD2    C313045   3.843   4.180  15.426  0.5048  0.1910  0.1246
  890MPD2    C413046   3.794   4.060  15.397 -0.2115 -0.2699 -0.1052
  890MPD2    C513047   3.676   4.059  15.332 -0.2098  0.0748  0.2229
  890MPD2     H13048   3.838   4.390  15.380  0.0174  1.0001 -3.4272
  890MPD2    H113049   3.819   3.963  15.439  0.2473 -0.7571 -1.5214
  890MPD2    H213050   3.517   4.163  15.230 -0.2346 -1.6470  1.9537
  890MPD2    H313051   3.622   3.970  15.305 -0.4910  0.2406  0.2461
  890MPD2     N13052   3.956   4.188  15.516 -0.3664 -0.2507  0.1662
  890MPD2    H513053   4.007   4.276  15.523  1.0409 -0.8189 -2.9268
  890MPD2    N113054   3.606   4.408  15.240  0.2482 -0.0082 -0.3422
  890MPD2    H713055   3.519   4.382  15.196  0.8324  0.5823 -1.8433
  891MPD2     C13056   2.032   2.459  17.167  0.0454  0.4194  0.2881
  891MPD2    C113057   1.947   2.505  17.260  0.7323  0.1828  0.5585
  891MPD2    C213058   1.976   2.481  17.396 -0.8855  1.1607  0.1384
  891MPD2    C313059   2.084   2.401  17.436 -0.3035 -0.6019 -0.1694
  891MPD2    C413060   2.157   2.341  17.330 -0.3365 -0.0572  0.3483
  891MPD2    C513061   2.136   2.375  17.197 -0.9917 -0.3335  0.2634
  891MPD2     H13062   1.911   2.527  17.469  1.2237  0.6207  2.3587
  891MPD2    H113063   2.228   2.261  17.349  0.5534  1.0284  1.5997
  891MPD2    H213064   2.012   2.482  17.063  1.4613  1.7903  0.3188
  891MPD2    H313065   2.193   2.333  17.115  1.5705  2.0426  0.7912
  891MPD2     N13066   2.127   2.383  17.571 -0.4412  0.2548  0.4180
  891MPD2    H513067   2.077   2.453  17.625 -1.7661  1.5015 -2.4429
  891MPD2    N113068   1.832   2.573  17.215 -0.0684 -0.0296  0.5937
  891MPD2    H713069   1.821   2.579  17.114  0.5023 -0.6907  0.4908
  892MPD2     C13070   3.052   3.659  14.828 -0.8401 -0.2459 -0.3072
  892MPD2    C113071   2.946   3.693  14.742 -0.1116 -0.3139  0.2051
  892MPD2    C213072   2.974   3.703  14.608 -0.2621 -0.2465  0.0012
  892MPD2    C313073   3.100   3.662  14.562  0.3041 -0.0355 -0.0446
  892MPD2    C413074   3.203   3.639  14.650 -0.0979  0.4284  0.1145
  892MPD2    C513075   3.180   3.633  14.783  0.2621  1.2104 -0.5782
  892MPD2     H13076   2.894   3.739  14.545 -0.6425  2.4951  2.0447
  892MPD2    H113077   3.308   3.629  14.622  0.0645  2.9049 -0.0950
  892MPD2    H213078   3.031   3.674  14.934 -2.8974  1.0477 -0.9027
  892MPD2    H313079   3.257   3.603  14.854  0.7333  0.4105 -1.4303
  892MPD2     N13080   3.136   3.660  14.429 -0.3769  0.6650  0.1536
  892MPD2    H513081   3.230   3.627  14.412 -0.2263  1.5696 -0.7744
  892MPD2    N113082   2.816   3.728  14.791 -0.1397 -0.0880  0.1617
  892MPD2    H713083   2.750   3.769  14.725 -0.4583 -2.7629 -1.1612
  893MPD2     C13084   0.590   1.458   2.848  0.7789 -0.6405  0.0322
  893MPD2    C113085   0.535   1.454   2.723  0.4787  0.1330  0.0203
  893MPD2    C213086   0.412   1.384   2.703  0.8836 -0.2269 -0.4483
  893MPD2    C313087   0.348   1.323   2.809  0.0320 -0.1793 -0.7170
  893MPD2    C413088   0.406   1.330   2.935 -0.1953  0.6389 -0.0950
  893MPD2    C513089   0.523   1.398   2.947 -0.6582 -0.4851  0.2605
  893MPD2     H13090   0.370   1.381   2.603 -0.4945  0.0164  0.1240
  893MPD2    H113091   0.358   1.278   3.018 -1.8984  1.5397 -0.4992
  893MPD2    H213092   0.673   1.517   2.885  0.4476 -0.1969  0.0765
  893MPD2    H313093   0.565   1.424   3.044 -0.7034 -1.3689  0.5094
  893MPD2     N13094   0.240   1.232   2.792  0.2465 -0.4305 -0.2652
  893MPD2    H513095   0.196   1.207   2.880  0.6118 -0.0715  0.0159
  893MPD2    N113096   0.605   1.517   2.618  0.1712  0.0209  0.0070
  893MPD2    H713097   0.690   1.565   2.648 -0.3602  0.4263  0.8699
  894MPD2     C13098   2.916   4.320   0.742  0.7467  0.3188 -0.6339
  894MPD2    C113099   2.897   4.359   0.874  0.1734 -0.5186  1.0120
  894MPD2    C213100   2.813   4.467   0.904 -1.3499 -0.2545 -0.1023
  894MPD2    C313101   2.739   4.521   0.803  0.1520  0.2022 -0.2027
  894MPD2    C413102   2.760   4.479   0.674 -0.2307 -0.7787 -0.0808
  894MPD2    C513103   2.853   4.386   0.644  0.9105  0.1803 -1.0056
  894MPD2     H13104   2.790   4.502   1.004  1.9089 -0.3285  0.6662
  894MPD2    H113105   2.701   4.522   0.594  1.6741  2.1320  0.0590
  894MPD2    H213106   2.993   4.252   0.709  0.4548 -0.5035  0.3890
  894MPD2    H313107   2.874   4.371   0.539 -2.8053  0.0696 -1.7391
  894MPD2     N13108   2.655   4.622   0.845 -0.0234  0.8619 -0.1369
  894MPD2    H513109   2.633   4.633   0.944 -3.0837  1.0694 -0.8489
  894MPD2    N113110   2.975   4.320   0.984  0.1812  0.3415  0.0850
  894MPD2    H713111   2.967   4.374   1.069  0.2267 -2.4944  1.8858
  895MPD2     C13112   2.562   2.714  13.542  0.1930  0.4093  0.1227
  895MPD2    C113113   2.503   2.723  13.669 -0.5240 -0.0462 -0.0065
  895MPD2    C213114   2.470   2.604  13.734 -0.5845  0.0202 -0.9736
  895MPD2    C313115   2.501   2.480  13.682  0.2663 -0.0016 -0.1546
  895MPD2    C413116   2.571   2.480  13.567  0.0768 -0.0495 -0.3638
  895MPD2    C513117   2.591   2.592  13.493 -0.8846 -0.7854 -0.1884
  895MPD2     H13118   2.423   2.614  13.831  1.0705  0.0922 -0.1688
  895MPD2    H113119   2.596   2.385  13.522  1.3612 -0.4053  1.1009
  895MPD2    H213120   2.574   2.796  13.472  0.2881 -0.3159 -0.7131
  895MPD2    H313121   2.638   2.595  13.395 -2.3705  2.1968 -0.7952
  895MPD2     N13122   2.454   2.359  13.730  0.6502  1.0286 -0.5449
  895MPD2    H513123   2.434   2.281  13.668  1.1218  0.5825 -0.1358
  895MPD2    N113124   2.468   2.846  13.718  0.2924 -0.5866  0.1366
  895MPD2    H713125   2.397   2.855  13.790 -0.9650 -2.5544 -0.8439
  896MPD2     C13126   4.283   0.855   2.278 -0.0731 -0.4440  0.0765
  896MPD2    C113127   4.311   0.743   2.198  0.2129  0.4345 -0.0089
  896MPD2    C213128   4.212   0.697   2.107 -1.1030 -0.5637 -0.0573
  896MPD2    C313129   4.086   0.760   2.099  0.1423  0.3533 -0.0132
  896MPD2    C413130   4.057   0.855   2.193 -0.0014  0.5135 -0.6533
  896MPD2    C513131   4.155   0.910   2.274 -0.5352  0.2274  0.5520
  896MPD2     H13132   4.232   0.614   2.039 -1.1246 -0.5331 -0.1012
  896MPD2    H113133   3.955   0.871   2.227 -0.0863 -0.3447 -0.5010
  896MPD2    H213134   4.355   0.893   2.350  1.0524  1.4774 -2.0560
  896MPD2    H313135   4.123   0.984   2.346  0.8727  0.3219  1.0784
  896MPD2     N13136   3.994   0.706   2.005 -0.0071 -0.9039  0.0836
  896MPD2    H513137   4.032   0.639   1.939 -0.1529  0.0345 -0.9671
  896MPD2    N113138   4.445   0.689   2.204  0.0549  0.2012  0.4564
  896MPD2    H713139   4.492   0.715   2.290 -0.3540 -1.6850  1.2406
  897MPD2     C13140   0.605   1.746  10.229  0.1199 -0.3301  0.3032
  897MPD2    C113141   0.646   1.856  10.288 -0.9320  0.3241  0.1237
  897MPD2    C213142   0.564   1.920  10.384  0.3160  0.6018  0.2804
  897MPD2    C313143   0.433   1.882  10.402  0.2273  0.5717  0.1226
  897MPD2    C413144   0.390   1.767  10.342  0.0876 -0.1727  0.7543
  897MPD2    C513145   0.475   1.697  10.257 -0.3054  0.0437  0.7659
  897MPD2     H13146   0.598   2.012  10.429  0.5915  0.4926  0.2932
  897MPD2    H113147   0.297   1.716  10.364 -0.0506 -0.6653 -1.0126
  897MPD2    H213148   0.659   1.701  10.147 -0.4397 -0.6610  0.1196
  897MPD2    H313149   0.442   1.605  10.211  2.0331  0.3454 -1.5157
  897MPD2     N13150   0.353   1.959  10.492 -0.2468  0.1576  0.0603
  897MPD2    H513151   0.397   2.039  10.536 -0.3672  0.0779  0.3230
  897MPD2    N113152   0.776   1.911  10.259 -0.0736 -0.0187 -0.2353
  897MPD2    H713153   0.835   1.853  10.200 -0.0334 -1.0612  0.8087
  898MPD2     C13154   3.125   2.868   0.439  0.4269  0.2318  0.4400
  898MPD2    C113155   3.229   2.954   0.401 -1.0136  0.4684 -0.0948
  898MPD2    C213156   3.206   3.036   0.293  0.4501 -0.2993  0.6989
  898MPD2    C313157   3.082   3.032   0.230  0.5962 -0.5093  0.3548
  898MPD2    C413158   2.978   2.952   0.271 -0.1539  0.0681  0.0985
  898MPD2    C513159   3.002   2.869   0.378  0.2458  0.6784 -0.3832
  898MPD2     H13160   3.289   3.092   0.252 -1.1683  1.3872 -0.2774
  898MPD2    H113161   2.887   2.946   0.212  1.0277 -3.1188 -1.4030
  898MPD2    H213162   3.141   2.810   0.529 -0.2072 -2.3075 -1.0937
  898MPD2    H313163   2.925   2.811   0.428  1.0834 -1.8051 -1.9932
  898MPD2     N13164   3.084   3.115   0.112 -0.2484  0.3265 -0.0453
  898MPD2    H513165   3.165   3.175   0.104  1.3162 -1.9464 -1.1712
  898MPD2    N113166   3.359   2.940   0.457 -0.0947  0.1688  0.0763
  898MPD2    H713167   3.432   3.001   0.422 -2.2745  2.1917 -0.9701
  899MPD2     C13168   4.087   3.851   0.067 -0.5237 -0.4768  0.0852
  899MPD2    C113169   4.021   3.923  17.663 -0.1848 -0.0227  0.3605
  899MPD2    C213170   3.882   3.918  17.671 -0.1709 -0.3117 -0.3418
  899MPD2    C313171   3.811   3.831   0.069  0.2514 -0.3988 -0.3273
  899MPD2    C413172   3.887   3.766   0.158  0.8726 -0.4128 -0.1946
  899MPD2    C513173   4.023   3.768   0.150  0.5396 -0.0665 -0.5130
  899MPD2     H13174   3.814   3.974  17.606 -0.2904 -0.1786 -0.1051
  899MPD2    H113175   3.839   3.701   0.231  0.8346 -1.0101 -0.7607
  899MPD2    H213176   4.195   3.846   0.076 -0.5058 -2.4847 -1.3747
  899MPD2    H313177   4.081   3.720   0.228 -0.9932 -0.7240  0.2306
  899MPD2     N13178   3.674   3.832   0.102 -0.2547  0.2754  0.2625
  899MPD2    H513179   3.651   3.776   0.183 -0.6225 -1.5163 -1.0908
  899MPD2    N113180   4.095   4.002  17.573  0.7097  0.2552 -0.0039
  899MPD2    H713181   4.193   4.020  17.593 -0.1264  2.3323  2.2303
  900MPD2     C13182   2.869   0.662  12.020  0.1893 -0.2150  0.3511
  900MPD2    C113183   2.797   0.607  12.126 -0.1587  0.2279  0.3430
  900MPD2    C213184   2.686   0.676  12.170 -0.3690  0.0688  0.8053
  900MPD2    C313185   2.648   0.793  12.102 -0.1820  1.0226 -0.3232
  900MPD2    C413186   2.720   0.842  11.993  0.1014 -0.2740  0.1068
  900MPD2    C513187   2.833   0.781  11.963 -0.3555 -0.9394  0.1509
  900MPD2     H13188   2.635   0.643  12.260  1.1197  0.3893  1.7680
  900MPD2    H113189   2.693   0.925  11.929 -0.5506 -0.1304  0.5627
  900MPD2    H213190   2.961   0.619  11.982  0.8016  0.2783  1.2670
  900MPD2    H313191   2.905   0.813  11.888 -0.4275 -3.7586 -1.1498
  900MPD2     N13192   2.529   0.855  12.147  0.3850 -0.2207 -0.9414
  900MPD2    H513193   2.476   0.815  12.224  0.2798 -0.1180 -0.9598
  900MPD2    N113194   2.847   0.488  12.178 -0.1272  0.0650  0.3264
  900MPD2    H713195   2.930   0.446  12.138  0.0780  1.8036 -1.0433
  901MPD2     C13196   2.654   4.176  12.281  0.2930 -0.2871 -0.0161
  901MPD2    C113197   2.753   4.206  12.373  0.2243 -0.2244 -0.0640
  901MPD2    C213198   2.785   4.337  12.409 -0.5642 -0.0328 -0.2259
  901MPD2    C313199   2.715   4.441  12.344 -0.4620  0.6031  0.4341
  901MPD2    C413200   2.600   4.406  12.282 -0.3130 -0.2924  0.7695
  901MPD2    C513201   2.572   4.277  12.243 -0.1072  0.0310  0.3199
  901MPD2     H13202   2.873   4.361  12.467 -1.6154 -0.9138  1.7506
  901MPD2    H113203   2.548   4.493  12.244  1.7061  0.4504 -0.3362
  901MPD2    H213204   2.628   4.073  12.264 -1.3536  0.1620 -0.1616
  901MPD2    H313205   2.482   4.265  12.184  0.2747  0.1545 -0.2945
  901MPD2     N13206   2.760   4.573  12.354  0.4243 -0.0202 -0.3146
  901MPD2    H513207   2.845   4.580  12.409 -0.3563  2.5357  0.5811
  901MPD2    N113208   2.834   4.100  12.427 -0.2133 -0.3289 -0.0258
  901MPD2    H713209   2.841   4.011  12.377 -1.4594 -1.2970  1.5240
  902MPD2     C13210   1.891   3.636  13.384 -0.0387  0.2025  0.1961
  902MPD2    C113211   1.904   3.622  13.249  0.4197  0.0020 -0.1572
  902MPD2    C213212   2.029   3.598  13.196 -0.6444 -0.2582  0.6195
  902MPD2    C313213   2.134   3.573  13.281 -0.5581 -0.2310  0.0903
  902MPD2    C413214   2.117   3.575  13.414 -0.8008  0.1496  0.5136
  902MPD2    C513215   1.999   3.614  13.466 -0.0410  1.0824 -0.2023
  902MPD2     H13216   2.038   3.626  13.091 -1.6507  0.8497  0.8224
  902MPD2    H113217   2.197   3.562  13.486  0.2096  0.6543 -0.5180
  902MPD2    H213218   1.797   3.674  13.425  1.6766  2.0429  2.4153
  902MPD2    H313219   1.993   3.638  13.571  0.6451 -1.5699  0.4434
  902MPD2     N13220   2.255   3.548  13.226  0.3895 -0.0297 -0.1443
  902MPD2    H513221   2.247   3.539  13.125 -2.0506 -1.6860  0.2075
  902MPD2    N113222   1.790   3.657  13.166 -0.3439 -0.3350 -0.2767
  902MPD2    H713223   1.706   3.684  13.218 -0.6639 -2.9233  0.5447
  903MPD2     C13224   2.075   3.930  13.030 -0.8625  0.1983 -0.0566
  903MPD2    C113225   2.164   3.869  12.952 -0.2142 -0.3006 -0.5342
  903MPD2    C213226   2.117   3.836  12.824  0.1615  0.1413 -0.8775
  903MPD2    C313227   1.989   3.874  12.779  1.2033  0.6754  0.3151
  903MPD2    C413228   1.903   3.945  12.852 -0.4743 -0.0857 -0.0991
  903MPD2    C513229   1.950   3.973  12.982 -0.4562  0.8911 -0.8244
  903MPD2     H13230   2.187   3.783  12.760  2.1132 -0.6026  1.8650
  903MPD2    H113231   1.797   3.958  12.833 -0.0811  0.5916 -1.7757
  903MPD2    H213232   2.097   3.949  13.135  1.9512  0.7275 -0.7673
  903MPD2    H313233   1.894   4.029  13.057 -0.6404 -1.0199  0.4510
  903MPD2     N13234   1.950   3.828  12.653 -0.2480 -0.4589 -0.5750
  903MPD2    H513235   2.010   3.763  12.604  1.0953 -1.3494  2.3110
  903MPD2    N113236   2.293   3.823  13.002  0.2849 -0.0489 -0.4353
  903MPD2    H713237   2.309   3.853  13.097 -0.7469 -0.4195 -0.1429
  904MPD2     C13238   1.741   2.534  13.831 -0.3341  0.2985  0.3902
  904MPD2    C113239   1.695   2.520  13.962  0.3772  0.4832  0.6199
  904MPD2    C213240   1.781   2.492  14.066 -0.5717 -0.2207 -0.2644
  904MPD2    C313241   1.919   2.496  14.046  0.0995  0.2791  0.4462
  904MPD2    C413242   1.963   2.523  13.921  0.6348  0.2425 -0.0689
  904MPD2    C513243   1.877   2.522  13.817 -0.4397 -0.1453  0.2457
  904MPD2     H13244   1.738   2.486  14.165 -0.8807 -2.2361 -0.5329
  904MPD2    H113245   2.069   2.534  13.899  0.1566 -0.5580 -2.8064
  904MPD2    H213246   1.683   2.544  13.740  0.9560  1.2484 -0.3337
  904MPD2    H313247   1.916   2.535  13.717  1.1115  0.3552  0.9019
  904MPD2     N13248   2.006   2.472  14.160  0.4114 -0.1402  0.1693
  904MPD2    H513249   1.967   2.432  14.244 -0.6733  1.9160  0.6584
  904MPD2    N113250   1.558   2.539  13.987 -0.6835  0.1034  0.1187
  904MPD2    H713251   1.532   2.509  14.080  0.4753 -0.0950  0.3662
  905MPD2     C13252   1.744   2.491  13.295  0.1828 -0.3105 -0.1426
  905MPD2    C113253   1.704   2.452  13.420 -0.0370 -0.1016 -0.2821
  905MPD2    C213254   1.788   2.357  13.492 -0.6227  0.5505  0.2754
  905MPD2    C313255   1.918   2.346  13.458  0.1742  0.1361  0.2788
  905MPD2    C413256   1.961   2.422  13.348 -1.0700 -0.0807 -0.7672
  905MPD2    C513257   1.874   2.478  13.258  0.4903 -0.3448 -0.2902
  905MPD2     H13258   1.750   2.328  13.589 -0.7452 -0.4571 -0.0712
  905MPD2    H113259   2.067   2.424  13.328 -0.6741  1.4572  1.4785
  905MPD2    H213260   1.691   2.560  13.231  0.9814  1.9260  1.6062
  905MPD2    H313261   1.905   2.530  13.168  0.7831  0.6284  0.3804
  905MPD2     N13262   2.018   2.301  13.543 -0.8178  0.2494 -0.2764
  905MPD2    H513263   2.111   2.337  13.525  0.8903 -4.0410 -0.0137
  905MPD2    N113264   1.589   2.502  13.482  0.0871 -0.1116 -0.2455
  905MPD2    H713265   1.571   2.462  13.574 -1.9777 -0.4395 -0.8014
  906MPD2     C13266   3.782   2.405  11.448 -0.0565 -0.0683 -0.5641
  906MPD2    C113267   3.730   2.290  11.380 -0.1172  0.4372 -0.1650
  906MPD2    C213268   3.660   2.191  11.449  0.3201  0.1535 -0.5577
  906MPD2    C313269   3.630   2.208  11.584 -0.3291  0.2719  0.2385
  906MPD2    C413270   3.691   2.310  11.654 -0.6750 -0.4697 -0.5789
  906MPD2    C513271   3.752   2.411  11.582 -0.3370  0.6117  0.3955
  906MPD2     H13272   3.628   2.100  11.400  0.3334  0.7608 -1.6829
  906MPD2    H113273   3.682   2.320  11.762 -1.1041 -0.2104 -0.6405
  906MPD2    H213274   3.841   2.485  11.405 -0.2306  0.1068 -0.4741
  906MPD2    H313275   3.778   2.498  11.640 -2.1051  1.6523 -0.3580
  906MPD2     N13276   3.551   2.110  11.656  0.5798 -0.1060 -0.2953
  906MPD2    H513277   3.512   2.036  11.598 -1.7248 -0.3900  1.6250
  906MPD2    N113278   3.746   2.256  11.244 -0.2135 -0.1649 -0.6905
  906MPD2    H713279   3.722   2.159  11.224 -1.9220 -0.0427  0.7524
  907MPD2     C13280   3.386   1.211  15.910  0.2429  0.2196 -0.6861
  907MPD2    C113281   3.276   1.262  15.976 -0.0513 -0.2246  0.0699
  907MPD2    C213282   3.291   1.291  16.111 -0.4595 -0.4591  0.0649
  907MPD2    C313283   3.411   1.273  16.177 -0.1760 -0.2845 -0.0590
  907MPD2    C413284   3.517   1.220  16.103  0.1168 -0.0557 -0.5829
  907MPD2    C513285   3.508   1.187  15.970  0.2256  0.1275  0.4509
  907MPD2     H13286   3.199   1.316  16.162 -0.9562 -0.4083 -0.8536
  907MPD2    H113287   3.615   1.202  16.146 -0.1384 -0.6467 -0.2439
  907MPD2    H213288   3.387   1.170  15.810  0.1216  2.1839 -1.4923
  907MPD2    H313289   3.593   1.150  15.913 -1.3162 -2.4414 -0.1886
  907MPD2     N13290   3.420   1.295  16.320  0.5796 -0.2014  0.3740
  907MPD2    H513291   3.337   1.324  16.370 -0.2419 -2.5111  0.3701
  907MPD2    N113292   3.147   1.260  15.919  0.3588  0.3264  0.0040
  907MPD2    H713293   3.077   1.306  15.975  1.3486  1.9189 -0.0789
  908MPD2     C13294   1.104   1.549   9.621 -0.8950  0.1469  0.2059
  908MPD2    C113295   1.064   1.518   9.748 -0.0889  0.0570  0.1683
  908MPD2    C213296   1.049   1.620   9.843 -0.6928  0.3553 -0.4017
  908MPD2    C313297   1.089   1.745   9.818 -0.0570 -0.5990  0.7277
  908MPD2    C413298   1.139   1.774   9.690 -0.3803 -0.4555 -0.5642
  908MPD2    C513299   1.135   1.676   9.589 -0.3279  0.8886 -0.0654
  908MPD2     H13300   1.015   1.596   9.943  1.9422 -1.9086 -0.0583
  908MPD2    H113301   1.189   1.867   9.667  1.0852 -1.3167 -0.8825
  908MPD2    H213302   1.113   1.481   9.536  0.2814  1.2644 -0.5608
  908MPD2    H313303   1.174   1.688   9.489  1.6285  0.6561  0.6729
  908MPD2     N13304   1.070   1.840   9.921 -0.1896  0.8027 -0.3591
  908MPD2    H513305   1.020   1.807  10.002  1.2490  1.4329  0.7943
  908MPD2    N113306   1.032   1.383   9.782 -0.7071 -0.7451  0.0129
  908MPD2    H713307   1.021   1.357   9.880  3.4900 -2.1116  0.1543
  909MPD2     C13308   0.643   4.675  11.628 -0.5906 -0.0019  0.0061
  909MPD2    C113309   0.670   0.084  11.592  0.3548  0.3220  0.8517
  909MPD2    C213310   0.631   0.189  11.674  0.2007  0.3003  0.8071
  909MPD2    C313311   0.585   0.171  11.805 -0.5156 -0.1835  0.0535
  909MPD2    C413312   0.548   0.042  11.834  0.0188  0.1359 -0.7542
  909MPD2    C513313   0.575   4.658  11.746  0.0644 -0.4063  0.8249
  909MPD2     H13314   0.649   0.290  11.640  0.4439  0.8839  2.6246
  909MPD2    H113315   0.504   0.029  11.932  1.4209 -1.2444 -0.3060
  909MPD2    H213316   0.668   4.586  11.570 -0.8616  1.1259 -1.8595
  909MPD2    H313317   0.545   4.558  11.773 -1.2787 -0.1664  0.2468
  909MPD2     N13318   0.564   0.284  11.887 -0.4241  0.1899  0.2597
  909MPD2    H513319   0.570   0.377  11.847 -3.1318  0.3568  0.2141
  909MPD2    N113320   0.726   0.109  11.465 -0.1774 -0.3623 -0.5700
  909MPD2    H713321   0.742   0.207  11.443 -0.9755  0.4392  2.4684
  910MPD2     C13322   2.065   2.199  15.644  0.1533 -0.3476 -0.2071
  910MPD2    C113323   2.185   2.226  15.587  0.6450  0.0943 -0.1676
  910MPD2    C213324   2.196   2.298  15.474  0.1086  0.7914  0.2242
  910MPD2    C313325   2.079   2.343  15.413  0.6903  0.3230  0.1011
  910MPD2    C413326   1.962   2.314  15.465  0.6377  0.4271 -0.0775
  910MPD2    C513327   1.945   2.241  15.579 -0.4910 -0.4195  0.0236
  910MPD2     H13328   2.296   2.326  15.444 -0.0512 -1.7734 -2.7760
  910MPD2    H113329   1.874   2.349  15.413  0.2605  1.0094  0.9489
  910MPD2    H213330   2.051   2.142  15.735 -1.1478  1.1986  0.5711
  910MPD2    H313331   1.847   2.217  15.619 -1.3209  2.9848  0.0036
  910MPD2     N13332   2.086   2.416  15.297  0.2642  0.0573 -0.1352
  910MPD2    H513333   1.996   2.438  15.255  0.4416 -1.6441 -1.4400
  910MPD2    N113334   2.299   2.175  15.650 -0.6413 -0.5745 -0.0580
  910MPD2    H713335   2.389   2.175  15.603 -0.6469  0.4583 -0.0674
  911MPD2     C13336   0.356   2.883  16.597 -0.2281 -0.8540  0.3909
  911MPD2    C113337   0.396   2.775  16.524 -0.3473 -0.1870 -0.6193
  911MPD2    C213338   0.311   2.714  16.432 -1.0484  0.3305  0.2374
  911MPD2    C313339   0.179   2.754  16.431 -0.0725  0.3113  0.3304
  911MPD2    C413340   0.135   2.859  16.513 -0.2608  0.2558 -0.3199
  911MPD2    C513341   0.222   2.915  16.595 -1.1743 -0.0651  0.1940
  911MPD2     H13342   0.340   2.626  16.377 -1.9838  0.9197 -1.2025
  911MPD2    H113343   0.035   2.900  16.511  0.0831  1.1213  0.3726
  911MPD2    H213344   0.417   2.913  16.681 -1.4170  0.7508  0.6980
  911MPD2    H313345   0.194   3.004  16.652 -1.3247  0.4167 -0.6363
  911MPD2     N13346   0.086   2.679  16.358  0.2414  0.3699  0.5050
  911MPD2    H513347   4.710   2.691  16.379  0.4546  2.0452  0.5067
  911MPD2    N113348   0.523   2.725  16.559 -0.1495 -0.1673 -0.2944
  911MPD2    H713349   0.577   2.777  16.627 -1.1336  1.2764 -0.6171
  912MPD2     C13350   0.060   2.482  16.774 -0.2924  0.0803  0.3007
  912MPD2    C113351   0.021   2.371  16.707  1.0506  0.0567  0.2051
  912MPD2    C213352   4.690   2.273  16.782 -0.4474  0.3964  0.0391
  912MPD2    C313353   4.662   2.290  16.917 -0.1795 -0.3055  1.2742
  912MPD2    C413354   4.684   2.409  16.979 -0.1160 -0.1778 -0.3693
  912MPD2    C513355   0.024   2.504  16.898  0.3169  0.2937 -0.1013
  912MPD2     H13356   4.663   2.174  16.748  0.8965 -0.4791  1.5574
  912MPD2    H113357   4.679   2.436  17.084  1.7749 -0.1143 -0.2958
  912MPD2    H213358   0.114   2.560  16.722 -0.4470 -0.4008 -0.5869
  912MPD2    H313359   0.051   2.596  16.950  0.6306  0.5110 -0.6559
  912MPD2     N13360   4.613   2.180  16.988 -0.2108  0.4226  0.4686
  912MPD2    H513361   4.579   2.102  16.934  0.7748 -0.2048  0.7545
  912MPD2    N113362   0.030   2.372  16.573 -0.5145 -0.2724 -0.2364
  912MPD2    H713363   0.078   2.451  16.531 -3.1275  1.7661  0.6358
  913MPD2     C13364   0.460   4.096  10.691  0.8179  0.4043 -0.5177
  913MPD2    C113365   0.522   4.113  10.569 -0.1478 -0.5822  0.0342
  913MPD2    C213366   0.502   4.228  10.490  0.4419  0.4386 -0.4984
  913MPD2    C313367   0.410   4.319  10.534 -0.2338 -0.4696  0.7576
  913MPD2    C413368   0.348   4.307  10.655 -0.4520  0.6592 -0.0699
  913MPD2    C513369   0.370   4.195  10.732  0.3136  0.2071 -0.0782
  913MPD2     H13370   0.561   4.234  10.400  3.0208 -0.9384  1.1233
  913MPD2    H113371   0.279   4.377  10.700 -2.3375 -2.5806  2.0771
  913MPD2    H213372   0.460   4.012  10.760  2.2597 -1.2048 -2.4867
  913MPD2    H313373   0.332   4.183  10.832  0.7364  1.7631  0.2779
  913MPD2     N13374   0.380   4.436  10.461 -0.7052 -0.4333  0.5064
  913MPD2    H513375   0.305   4.491  10.502  0.1549  1.6351 -0.6771
  913MPD2    N113376   0.609   4.019  10.517  0.1903  1.0318  0.0278
  913MPD2    H713377   0.655   4.045  10.430 -3.8470 -0.2383 -2.4861
  914MPD2     C13378   3.355   3.665  11.930 -0.1881  0.0937  0.0970
  914MPD2    C113379   3.233   3.728  11.918  0.2464 -0.3327  0.1890
  914MPD2    C213380   3.153   3.758  12.028  0.3813  0.7171 -0.3435
  914MPD2    C313381   3.200   3.728  12.154  0.0043 -0.9344 -0.0978
  914MPD2    C413382   3.323   3.660  12.169  0.2360  0.1669 -0.2805
  914MPD2    C513383   3.395   3.638  12.060  0.1349  0.2898 -0.0582
  914MPD2     H13384   3.067   3.822  12.012 -0.4620 -0.2362  0.3789
  914MPD2    H113385   3.346   3.629  12.270  0.7666 -0.8124 -0.7098
  914MPD2    H213386   3.433   3.654  11.855  0.6104  0.7686  0.8202
  914MPD2    H313387   3.488   3.592  12.092 -1.5690 -2.0319  1.5636
  914MPD2     N13388   3.111   3.757  12.263 -0.5582 -0.3975  0.0243
  914MPD2    H513389   3.023   3.802  12.237 -0.3081  0.4056  0.5409
  914MPD2    N113390   3.202   3.764  11.782  0.1030  0.2454  0.1797
  914MPD2    H713391   3.270   3.732  11.713 -0.3059 -1.8129  0.7128
  915MPD2     C13392   1.156   3.845  15.702  0.0274 -0.4093  0.6041
  915MPD2    C113393   1.070   3.942  15.660 -0.3677  0.1903  0.6210
  915MPD2    C213394   0.976   3.983  15.753 -0.1375  0.5670  0.2989
  915MPD2    C313395   0.974   3.953  15.889 -0.8964 -0.1649 -0.5641
  915MPD2    C413396   1.078   3.869  15.934  0.1372  0.0398 -0.2678
  915MPD2    C513397   1.160   3.814  15.836  0.6879  0.2106 -0.2665
  915MPD2     H13398   0.903   4.052  15.713 -0.6276 -0.6871 -0.9720
  915MPD2    H113399   1.087   3.830  16.034 -0.6005  2.1781  0.6415
  915MPD2    H213400   1.225   3.798  15.633 -2.6031 -2.2227 -0.7614
  915MPD2    H313401   1.219   3.730  15.869  1.5420 -0.0641 -2.4699
  915MPD2     N13402   0.879   4.014  15.972  0.4072  0.0841 -0.0165
  915MPD2    H513403   0.804   4.062  15.923  1.4237  0.6517 -1.0265
  915MPD2    N113404   1.067   3.983  15.516  0.2179 -0.0255 -0.4557
  915MPD2    H713405   1.137   3.943  15.453  0.5203 -0.5444  0.2133
  916MPD2     C13406   4.351   2.743  16.191 -0.2545  0.5079 -1.1270
  916MPD2    C113407   4.303   2.634  16.264  0.0410  0.7276  0.1657
  916MPD2    C213408   4.335   2.503  16.228  0.2803 -0.4480  0.4032
  916MPD2    C313409   4.423   2.486  16.123 -0.0510 -0.1148  0.3082
  916MPD2    C413410   4.482   2.596  16.057 -0.4279 -0.1208 -0.3465
  916MPD2    C513411   4.454   2.725  16.098 -0.2766  0.3020  0.1042
  916MPD2     H13412   4.290   2.413  16.269  2.1396 -1.4265  0.2801
  916MPD2    H113413   4.547   2.574  15.974 -0.6804  1.1763 -0.8854
  916MPD2    H213414   4.323   2.846  16.215 -3.2766 -0.0427 -2.3205
  916MPD2    H313415   4.488   2.813  16.044  3.6134 -1.6680 -0.6535
  916MPD2     N13416   4.452   2.353  16.084  0.1458  0.0684  0.1563
  916MPD2    H513417   4.399   2.284  16.135  0.2745  0.0695  0.2914
  916MPD2    N113418   4.215   2.661  16.367 -0.2421 -0.0112 -0.0756
  916MPD2    H713419   4.193   2.759  16.380  0.0613  0.0609 -0.1076
  917MPD2     C13420   4.386   4.422  11.541 -0.2101 -0.2051 -0.2974
  917MPD2    C113421   4.371   4.519  11.635  0.5880 -0.1501 -0.3022
  917MPD2    C213422   4.378   4.652  11.600  0.1317 -0.2120  0.1471
  917MPD2    C313423   4.401   4.698  11.471 -0.4997  0.1185 -0.4404
  917MPD2    C413424   4.418   4.599  11.378 -0.1670  0.6710  0.3896
  917MPD2    C513425   4.416   4.464  11.416  0.0382 -0.4383 -0.2724
  917MPD2     H13426   4.362   0.006  11.675 -1.0373  0.6316 -0.9660
  917MPD2    H113427   4.437   4.614  11.272  0.5965  0.8994  0.5592
  917MPD2    H213428   4.389   4.314  11.551  0.4332 -0.0174  1.5060
  917MPD2    H313429   4.443   4.393  11.338  0.6661  1.0047 -1.3652
  917MPD2     N13430   4.418   0.109  11.440 -0.5899 -0.0370 -0.0436
  917MPD2    H513431   4.409   0.129  11.341  0.3339  1.3663  0.1482
  917MPD2    N113432   4.336   4.478  11.764  0.1663 -0.5087 -0.0373
  917MPD2    H713433   4.349   4.379  11.781 -0.4394 -0.8577 -1.5569
  918MPD2     C13434   4.304   0.135  12.743  0.7687  0.1556  0.1698
  918MPD2    C113435   4.361   0.181  12.622  0.0058 -0.0630  0.0117
  918MPD2    C213436   4.343   0.110  12.510  0.5745 -0.4101  0.2759
  918MPD2    C313437   4.278   4.714  12.511  0.3849  0.6080  0.0454
  918MPD2    C413438   4.227   4.662  12.631  0.0618  0.2227  0.2030
  918MPD2    C513439   4.234   0.012  12.738  0.1905  0.3398 -0.1776
  918MPD2     H13440   4.391   0.139  12.418 -2.2039  1.4573 -0.5872
  918MPD2    H113441   4.183   4.564  12.641  2.8331 -1.0597 -0.1708
  918MPD2    H213442   4.315   0.184  12.839 -1.6687 -0.4049  0.7350
  918MPD2    H313443   4.189   4.700  12.830  0.6324 -0.3481 -0.2144
  918MPD2     N13444   4.259   4.654  12.385  0.2612  0.5683  0.0696
  918MPD2    H513445   4.291   4.706  12.304  0.3412  0.5973  0.1198
  918MPD2    N113446   4.446   0.290  12.610  0.6188 -0.7237 -0.1234
  918MPD2    H713447   4.492   0.295  12.520 -0.3678  0.7440 -0.5431
  919MPD2     C13448   0.257   3.588  11.425 -0.1942  0.8288  0.2763
  919MPD2    C113449   0.344   3.486  11.420 -0.1109  0.2657 -0.1066
  919MPD2    C213450   0.432   3.468  11.310  0.5653 -0.1501 -0.2591
  919MPD2    C313451   0.433   3.550  11.205  0.4550  0.6014 -0.1819
  919MPD2    C413452   0.354   3.665  11.213  0.0942 -0.4762  0.6542
  919MPD2    C513453   0.269   3.681  11.321  0.0223 -0.6377 -0.5687
  919MPD2     H13454   0.506   3.388  11.310 -0.0479 -0.7189 -1.8712
  919MPD2    H113455   0.373   3.733  11.131 -0.1414 -0.6438  0.4607
  919MPD2    H213456   0.193   3.614  11.509 -0.1721  0.9434  0.2576
  919MPD2    H313457   0.199   3.763  11.307 -0.4904 -0.8841  0.5096
  919MPD2     N13458   0.519   3.543  11.093  0.5491 -0.6409  0.4155
  919MPD2    H513459   0.519   3.617  11.024 -0.2322  0.5467  1.6942
  919MPD2    N113460   0.345   3.380  11.513 -0.2858  0.1583  0.2781
  919MPD2    H713461   0.415   3.308  11.497 -1.0333  0.0080 -2.3538
  920MPD2     C13462   0.111   3.768  10.412 -0.4801 -0.3609  1.0987
  920MPD2    C113463   0.058   3.665  10.487  0.5317 -0.1373 -0.0823
  920MPD2    C213464   0.149   3.594  10.565 -0.5015 -0.6421  0.0754
  920MPD2    C313465   0.290   3.613  10.550  0.7749  0.3550 -0.3487
  920MPD2    C413466   0.339   3.712  10.471  0.8748 -0.1963  0.2870
  920MPD2    C513467   0.251   3.792  10.403 -0.4627 -0.3632  0.2277
  920MPD2     H13468   0.122   3.515  10.635 -2.2928  0.7820  1.0007
  920MPD2    H113469   0.441   3.747  10.483 -0.0201  3.1330 -1.6904
  920MPD2    H213470   0.058   3.832  10.342  0.1483 -1.1185 -0.0737
  920MPD2    H313471   0.291   3.875  10.345  1.1342  0.2530  2.2233
  920MPD2     N13472   0.380   3.539  10.625  0.1500 -0.2619 -0.8451
  920MPD2    H513473   0.349   3.482  10.703 -0.9106  1.4832  0.0108
  920MPD2    N113474   4.648   3.630  10.496 -1.1521 -0.5048  0.0692
  920MPD2    H713475   4.631   3.547  10.553 -0.1122 -2.3007 -2.2458
  921MPD2     C13476   1.000   2.984  17.229  0.3858  0.3323 -0.5476
  921MPD2    C113477   1.072   2.872  17.195 -0.1294  0.3418  0.1350
  921MPD2    C213478   1.026   2.781  17.100  0.6572  0.1503 -0.2741
  921MPD2    C313479   0.917   2.829  17.026  0.6594  0.5563 -0.0950
  921MPD2    C413480   0.845   2.933  17.065  0.2143 -0.5725  0.7736
  921MPD2    C513481   0.872   3.006  17.172 -0.2297 -0.3574 -0.1624
  921MPD2     H13482   1.083   2.690  17.087 -1.0009 -0.7835 -0.9369
  921MPD2    H113483   0.756   2.962  17.011 -0.5595 -1.9913  1.2662
  921MPD2    H213484   1.043   3.063  17.290 -1.4157 -0.0826  1.2660
  921MPD2    H313485   0.806   3.090  17.194 -0.7593 -1.4250  2.3465
  921MPD2     N13486   0.873   2.765  16.905  0.1014 -0.7126  0.7359
  921MPD2    H513487   0.796   2.813  16.860 -0.1662 -0.4485  1.4690
  921MPD2    N113488   1.207   2.862  17.242  0.2531 -0.0394 -0.0224
  921MPD2    H713489   1.246   2.943  17.289  0.3919 -0.0167 -0.1739
  922MPD2     C13490   1.401   4.643  16.782 -0.4493 -0.5509 -0.3906
  922MPD2    C113491   1.393   0.032  16.862 -0.1196  0.3482  0.3515
  922MPD2    C213492   1.341   0.016  16.990  0.1249 -0.1613  0.0981
  922MPD2    C313493   1.310   4.610  17.039  0.4786  0.4279  0.7376
  922MPD2    C413494   1.331   4.496  16.966  0.7567  0.3960  0.2009
  922MPD2    C513495   1.368   4.521  16.837  0.0847 -0.3756  0.3110
  922MPD2     H13496   1.334   0.102  17.056 -0.4027 -0.6703  0.6978
  922MPD2    H113497   1.305   4.396  17.000 -0.5735  0.9067  0.7219
  922MPD2    H213498   1.430   4.648  16.678 -2.1077 -0.2596 -0.8392
  922MPD2    H313499   1.372   4.440  16.766  0.4590  0.3587 -0.4998
  922MPD2     N13500   1.254   4.584  17.170  0.6667  0.8584  0.2279
  922MPD2    H513501   1.261   4.489  17.207 -0.5035  0.2347 -1.1813
  922MPD2    N113502   1.453   0.155  16.827  0.3172 -0.2674  0.1955
  922MPD2    H713503   1.433   0.229  16.894  0.3467  0.5112 -0.6536
  923MPD2     C13504   2.863   1.708   9.448 -0.4027  0.1979  0.5647
  923MPD2    C113505   2.846   1.803   9.546  0.0151 -0.1386  1.2556
  923MPD2    C213506   2.961   1.839   9.619 -0.3296  0.4112  0.1114
  923MPD2    C313507   3.087   1.778   9.591  0.4708 -0.0063  0.8389
  923MPD2    C413508   3.096   1.683   9.489 -0.2162 -0.2433  0.9803
  923MPD2    C513509   2.987   1.653   9.420 -0.1299  0.0389  0.5479
  923MPD2     H13510   2.945   1.907   9.703  0.2918 -0.7080  1.1412
  923MPD2    H113511   3.188   1.639   9.455 -0.4194  0.9676 -1.1315
  923MPD2    H213512   2.779   1.659   9.401  0.0926 -0.6368  0.5361
  923MPD2    H313513   2.999   1.575   9.346  1.2897  0.3436  0.4540
  923MPD2     N13514   3.198   1.806   9.672 -0.4076 -0.0515 -0.0839
  923MPD2    H513515   3.278   1.747   9.650 -1.0467 -0.6633 -0.7640
  923MPD2    N113516   2.709   1.849   9.570  0.6136  0.8416 -0.0313
  923MPD2    H713517   2.633   1.812   9.514 -0.1537  1.7373  0.4102
  924MPD2     C13518   3.098   0.845  16.075 -0.8862 -0.1739 -0.3971
  924MPD2    C113519   3.046   0.822  16.201  0.4882 -0.3460 -0.9179
  924MPD2    C213520   3.131   0.840  16.313  0.5496 -0.2716 -0.0789
  924MPD2    C313521   3.265   0.878  16.287 -0.3687  0.2943 -0.3648
  924MPD2    C413522   3.311   0.913  16.161  0.7947 -0.4451 -0.5080
  924MPD2    C513523   3.221   0.892  16.057 -0.5575  0.0627  0.3356
  924MPD2     H13524   3.090   0.826  16.413  0.3598 -1.7608 -0.3666
  924MPD2    H113525   3.412   0.948  16.144  0.3975  0.3708 -1.1621
  924MPD2    H213526   3.027   0.843  15.993 -0.8409 -1.1827 -0.4053
  924MPD2    H313527   3.251   0.937  15.963  0.4016 -0.9445  0.1610
  924MPD2     N13528   3.353   0.919  16.400 -0.1078 -0.7661 -0.5785
  924MPD2    H513529   3.440   0.969  16.385 -0.3049  0.2310  1.5745
  924MPD2    N113530   2.912   0.803  16.216 -0.0236 -0.1112  0.4616
  924MPD2    H713531   2.862   0.807  16.127  2.1239 -0.9140 -0.7638
  925MPD2     C13532   2.083   3.566  14.953  0.2814  0.5221 -0.1204
  925MPD2    C113533   1.947   3.561  14.915 -0.5144 -0.4047  0.2441
  925MPD2    C213534   1.861   3.515  15.011 -0.6513  0.9320  0.6789
  925MPD2    C313535   1.900   3.479  15.139  0.7640 -0.6133  0.1583
  925MPD2    C413536   2.033   3.477  15.168 -0.6939  0.0150 -0.0515
  925MPD2    C513537   2.127   3.523  15.077 -0.4058  0.2113 -0.1570
  925MPD2     H13538   1.755   3.527  14.993 -0.1364 -0.0384 -3.0298
  925MPD2    H113539   2.070   3.437  15.262  0.2650  1.2109  0.0720
  925MPD2    H213540   2.162   3.589  14.882 -1.3761  2.4597 -1.3247
  925MPD2    H313541   2.234   3.516  15.091 -0.2677  1.0596 -0.8004
  925MPD2     N13542   1.807   3.452  15.247 -0.3146  0.3213  1.0872
  925MPD2    H513543   1.843   3.409  15.331  0.0640 -0.9439  0.2864
  925MPD2    N113544   1.895   3.578  14.790 -0.1169  0.1770  0.3548
  925MPD2    H713545   1.801   3.543  14.776  0.5634 -0.7545 -1.9927
  926MPD2     C13546   1.387   1.505  13.624 -0.0494  0.3622  0.9213
  926MPD2    C113547   1.328   1.619  13.577  0.5236  1.0012  0.0824
  926MPD2    C213548   1.386   1.692  13.476  0.6540 -0.0200 -1.4451
  926MPD2    C313549   1.515   1.655  13.432 -0.4007  0.9937 -0.6520
  926MPD2    C413550   1.573   1.532  13.472  0.1466 -0.3298  0.3634
  926MPD2    C513551   1.509   1.459  13.568  0.0654  0.0719  0.0129
  926MPD2     H13552   1.336   1.777  13.431 -1.2001  0.9723  2.4622
  926MPD2    H113553   1.672   1.498  13.443  0.2759  0.4034 -0.0625
  926MPD2    H213554   1.350   1.437  13.700  0.1205 -0.6180  0.1434
  926MPD2    H313555   1.546   1.364  13.604  0.2258  0.1328  0.0082
  926MPD2     N13556   1.599   1.731  13.343  0.2040  0.1264 -0.0796
  926MPD2    H513557   1.670   1.680  13.292 -0.2059  0.8285 -1.3539
  926MPD2    N113558   1.202   1.656  13.619  0.5137 -0.1575 -0.0193
  926MPD2    H713559   1.170   1.740  13.571 -1.0733 -0.6220  0.2234
  927MPD2     C13560   0.194   4.388   0.640 -0.4794  0.2833  0.0054
  927MPD2    C113561   0.216   4.249   0.654  0.1970 -0.1508 -0.4276
  927MPD2    C213562   0.294   4.183   0.566  0.1424  0.5095  0.3482
  927MPD2    C313563   0.344   4.253   0.456  0.1966  0.8909  0.4430
  927MPD2    C413564   0.320   4.390   0.447  0.0202 -1.0995 -0.0476
  927MPD2    C513565   0.253   4.463   0.544  1.1460 -0.1291 -1.2875
  927MPD2     H13566   0.304   4.075   0.564 -2.6953  0.2223  0.7637
  927MPD2    H113567   0.344   4.437   0.352  1.5590 -0.4915  0.6388
  927MPD2    H213568   0.125   4.432   0.711 -0.2109  0.4036  0.1903
  927MPD2    H313569   0.225   4.566   0.527  0.2857  0.0328  1.1276
  927MPD2     N13570   0.415   4.181   0.361  0.6618  0.0280  1.1082
  927MPD2    H513571   0.420   4.081   0.381 -1.8123  0.2297  2.6868
  927MPD2    N113572   0.167   4.178   0.769 -0.1034 -0.3369  0.4083
  927MPD2    H713573   0.119   4.238   0.836  2.0781  0.5065  1.2466
  928MPD2     C13574   4.256   2.219   1.365 -0.4167  0.5261 -0.3532
  928MPD2    C113575   4.341   2.331   1.370 -0.7731 -0.4465 -0.2415
  928MPD2    C213576   4.317   2.435   1.276 -0.1980  0.4267 -0.7327
  928MPD2    C313577   4.223   2.423   1.177  0.0376  0.2102  0.3601
  928MPD2    C413578   4.135   2.316   1.178  0.2169  0.0438 -0.5221
  928MPD2    C513579   4.147   2.213   1.278 -0.2321  0.4724 -0.0691
  928MPD2     H13580   4.382   2.522   1.280 -0.9303  0.9251  0.5251
  928MPD2    H113581   4.057   2.304   1.104 -3.2924 -0.2961  3.2677
  928MPD2    H213582   4.258   2.134   1.432  0.2767  0.0860 -0.9407
  928MPD2    H313583   4.072   2.136   1.287  0.4083 -0.4249 -2.3221
  928MPD2     N13584   4.206   2.518   1.075  0.0864 -0.0915 -0.4917
  928MPD2    H513585   4.131   2.491   1.012 -1.2590  0.6500  0.7921
  928MPD2    N113586   4.449   2.319   1.458  0.3789  0.4883 -0.4237
  928MPD2    H713587   4.444   2.241   1.523 -1.4813 -0.6723 -1.9481
  929MPD2     C13588   2.800   2.550  10.141  0.2732  0.0585 -0.0497
  929MPD2    C113589   2.735   2.507  10.257  0.0445 -0.5506  0.2126
  929MPD2    C213590   2.628   2.590  10.292 -0.3998  0.0740  0.1714
  929MPD2    C313591   2.592   2.704  10.224  0.4923  0.6951 -0.2274
  929MPD2    C413592   2.666   2.746  10.112  0.1597  0.5146  0.8689
  929MPD2    C513593   2.771   2.668  10.074 -0.6685 -0.3284 -0.1830
  929MPD2     H13594   2.587   2.569  10.390 -2.1287 -0.9955 -0.7919
  929MPD2    H113595   2.629   2.823  10.046  2.7658 -0.8551 -2.1545
  929MPD2    H213596   2.873   2.483  10.096  1.9716  1.7304  0.2244
  929MPD2    H313597   2.821   2.685   9.980  2.1959 -0.3624  1.3292
  929MPD2     N13598   2.493   2.797  10.258 -0.4839  0.3923 -0.0013
  929MPD2    H513599   2.484   2.883  10.204 -0.5396 -0.1539 -0.8581
  929MPD2    N113600   2.775   2.397  10.336  0.3543  0.2864  0.6672
  929MPD2    H713601   2.849   2.337  10.301 -1.4192 -1.0723 -0.7538
  930MPD2     C13602   4.646   0.281  14.395  0.5711 -0.0229 -0.4279
  930MPD2    C113603   0.050   0.243  14.358  0.5265  0.5035  0.6456
  930MPD2    C213604   0.074   0.153  14.257  0.0082  1.2443 -0.0998
  930MPD2    C313605   4.687   0.090  14.191 -0.4204 -0.1144 -0.2254
  930MPD2    C413606   4.560   0.129  14.226 -0.5424 -0.1984  0.1396
  930MPD2    C513607   4.542   0.229  14.324  0.1992  0.8050 -0.4121
  930MPD2     H13608   0.172   0.136  14.215  0.2825 -0.4447  1.2330
  930MPD2    H113609   4.475   0.076  14.186  0.3418 -1.1085 -0.5106
  930MPD2    H213610   4.633   0.348  14.479 -1.0478 -1.3271  0.3756
  930MPD2    H313611   4.440   0.257  14.347  0.4225  1.1565  0.1404
  930MPD2     N13612   4.696   0.008  14.075  0.5257  0.4623 -0.5046
  930MPD2    H513613   4.604   0.000  14.031  0.0747 -0.5225  0.6260
  930MPD2    N113614   0.161   0.303  14.419 -0.3216  0.3276  0.0297
  930MPD2    H713615   0.138   0.386  14.472 -0.4231  0.4635 -0.2263
  931MPD2     C13616   0.499   3.553   0.869  0.1299  0.1977 -0.2736
  931MPD2    C113617   0.439   3.586   0.989  0.9875 -0.2225  0.4088
  931MPD2    C213618   0.487   3.532   1.106 -0.6808 -0.6955 -0.4759
  931MPD2    C313619   0.618   3.480   1.106 -0.4155  0.1954 -0.0425
  931MPD2    C413620   0.677   3.451   0.985 -0.4505 -0.5816 -0.2089
  931MPD2    C513621   0.616   3.479   0.866  0.0591 -0.1963  0.0164
  931MPD2     H13622   0.442   3.546   1.204  2.5947  0.1473  0.9365
  931MPD2    H113623   0.770   3.397   0.995 -0.7622 -1.1719 -0.5015
  931MPD2    H213624   0.471   3.571   0.766  1.4747  0.2585 -0.6321
  931MPD2    H313625   0.655   3.439   0.774  3.4057  0.7772  1.0314
  931MPD2     N13626   0.701   3.470   1.221 -0.5181  0.0333 -0.1707
  931MPD2    H513627   0.801   3.459   1.211 -0.6657 -1.3580 -0.1187
  931MPD2    N113628   0.322   3.666   0.988 -0.1434  0.0149  0.2541
  931MPD2    H713629   0.291   3.701   0.898  0.4146 -1.8626 -0.6583
  932MPD2     C13630   2.330   4.282  11.987 -0.2595  0.5156 -0.2325
  932MPD2    C113631   2.412   4.218  11.891  0.2262 -0.0200 -0.0735
  932MPD2    C213632   2.420   4.082  11.895  0.5037 -0.3598  0.0826
  932MPD2    C313633   2.360   4.004  11.990  0.1326  0.1432  0.1789
  932MPD2    C413634   2.284   4.068  12.089 -0.1358 -0.2038 -0.3178
  932MPD2    C513635   2.270   4.204  12.083  0.1369 -0.1923 -0.3283
  932MPD2     H13636   2.469   4.037  11.809 -1.4887 -1.0234 -0.7106
  932MPD2    H113637   2.231   4.016  12.168 -0.7990  2.0317  0.7031
  932MPD2    H213638   2.317   4.389  11.991 -0.9498  0.3769  1.0777
  932MPD2    H313639   2.208   4.250  12.159  0.0552  0.9938 -1.1134
  932MPD2     N13640   2.370   3.864  11.996 -0.6003 -0.5787  0.0271
  932MPD2    H513641   2.351   3.827  12.089  1.2232  0.4604  0.7941
  932MPD2    N113642   2.472   4.303  11.790  0.2998  0.1622 -0.0066
  932MPD2    H713643   2.464   4.403  11.799 -2.7837 -0.1343  0.4205
  933MPD2     C13644   0.098   1.798   1.845  0.3864 -0.6099  0.0835
  933MPD2    C113645   0.000   1.898   1.843 -0.2693 -0.6528 -0.2707
  933MPD2    C213646   4.592   1.849   1.843  0.4093  0.1561  0.4931
  933MPD2    C313647   4.563   1.714   1.842 -0.2980  0.5615  0.3900
  933MPD2    C413648   4.665   1.623   1.843 -0.1350 -0.0182  0.4370
  933MPD2    C513649   0.071   1.664   1.844 -0.0959  0.2560 -0.4542
  933MPD2     H13650   4.510   1.918   1.859 -0.2615 -1.1272  2.6757
  933MPD2    H113651   4.654   1.518   1.819  2.2110 -0.1817  0.1217
  933MPD2    H213652   0.201   1.830   1.830  0.8907 -1.8738  0.8091
  933MPD2    H313653   0.155   1.595   1.850  0.0012  0.4674  0.5863
  933MPD2     N13654   4.428   1.676   1.845 -0.3329 -0.0644  0.0146
  933MPD2    H513655   4.364   1.754   1.830  1.0380  0.5583 -2.5241
  933MPD2    N113656   0.036   2.034   1.818  0.3395  0.7144  0.3673
  933MPD2    H713657   0.124   2.043   1.767  1.7208 -1.2369  2.3898
  934MPD2     C13658   3.402   0.634   2.033  0.4829  0.4586 -0.4060
  934MPD2    C113659   3.483   0.528   2.062 -0.3648 -0.2700  0.4832
  934MPD2    C213660   3.482   0.405   1.991  0.1538 -0.2813 -0.0521
  934MPD2    C313661   3.386   0.392   1.882  0.0638 -0.0316  0.1916
  934MPD2    C413662   3.309   0.502   1.855  0.1937  0.5066  0.0293
  934MPD2    C513663   3.324   0.618   1.925 -0.1884  0.2487 -1.0410
  934MPD2     H13664   3.543   0.322   2.026  0.6028 -0.2152 -0.6977
  934MPD2    H113665   3.238   0.514   1.773 -0.3479 -2.1749  0.1050
  934MPD2    H213666   3.405   0.734   2.076 -0.3439  0.7036 -0.9174
  934MPD2    H313667   3.263   0.702   1.894 -1.3419 -1.1225 -2.5255
  934MPD2     N13668   3.388   0.286   1.785 -0.0112 -0.0714  0.3884
  934MPD2    H513669   3.334   0.305   1.701  1.8172  2.4805 -0.1998
  934MPD2    N113670   3.572   0.530   2.171  0.1558 -0.0455  0.5731
  934MPD2    H713671   3.617   0.442   2.195 -0.3503 -1.1311 -2.4762
  935MPD2     C13672   3.967   4.241   1.541 -0.3596  0.2450  0.5534
  935MPD2    C113673   3.881   4.267   1.431 -0.2311 -0.0494 -0.5829
  935MPD2    C213674   3.768   4.342   1.450  0.4302 -0.4373 -0.2421
  935MPD2    C313675   3.743   4.403   1.569 -0.2322  0.8346 -0.2436
  935MPD2    C413676   3.832   4.394   1.669 -0.3727 -0.0552  1.0130
  935MPD2    C513677   3.941   4.312   1.663  0.6010  0.1410 -0.0792
  935MPD2     H13678   3.712   4.362   1.360  0.3385 -0.6868 -0.2425
  935MPD2    H113679   3.821   4.443   1.765 -0.5086  2.0840 -0.1125
  935MPD2    H213680   4.048   4.171   1.530 -0.9160 -0.4345  0.7651
  935MPD2    H313681   3.999   4.300   1.753  1.5582  0.3325 -0.6614
  935MPD2     N13682   3.638   4.490   1.591  0.2546 -0.0789 -0.1637
  935MPD2    H513683   3.629   4.528   1.685  0.4548 -1.1557  0.2826
  935MPD2    N113684   3.906   4.224   1.297  0.0055  0.5164 -0.2350
  935MPD2    H713685   3.837   4.249   1.227 -1.1833 -1.8837  0.1102
  936MPD2     C13686   2.286   1.203  12.503 -0.3667 -0.1267 -0.0422
  936MPD2    C113687   2.326   1.190  12.637  0.1380  0.8023 -0.3216
  936MPD2    C213688   2.396   1.296  12.687  0.5972  0.1416  0.3662
  936MPD2    C313689   2.424   1.406  12.616 -0.1044  0.0576 -0.5385
  936MPD2    C413690   2.390   1.409  12.484 -0.0927 -0.1481  0.4931
  936MPD2    C513691   2.319   1.311  12.423  0.1378  0.5593  0.3134
  936MPD2     H13692   2.423   1.289  12.792 -2.0564  0.6407  1.0923
  936MPD2    H113693   2.410   1.501  12.430  4.3964 -2.1317 -1.1605
  936MPD2    H213694   2.227   1.123  12.459 -0.5857  1.0775 -1.9246
  936MPD2    H313695   2.302   1.308  12.316 -0.2530  0.5879  0.3744
  936MPD2     N13696   2.476   1.522  12.681 -0.8964  1.2391  0.3572
  936MPD2    H513697   2.496   1.600  12.618  2.0174  1.0745  1.1206
  936MPD2    N113698   2.318   1.079  12.712  0.7409 -0.6118 -0.4884
  936MPD2    H713699   2.385   1.079  12.788  0.5079  0.0903 -0.2791
  937MPD2     C13700   0.502   2.722  11.407 -0.8681  0.4354  1.0022
  937MPD2    C113701   0.569   2.840  11.439  0.9421 -1.1377  0.2361
  937MPD2    C213702   0.666   2.897  11.357  0.2906  0.2783  0.1190
  937MPD2    C313703   0.704   2.824  11.243  0.0183  0.1718 -0.1410
  937MPD2    C413704   0.646   2.700  11.216 -0.0259 -0.0563 -0.1380
  937MPD2    C513705   0.549   2.650  11.306  0.4523  0.2050 -0.1368
  937MPD2     H13706   0.701   2.999  11.371 -1.5118  1.0534 -1.1547
  937MPD2    H113707   0.665   2.635  11.131  3.9580  0.7250  0.1439
  937MPD2    H213708   0.401   2.709  11.444 -0.4180 -4.4231  0.4099
  937MPD2    H313709   0.496   2.561  11.274 -0.5418 -0.1144  2.4302
  937MPD2     N13710   0.791   2.889  11.153 -0.3262 -0.0443  0.1164
  937MPD2    H513711   0.837   2.976  11.179 -1.9336  0.3155  1.7819
  937MPD2    N113712   0.497   2.940  11.518 -0.4684  0.8538  0.0443
  937MPD2    H713713   0.535   3.034  11.517  0.1327  0.6021 -0.4994
  938MPD2     C13714   3.550   4.072   1.165  0.0365 -0.5218  0.7374
  938MPD2    C113715   3.499   4.174   1.251 -0.4408 -1.0413  0.5957
  938MPD2    C213716   3.509   4.151   1.384  0.0111 -0.7266 -0.2912
  938MPD2    C313717   3.566   4.037   1.436 -0.1729 -0.8373 -0.0692
  938MPD2    C413718   3.621   3.944   1.350 -0.4314  0.6347  0.5398
  938MPD2    C513719   3.606   3.960   1.219  0.1244  0.2954  0.2228
  938MPD2     H13720   3.463   4.230   1.443  0.3336  0.3114 -1.4307
  938MPD2    H113721   3.667   3.855   1.392  0.1274  0.3861 -0.6034
  938MPD2    H213722   3.541   4.076   1.057  0.7636 -2.7625  0.5809
  938MPD2    H313723   3.640   3.885   1.149 -2.1725 -0.9639  0.4602
  938MPD2     N13724   3.581   4.018   1.579  1.0913  0.1108  0.4256
  938MPD2    H513725   3.649   3.949   1.609  1.4177 -0.3371 -1.3121
  938MPD2    N113726   3.461   4.296   1.194  0.4764  0.2283 -0.1683
  938MPD2    H713727   3.456   4.376   1.256 -0.5807 -0.1433  0.2215
  939MPD2     C13728   4.494   0.459   1.364  0.3031 -0.3750 -0.2321
  939MPD2    C113729   4.572   0.550   1.425 -0.8388 -0.1056 -0.2774
  939MPD2    C213730   4.705   0.560   1.371 -0.4320 -0.8382 -0.2793
  939MPD2    C313731   0.026   0.482   1.262  0.2900  0.3016 -0.2029
  939MPD2    C413732   4.661   0.400   1.203 -0.7565  0.4946 -0.5614
  939MPD2    C513733   4.535   0.398   1.252  0.7236  0.8584  0.0289
  939MPD2     H13734   0.057   0.627   1.413 -0.9715 -0.9266  0.8114
  939MPD2    H113735   4.685   0.335   1.119  0.9267 -0.1802  0.4279
  939MPD2    H213736   4.388   0.452   1.387  0.3353  0.6174  0.2007
  939MPD2    H313737   4.466   0.328   1.205  3.6474 -1.4023 -0.9130
  939MPD2     N13738   0.160   0.494   1.217 -0.2375 -0.2352  0.1845
  939MPD2    H513739   0.221   0.556   1.269 -0.2690 -2.0285  2.3688
  939MPD2    N113740   4.532   0.621   1.535  0.0866  0.9523 -0.2448
  939MPD2    H713741   4.439   0.596   1.568  1.1640 -0.3782  1.8156
  940MPD2     C13742   3.624   1.647  13.180  0.1239 -0.7959  0.0409
  940MPD2    C113743   3.665   1.524  13.217  0.0529 -0.1140  0.4591
  940MPD2    C213744   3.663   1.429  13.115 -0.2083 -0.5819 -0.1233
  940MPD2    C313745   3.640   1.454  12.983 -0.3977  0.6303 -0.0492
  940MPD2    C413746   3.599   1.582  12.949  0.9083 -0.1203 -0.3828
  940MPD2    C513747   3.591   1.678  13.054  0.3814  0.2707  0.3809
  940MPD2     H13748   3.692   1.329  13.146 -0.9073 -0.4354  0.9879
  940MPD2    H113749   3.570   1.596  12.846  0.8336 -2.0040 -0.6186
  940MPD2    H213750   3.609   1.726  13.252  1.9184 -0.4587  0.0654
  940MPD2    H313751   3.565   1.779  13.024  2.2277  0.5644 -0.2777
  940MPD2     N13752   3.657   1.363  12.873 -0.0683  0.3138 -0.1765
  940MPD2    H513753   3.632   1.395  12.780  2.6337  0.0126 -1.0072
  940MPD2    N113754   3.720   1.487  13.341 -0.2879 -0.0078 -0.4332
  940MPD2    H713755   3.754   1.392  13.347  1.0696  0.3137 -3.0897
  941MPD2     C13756   2.320   0.706   9.199  0.5910 -0.2022 -0.1123
  941MPD2    C113757   2.419   0.716   9.292 -0.4728 -0.2095  0.0166
  941MPD2    C213758   2.422   0.631   9.399  0.4901  0.7159 -0.2802
  941MPD2    C313759   2.314   0.546   9.416 -0.5260 -0.0099  0.3128
  941MPD2    C413760   2.200   0.556   9.335  0.3091  0.2723  0.1130
  941MPD2    C513761   2.209   0.637   9.226  1.1462 -0.3002  0.4542
  941MPD2     H13762   2.501   0.633   9.474 -1.2076  1.3062  1.4720
  941MPD2    H113763   2.119   0.487   9.354 -0.6593  1.4418  0.2285
  941MPD2    H213764   2.314   0.768   9.110  3.6241  1.2038  0.6469
  941MPD2    H313765   2.132   0.646   9.150  1.4805 -0.0463  0.1484
  941MPD2     N13766   2.317   0.449   9.511 -0.3520 -0.4645  0.0317
  941MPD2    H513767   2.236   0.389   9.519 -1.6098  1.1344 -0.7706
  941MPD2    N113768   2.530   0.802   9.272 -0.4543 -0.1775  0.1703
  941MPD2    H713769   2.583   0.823   9.356 -2.4214  1.3713  1.0154
  942MPD2     C13770   1.710   0.571   9.231  0.7502  0.1586 -0.5667
  942MPD2    C113771   1.714   0.506   9.350 -0.5421 -0.0818  0.2426
  942MPD2    C213772   1.788   0.558   9.451  0.5948  0.1127 -0.1525
  942MPD2    C313773   1.860   0.674   9.436 -0.6022 -0.3201  0.4622
  942MPD2    C413774   1.858   0.741   9.314  0.0431  0.2731  0.7891
  942MPD2    C513775   1.780   0.688   9.212  0.1138  0.7790  0.5037
  942MPD2     H13776   1.779   0.510   9.548  1.1637  0.6275  0.1547
  942MPD2    H113777   1.911   0.835   9.303 -1.4017  1.0922  0.9718
  942MPD2    H213778   1.647   0.538   9.149 -1.0916  0.7002  0.6042
  942MPD2    H313779   1.784   0.732   9.113 -3.0968  1.5431  0.7271
  942MPD2     N13780   1.954   0.723   9.527  0.3365  0.3242 -0.9801
  942MPD2    H513781   2.007   0.807   9.508 -0.1699  1.3895  2.4514
  942MPD2    N113782   1.647   0.385   9.381 -0.2476  0.1507 -0.1950
  942MPD2    H713783   1.648   0.352   9.477 -0.2606  0.8146  0.0345
  943MPD2     C13784   1.371   0.637   9.284 -0.6402 -0.3602  0.2015
  943MPD2    C113785   1.295   0.545   9.355  0.0875 -0.4146  0.7705
  943MPD2    C213786   1.232   0.448   9.287  0.4848  0.4210 -0.6818
  943MPD2    C313787   1.222   0.441   9.150  0.2394  0.0586 -0.4327
  943MPD2    C413788   1.297   0.528   9.080 -0.7329  0.9583  0.4139
  943MPD2    C513789   1.373   0.620   9.146 -0.0309 -0.3201  0.1502
  943MPD2     H13790   1.194   0.368   9.348  2.2505 -1.5117 -2.1111
  943MPD2    H113791   1.293   0.526   8.971  2.5041  1.6296  0.3116
  943MPD2    H213792   1.421   0.715   9.340 -3.0042  0.4245  1.2247
  943MPD2    H313793   1.418   0.703   9.092  1.2869 -2.3702 -1.9068
  943MPD2     N13794   1.139   0.352   9.079 -1.1540  0.6628  0.5494
  943MPD2    H513795   1.123   0.367   8.980  0.3458 -3.3445 -0.2808
  943MPD2    N113796   1.277   0.556   9.492  0.5800 -0.0599 -0.5090
  943MPD2    H713797   1.325   0.636   9.534  0.3580  0.2059 -0.7594
  944MPD2     C13798   0.452   4.289  11.219  0.0633  0.0418 -0.0114
  944MPD2    C113799   0.480   4.393  11.131 -0.1321  0.5172  0.5873
  944MPD2    C213800   0.473   4.523  11.187  0.2215 -0.1201  0.1743
  944MPD2    C313801   0.440   4.543  11.315  0.0408 -0.4149  0.2852
  944MPD2    C413802   0.416   4.439  11.398 -0.8682 -0.4615  0.2475
  944MPD2    C513803   0.418   4.308  11.348  0.1851  0.2356 -0.4208
  944MPD2     H13804   0.484   4.617  11.134  1.1293 -0.1954  0.2199
  944MPD2    H113805   0.405   4.458  11.504 -1.5606 -2.1287  0.4704
  944MPD2    H213806   0.447   4.187  11.182  1.0168  0.4153 -1.1686
  944MPD2    H313807   0.406   4.227  11.419  0.1763 -0.7325 -1.5347
  944MPD2     N13808   0.419   4.675  11.367  0.5054 -0.0390  0.4723
  944MPD2    H513809   0.461   0.036  11.326  0.7536  0.5545  1.9384
  944MPD2    N113810   0.543   4.367  11.003  0.1971 -0.1365 -0.1681
  944MPD2    H713811   0.564   4.270  10.984  1.5843  0.5933 -2.3940
    1TCq1    O113812   2.824   1.491  14.058 -0.2017 -0.6474 -0.0884
    1TCq1    C113813   2.760   1.377  14.092  0.3741 -0.1138  0.0639
    1TCq1    O213814   2.672   1.321  14.030 -0.3126 -0.1089  0.5873
    1TCq1    C213815   2.853   1.317  14.186  0.3981 -0.1787  0.4706
    1TCq1    C313816   2.901   1.195  14.162  0.4077  0.2486 -0.2671
    1TCq1    C413817   2.995   1.134  14.235 -0.5606 -0.2377  0.6441
    1TCq1    C513818   3.047   1.215  14.337 -1.1509  0.3980  0.4696
    1TCq1    C613819   3.001   1.341  14.358  0.1632 -0.3321 -0.3836
    1TCq1    C713820   2.904   1.400  14.279  0.0004 -0.0852  0.1097
    1TCq1    C813821   3.051   1.432  14.461 -0.3617 -0.4074 -0.4060
    1TCq1    O413822   2.985   1.529  14.496  0.6063  0.3043 -0.0412
    1TCq1    C913823   3.028   0.993  14.220  0.2814 -1.0684 -0.1630
    1TCq1    O513824   3.071   0.932  14.325 -0.9735  0.2936  0.4037
    1TCq1    O613825   2.971   0.937  14.126  0.3283 -0.0550 -0.5686
    1TCq1    H113826   2.909   1.516  14.100 -0.3603  1.6074 -1.1135
    1TCq1    H213827   2.853   1.139  14.083  0.5579 -1.1568  0.6345
    1TCq1    H313828   3.104   1.171  14.418  2.0446 -0.1391 -2.0442
    1TCq1    H413829   2.865   1.501  14.280 -0.1162 -0.1126 -1.4652
    2MPD2     C13830   3.427   1.618  14.757  0.9025  0.2619 -0.4977
    2MPD2    C113831   3.475   1.505  14.691  0.1844  0.5138  0.3788
    2MPD2    C213832   3.387   1.433  14.614  0.6537 -0.1198 -0.0629
    2MPD2    C313833   3.260   1.477  14.583  0.1715  0.0198 -0.3922
    2MPD2    C413834   3.217   1.584  14.656  0.3417  0.5084 -0.2438
    2MPD2    C513835   3.290   1.648  14.749 -0.0709  0.5620 -0.1262
    2MPD2     H13836   3.421   1.347  14.558 -1.4172 -1.8076  1.2723
    2MPD2    H113837   3.113   1.613  14.648  0.7440  1.9058 -0.4302
    2MPD2    H213838   3.491   1.672  14.826  0.3998 -1.1346  1.0692
    2MPD2    H313839   3.242   1.724  14.810 -4.6155 -0.6553 -2.1427
    2MPD2     N13840   3.179   1.405  14.500  0.5209  0.1067 -0.3885
    2MPD2    H513841   3.226   1.343  14.434 -0.6632 -1.4243  0.1980
    2MPD2    N113842   3.616   1.474  14.695  0.3264  0.3286 -0.1555
    2MPD2    H713843   3.682   1.544  14.725 -0.0657  1.0298 -0.9375
    3TMC2    C113844   3.818   1.395  14.619  0.1484 -0.0157  0.3995
    3TMC2    C213845   3.884   1.458  14.721 -1.1683 -0.3583  0.1208
    3TMC2    C313846   4.006   1.499  14.678 -0.3258  0.6826  0.5542
    3TMC2    C413847   3.867   1.365  14.494  0.1613  0.1191 -0.3398
    3TMC2    C513848   3.990   1.407  14.457 -0.0878 -0.1818 -0.2892
    3TMC2    C613849   4.062   1.470  14.551  0.2264 -0.4786  0.2648
    3TMC2     C13850   3.672   1.373  14.627  0.5161  0.2043  0.4607
    3TMC2     O13851   3.623   1.276  14.572  0.3606  0.2594 -0.7325
    3TMC2     H13852   3.844   1.486  14.818 -0.6654 -1.3897  0.6238
    3TMC2    H113853   3.805   1.311  14.424  0.3210 -1.5365  0.7791
    3TMC2    H213854   4.164   1.494  14.525 -0.6411  1.5823 -1.2513
    3TMC2    C713855   4.020   1.410  14.315 -0.2131  0.2810  0.6528
    3TMC2    C813856   4.090   1.566  14.782 -0.9163  0.1283 -1.3942
    3TMC2    O113857   3.984   1.312  14.253 -0.2290 -0.5449  0.2598
    3TMC2    O213858   4.065   1.564  14.902 -0.5104 -0.3331 -0.8040
    3TMC2    O513859   4.168   1.650  14.719 -0.3916  0.5684  0.0923
    3TMC2    H513860   4.150   1.659  14.623 -1.1389 -1.1790  0.0670
    4MPD2     C13861   3.477   2.420  13.823 -0.1655 -1.0660 -0.2884
    4MPD2    C113862   3.511   2.288  13.812 -0.2555 -0.7721 -0.0498
    4MPD2    C213863   3.647   2.256  13.810 -0.8785 -0.3938 -0.1539
    4MPD2    C313864   3.746   2.348  13.820  1.2194 -0.1219  0.1261
    4MPD2    C413865   3.712   2.482  13.836 -0.0262 -0.1427 -0.1521
    4MPD2    C513866   3.575   2.516  13.830  0.4749  0.1111  0.4686
    4MPD2     H13867   3.676   2.151  13.814 -0.1575 -0.1437  1.2107
    4MPD2    H113868   3.782   2.565  13.840  0.3887 -0.4175 -1.9032
    4MPD2    H213869   3.380   2.467  13.821  0.5379  0.4529  1.0210
    4MPD2    H313870   3.541   2.618  13.838  1.5626  0.5967 -1.1262
    4MPD2     N13871   3.877   2.299  13.832 -0.1159  0.1547  0.8175
    4MPD2    H513872   3.898   2.200  13.837 -0.8786  0.0677  2.5110
    4MPD2    N113873   3.409   2.191  13.793 -0.8053 -0.3366 -0.1003
    4MPD2    H713874   3.441   2.097  13.774  0.3116  0.0701 -0.1887
    5TCq2    C113875   3.986   2.378  13.850 -0.2320 -0.3098  0.3489
    5TCq2    O213876   4.002   2.497  13.828  0.1289  0.1140  0.0531
    5TCq2    C213877   4.106   2.302  13.860  0.7732  0.2171  0.0834
    5TCq2    C313878   4.226   2.335  13.799  0.1503 -0.1869  0.3517
    5TCq2    C413879   4.329   2.248  13.810  0.0856 -0.4647  0.0396
    5TCq2    C513880   4.318   2.128  13.875 -0.5462 -0.1530 -0.4503
    5TCq2    C613881   4.194   2.100  13.922  0.2655 -0.0492  0.8457
    5TCq2    C713882   4.086   2.182  13.918  0.2191 -0.0585  0.0795
    5TCq2    C813883   4.171   1.987  14.002  0.5338 -0.1443  0.2004
    5TCq2    O413884   4.121   1.997  14.111  0.2657 -0.9046 -0.6692
    5TCq2    C913885   4.453   2.289  13.759 -0.2054  0.3954  0.1745
    5TCq2    O513886   4.543   2.200  13.769  0.4282 -0.1733 -0.0567
    5TCq2    O613887   4.460   2.393  13.690 -0.0074  0.6126  0.0797
    5TCq2    H213888   4.229   2.432  13.751  1.5941 -0.3675  0.0800
    5TCq2    H313889   4.403   2.061  13.881 -0.6495 -0.2988 -0.6017
    5TCq2    H413890   3.998   2.145  13.970 -1.4496  1.4003 -1.7076
    6MPD1     C13891   2.215   1.765  12.342  0.4307  0.2747  0.4920
    6MPD1    C113892   2.315   1.859  12.314 -0.7891 -0.9984 -0.2040
    6MPD1    C213893   2.385   1.900  12.425  0.5235 -0.3150 -0.2241
    6MPD1    C313894   2.374   1.840  12.551  0.4879  0.1826  0.1168
    6MPD1    C413895   2.279   1.742  12.563 -0.8167 -0.0256 -0.2458
    6MPD1    C513896   2.201   1.703  12.458 -0.0940 -0.1323  0.0944
    6MPD1     H13897   2.441   1.992  12.410  0.2251  0.0345  0.7512
    6MPD1    H113898   2.241   1.700  12.656  0.9922 -0.5238  0.2812
    6MPD1    H213899   2.146   1.740  12.262 -2.3939  3.0259  2.0416
    6MPD1    H313900   2.123   1.628  12.469  1.2144 -1.3042  1.4779
    6MPD1     N13901   2.434   1.897  12.667 -0.2438 -0.0541  0.4495
    6MPD1    H513902   2.408   1.860  12.758  0.3792 -0.5354  0.4315
    6MPD1    N113903   2.311   1.930  12.195 -0.3072  0.1553  0.5111
    6MPD1    H613904   2.280   1.876  12.114  0.0388 -0.2033  0.6209
    6MPD1    H713905   2.408   1.951  12.173  0.2475 -2.0687  0.8922
    7MPD2     C13906   2.562   1.762  13.358  0.2508 -0.3124  1.0302
    7MPD2    C113907   2.622   1.886  13.362 -0.1185 -0.7158  0.1346
    7MPD2    C213908   2.699   1.917  13.473 -0.0998  0.2618  0.2485
    7MPD2    C313909   2.743   1.821  13.559  0.0723  0.0823  0.1165
    7MPD2    C413910   2.683   1.698  13.555  0.4057  0.3095  0.4319
    7MPD2    C513911   2.585   1.671  13.463 -0.1810 -0.0251  0.8657
    7MPD2     H13912   2.738   2.018  13.472 -1.0540  0.6529  3.0355
    7MPD2    H113913   2.701   1.610  13.615  4.0620  1.9802  1.7550
    7MPD2    H213914   2.486   1.736  13.285  0.0795  0.6949  0.8461
    7MPD2    H313915   2.532   1.577  13.454  0.1345  0.2333 -3.7026
    7MPD2     N13916   2.845   1.845  13.654 -0.0808 -0.2537  0.3491
    7MPD2    H513917   2.889   1.763  13.696 -0.0175 -0.6964 -0.5768
    7MPD2    N113918   2.614   1.977  13.251  0.1450  0.1712 -0.8451
    7MPD2    H713919   2.664   2.064  13.261  2.4030 -1.2798  0.4933
    8TMC3    C113920   3.042   1.959  13.719 -0.0478  0.1607 -0.2273
    8TMC3    C213921   3.090   2.079  13.754  0.4080 -0.1058 -0.1387
    8TMC3    C313922   3.214   2.121  13.708 -0.8659  0.4020 -0.9089
    8TMC3    C413923   3.115   1.876  13.637  0.0418 -0.1869  0.1973
    8TMC3    C513924   3.231   1.923  13.582  0.1465  0.0950  0.5636
    8TMC3    C613925   3.289   2.043  13.623  0.3508  0.0337 -0.0742
    8TMC3     C13926   2.905   1.973  13.683 -0.4433  0.1170  0.2871
    8TMC3     O13927   2.881   2.085  13.650  0.1811 -0.2235  0.3804
    8TMC3     H13928   3.030   2.152  13.807  2.9419  2.1383 -0.3377
    8TMC3    H113929   3.085   1.778  13.600 -1.3039  0.4282 -0.3373
    8TMC3    H213930   3.380   2.077  13.575  0.6145 -2.5334 -1.3611
    8TMC3    C713931   3.206   1.925  13.439  0.0885  0.3928  0.6090
    8TMC3    C813932   3.281   2.223  13.768 -0.3355 -0.3797 -0.6639
    8TMC3    O113933   3.102   1.876  13.398 -0.6363  0.5929  0.5890
    8TMC3    O213934   3.212   2.320  13.795 -0.1893  0.2020  0.5446
    9TMC3    C113935   2.582   2.040  12.798 -0.4116  0.3211 -0.6684
    9TMC3    C213936   2.714   2.077  12.795 -0.0755 -0.9246  0.1358
    9TMC3    C313937   2.770   2.100  12.913  0.3785 -0.3173 -0.0714
    9TMC3    C413938   2.512   2.032  12.918 -0.2796 -0.3031 -0.7420
    9TMC3    C513939   2.575   2.055  13.040  0.5303 -0.1015  0.0370
    9TMC3    C613940   2.714   2.081  13.034 -0.1033  0.1435 -0.8566
    9TMC3     C13941   2.525   2.006  12.663  0.4271 -0.5122  0.7032
    9TMC3     O13942   2.580   2.070  12.575 -0.3784 -0.1694  0.5441
    9TMC3     H13943   2.779   2.079  12.709 -0.5758 -2.9298 -0.2877
    9TMC3    H113944   2.405   2.020  12.923 -0.2953  0.4108  0.8603
    9TMC3    H213945   2.762   2.113  13.126 -0.3814  0.8652 -0.9595
    9TMC3    C713946   2.530   1.966  13.147 -0.4872  1.2313 -0.2915
    9TMC3    C813947   2.918   2.108  12.900 -0.2706 -0.0687  0.3254
    9TMC3    O113948   2.442   1.884  13.124  0.3713  0.2277  0.0117
    9TMC3    O213949   2.972   2.145  12.795 -0.1056 -0.2958  0.6403
   10MPD2     C13950   3.369   1.986  13.111  1.1442  0.4601 -0.8090
   10MPD2    C113951   3.273   1.991  13.211 -0.5104 -0.0470 -0.5195
   10MPD2    C213952   3.144   2.014  13.179 -0.6003  0.0555  0.2375
   10MPD2    C313953   3.105   2.038  13.040  0.6387 -0.1834  0.0925
   10MPD2    C413954   3.206   2.025  12.946  0.3260  0.0508 -1.2898
   10MPD2    C513955   3.336   2.010  12.985  0.7033 -0.6899 -1.2347
   10MPD2     H13956   3.063   2.039  13.247 -1.5583  3.2491 -2.0698
   10MPD2    H113957   3.171   2.033  12.844 -0.5823 -0.0327 -0.9911
   10MPD2    H213958   3.474   1.968  13.132  0.9431  0.5858  0.2959
   10MPD2    H313959   3.416   2.006  12.912  2.9982  0.3547  1.2493
   10MPD2     N13960   2.972   2.060  13.017 -0.7445 -0.3694  0.2539
   10MPD2    H513961   2.909   2.020  13.087  0.0864 -2.2815 -0.0901
   10MPD2    N113962   3.300   1.982  13.349 -0.0560  0.7228 -0.6067
   10MPD2    H713963   3.395   1.979  13.385 -0.5097 -1.0340  0.4012
   11MPD2     C13964   4.098   1.477  14.034 -0.2003 -0.1103 -0.3044
   11MPD2    C113965   4.096   1.568  14.136 -0.4510  0.2996  0.4508
   11MPD2    C213966   4.131   1.702  14.103 -0.3881  0.1738 -0.4705
   11MPD2    C313967   4.165   1.734  13.972 -0.0024 -0.4789 -0.6866
   11MPD2    C413968   4.167   1.637  13.877  0.8865  0.5751 -0.1470
   11MPD2    C513969   4.134   1.514  13.906  0.5984 -0.7243  0.3136
   11MPD2     H13970   4.135   1.780  14.178  2.9324  0.6027 -1.0718
   11MPD2    H113971   4.200   1.656  13.775 -1.5993 -2.0546 -1.4325
   11MPD2    H213972   4.077   1.373  14.056 -1.2685  0.4157  1.1349
   11MPD2    H313973   4.149   1.441  13.828 -1.6567 -1.1119  0.2487
   11MPD2     N13974   4.195   1.867  13.932  0.4524 -0.1026 -0.2944
   11MPD2    H513975   4.214   1.879  13.833  0.5234  0.1495 -0.2491
   11MPD2    N113976   4.056   1.535  14.271 -0.1829 -0.6647 -0.0325
   11MPD2    H713977   4.075   1.605  14.342 -1.4077 -0.0008 -0.3634
    1MPD1     C13978   0.372   3.253  16.972  0.4842 -0.2115  0.1670
    1MPD1    C113979   0.481   3.313  17.025 -0.0178  0.3746  0.3214
    1MPD1    C213980   0.590   3.333  16.948  0.2625 -0.1749 -0.5698
    1MPD1    C313981   0.605   3.274  16.819  0.2706 -0.5634 -0.5146
    1MPD1    C413982   0.497   3.201  16.775  0.3516 -0.1215 -0.2035
    1MPD1    C513983   0.385   3.198  16.848  0.3785  0.0698  0.9267
    1MPD1     H13984   0.673   3.393  16.985  0.4768 -0.9061  0.1325
    1MPD1    H113985   0.496   3.165  16.673 -1.3078 -1.3605  0.2536
    1MPD1    H213986   0.275   3.245  17.020 -0.9494 -1.4911 -2.9687
    1MPD1    H313987   0.293   3.160  16.806  0.4038 -1.3052  2.1146
    1MPD1     N13988   0.718   3.291  16.739 -0.0502 -0.1114 -0.3916
    1MPD1    H513989   0.712   3.254  16.644  1.9335 -2.8153  0.5581
    1MPD1    N113990   0.464   3.383  17.141 -0.6012 -0.4350 -0.1431
    1MPD1    H613991   0.556   3.394  17.184 -0.7867 -0.1447  0.1843
    1MPD1    H713992   0.412   3.336  17.214  0.4500  1.0082  1.5433
    2MPD1     C13993   1.684   3.272  17.006 -0.2808  0.2799  0.3318
    2MPD1    C113994   1.568   3.295  17.074  0.1325 -0.8002 -0.3789
    2MPD1    C213995   1.453   3.312  17.004 -0.2884  0.6602 -0.0021
    2MPD1    C313996   1.453   3.321  16.866  0.3311 -0.4630 -0.4017
    2MPD1    C413997   1.576   3.311  16.793 -0.4909 -0.1907  0.4682
    2MPD1    C513998   1.690   3.294  16.868  0.1574  0.0121  1.0861
    2MPD1     H13999   1.357   3.319  17.054  0.9020  0.0023  2.3844
    2MPD1    H114000   1.593   3.302  16.687  0.1981  1.1482  0.4612
    2MPD1    H214001   1.778   3.249  17.055 -0.7403 -1.0109  0.6069
    2MPD1    H314002   1.785   3.273  16.819 -1.3426 -1.6779 -1.1226
    2MPD1     N14003   1.333   3.334  16.802  0.3505  0.3305  0.3836
    2MPD1    H514004   1.250   3.312  16.857  1.0002 -0.5980  0.9906
    2MPD1    N114005   1.568   3.290  17.214 -0.2092  0.6274  0.0976
    2MPD1    H614006   1.528   3.369  17.263  0.1248  0.4951  0.5755
    2MPD1    H714007   1.667   3.294  17.237  0.1369  0.6733 -1.3896
    3TMC3    C114008   1.177   3.316  16.633 -0.3386  0.2232 -0.4301
    3TMC3    C214009   1.147   3.292  16.500  0.3618  0.5440 -0.0533
    3TMC3    C314010   1.015   3.296  16.460  0.0584 -0.3554 -0.5670
    3TMC3    C414011   1.074   3.335  16.727 -0.7382  0.1111 -0.4422
    3TMC3    C514012   0.946   3.324  16.680  1.1186  0.6559 -0.3127
    3TMC3    C614013   0.913   3.313  16.543 -0.7397 -0.2522  0.0370
    3TMC3     C14014   1.313   3.339  16.668  0.3896 -0.5340  0.0409
    3TMC3     O14015   1.392   3.343  16.571 -0.6489  0.2685  0.3048
    3TMC3     H14016   1.226   3.292  16.426  0.0880  2.6131 -0.3305
    3TMC3    H114017   1.086   3.377  16.826  1.2808 -2.1177  0.2578
    3TMC3    H214018   0.812   3.323  16.504 -1.3682 -1.3027  1.4086
    3TMC3    C714019   0.843   3.332  16.783  0.3707  0.0674  0.6362
    3TMC3    C814020   0.999   3.244  16.325 -0.1992  0.7050 -0.8343
    3TMC3    O114021   0.874   3.372  16.893 -0.4180  0.0338 -0.7823
    3TMC3    O214022   1.102   3.212  16.265 -0.1321  0.4383 -0.0698
    4MPD1     C14023   0.691   3.110  15.946 -0.3838 -0.7772  0.0996
    4MPD1    C114024   0.617   3.185  16.032 -0.2156 -0.8378 -0.1284
    4MPD1    C214025   0.685   3.257  16.130 -0.1885 -0.4459  0.0066
    4MPD1    C314026   0.816   3.235  16.157 -0.5682  0.1026 -0.4345
    4MPD1    C414027   0.889   3.154  16.071 -0.2612  0.2929  0.2607
    4MPD1    C514028   0.825   3.092  15.966 -0.0680  0.1562  0.3679
    4MPD1     H14029   0.617   3.308  16.196 -0.6000 -0.7756 -0.1615
    4MPD1    H114030   0.995   3.134  16.079 -0.2263 -0.1589 -1.3867
    4MPD1    H214031   0.646   3.063  15.859 -0.0460  2.4280 -1.8142
    4MPD1    H314032   0.872   3.021  15.899  0.0738 -1.4013  2.1120
    4MPD1     N14033   0.875   3.285  16.274 -0.4659  0.2361  0.1365
    4MPD1    H514034   0.810   3.338  16.330  0.4846 -0.9547  2.3675
    4MPD1    N114035   0.485   3.220  15.994 -0.0384 -0.1839  0.8350
    4MPD1    H614036   0.432   3.258  16.072 -0.4671 -2.0172  1.4482
    4MPD1    H714037   0.434   3.142  15.953  2.4954 -0.6432 -1.4027
    1TCq1    O114038   2.221   4.236  11.249  0.3731  0.5082 -0.6811
    1TCq1    C114039   2.186   4.125  11.315  0.2641 -0.3907 -0.7100
    1TCq1    O214040   2.080   4.113  11.373 -0.2671 -0.1713 -0.6855
    1TCq1    C214041   2.283   4.019  11.281  0.8843 -0.2679 -0.1562
    1TCq1    C314042   2.274   3.900  11.356 -0.3642 -0.9988 -0.2919
    1TCq1    C414043   2.372   3.805  11.329  0.3854  0.1791  0.0491
    1TCq1    C514044   2.430   3.806  11.206  0.0062 -0.4137 -0.3900
    1TCq1    C614045   2.426   3.916  11.127  0.2963  0.3243 -0.0430
    1TCq1    C714046   2.360   4.029  11.173  0.0784 -0.2148 -0.4118
    1TCq1    C814047   2.494   3.931  11.000 -0.3580  0.3845  0.0116
    1TCq1    O414048   2.498   4.043  10.954  0.2602 -0.2403 -0.0961
    1TCq1    C914049   2.356   3.672  11.384  0.4582  0.1260 -0.2214
    1TCq1    O514050   2.449   3.586  11.370  0.2829  0.1686  0.5039
    1TCq1    O614051   2.252   3.644  11.449 -0.8338 -0.3526 -0.1683
    1TCq1    H114052   2.312   4.227  11.214  0.5408 -2.4934  0.5011
    1TCq1    H214053   2.210   3.888  11.442 -0.9258 -0.3344 -0.6175
    1TCq1    H314054   2.487   3.716  11.188  2.2517  0.7918  0.6749
    1TCq1    H414055   2.334   4.100  11.095 -0.6230 -0.0446 -0.0282
    2MPD1     C14056   2.806   3.759  10.635  0.5049 -0.4245 -0.1315
    2MPD1    C114057   2.710   3.663  10.661 -0.2475 -0.1225 -0.0797
    2MPD1    C214058   2.623   3.685  10.773  0.0082  0.0402  1.0723
    2MPD1    C314059   2.624   3.799  10.843 -0.3903 -0.1126  0.3577
    2MPD1    C414060   2.721   3.887  10.811  0.7026 -0.2713  0.3863
    2MPD1    C514061   2.813   3.864  10.719  0.2911  0.9539 -0.1579
    2MPD1     H14062   2.544   3.612  10.787  1.6493 -1.9575 -0.1173
    2MPD1    H114063   2.737   3.973  10.876 -0.6516 -0.7072  1.2992
    2MPD1    H214064   2.885   3.734  10.565 -0.4363  2.4512 -2.2156
    2MPD1    H314065   2.897   3.933  10.725  1.7655 -0.7901 -0.6920
    2MPD1     N14066   2.529   3.815  10.944 -0.6388 -0.6668 -0.1967
    2MPD1    H514067   2.485   3.730  10.977  0.8770 -1.4104 -0.0625
    2MPD1    N114068   2.716   3.540  10.598 -0.0734 -0.5171  0.0059
    2MPD1    H614069   2.637   3.482  10.626 -0.6757  1.5360  2.5577
    2MPD1    H714070   2.709   3.551  10.498 -2.0628 -0.9714  0.0946
    1TCq1    O114071   1.761   1.377   0.896  0.1373 -0.0448 -1.0190
    1TCq1    C114072   1.880   1.314   0.920  0.2263 -0.0266  0.5376
    1TCq1    O214073   1.890   1.207   0.979 -0.7949 -0.5200 -0.0947
    1TCq1    C214074   1.983   1.419   0.933 -0.0763 -0.1359  0.3819
    1TCq1    C314075   2.012   1.484   0.815 -0.2752 -0.0252  0.2057
    1TCq1    C414076   2.070   1.604   0.822 -0.3835 -0.0451 -0.2455
    1TCq1    C514077   2.082   1.674   0.944  0.4668 -0.5473  0.0031
    1TCq1    C614078   2.044   1.610   1.059  0.4101 -0.0631  0.0773
    1TCq1    C714079   2.006   1.476   1.058 -0.2464 -0.1458  0.1801
    1TCq1    C814080   2.059   1.690   1.185 -0.3273 -0.1503 -0.3157
    1TCq1    O414081   2.111   1.800   1.177  0.3356 -0.4034  0.4331
    1TCq1    C914082   2.076   1.679   0.699  0.3920 -0.0467  0.0402
    1TCq1    O514083   2.043   1.621   0.593  0.2906 -0.0825 -0.5268
    1TCq1    O614084   2.121   1.794   0.707  0.0449 -0.1879 -0.1573
    1TCq1    H114085   1.772   1.473   0.878  2.2122 -0.2804 -1.0239
    1TCq1    H214086   1.958   1.458   0.724 -0.7281 -2.7995  1.2749
    1TCq1    H314087   2.114   1.778   0.947  0.6418 -0.5532 -1.6297
    1TCq1    H414088   1.960   1.429   1.144  1.1483 -0.6117  0.6649
    2MPD1     C14089   2.036   1.750   1.689 -0.7292  0.2064  0.0099
    2MPD1    C114090   1.959   1.643   1.660 -0.0947 -0.5277 -0.4381
    2MPD1    C214091   1.951   1.615   1.526  0.1306  0.2048  0.0290
    2MPD1    C314092   2.018   1.687   1.424 -0.4617  0.9770 -0.1234
    2MPD1    C414093   2.091   1.801   1.460 -0.7074  0.0624  0.6004
    2MPD1    C514094   2.102   1.826   1.596  0.3670 -0.1505 -0.4493
    2MPD1     H14095   1.902   1.524   1.493 -1.9722  1.6865 -0.9758
    2MPD1    H114096   2.143   1.865   1.390 -1.5850 -1.0119 -1.0341
    2MPD1    H214097   2.037   1.792   1.788  1.5519 -1.0707  0.5475
    2MPD1    H314098   2.170   1.905   1.627 -0.0767 -0.0839  0.3614
    2MPD1     N14099   2.018   1.626   1.299 -0.7898 -0.0907 -0.1333
    2MPD1    H514100   1.966   1.539   1.293  0.6644 -1.1287  2.3916
    2MPD1    N114101   1.859   1.598   1.746  0.4822  0.3484  0.0494
    2MPD1    H614102   1.884   1.592   1.845  2.1099  3.0595 -0.2049
    2MPD1    H714103   1.808   1.512   1.726  0.0237  0.4094  0.9163
    1MPD1     C14104   4.155   2.359  12.252  0.0666  0.5343 -0.4833
    1MPD1    C114105   4.287   2.335  12.220 -0.4881 -0.2798 -0.1305
    1MPD1    C214106   4.348   2.394  12.110  0.6890 -0.2424 -0.9334
    1MPD1    C314107   4.275   2.491  12.043  0.2676  0.1044  0.2704
    1MPD1    C414108   4.158   2.537  12.093 -0.6420  0.5306  0.3875
    1MPD1    C514109   4.091   2.457  12.180 -0.4798  0.0075  0.0829
    1MPD1     H14110   4.441   2.351  12.074  1.0629 -1.2953  1.3241
    1MPD1    H114111   4.092   2.605  12.042 -0.7152 -0.0677 -0.3260
    1MPD1    H214112   4.096   2.306  12.326 -1.4351  2.3897 -0.3548
    1MPD1    H314113   3.989   2.478  12.207  0.2889  0.0379  2.9415
    1MPD1     N14114   4.312   2.525  11.908  0.5104 -0.2946  0.1724
    1MPD1    H514115   4.403   2.483  11.887  0.7965 -0.3319  1.4984
    1MPD1    N114116   4.337   2.208  12.259 -0.0959 -0.2206  0.2375
    1MPD1    H614117   4.439   2.207  12.259 -0.0873  0.2855  1.3159
    1MPD1    H714118   4.309   2.173  12.350  2.9149  0.5608  1.4545
    2MPD1     C14119   3.269   3.359  11.001 -0.9255 -0.5173  0.6465
    2MPD1    C114120   3.381   3.407  10.949  0.8648 -0.4494 -0.1031
    2MPD1    C214121   3.488   3.322  10.912 -0.2508 -0.7849 -0.3205
    2MPD1    C314122   3.472   3.187  10.920  0.6781 -0.2384 -0.3697
    2MPD1    C414123   3.356   3.136  10.989 -0.0018 -0.2876  0.8010
    2MPD1    C514124   3.251   3.222  11.026 -0.3433 -0.0046 -0.8062
    2MPD1     H14125   3.576   3.362  10.863 -1.0005  0.2506 -0.8277
    2MPD1    H114126   3.348   3.031  11.013  0.3511 -0.8743 -1.5805
    2MPD1    H214127   3.189   3.430  11.019  1.5571  2.0183  1.6589
    2MPD1    H314128   3.163   3.181  11.072  0.0689  0.4380  0.3728
    2MPD1     N14129   3.572   3.093  10.880 -0.0093  0.2733  0.3260
    2MPD1    H514130   3.558   2.997  10.911 -0.8031  0.9166  1.9516
    2MPD1    N114131   3.404   3.541  10.930 -0.0370  0.6785 -0.4451
    2MPD1    H614132   3.503   3.562  10.939  0.2146 -0.7179  0.0010
    2MPD1    H714133   3.356   3.606  10.992 -0.5359  2.6911 -2.9488
    3MPD1     C14134   3.463   2.283  10.714 -0.1954 -0.2862  0.8050
    3MPD1    C114135   3.433   2.346  10.830 -0.4788  0.2648  0.6162
    3MPD1    C214136   3.500   2.468  10.863 -0.5844  0.0086 -0.5610
    3MPD1    C314137   3.611   2.503  10.785  0.3493  1.2032 -0.3723
    3MPD1    C414138   3.644   2.437  10.670  0.0608  0.2996  0.0994
    3MPD1    C514139   3.565   2.330  10.634  0.1804  0.3606  0.0052
    3MPD1     H14140   3.476   2.528  10.949  0.9268 -0.6464  0.3023
    3MPD1    H114141   3.726   2.472  10.608 -0.5010  2.4005  0.5299
    3MPD1    H214142   3.414   2.190  10.687  0.2495 -0.1433 -0.5026
    3MPD1    H314143   3.599   2.275  10.547 -1.9619  0.7985 -1.0955
    3MPD1     N14144   3.677   2.629  10.817  0.0952 -0.3420  0.1370
    3MPD1    H514145   3.635   2.677  10.895  0.3295 -0.0103  0.0593
    3MPD1    N114146   3.333   2.304  10.913  0.5450 -0.6193  0.3316
    3MPD1    H614147   3.279   2.225  10.878  3.0917 -0.6599 -3.5348
    3MPD1    H714148   3.266   2.380  10.924 -0.9528 -1.6278 -1.6591
    4MPD2     C14149   4.101   3.008  11.271  0.2271  0.4622 -0.3852
    4MPD2    C114150   4.216   2.994  11.350  0.3115  0.4343  0.4497
    4MPD2    C214151   4.298   3.104  11.366 -0.4176 -0.3948  0.1640
    4MPD2    C314152   4.269   3.228  11.306  0.3344  0.3504 -0.4255
    4MPD2    C414153   4.147   3.242  11.238 -0.0757 -0.4531 -0.3081
    4MPD2    C514154   4.073   3.131  11.212  0.1195 -0.3963 -0.3499
    4MPD2     H14155   4.387   3.080  11.424 -1.1557 -2.0059  0.6349
    4MPD2    H114156   4.137   3.331  11.177  1.4459  0.9314  1.4564
    4MPD2    H214157   4.041   2.921  11.246 -2.0337  2.3373 -1.6092
    4MPD2    H314158   3.984   3.141  11.151  1.0326 -0.1598 -1.6389
    4MPD2     N14159   4.348   3.343  11.307 -0.0586 -0.3555 -0.8449
    4MPD2    H514160   4.315   3.424  11.256  1.3236  0.4220 -0.5040
    4MPD2    N114161   4.261   2.861  11.385  0.3137  0.0908 -0.4844
    4MPD2    H714162   4.353   2.860  11.426  0.1803  0.6630 -0.1792
    5TMC3    C114163   4.280   2.654  11.454  0.3350  0.6834  0.0067
    5TMC3    C214164   4.228   2.631  11.582  0.4876  0.1320  0.0441
    5TMC3    C314165   4.308   2.606  11.686 -0.5184 -0.5581  0.1681
    5TMC3    C414166   4.415   2.658  11.442  0.1514  0.2709 -0.3106
    5TMC3    C514167   4.494   2.639  11.557 -0.3512 -0.4656  0.0293
    5TMC3    C614168   4.443   2.631  11.678 -1.1213 -0.1201  0.2151
    5TMC3     C14169   4.199   2.742  11.375  0.0627 -0.3151 -0.0690
    5TMC3     O14170   4.078   2.727  11.356  0.7244  0.2942  0.1780
    5TMC3     H14171   4.120   2.621  11.591  0.5370  0.8425  1.3944
    5TMC3    H114172   4.451   2.665  11.340  0.4054  1.9252 -0.1069
    5TMC3    H214173   4.515   2.622  11.758  0.7459  0.0089 -1.4595
    5TMC3    C714174   4.632   2.681  11.551 -0.2672  0.6260  0.2327
    5TMC3    C814175   4.237   2.590  11.816 -0.4251  0.2879 -0.3316
    5TMC3    O114176   4.674   2.768  11.631  0.4812 -0.0028 -0.2390
    5TMC3    O214177   4.123   2.626  11.814 -0.2329  0.1540 -0.1582
    6TMC3    C114178   3.793   3.025  10.827 -1.0648 -0.1234  0.0248
    6TMC3    C214179   3.744   2.902  10.801  0.3695 -0.0358  0.1300
    6TMC3    C314180   3.831   2.800  10.807  0.7088 -0.5900  0.3988
    6TMC3    C414181   3.925   3.055  10.857  0.1674 -0.2681 -0.2467
    6TMC3    C514182   4.008   2.943  10.872  0.5425 -0.4960 -0.1974
    6TMC3    C614183   3.966   2.816  10.837  0.1515  0.6224  0.5224
    6TMC3     C14184   3.697   3.132  10.826 -0.6215  0.1405 -0.5031
    6TMC3     O14185   3.742   3.237  10.784  0.2438 -1.2870  0.6259
    6TMC3     H14186   3.643   2.884  10.766  0.6633  0.3557 -0.9398
    6TMC3    H114187   3.960   3.157  10.868  0.0320 -0.0462 -1.9386
    6TMC3    H214188   4.033   2.731  10.849 -1.4611 -0.5420  1.3419
    6TMC3    C714189   4.148   2.956  10.895  0.8439 -1.0089 -0.3166
    6TMC3    C814190   3.798   2.666  10.769 -0.9104 -0.3567  0.3233
    6TMC3    O114191   4.202   3.052  10.840  0.2586 -0.4603 -0.0434
    6TMC3    O214192   3.887   2.593  10.728 -0.0324  0.8618 -0.8024
    7MPD2     C14193   0.257   2.865  11.212 -0.6432 -0.1442 -0.4776
    7MPD2    C114194   0.172   2.931  11.308  0.3616  0.9038  0.3256
    7MPD2    C214195   0.082   2.858  11.380  0.7286  0.5097  0.9509
    7MPD2    C314196   0.064   2.721  11.356 -0.1430  0.2556 -0.4225
    7MPD2    C414197   0.137   2.662  11.255 -0.7172  0.5615  0.8959
    7MPD2    C514198   0.239   2.732  11.188 -0.0492  0.2550 -0.3259
    7MPD2     H14199   0.019   2.904  11.455 -0.6952  0.8220 -0.4371
    7MPD2    H114200   0.140   2.558  11.226  0.9339  0.9661 -0.3729
    7MPD2    H214201   0.335   2.913  11.154  1.4776 -2.3271  0.5697
    7MPD2    H314202   0.301   2.675  11.120  0.6546  0.0368  0.4887
    7MPD2     N14203   4.685   2.647  11.426  0.0780 -0.5368  0.0329
    7MPD2    H514204   4.663   2.553  11.395  2.0031 -2.1566  3.6352
    7MPD2    N114205   0.170   3.077  11.292  0.2050 -0.4087  0.4042
    7MPD2    H714206   0.234   3.118  11.224 -0.6894  0.4348  0.0812
    8TMC3    C114207   0.061   3.287  11.315 -0.4518 -0.1440  0.0213
    8TMC3    C214208   0.047   3.279  11.177  0.4835  0.0254  0.1858
    8TMC3    C314209   4.659   3.332  11.123  0.3177  0.5839  0.1136
    8TMC3    C414210   4.697   3.357  11.390  0.1535  0.3533  0.3767
    8TMC3    C514211   4.578   3.400  11.328 -0.4806 -0.3432  0.2599
    8TMC3    C614212   4.568   3.404  11.192  0.1979 -0.4729  0.2888
    8TMC3     C14213   0.092   3.154  11.377 -0.0858  0.5223  0.3027
    8TMC3     O14214   0.034   3.129  11.481  0.2046  0.3593  0.0920
    8TMC3     H14215   0.119   3.232  11.111 -0.4323 -0.5293 -0.4177
    8TMC3    H114216   4.699   3.352  11.498 -0.4714 -0.4906  0.3499
    8TMC3    H214217   4.474   3.429  11.144 -0.7642 -0.0369  2.3876
    8TMC3    C714218   4.458   3.351  11.395  0.4464  0.2758 -0.0468
    8TMC3    C814219   4.600   3.230  11.039  0.3208 -0.4531 -0.7855
    8TMC3    O114220   4.471   3.292  11.504 -0.7878  0.2013  0.2742
    8TMC3    O214221   4.502   3.261  10.979  0.7079  0.1215 -0.1578
    9MPD2     C14222   4.604   2.868  11.089 -0.2303 -0.4883 -0.5689
    9MPD2    C114223   4.548   2.987  11.063  0.0102 -0.3525 -0.0326
    9MPD2    C214224   4.411   2.987  11.027  0.1055 -0.0841  0.3002
    9MPD2    C314225   4.339   2.865  11.019  0.5880 -0.3698  0.0426
    9MPD2    C414226   4.402   2.749  11.054  0.6591 -0.1762  0.2826
    9MPD2    C514227   4.530   2.755  11.094 -0.4617 -0.2596 -0.6389
    9MPD2     H14228   4.363   3.082  11.007  0.7617  0.4040  1.0205
    9MPD2    H114229   4.347   2.656  11.056  0.3051  0.0063 -0.8800
    9MPD2    H214230   4.709   2.853  11.110 -0.6051 -1.4244  0.6578
    9MPD2    H314231   4.582   2.662  11.117 -0.9104  0.0065  1.4846
    9MPD2     N14232   4.203   2.856  10.968  0.6797 -0.5696  0.6746
    9MPD2    H514233   4.140   2.781  10.993  2.7495 -1.7355  2.3485
    9MPD2    N114234   4.624   3.104  11.086  0.4726 -0.4070 -0.6937
    9MPD2    H714235   4.711   3.086  11.135  0.6219  1.2840 -0.3312
    1MPD1     C14236   0.281   2.287   0.832  0.4916 -0.8280  0.7449
    1MPD1    C114237   0.170   2.245   0.770  0.5903 -0.1858  0.2194
    1MPD1    C214238   0.117   2.125   0.817 -0.4588 -0.3655  0.0655
    1MPD1    C314239   0.162   2.072   0.940  0.3490 -0.2140  0.1871
    1MPD1    C414240   0.269   2.129   1.005 -0.1693 -0.1442  0.4554
    1MPD1    C514241   0.330   2.232   0.945  0.2940  0.5614  0.0201
    1MPD1     H14242   0.027   2.088   0.771 -0.2226  0.1352 -0.7995
    1MPD1    H114243   0.300   2.102   1.105  3.3443 -0.7204 -0.7791
    1MPD1    H214244   0.340   2.365   0.787 -0.7316 -0.7569 -0.7055
    1MPD1    H314245   0.418   2.276   0.989 -0.4447  0.8558  1.1961
    1MPD1     N14246   0.107   1.963   1.007  0.0694 -0.1578  0.4083
    1MPD1    H514247   0.159   1.930   1.088 -0.1481 -1.1670  0.1373
    1MPD1    N114248   0.127   2.290   0.644  0.1963  0.5548  0.2150
    1MPD1    H614249   0.026   2.295   0.634  0.3470  0.8333 -1.2275
    1MPD1    H714250   0.159   2.381   0.611 -1.8969  1.2498  0.1511
    2MPD1     C14251   4.087   1.153   1.179 -0.7610 -0.4460 -0.0121
    2MPD1    C114252   4.193   1.148   1.273  0.1572 -0.7659  0.6725
    2MPD1    C214253   4.283   1.245   1.269 -0.0295 -0.2772  0.5084
    2MPD1    C314254   4.279   1.353   1.180 -0.0039  0.1398 -0.4890
    2MPD1    C414255   4.163   1.364   1.103 -0.5127  0.6323  0.8350
    2MPD1    C514256   4.070   1.258   1.099  0.2422 -0.5519  0.1248
    2MPD1     H14257   4.380   1.232   1.316  1.1059  1.7160 -1.2651
    2MPD1    H114258   4.161   1.448   1.034 -2.0542  0.1392  0.2871
    2MPD1    H214259   4.010   1.076   1.177 -0.7110 -0.4736 -0.8977
    2MPD1    H314260   3.998   1.270   1.019  1.1470 -0.2901 -0.6580
    2MPD1     N14261   4.389   1.447   1.170 -0.0672  0.3642 -0.1495
    2MPD1    H514262   4.465   1.434   1.236 -1.2052  0.4147  1.1853
    2MPD1    N114263   4.212   1.026   1.341 -0.3823  0.0321  0.4631
    2MPD1    H614264   4.122   0.983   1.360 -1.1208  1.0357 -0.7227
    2MPD1    H714265   4.267   1.037   1.426 -0.4086  0.2267  0.4556
    3TCq2    C114266   4.401   1.566   1.100 -0.5972  0.7156 -0.1114
    3TCq2    O214267   4.321   1.617   1.022  0.1725  1.0037  0.5395
    3TCq2    C214268   4.518   1.644   1.139 -0.0881 -0.4585  0.2635
    3TCq2    C314269   4.618   1.578   1.211  0.0305 -0.6664 -0.6669
    3TCq2    C414270   0.025   1.615   1.204  0.5189 -0.2823 -0.2985
    3TCq2    C514271   0.065   1.712   1.126  0.0444  0.2139 -0.2953
    3TCq2    C614272   4.691   1.778   1.050  0.3073  0.9166 -0.0148
    3TCq2    C714273   4.558   1.743   1.055 -0.3316 -0.6143  1.0651
    3TCq2    C814274   4.717   1.890   0.966  0.3984  0.3971  0.5473
    3TCq2    O414275   4.629   1.930   0.892 -0.1864  0.3705  0.3407
    3TCq2    C914276   0.126   1.580   1.297 -0.5209 -1.1211 -0.4432
    3TCq2    O514277   0.103   1.480   1.368  0.1935  0.6965  0.0477
    3TCq2    O614278   0.229   1.656   1.294 -0.3402 -0.5457 -0.0721
    3TCq2    H214279   4.600   1.505   1.289  2.4189 -1.3871 -0.7788
    3TCq2    H314280   0.170   1.734   1.113  0.3474  0.2750  2.2964
    3TCq2    H414281   4.496   1.792   0.981  1.1841 -0.3515 -0.0451
    1TCq1    O114282   1.553   0.537  13.247  0.6770 -0.0871  0.3353
    1TCq1    C114283   1.664   0.546  13.175 -0.3975  0.2240 -0.0041
    1TCq1    O214284   1.674   0.631  13.088  0.1588 -0.1979  0.1925
    1TCq1    C214285   1.787   0.502  13.251  0.0453 -0.5785 -0.6901
    1TCq1    C314286   1.768   0.428  13.362  0.4273  0.0809  0.1306
    1TCq1    C414287   1.877   0.355  13.409  0.3516  0.7786  0.1746
    1TCq1    C514288   2.007   0.375  13.350  0.3128 -0.1828 -0.1482
    1TCq1    C614289   2.011   0.444  13.235 -0.5617  0.5612 -0.1294
    1TCq1    C714290   1.902   0.516  13.180 -0.0676 -0.8063 -0.6057
    1TCq1    C814291   2.136   0.469  13.181  0.1873 -0.3191 -0.2677
    1TCq1    O414292   2.139   0.510  13.066 -0.2998  0.1366  0.0172
    1TCq1    C914293   1.859   0.254  13.506  0.5578 -0.5413  0.6756
    1TCq1    O514294   1.740   0.211  13.511  0.1096  0.1031  0.3880
    1TCq1    O614295   1.957   0.216  13.570 -0.7105 -0.0737 -0.2800
    1TCq1    H114296   1.551   0.466  13.314  0.7727  0.0462  0.4809
    1TCq1    H214297   1.674   0.437  13.416 -0.2617  0.4597 -1.1290
    1TCq1    H314298   2.090   0.319  13.390  0.3287 -0.5607 -0.7063
    1TCq1    H414299   1.915   0.555  13.080  0.5759  0.3844 -0.0624
    2MPD2     C14300   2.401   0.591  13.158 -0.0579 -0.2039  0.0174
    2MPD2    C114301   2.341   0.551  13.280 -0.2606  0.2735 -0.3114
    2MPD2    C214302   2.400   0.578  13.399  0.1713  0.4175 -0.0950
    2MPD2    C314303   2.527   0.641  13.411  0.6607 -0.1996  0.7388
    2MPD2    C414304   2.579   0.688  13.289  0.1451 -0.1000 -0.6711
    2MPD2    C514305   2.518   0.662  13.168 -0.1605  0.5600  0.0664
    2MPD2     H14306   2.347   0.549  13.489  0.6358 -0.2600 -0.0428
    2MPD2    H114307   2.679   0.730  13.283  1.0785 -2.7233 -4.3753
    2MPD2    H214308   2.359   0.580  13.059  1.2893  0.3854 -0.6255
    2MPD2    H314309   2.564   0.688  13.073 -2.0555 -0.2102 -1.0554
    2MPD2     N14310   2.578   0.670  13.538  0.5302 -0.1099  0.0739
    2MPD2    H514311   2.526   0.632  13.616 -4.2140  1.0138 -2.5912
    2MPD2    N114312   2.225   0.480  13.284 -0.8597 -0.2321  0.8307
    2MPD2    H714313   2.190   0.453  13.376 -1.5002  4.1747  1.9154
    3TCq1    O114314   2.681   0.925  14.064 -0.0615 -0.3755 -0.2310
    3TCq1    C114315   2.584   0.864  13.994  0.0689 -0.3750  0.2987
    3TCq1    O214316   2.482   0.926  13.954  0.0072 -0.1127 -0.0289
    3TCq1    C214317   2.658   0.768  13.923  0.4561  0.0427 -0.5301
    3TCq1    C314318   2.768   0.709  13.977 -0.6767 -0.4101 -0.7473
    3TCq1    C414319   2.851   0.633  13.893 -0.4694  0.0535  0.1001
    3TCq1    C514320   2.836   0.636  13.757  0.1942  0.2210  0.4236
    3TCq1    C614321   2.725   0.705  13.713 -0.3043 -0.5375  0.0474
    3TCq1    C714322   2.632   0.762  13.793  0.2996 -0.1686 -0.0618
    3TCq1    C814323   2.697   0.718  13.567  0.4803  0.0107 -0.6446
    3TCq1    O414324   2.793   0.756  13.498  0.4336  0.2896 -0.2269
    3TCq1    C914325   2.970   0.579  13.947  0.1297 -0.8205  0.2614
    3TCq1    O514326   2.980   0.598  14.073  0.0237 -0.0319  0.2472
    3TCq1    O614327   3.056   0.525  13.874 -0.0397 -0.4158  0.1642
    3TCq1    H114328   2.758   0.865  14.076 -1.6631 -1.8504  2.5550
    3TCq1    H214329   2.787   0.701  14.084 -0.6824  0.1576 -0.7035
    3TCq1    H314330   2.910   0.585  13.696 -1.4368 -0.6386 -0.8350
    3TCq1    H414331   2.539   0.812  13.767 -0.0012 -0.2058  0.9456
    1MPD2     C14332   2.152   2.072  15.052  0.4373 -0.3001  0.2943
    1MPD2    C114333   2.066   1.990  14.982 -0.3306 -0.3784  0.0457
    1MPD2    C214334   2.084   1.848  14.978  0.1331 -0.4386  0.3256
    1MPD2    C314335   2.191   1.793  15.052  0.0447  0.4566 -0.0637
    1MPD2    C414336   2.281   1.879  15.116 -0.0936  0.5249  0.2506
    1MPD2    C514337   2.255   2.013  15.120 -0.0400  0.7251  0.2718
    1MPD2     H14338   2.011   1.792  14.921  0.7410 -1.3153  0.4178
    1MPD2    H114339   2.363   1.845  15.179 -0.7489 -1.3425  0.0969
    1MPD2    H214340   2.132   2.177  15.066 -1.1910 -0.7290  1.1870
    1MPD2    H314341   2.314   2.076  15.185  0.0202  1.0328 -0.0831
    1MPD2     N14342   2.199   1.652  15.072 -0.3229 -0.4262 -0.1883
    1MPD2    H514343   2.279   1.613  15.122  1.6174  3.4088 -0.2966
    1MPD2    N114344   1.951   2.046  14.919 -0.0407  0.5155 -0.7523
    1MPD2    H714345   1.888   1.979  14.877  0.5162 -2.2173  2.7259
    2TMC3    C114346   1.761   2.177  14.877  0.2468 -0.1101  0.3430
    2TMC3    C214347   1.685   2.069  14.912 -0.3478  0.9928  0.2820
    2TMC3    C314348   1.563   2.054  14.871 -0.0306 -0.3591  0.5707
    2TMC3    C414349   1.715   2.282  14.808 -0.3109 -0.2455 -0.1714
    2TMC3    C514350   1.581   2.263  14.771  0.0624 -0.1067 -0.5676
    2TMC3    C614351   1.509   2.152  14.797 -0.0453 -0.0435  0.3828
    2TMC3     C14352   1.898   2.172  14.930 -0.1480  1.1541 -0.2119
    2TMC3     O14353   1.942   2.284  14.955  0.0533  0.2771  0.1789
    2TMC3     H14354   1.723   2.007  14.992  0.1130  1.3284  0.3262
    2TMC3    H114355   1.772   2.374  14.806 -2.3622  1.0458  0.7787
    2TMC3    H214356   1.417   2.129  14.743  0.0021  0.3284  0.1443
    2TMC3    C714357   1.508   2.365  14.695 -0.6122  0.5367  0.0423
    2TMC3    C814358   1.489   1.931  14.891 -0.0178 -0.0594  0.4426
    2TMC3    O114359   1.385   2.346  14.693 -0.2893 -0.2040  0.4626
    2TMC3    O214360   1.368   1.920  14.868  0.1085 -0.3059  0.5807
    3TCq1    O114361   1.561   3.348  14.014  0.1653  0.2595  0.2945
    3TCq1    C114362   1.691   3.347  14.054  0.4371  0.1953 -0.1925
    3TCq1    O214363   1.771   3.438  14.041 -0.2512 -0.1647  0.2115
    3TCq1    C214364   1.724   3.235  14.145 -0.1641 -1.0248 -0.6671
    3TCq1    C314365   1.843   3.242  14.222  0.0565  0.2112 -0.8219
    3TCq1    C414366   1.893   3.136  14.288  0.7640  0.2466 -1.5237
    3TCq1    C514367   1.831   3.016  14.273 -0.2224  0.6088 -0.5124
    3TCq1    C614368   1.724   2.999  14.188  0.1500  0.2963  0.0636
    3TCq1    C714369   1.661   3.114  14.131 -0.7782 -0.6087 -0.3333
    3TCq1    C814370   1.630   2.887  14.197 -1.4663 -0.5083 -0.1763
    3TCq1    O414371   1.523   2.898  14.139  0.4985  0.3036 -0.1910
    3TCq1    C914372   1.993   3.166  14.395  0.1851 -0.5578  0.1701
    3TCq1    O514373   2.056   3.277  14.391  0.3847 -0.5240  0.9272
    3TCq1    O614374   2.000   3.074  14.480 -0.2832  0.0790 -0.1525
    3TCq1    H114375   1.500   3.288  14.062  0.3490 -0.8964 -0.9484
    3TCq1    H214376   1.880   3.343  14.231 -0.6334  0.6279 -2.6441
    3TCq1    H314377   1.867   2.936  14.337 -1.8679  1.0605  1.0004
    3TCq1    H414378   1.575   3.102  14.066 -0.5695  0.7967 -0.8589
    4MPD2     C14379   1.456   2.662  14.279 -0.7063 -0.9278 -0.5189
    4MPD2    C114380   1.580   2.676  14.329  1.0265 -0.2969  0.6127
    4MPD2    C214381   1.621   2.601  14.441 -0.3838 -0.3953 -0.2313
    4MPD2    C314382   1.544   2.512  14.498 -0.0665  1.0332  0.1101
    4MPD2    C414383   1.414   2.503  14.447 -0.7771  0.8824  1.0946
    4MPD2    C514384   1.375   2.577  14.337  0.9889  0.6927 -0.0098
    4MPD2     H14385   1.719   2.625  14.481 -0.9405 -0.7466  1.3315
    4MPD2    H114386   1.336   2.439  14.486 -1.1850  1.5162  1.2970
    4MPD2    H214387   1.420   2.720  14.195 -1.9053  0.8752  1.2618
    4MPD2    H314388   1.272   2.573  14.302  0.6185 -2.3931  1.4673
    4MPD2     N14389   1.596   2.442  14.614 -0.1195  0.1553 -0.5088
    4MPD2    H514390   1.695   2.443  14.638 -1.4151  0.6993  4.9266
    4MPD2    N114391   1.663   2.783  14.289 -0.0632  0.1866 -0.7713
    4MPD2    H714392   1.754   2.778  14.333  0.4390 -0.5019 -1.8716
    5TMC2    C114393   1.937   1.253  15.079  0.0386 -0.7148  0.7456
    5TMC2    C214394   1.965   1.222  15.211  0.0466  0.0565  0.1811
    5TMC2    C314395   2.057   1.303  15.277 -0.4726  0.0500  0.2260
    5TMC2    C414396   2.013   1.356  15.023 -0.1018  0.1265 -0.1586
    5TMC2    C514397   2.107   1.425  15.087  0.1600 -0.7719  0.7543
    5TMC2    C614398   2.125   1.409  15.223 -0.7535  0.8232  0.3557
    5TMC2     C14399   1.795   1.285  15.065  0.2275  0.5610 -0.4676
    5TMC2     O14400   1.712   1.222  15.128 -0.5264 -0.5568 -0.3742
    5TMC2     H14401   1.891   1.165  15.265  1.7759 -1.9987  0.3990
    5TMC2    H114402   2.014   1.378  14.917 -0.6561 -1.2649 -0.4512
    5TMC2    H214403   2.195   1.469  15.279  0.1070 -1.1558  1.4024
    5TMC2    C714404   2.090   1.566  15.051  0.5739  0.5395  0.0506
    5TMC2    C814405   2.074   1.288  15.417 -0.0981 -0.7863  0.3445
    5TMC2    O114406   1.990   1.590  14.986  0.3948  0.0914 -0.4048
    5TMC2    O214407   2.117   1.376  15.486  0.2962 -0.1484  0.0118
    5TMC2    O514408   2.065   1.155  15.443  0.1105 -0.3586 -0.2566
    5TMC2    H514409   2.059   1.093  15.367 -2.3104 -2.2642  1.5056
    6MPD2     C14410   1.439   1.635  14.962 -0.1543  0.0670 -0.6992
    6MPD2    C114411   1.563   1.689  14.929 -0.1757 -0.2058 -0.4726
    6MPD2    C214412   1.669   1.611  14.937  0.0262 -0.3513  0.1051
    6MPD2    C314413   1.665   1.481  14.983  0.0434  0.3019 -0.0244
    6MPD2    C414414   1.550   1.425  15.015  0.1375 -0.5651 -0.9627
    6MPD2    C514415   1.433   1.502  14.996  0.1639  0.4366 -0.5262
    6MPD2     H14416   1.764   1.662  14.926 -0.3292  0.2758 -0.0605
    6MPD2    H114417   1.533   1.322  15.043  0.7541 -0.1215  1.0261
    6MPD2    H214418   1.354   1.701  14.960 -2.1399 -2.5070 -0.6392
    6MPD2    H314419   1.338   1.452  15.008  0.3477  0.6623  1.9178
    6MPD2     N14420   1.787   1.408  15.007  0.9009  0.2064 -0.0925
    6MPD2    H514421   1.872   1.453  14.973  0.2730 -0.3780 -2.4672
    6MPD2    N114422   1.584   1.829  14.908 -0.8616 -0.7570  0.0495
    6MPD2    H714423   1.683   1.845  14.894 -0.8104 -0.1245  1.1738
  945NH4     N114424   1.001   1.365  15.675  1.0357  0.1162  0.4526
  945NH4     H214425   1.002   1.451  15.618 -1.9304 -0.3475 -0.2932
  945NH4     H314426   1.071   1.377  15.751  0.1061 -0.8123  1.4640
  945NH4     H414427   1.017   1.282  15.614 -1.9927  0.5491 -0.9388
  945NH4     H514428   0.910   1.382  15.722  1.2217  0.5507  0.6565
  946SOD     NA14429   0.188   3.702   2.055  0.1652  0.0509 -0.3362
  947SOD     NA14430   3.012   0.048  17.147 -0.2673  0.2163  0.0056
  948SOD     NA14431   0.149   3.528   5.036  0.0476 -0.3266  0.2912
  949SOD     NA14432   3.827   3.405  17.207 -0.3056 -0.1155  0.0327
  950SOD     NA14433   2.060   2.570   2.118  0.6927  0.4938  0.0647
  951SOD     NA14434   1.512   3.885   8.078  0.4969  0.9286  0.1098
  952SOD     NA14435   2.869   0.317  12.883  0.2347  0.3694 -0.2273
  953SOD     NA14436   2.095   1.402  11.820  0.4363 -0.4819  0.0948
  954SOD     NA14437   3.809   0.899  11.881  0.6122  0.3447  0.0313
  955SOD     NA14438   1.522   0.310  10.218  0.3604 -0.2940 -0.1353
  956SOD     NA14439   0.357   2.743  13.505  0.2714 -0.3276 -0.4116
  957SOD     NA14440   0.578   3.490  10.269  0.1935  0.1891 -0.2473
  958SOD     NA14441   1.696   2.617  15.182  0.5843 -0.1186  0.0672
  959SOD     NA14442   1.233   1.789  10.475  0.1968  0.4647  0.3134
  960SOD     NA14443   0.408   4.592  14.098 -0.0274 -0.1599  0.7564
  961SOD     NA14444   1.589   4.006   0.594  0.0746  0.0065 -0.0733
  962SOD     NA14445   3.402   2.581  15.095 -0.1351 -0.1960  0.4067
  963SOD     NA14446   1.598   4.149  10.127  0.3216  0.2157 -0.3562
  964SOD     NA14447   0.836   1.724   7.525  0.1038  0.4033  0.0225
  965SOD     NA14448   1.566   0.147  13.420  0.3283 -0.0334  0.1496
  966SOD     NA14449   0.920   0.397   9.405  0.1912  0.5394 -0.1247
  967SOD     NA14450   0.368   1.272  10.594  0.4769  0.1638  0.1742
  968SOD     NA14451   1.755   0.499  10.048 -0.3214 -0.6243  0.1325
  969SOD     NA14452   2.841   2.558  16.039  0.0073  0.4574 -0.1852
  970SOD     NA14453   3.985   3.580   9.035  0.2219  0.2351 -0.1213
  971SOD     NA14454   4.016   1.527  16.871  0.1168  0.3675 -0.1756
  972SOD     NA14455   3.161   1.043  13.450  0.3226 -0.5702 -0.1559
  973SOD     NA14456   1.881   0.690   2.077 -0.1034 -0.1604  0.2942
  974SOD     NA14457   1.145   1.515   5.124 -0.1775  0.4704 -0.3003
  975SOD     NA14458   1.926   4.200  11.515  0.3185 -0.0993 -0.0377
  976SOD     NA14459   0.656   4.157  14.120 -0.0339  0.2353  0.1352
  977SOD     NA14460   2.997   1.780  14.300  0.5619  0.7493 -0.5310
  978SOD     NA14461   2.904   1.177  11.454 -0.3915  0.1388  0.3656
  979SOD     NA14462   2.881   1.793   2.165 -0.1177  0.1420  0.3891
  980SOD     NA14463   2.106   3.137  14.657 -0.5168  0.2342 -0.0526
  981SOD     NA14464   2.266   3.425  11.480  0.3870 -0.0556 -0.2394
  982SOD     NA14465   0.761   1.732  11.571 -0.0479 -0.7080 -0.5082
  983SOD     NA14466   4.664   0.556   0.610 -0.0979  0.1883 -0.4899
  984SOD     NA14467   4.643   1.082   2.302  0.0910 -0.2911 -0.3079
  985SOD     NA14468   1.035   1.864  11.389  0.1343 -0.4019 -0.0966
  986SOD     NA14469   3.212   4.568   0.590  0.5153 -0.1089 -0.0952
  987SOD     NA14470   0.450   4.130   4.503  0.3656 -0.0680 -0.0954
  988SOD     NA14471   1.338   0.739   2.695 -0.1212 -0.5066 -0.5458
  989SOD     NA14472   3.427   2.595  16.278 -0.1333 -0.0146 -0.1895
  990SOD     NA14473   1.201   4.494  11.401 -0.1247 -0.3994  0.1674
  991SOD     NA14474   3.307   2.706   9.005 -0.0604 -0.2259  0.3729
  992SOD     NA14475   4.306   3.538  13.448 -0.0328  0.2768  0.1351
  993SOD     NA14476   4.469   3.209  11.694  0.2854  0.1618 -0.1013
  994SOD     NA14477   4.419   4.187   2.482  0.5042 -0.3565 -0.7431
  995SOD     NA14478   3.887   0.293   0.959  0.1867  0.0242 -0.2093
  996SOD     NA14479   4.716   4.551  12.803 -0.0808  0.1299 -0.2850
  997SOD     NA14480   1.637   3.021   0.817  0.0232 -0.2442 -0.5569
  998SOD     NA14481   2.665   0.017  11.960  0.1408  0.3279 -0.4948
  999SOD     NA14482   2.276   0.389  10.230 -0.0902 -0.2835  0.6888
 1000SOD     NA14483   2.060   3.302  11.719 -0.0875 -0.0365 -0.3443
 1001SOD     NA14484   3.095   0.852  14.526 -0.2197 -0.1641  0.2596
 1002SOD     NA14485   1.870   1.625  10.228 -0.4484 -0.2066 -0.0262
 1003SOD     NA14486   2.059   2.427   9.014  0.0447 -0.0894 -0.0690
 1004SOD     NA14487   4.633   1.449  13.989  0.0957 -0.2240 -0.5590
 1005SOD     NA14488   2.159   1.703   0.422  0.3547 -0.4576 -0.1490
 1006SOD     NA14489   2.034   0.562  11.011 -0.4289 -0.2358 -0.2524
 1007SOD     NA14490   3.381   1.496  15.200  0.6513  0.0538  0.4706
 1008SOD     NA14491   2.536   3.362   2.418  0.1934  0.1797 -0.1350
 1009SOD     NA14492   1.583   0.815  13.013 -0.1911 -0.1097  0.1457
 1010SOD     NA14493   3.031   0.742  14.233  0.5890  0.7808  0.3259
 1011SOL     OW14494   0.279   2.212   2.815 -0.0911 -0.0480 -0.6161
 1011SOL    HW114495   0.232   2.192   2.734 -0.1835 -0.4862 -0.4562
 1011SOL    HW214496   0.359   2.159   2.812 -1.5587 -2.4060  2.1507
 1012SOL     OW14497   3.932   2.457   5.958 -0.7564 -0.2431 -0.1741
 1012SOL    HW114498   3.854   2.464   5.902 -1.4072  1.7613  0.9644
 1012SOL    HW214499   3.895   2.450   6.046 -1.9709  0.7750 -0.5977
 1013SOL     OW14500   1.024   0.766   6.688  0.0336  0.2472  0.6269
 1013SOL    HW114501   1.057   0.847   6.727 -1.7524  1.5256 -0.5033
 1013SOL    HW214502   0.936   0.768   6.726 -0.6304  0.4055 -0.9235
 1014SOL     OW14503   2.201   1.239   1.774  0.0608 -0.1017  0.8287
 1014SOL    HW114504   2.149   1.160   1.792 -0.2713  0.0265  0.4151
 1014SOL    HW214505   2.221   1.206   1.687  0.4387  0.9383  0.5290
 1015SOL     OW14506   1.263   0.561   7.882  0.0778 -0.4414 -0.5292
 1015SOL    HW114507   1.312   0.504   7.823  3.5041  0.9748  0.8707
 1015SOL    HW214508   1.238   0.634   7.825  0.2951  0.5339  0.6032
 1016SOL     OW14509   4.562   3.896   0.820  0.8284  0.4458 -0.0606
 1016SOL    HW114510   4.490   3.904   0.882 -1.3683  0.3664 -2.5881
 1016SOL    HW214511   4.594   3.985   0.804 -2.1726  0.5915 -5.4344
 1017SOL     OW14512   1.079   3.279  17.048  0.2759 -0.0414 -0.1387
 1017SOL    HW114513   1.003   3.321  17.007 -0.0604 -1.1299 -0.6290
 1017SOL    HW214514   1.092   3.199  16.996  0.4916 -0.2372  0.2158
 1018SOL     OW14515   4.489   2.972   1.322  0.6350  0.2663  1.1529
 1018SOL    HW114516   4.582   2.964   1.339  1.1676  1.2652 -1.2935
 1018SOL    HW214517   4.484   3.067   1.311 -3.0303 -0.0811 -0.3707
 1019SOL     OW14518   3.292   2.134   2.686  0.4269 -0.2990  0.2956
 1019SOL    HW114519   3.255   2.183   2.759  2.1438  2.9953 -1.0611
 1019SOL    HW214520   3.249   2.052   2.711 -2.5021  1.2976  0.3642
 1020SOL     OW14521   3.178   1.083  10.415  0.1214  0.5504 -0.3559
 1020SOL    HW114522   3.134   1.098  10.499 -1.5114 -2.4049 -0.7098
 1020SOL    HW214523   3.118   1.029  10.365 -0.0712  0.0623  0.4072
 1021SOL     OW14524   4.348   0.657   6.556 -0.1958  0.4761  0.4184
 1021SOL    HW114525   4.401   0.735   6.570  1.9217 -0.6719 -1.3519
 1021SOL    HW214526   4.326   0.654   6.463 -2.1145  0.4575  0.8765
 1022SOL     OW14527   0.958   0.486  14.208 -0.1019 -0.0609 -0.0900
 1022SOL    HW114528   1.041   0.494  14.255  0.9308 -3.5474 -1.3413
 1022SOL    HW214529   0.907   0.433  14.269 -0.1024  0.5196  0.4137
 1023SOL     OW14530   0.185   0.928  16.845 -0.1053 -0.3298 -0.3089
 1023SOL    HW114531   0.166   0.889  16.930 -1.3808  2.1214  0.5459
 1023SOL    HW214532   0.147   1.015  16.863 -0.5092 -0.7366  0.8481
 1024SOL     OW14533   2.816   1.147   3.500 -0.8515 -0.0748 -0.0780
 1024SOL    HW114534   2.723   1.171   3.493 -0.5767  1.2371  0.7386
 1024SOL    HW214535   2.829   1.109   3.413  1.5074  0.0763  0.2219
 1025SOL     OW14536   0.344   3.694   7.007  0.0982 -0.2418  0.0792
 1025SOL    HW114537   0.396   3.632   7.057 -0.8443  0.1174  1.4916
 1025SOL    HW214538   0.302   3.740   7.079 -1.4400 -0.6973 -0.5282
 1026SOL     OW14539   2.769   3.029  16.389 -0.5333  0.2965 -0.3707
 1026SOL    HW114540   2.770   3.095  16.459  0.0497 -0.6445  0.5062
 1026SOL    HW214541   2.787   3.077  16.308  2.9150  0.1105  0.2910
 1027SOL     OW14542   3.408   0.032   5.148  0.6495  0.4550 -0.4565
 1027SOL    HW114543   3.383   0.120   5.122  0.1050  0.0918 -1.1733
 1027SOL    HW214544   3.450   0.001   5.068 -1.3081  0.9668 -1.6733
 1028SOL     OW14545   1.415   4.034   2.533 -0.0684 -0.2106  0.4639
 1028SOL    HW114546   1.323   4.047   2.509  0.3400  1.1707 -0.2950
 1028SOL    HW214547   1.451   4.122   2.536  1.6347 -0.9554  1.5532
 1029SOL     OW14548   1.403   1.954   7.651 -0.1388 -0.3750  0.0055
 1029SOL    HW114549   1.308   1.961   7.644 -0.1560 -0.4139  0.1912
 1029SOL    HW214550   1.421   1.891   7.721  3.2575  0.3307 -0.2694
 1030SOL     OW14551   4.500   2.660   5.400  0.0008  0.2418  0.3561
 1030SOL    HW114552   4.519   2.718   5.474 -0.3849 -0.8188  1.2812
 1030SOL    HW214553   4.487   2.722   5.329 -2.0188  1.2376  1.6144
 1031SOL     OW14554   0.163   1.667   5.798  0.2798 -0.6836 -0.5934
 1031SOL    HW114555   0.229   1.598   5.800  0.0109 -0.9355 -0.4454
 1031SOL    HW214556   0.092   1.617   5.759 -1.3664  0.2135  1.2084
 1032SOL     OW14557   1.516   0.248   3.958  0.7045 -0.3775 -1.1354
 1032SOL    HW114558   1.531   0.186   3.886  2.2144  0.6381 -1.7038
 1032SOL    HW214559   1.538   0.327   3.909  0.1897  0.7566  0.4701
 1033SOL     OW14560   3.200   2.884   1.890 -0.0727  0.7257 -0.1165
 1033SOL    HW114561   3.112   2.920   1.888 -1.7008 -3.1703  1.0113
 1033SOL    HW214562   3.246   2.938   1.826 -1.0185 -0.5756 -1.8980
 1034SOL     OW14563   1.275   0.242   5.114 -0.2364 -0.0964  0.2596
 1034SOL    HW114564   1.212   0.186   5.068  1.0215 -1.0574 -0.2884
 1034SOL    HW214565   1.322   0.169   5.153 -0.4831  1.1512  2.9563
 1035SOL     OW14566   2.263   4.590   1.964 -0.0898  0.2020 -0.5888
 1035SOL    HW114567   2.232   4.545   1.885  0.4057  0.6776 -1.0539
 1035SOL    HW214568   2.249   4.681   1.940 -0.9765  0.2071 -0.0543
 1036SOL     OW14569   2.637   0.553   1.654  0.9733 -1.0206 -0.3301
 1036SOL    HW114570   2.731   0.533   1.659  1.1790  0.4243  1.6643
 1036SOL    HW214571   2.638   0.627   1.714 -3.1017 -1.5129  0.3366
 1037SOL     OW14572   1.898   0.620   4.254 -0.2586  0.0185  0.5261
 1037SOL    HW114573   1.985   0.639   4.289 -0.4531 -1.1137  1.5889
 1037SOL    HW214574   1.848   0.627   4.335 -0.0482  0.9854  0.5770
 1038SOL     OW14575   4.427   3.222   2.118  0.0220  0.1255  0.6852
 1038SOL    HW114576   4.417   3.135   2.156  0.7792 -0.6927 -1.0181
 1038SOL    HW214577   4.509   3.256   2.153 -0.3573  0.3708  1.3250
 1039SOL     OW14578   3.182   1.265  12.674  0.5834 -0.3857  0.2658
 1039SOL    HW114579   3.260   1.270  12.619  1.9999 -0.6418  2.2254
 1039SOL    HW214580   3.150   1.354  12.666 -1.5782 -1.1210  0.8221
 1040SOL     OW14581   2.087   1.916   7.652  0.4122 -0.6875 -0.1136
 1040SOL    HW114582   2.048   1.836   7.689 -2.0907  0.9965  0.9343
 1040SOL    HW214583   2.134   1.883   7.576  0.5108 -1.4875  0.2858
 1041SOL     OW14584   0.149   4.570   6.282 -0.3645 -0.2634  0.2940
 1041SOL    HW114585   0.100   4.596   6.205  1.1291 -1.2919 -1.0102
 1041SOL    HW214586   0.231   4.620   6.286 -0.4681  0.0044 -0.8797
 1042SOL     OW14587   1.823   3.711   8.165 -0.7324  0.1402 -0.3945
 1042SOL    HW114588   1.887   3.724   8.095 -0.2268  0.0913  0.0596
 1042SOL    HW214589   1.843   3.625   8.202  3.6428  0.6449 -1.5875
 1043SOL     OW14590   0.058   1.945   3.459 -0.2522 -0.3378 -0.4736
 1043SOL    HW114591   0.150   1.949   3.433 -1.2086 -0.0690 -3.7497
 1043SOL    HW214592   0.021   1.867   3.419  1.8994 -0.4680 -2.1902
 1044SOL     OW14593   0.232   3.788   7.831 -0.3145 -0.1152 -0.2823
 1044SOL    HW114594   0.322   3.757   7.841 -0.0614  0.5102 -0.5858
 1044SOL    HW214595   0.210   3.840   7.909  1.7623  3.2813 -1.9734
 1045SOL     OW14596   1.132   2.035   7.586 -0.0976  0.0265 -0.9475
 1045SOL    HW114597   1.097   2.084   7.661 -0.1108 -1.9523  0.3395
 1045SOL    HW214598   1.100   2.098   7.522 -2.5263 -0.2123  0.0497
 1046SOL     OW14599   0.774   1.133   1.739 -0.0142  0.2016  0.4138
 1046SOL    HW114600   0.760   1.039   1.748 -1.3028  0.4504  1.0240
 1046SOL    HW214601   0.864   1.124   1.709  0.0630 -1.2966  1.1159
 1047SOL     OW14602   1.418   0.576   6.343 -0.3683 -0.7909  0.0436
 1047SOL    HW114603   1.463   0.660   6.336 -1.4092 -0.2510 -0.1741
 1047SOL    HW214604   1.429   0.561   6.437  1.2477 -1.6207 -0.2966
 1048SOL     OW14605   1.841   0.599   3.970 -0.1423  0.5943  0.4427
 1048SOL    HW114606   1.904   0.553   3.914  0.1218 -0.5159  1.6510
 1048SOL    HW214607   1.879   0.592   4.057 -0.7348 -3.0568  0.4148
 1049SOL     OW14608   2.686   0.625  11.383 -0.4153  0.2761 -0.1581
 1049SOL    HW114609   2.657   0.707  11.342  1.8051  1.0642 -0.1125
 1049SOL    HW214610   2.696   0.655  11.473  1.4295 -1.0491  0.0761
 1050SOL     OW14611   2.022   2.629   1.143  0.4827 -0.0361 -0.3249
 1050SOL    HW114612   1.945   2.668   1.184  1.2789 -0.9120  2.0442
 1050SOL    HW214613   1.991   2.656   1.056  0.5555  0.3024 -0.2459
 1051SOL     OW14614   4.035   2.470   9.679  0.8166  0.2102 -0.7288
 1051SOL    HW114615   4.040   2.460   9.584 -3.0504 -0.4725 -0.8401
 1051SOL    HW214616   4.030   2.565   9.694  1.1541  0.4157 -1.9414
 1052SOL     OW14617   2.963   3.839   3.039  0.6930 -0.1041  0.2927
 1052SOL    HW114618   2.973   3.871   3.129  0.4637 -0.1978  0.3516
 1052SOL    HW214619   3.057   3.843   3.020  0.2514  2.2499 -1.2667
 1053SOL     OW14620   1.529   3.483   3.201 -0.4145 -0.5361 -0.1186
 1053SOL    HW114621   1.563   3.393   3.201  1.4779  0.2012  3.2202
 1053SOL    HW214622   1.595   3.521   3.258 -0.4391  1.7215 -1.6177
 1054SOL     OW14623   0.238   2.263  12.100 -0.4396  0.4432  0.4835
 1054SOL    HW114624   0.319   2.291  12.144  1.0790 -0.3704 -1.8063
 1054SOL    HW214625   0.205   2.189  12.150 -1.3500 -1.3756 -2.8223
 1055SOL     OW14626   0.160   0.049   7.516 -0.2297  0.1536  0.4331
 1055SOL    HW114627   0.207   0.061   7.599 -0.2837 -0.8014  0.6060
 1055SOL    HW214628   0.126   0.136   7.496 -0.7045  0.4841  2.5886
 1056SOL     OW14629   3.804   0.112   3.424  0.3433 -0.2504  0.5357
 1056SOL    HW114630   3.889   0.096   3.465 -0.2041 -0.8689  1.4307
 1056SOL    HW214631   3.747   0.093   3.498  0.5655  1.4915  1.1496
 1057SOL     OW14632   4.630   0.021  13.274 -0.2125  0.3052  0.4367
 1057SOL    HW114633   4.676   0.049  13.354 -0.7547 -0.0503  0.8687
 1057SOL    HW214634   4.601   0.104  13.237 -1.0310 -1.7411 -3.4446
 1058SOL     OW14635   0.083   2.077   4.364  0.6630  0.1197 -0.4670
 1058SOL    HW114636   0.067   2.025   4.285  2.6719 -1.7357  0.3467
 1058SOL    HW214637   0.143   2.142   4.327  1.1715 -0.3561 -0.4864
 1059SOL     OW14638   1.633   0.024   1.135  0.1539 -0.4222  0.5607
 1059SOL    HW114639   1.627   0.025   1.231 -4.5437  1.4603  0.2030
 1059SOL    HW214640   1.622   0.109   1.094 -0.3794 -0.4527  0.6502
 1060SOL     OW14641   1.935   4.105   0.981 -0.2254 -0.0666 -0.4682
 1060SOL    HW114642   1.896   4.110   1.068  0.4852  0.3800 -0.1727
 1060SOL    HW214643   1.892   4.177   0.933  3.1080  1.7473 -0.7613
 1061SOL     OW14644   4.540   4.665  10.766  0.2843  0.4853 -0.3875
 1061SOL    HW114645   4.517   4.653  10.858  0.4098 -0.3979 -0.4621
 1061SOL    HW214646   4.486   4.597  10.726  0.5989  0.3531 -0.5921
 1062SOL     OW14647   3.428   0.067  16.970  0.1839  0.0485  0.0503
 1062SOL    HW114648   3.442   4.707  17.016  0.6380 -0.0538 -0.2715
 1062SOL    HW214649   3.491   0.070  16.898  1.9735 -1.4752  1.5369
 1063SOL     OW14650   3.199   3.950   5.152 -0.1769 -0.0184  0.3630
 1063SOL    HW114651   3.240   3.967   5.067 -2.5395  1.6369 -0.4535
 1063SOL    HW214652   3.237   3.865   5.172 -0.7883 -1.0395 -2.7969
 1064SOL     OW14653   2.557   2.186  15.504  0.0348 -0.1567 -0.5051
 1064SOL    HW114654   2.604   2.104  15.491 -0.9615 -1.1539  2.2413
 1064SOL    HW214655   2.515   2.205  15.420  0.0574  0.5242 -0.3627
 1065SOL     OW14656   2.960   2.067   0.824  0.3912 -0.0451  0.2556
 1065SOL    HW114657   2.933   2.072   0.732 -0.2906 -2.2477  0.3242
 1065SOL    HW214658   2.956   2.156   0.858  2.9071 -0.1637  0.8560
 1066SOL     OW14659   3.922   4.361   6.786 -0.5524  0.3164  0.3698
 1066SOL    HW114660   3.886   4.449   6.774  3.6009  1.9214 -0.4083
 1066SOL    HW214661   3.959   4.368   6.874 -0.0819  0.6267  0.1459
 1067SOL     OW14662   3.185   0.721   5.147 -0.4911 -0.0376 -0.5915
 1067SOL    HW114663   3.132   0.801   5.143  0.1780  0.4029 -0.7491
 1067SOL    HW214664   3.236   0.720   5.066  1.2100  2.1274  0.4490
 1068SOL     OW14665   0.837   0.699  16.330  0.2392 -0.1136  0.4733
 1068SOL    HW114666   0.913   0.642  16.318  0.1179 -0.4436  1.3378
 1068SOL    HW214667   0.768   0.650  16.285 -0.3429  2.5057 -1.4809
 1069SOL     OW14668   2.779   2.469   3.106  0.3249  0.7549  0.0527
 1069SOL    HW114669   2.844   2.529   3.071 -0.3707  1.3762 -0.1954
 1069SOL    HW214670   2.842   2.410   3.147  0.7026  1.2954  0.2480
 1070SOL     OW14671   3.785   4.191   8.963  0.2987 -0.3548  0.1651
 1070SOL    HW114672   3.794   4.272   8.912  0.7541  0.1127  0.9789
 1070SOL    HW214673   3.812   4.223   9.049 -0.2941  0.8961 -0.1019
 1071SOL     OW14674   2.032   2.043   1.166 -0.0271  0.3636 -0.0673
 1071SOL    HW114675   2.082   2.071   1.243 -1.3126 -0.1889  0.9730
 1071SOL    HW214676   2.050   1.949   1.159 -2.7820 -0.2282  0.8814
 1072SOL     OW14677   1.808   3.545   4.607  0.4874  0.0069 -0.2660
 1072SOL    HW114678   1.748   3.616   4.587  2.9083  2.5696  1.6213
 1072SOL    HW214679   1.787   3.544   4.700 -3.0485  0.6629 -1.0711
 1073SOL     OW14680   3.078   4.067  13.335 -0.7168 -0.3218 -0.5141
 1073SOL    HW114681   3.137   4.069  13.259  1.7457  0.9650  1.4694
 1073SOL    HW214682   3.107   4.138  13.390 -0.2907 -0.9029  0.0067
 1074SOL     OW14683   4.447   3.018  10.732 -0.4420 -0.5174 -0.3581
 1074SOL    HW114684   4.369   3.033  10.785 -1.1603  0.4298 -1.6986
 1074SOL    HW214685   4.422   3.059  10.649 -0.2011  2.2850  0.9657
 1075SOL     OW14686   2.176   3.604  12.432 -0.0697  0.8604  0.5266
 1075SOL    HW114687   2.256   3.578  12.385 -0.0177  0.8726  0.6074
 1075SOL    HW214688   2.188   3.572  12.522 -1.2340  0.3111  0.4827
 1076SOL     OW14689   0.922   0.909   3.966  0.7777  0.0889  0.3472
 1076SOL    HW114690   0.884   0.891   3.880 -1.6153 -2.4209  1.9531
 1076SOL    HW214691   0.972   0.828   3.976 -0.5185 -0.7882 -0.2709
 1077SOL     OW14692   1.009   2.152  15.968  0.1819  0.2861 -0.2511
 1077SOL    HW114693   1.007   2.102  15.886 -0.0513  1.1345 -0.7645
 1077SOL    HW214694   0.959   2.226  15.934  1.0621 -0.1246 -2.4383
 1078SOL     OW14695   1.994   2.547   7.015  0.1615  0.1297 -0.3291
 1078SOL    HW114696   1.962   2.580   6.931 -2.2222 -2.0411 -0.2612
 1078SOL    HW214697   1.914   2.503   7.040  0.0764  0.2869 -0.3254
 1079SOL     OW14698   1.890   3.967   6.174 -0.0138 -0.4131  0.0614
 1079SOL    HW114699   1.946   4.016   6.114  0.3370  1.5568  2.0000
 1079SOL    HW214700   1.838   3.904   6.125  1.4558 -3.1418  2.0266
 1080SOL     OW14701   4.660   2.729  14.614  0.7379 -0.0818 -0.0952
 1080SOL    HW114702   4.678   2.692  14.701  0.2455 -1.7119 -0.6926
 1080SOL    HW214703   4.598   2.669  14.574 -0.7505  1.2978  0.1469
 1081SOL     OW14704   3.631   2.493   3.314 -0.4501 -0.6040  0.0631
 1081SOL    HW114705   3.617   2.398   3.314  0.5821 -0.7888  2.8658
 1081SOL    HW214706   3.723   2.501   3.288 -0.6727  0.5010 -0.3731
 1082SOL     OW14707   1.416   0.956   2.731 -0.3091 -0.2382 -0.8903
 1082SOL    HW114708   1.449   0.979   2.818 -2.4505  1.8994 -0.6416
 1082SOL    HW214709   1.376   1.037   2.699 -1.8695 -0.4377  0.5582
 1083SOL     OW14710   4.394   3.541  15.834 -0.0479 -0.6624  0.6528
 1083SOL    HW114711   4.395   3.594  15.754 -0.1030 -0.5736  0.7117
 1083SOL    HW214712   4.363   3.455  15.807  0.3531 -0.1385 -1.4509
 1084SOL     OW14713   2.496   2.585   5.781 -0.6904 -0.0206 -0.6996
 1084SOL    HW114714   2.509   2.678   5.758 -2.0632  0.9218  2.3884
 1084SOL    HW214715   2.405   2.576   5.753 -1.1093  1.6392  0.1213
 1085SOL     OW14716   0.857   1.330  15.359 -0.0547 -0.1554 -0.4375
 1085SOL    HW114717   0.843   1.251  15.412  1.3011 -0.1560 -0.0824
 1085SOL    HW214718   0.831   1.296  15.273  0.3897  0.9292 -1.0002
 1086SOL     OW14719   0.004   4.158   4.287  0.2756 -0.5714  0.0566
 1086SOL    HW114720   4.634   4.180   4.278 -0.2098 -1.7514  2.2216
 1086SOL    HW214721   0.044   4.188   4.205  2.6499  0.7280  1.7065
 1087SOL     OW14722   0.513   4.516   9.768 -0.1448 -0.4014 -0.6679
 1087SOL    HW114723   0.559   4.433   9.775 -0.3449 -0.3476  1.2428
 1087SOL    HW214724   0.547   4.541   9.682  0.6297 -2.8897 -1.0774
 1088SOL     OW14725   1.436   3.870   7.577  0.3922  0.1849 -0.3502
 1088SOL    HW114726   1.524   3.835   7.589  0.2641 -0.2691 -0.7463
 1088SOL    HW214727   1.447   3.964   7.586  1.6614  0.0216 -0.2592
 1089SOL     OW14728   2.568   4.383   8.172 -0.0604 -0.1225  0.1756
 1089SOL    HW114729   2.581   4.368   8.266  0.1666  0.3386  0.2181
 1089SOL    HW214730   2.475   4.403   8.183 -0.5331 -0.9860 -2.2530
 1090SOL     OW14731   3.438   4.289  12.021  0.1722  0.4218  0.3204
 1090SOL    HW114732   3.433   4.206  11.973 -1.1247  0.3856  0.5111
 1090SOL    HW214733   3.347   4.317  12.015 -0.4883 -1.7604 -0.0412
 1091SOL     OW14734   4.269   2.810   9.000  0.4423 -0.0781  0.1722
 1091SOL    HW114735   4.352   2.851   8.974  0.1944 -1.2198 -2.4465
 1091SOL    HW214736   4.216   2.833   8.924 -0.9473  0.4669  1.3253
 1092SOL     OW14737   2.937   1.934   8.225  0.1127 -0.0958 -0.1265
 1092SOL    HW114738   2.949   1.886   8.308  0.7303 -2.2712 -1.4620
 1092SOL    HW214739   2.968   1.879   8.153 -1.3845 -0.9594 -0.1309
 1093SOL     OW14740   0.047   4.021  14.554  0.1724  0.1806  0.2513
 1093SOL    HW114741   0.079   3.934  14.529  2.4540  1.3992 -1.0755
 1093SOL    HW214742   0.116   4.085  14.539 -0.6719  1.2421  0.8509
 1094SOL     OW14743   4.068   2.048   7.491  0.1418  0.3644  0.2825
 1094SOL    HW114744   4.006   2.075   7.559 -0.5956 -1.6129  0.3739
 1094SOL    HW214745   4.151   2.062   7.537  0.3420  2.2782 -0.6409
 1095SOL     OW14746   4.434   0.326   7.900 -0.5483 -0.1733 -0.4666
 1095SOL    HW114747   4.390   0.411   7.897 -0.2539  0.0741  1.9689
 1095SOL    HW214748   4.360   0.274   7.869 -0.3345  0.4645 -2.0304
 1096SOL     OW14749   0.081   0.907   3.911 -0.2656 -0.5069  0.1470
 1096SOL    HW114750   0.020   0.934   3.980 -0.1437 -0.2834  0.1661
 1096SOL    HW214751   0.034   0.928   3.831  0.5412  2.6326  0.4870
 1097SOL     OW14752   4.566   4.236   1.140  0.2831 -0.1107 -0.2489
 1097SOL    HW114753   4.525   4.288   1.070  3.3194 -0.2237 -2.0875
 1097SOL    HW214754   4.495   4.245   1.204  0.6265 -3.4710  0.6299
 1098SOL     OW14755   1.252   2.136   6.549  0.3690  0.2850 -0.0950
 1098SOL    HW114756   1.217   2.073   6.611 -2.1543  1.8161  0.0729
 1098SOL    HW214757   1.275   2.075   6.479  0.2542 -0.6313  0.6651
 1099SOL     OW14758   1.014   1.004   1.078 -0.2737  0.4310 -0.1455
 1099SOL    HW114759   0.997   1.098   1.083  0.4010  0.4801  1.2004
 1099SOL    HW214760   0.931   0.969   1.111 -1.2423  1.3054 -1.6304
 1100SOL     OW14761   3.728   2.208  15.861 -0.0872 -0.1088  0.4523
 1100SOL    HW114762   3.781   2.149  15.807 -0.4219  0.3747 -0.4023
 1100SOL    HW214763   3.791   2.257  15.912  1.8799 -1.4868 -0.6564
 1101SOL     OW14764   1.540   4.342  10.231  0.1289  0.7401  0.1704
 1101SOL    HW114765   1.459   4.376  10.194  0.3575  1.8136  0.6410
 1101SOL    HW214766   1.565   4.405  10.299  2.0207  1.5092 -1.2478
 1102SOL     OW14767   3.322   0.634   2.473  0.3682  0.2671 -0.0193
 1102SOL    HW114768   3.383   0.669   2.408  1.2637 -0.4225  0.4659
 1102SOL    HW214769   3.334   0.697   2.545  0.5051  0.2163  0.0018
 1103SOL     OW14770   3.944   2.338   9.202 -0.4814  0.3719 -0.5172
 1103SOL    HW114771   4.014   2.311   9.143 -1.2559  1.4847 -1.9224
 1103SOL    HW214772   3.891   2.258   9.212  0.4799 -0.1748  0.1897
 1104SOL     OW14773   0.170   2.100  12.305  0.1083 -0.2935  0.1643
 1104SOL    HW114774   0.191   2.094  12.399  3.1454  0.0531 -0.4868
 1104SOL    HW214775   0.133   2.015  12.281  0.1173 -0.7725  1.8289
 1105SOL     OW14776   3.791   0.107  14.189  0.2378 -0.2674 -0.2612
 1105SOL    HW114777   3.749   0.189  14.214 -2.6408 -0.5842 -3.9760
 1105SOL    HW214778   3.718   0.050  14.165  2.3660 -3.2157  0.2832
 1106SOL     OW14779   0.528   0.869   6.149 -0.5793  0.4045  0.1169
 1106SOL    HW114780   0.611   0.885   6.194 -0.5696 -1.9036  0.9260
 1106SOL    HW214781   0.496   0.781   6.172  2.0763 -1.0255 -1.7135
 1107SOL     OW14782   2.222   0.973   2.366 -0.5927 -0.2901  0.2127
 1107SOL    HW114783   2.202   0.938   2.452  1.3972  0.9426  1.1576
 1107SOL    HW214784   2.166   1.049   2.384  1.2220  1.2148 -0.5053
 1108SOL     OW14785   3.555   1.934  13.467  0.6562 -0.0198  0.2299
 1108SOL    HW114786   3.546   1.941  13.562 -0.0269 -0.0571  0.1682
 1108SOL    HW214787   3.608   1.857  13.448  0.5212  0.9273 -4.0240
 1109SOL     OW14788   3.361   0.715   6.007 -0.0439 -0.1152 -0.3417
 1109SOL    HW114789   3.379   0.792   6.061  1.7101 -1.0073  0.3387
 1109SOL    HW214790   3.278   0.740   5.967 -0.8935 -0.0608  1.4465
 1110SOL     OW14791   3.375   1.591   7.841 -0.3285  0.1635  0.3843
 1110SOL    HW114792   3.450   1.641   7.874 -0.9226 -0.1083  2.1581
 1110SOL    HW214793   3.400   1.500   7.856  0.0683 -0.0484 -1.6561
 1111SOL     OW14794   2.807   0.480  13.266  0.1366  0.9971 -0.0825
 1111SOL    HW114795   2.715   0.494  13.288  0.0972  0.4354  0.1147
 1111SOL    HW214796   2.805   0.384  13.262  1.4657  0.9371  0.8064
 1112SOL     OW14797   4.154   2.780   6.167  0.2161 -0.0142  0.2768
 1112SOL    HW114798   4.225   2.727   6.204  0.0227  0.3075  1.1160
 1112SOL    HW214799   4.117   2.825   6.243  0.2918  0.1346  0.2247
 1113SOL     OW14800   3.057   0.090   2.906  0.1356 -0.3469 -0.4085
 1113SOL    HW114801   3.043   0.173   2.861  1.0088 -0.2223 -0.4600
 1113SOL    HW214802   2.966   0.061   2.910 -0.2470  0.8169 -0.8059
 1114SOL     OW14803   2.542   0.811   7.569 -0.3191 -0.0387  0.6740
 1114SOL    HW114804   2.534   0.744   7.636 -0.0375 -0.0561  0.6906
 1114SOL    HW214805   2.619   0.772   7.528  0.2566  2.0661 -0.2641
 1115SOL     OW14806   2.140   4.263  10.008  0.0362 -0.3395  0.2509
 1115SOL    HW114807   2.047   4.281  10.021  0.0195  0.5506 -1.1310
 1115SOL    HW214808   2.177   4.314  10.080 -0.3480 -1.3090  1.1364
 1116SOL     OW14809   2.625   0.942   3.987 -0.1761 -0.1774  0.0409
 1116SOL    HW114810   2.674   0.943   3.905 -1.4663  1.9567 -0.7030
 1116SOL    HW214811   2.549   1.000   3.979  0.5954  0.9546  0.7828
 1117SOL     OW14812   2.499   3.689   6.179  0.1694 -0.4220  0.2694
 1117SOL    HW114813   2.420   3.672   6.128  0.6237  0.3049 -0.6649
 1117SOL    HW214814   2.476   3.775   6.212  0.3897 -1.0150  1.9573
 1118SOL     OW14815   2.894   1.437  11.404 -0.4441  0.3049 -0.3890
 1118SOL    HW114816   2.910   1.469  11.316 -0.6459 -1.6355 -1.1374
 1118SOL    HW214817   2.986   1.439  11.429 -0.9481 -2.9839  1.7808
 1119SOL     OW14818   0.732   3.433   4.775 -0.1904  0.1906 -0.1244
 1119SOL    HW114819   0.735   3.484   4.856 -0.5632  0.1038 -0.0588
 1119SOL    HW214820   0.820   3.397   4.763 -1.1691 -2.3754  0.5600
 1120SOL     OW14821   4.315   2.076  12.497 -0.0472  0.4918  0.1497
 1120SOL    HW114822   4.366   2.023  12.559  1.4324  0.1378 -1.3687
 1120SOL    HW214823   4.229   2.043  12.523 -1.1380  2.5657 -0.8038
 1121SOL     OW14824   0.290   4.343   2.263 -0.0974  0.1314 -0.2506
 1121SOL    HW114825   0.246   4.404   2.204 -0.6325  1.0366  1.0599
 1121SOL    HW214826   0.257   4.260   2.228  1.0559 -0.5075  0.1766
 1122SOL     OW14827   2.114   1.553  13.862  0.0652 -0.0562 -0.6320
 1122SOL    HW114828   2.037   1.528  13.912  0.5392 -2.7354 -1.2282
 1122SOL    HW214829   2.148   1.607  13.934  1.2676 -0.9628 -0.5130
 1123SOL     OW14830   3.427   0.289  17.142 -0.4756 -0.2206  0.3623
 1123SOL    HW114831   3.436   0.211  17.087 -1.4923 -1.5928  2.1658
 1123SOL    HW214832   3.489   0.352  17.103  2.7065 -1.5174  3.3228
 1124SOL     OW14833   1.280   1.949  15.239  0.5085 -0.3989  0.2843
 1124SOL    HW114834   1.308   1.903  15.318 -0.5540  0.5406  1.2189
 1124SOL    HW214835   1.358   1.958  15.185 -0.5803 -1.4055 -1.4382
 1125SOL     OW14836   0.538   1.763   5.210  0.6350 -0.4383  0.2756
 1125SOL    HW114837   0.590   1.789   5.134 -1.8085  1.7116 -0.6890
 1125SOL    HW214838   0.525   1.848   5.252  0.3268 -1.3953  2.1395
 1126SOL     OW14839   1.265   3.460   9.304 -0.5435 -0.0651 -0.5442
 1126SOL    HW114840   1.356   3.474   9.277 -0.4662  3.4383  1.5285
 1126SOL    HW214841   1.226   3.538   9.266 -1.3731  0.3076  1.0657
 1127SOL     OW14842   3.187   4.261   3.154  0.4107  0.3780 -0.4955
 1127SOL    HW114843   3.191   4.167   3.175 -0.9919  0.6815  1.1271
 1127SOL    HW214844   3.148   4.301   3.231  2.2567 -2.3713  1.9160
 1128SOL     OW14845   0.170   2.720   4.163  0.7192  0.0526 -0.4487
 1128SOL    HW114846   0.108   2.737   4.092  0.7842  0.8354 -0.3204
 1128SOL    HW214847   0.246   2.770   4.134  0.1647  1.0382 -0.1933
 1129SOL     OW14848   0.418   2.649   3.558 -0.7592  0.1375  0.0152
 1129SOL    HW114849   0.434   2.743   3.565  1.4569 -0.1574 -0.9371
 1129SOL    HW214850   0.353   2.635   3.627  1.6736 -1.5683  1.9073
 1130SOL     OW14851   3.352   4.057  10.569  0.3673  0.7748  0.0187
 1130SOL    HW114852   3.390   4.134  10.525  0.6013  0.1451 -0.8973
 1130SOL    HW214853   3.387   3.977  10.530  1.9176  1.8113 -0.7416
 1131SOL     OW14854   2.759   0.105   8.343  0.0293 -0.1964 -0.4501
 1131SOL    HW114855   2.687   0.147   8.297 -0.2769  0.3319  0.5049
 1131SOL    HW214856   2.748   0.145   8.429  4.0423 -0.6388  0.2528
 1132SOL     OW14857   2.992   2.395   5.565  0.7721  0.1624 -0.1596
 1132SOL    HW114858   2.931   2.328   5.535  0.8543 -0.2816  0.6761
 1132SOL    HW214859   2.933   2.468   5.547 -0.0698 -1.0968 -2.5181
 1133SOL     OW14860   1.574   1.472   6.933 -0.5533  0.3267 -0.5677
 1133SOL    HW114861   1.510   1.527   6.977 -0.1000 -0.4964  1.1412
 1133SOL    HW214862   1.638   1.536   6.899  1.0227 -0.2152  1.3688
 1134SOL     OW14863   0.719   4.615   5.153  0.2074 -0.1289  0.2983
 1134SOL    HW114864   0.760   4.604   5.239  2.1684 -1.9522 -0.8836
 1134SOL    HW214865   0.707   4.710   5.146 -2.0572 -0.3562  1.0375
 1135SOL     OW14866   0.351   2.520   2.721  0.3259 -0.3312 -0.3350
 1135SOL    HW114867   0.363   2.540   2.628 -0.7768 -0.4278 -0.4982
 1135SOL    HW214868   0.271   2.468   2.717  0.9873 -1.4795  1.5474
 1136SOL     OW14869   3.561   1.896   8.348 -0.0345 -0.2362 -0.1780
 1136SOL    HW114870   3.628   1.933   8.406  1.7102 -1.1031 -1.6376
 1136SOL    HW214871   3.485   1.917   8.402  0.9500 -0.4879  1.3057
 1137SOL     OW14872   0.083   0.677   0.883  0.3733  0.1674  0.7740
 1137SOL    HW114873   0.050   0.763   0.909  0.2370  0.1584  0.6309
 1137SOL    HW214874   0.026   0.621   0.937 -1.1485  0.2746 -0.7151
 1138SOL     OW14875   4.469   3.829   0.000 -0.8395  0.0375  0.1976
 1138SOL    HW114876   4.427   3.787  17.616  1.3494 -2.9440  0.6355
 1138SOL    HW214877   4.521   3.890  17.640 -1.0046 -0.2165 -0.2713
 1139SOL     OW14878   4.625   1.037   3.244  0.2817 -0.5637 -0.2854
 1139SOL    HW114879   4.598   1.079   3.162 -2.0136 -1.0629  0.2397
 1139SOL    HW214880   4.651   0.952   3.209 -1.5390 -1.9015  1.6199
 1140SOL     OW14881   1.132   0.452   8.798  0.1108  0.0608  0.4909
 1140SOL    HW114882   1.202   0.477   8.737  0.0648 -0.2328  0.3154
 1140SOL    HW214883   1.061   0.508   8.767 -0.4741  0.9072  3.4312
 1141SOL     OW14884   3.950   0.120   3.971  0.4898 -0.1443 -0.2565
 1141SOL    HW114885   3.917   0.209   3.986  1.6628 -0.0607  1.8583
 1141SOL    HW214886   4.030   0.136   3.922  1.7985 -0.5026  1.7586
 1142SOL     OW14887   1.552   3.089   6.827 -0.4378  0.2914  0.2430
 1142SOL    HW114888   1.493   3.120   6.896 -1.0439  0.5152 -0.3737
 1142SOL    HW214889   1.503   3.054   6.752  0.9800  1.0763 -1.0517
 1143SOL     OW14890   3.907   2.059  15.738 -0.7271  0.1204  0.0682
 1143SOL    HW114891   3.957   2.014  15.670 -2.3625 -1.4854 -0.0489
 1143SOL    HW214892   3.952   2.018  15.812  1.3456 -0.8738 -1.7130
 1144SOL     OW14893   3.801   1.116   3.267 -0.2806  0.0652 -0.0900
 1144SOL    HW114894   3.882   1.155   3.234 -0.2101 -0.5672 -0.6791
 1144SOL    HW214895   3.746   1.190   3.243 -0.3219  0.0036 -0.1854
 1145SOL     OW14896   2.236   3.606   6.692  0.3981 -0.0962  0.2237
 1145SOL    HW114897   2.198   3.669   6.631 -0.6705 -0.8234  0.1450
 1145SOL    HW214898   2.251   3.529   6.637  0.7972 -0.8786  1.4021
 1146SOL     OW14899   3.937   3.993  16.721 -0.3368 -0.4172  0.2725
 1146SOL    HW114900   3.923   3.913  16.669 -0.0283 -0.8999  0.9455
 1146SOL    HW214901   3.890   4.054  16.663 -0.3816  0.5871  1.3830
 1147SOL     OW14902   1.110   2.884   6.698 -0.2056  0.0319  0.3889
 1147SOL    HW114903   1.111   2.975   6.665 -0.7527 -0.8987 -2.2140
 1147SOL    HW214904   1.066   2.894   6.782 -1.1135 -0.0359 -0.0884
 1148SOL     OW14905   0.893   2.942  15.338 -0.3632  0.0128 -0.1352
 1148SOL    HW114906   0.984   2.960  15.315  0.0191  0.9972  2.2112
 1148SOL    HW214907   0.868   3.025  15.377 -0.5501 -0.7107  1.2887
 1149SOL     OW14908   0.999   0.707   3.681  0.6797 -0.1050  0.9917
 1149SOL    HW114909   0.910   0.720   3.648  0.8888 -1.5095 -0.1676
 1149SOL    HW214910   0.990   0.613   3.701 -0.6187  0.2353  1.9555
 1150SOL     OW14911   0.451   0.821   1.130 -0.6654 -0.0898 -1.0305
 1150SOL    HW114912   0.382   0.798   1.068 -1.9428  1.8467 -0.3099
 1150SOL    HW214913   0.427   0.909   1.156  1.2558 -0.4988  2.1409
 1151SOL     OW14914   1.788   1.723   7.728 -0.3385  0.3870 -0.5553
 1151SOL    HW114915   1.766   1.763   7.644 -1.5676 -1.9568 -1.3597
 1151SOL    HW214916   1.727   1.766   7.788  0.7624  0.3094  0.6217
 1152SOL     OW14917   1.159   3.433   6.962  0.0370 -0.0684 -0.3083
 1152SOL    HW114918   1.228   3.491   6.996  1.0731 -0.9377 -0.9631
 1152SOL    HW214919   1.125   3.501   6.904  1.6878 -0.4699 -1.7298
 1153SOL     OW14920   0.614   0.004   2.559 -0.3640  0.3035 -0.8674
 1153SOL    HW114921   0.520   0.013   2.542  0.1233  2.1655 -2.5292
 1153SOL    HW214922   0.614   4.678   2.642 -0.7145 -0.2737 -1.2055
 1154SOL     OW14923   1.852   3.789   7.260  0.1152  0.2046 -0.0968
 1154SOL    HW114924   1.805   3.831   7.187 -0.5926 -1.0373 -0.3612
 1154SOL    HW214925   1.937   3.768   7.222  0.7049 -1.3913  2.1150
 1155SOL     OW14926   2.037   0.228   2.883 -0.3857 -0.3928  0.1996
 1155SOL    HW114927   2.035   0.183   2.799 -1.1739  0.2093 -0.1004
 1155SOL    HW214928   1.995   0.313   2.868 -0.2708  0.0067  2.0918
 1156SOL     OW14929   2.660   3.053  11.059  0.2130  0.3267  0.2059
 1156SOL    HW114930   2.660   3.087  10.969  5.3996 -1.9684 -0.6571
 1156SOL    HW214931   2.735   2.995  11.054  1.4493  1.7416  2.7917
 1157SOL     OW14932   3.884   2.782   1.806  0.0194 -0.1846 -0.2466
 1157SOL    HW114933   3.859   2.698   1.844  4.0617  0.1726  3.2343
 1157SOL    HW214934   3.873   2.830   1.888  0.1515  0.2726 -0.4983
 1158SOL     OW14935   2.231   0.750   1.671 -0.0327  0.8143 -0.7788
 1158SOL    HW114936   2.168   0.784   1.607 -0.5266  2.2857  0.5058
 1158SOL    HW214937   2.171   0.681   1.701  0.8424  0.2288 -0.3435
 1159SOL     OW14938   0.076   1.887   5.928 -0.1217 -0.6351 -0.6237
 1159SOL    HW114939   0.097   1.794   5.918  3.2850  0.0326  0.0686
 1159SOL    HW214940   0.156   1.935   5.905 -1.1154  1.2924 -0.0468
 1160SOL     OW14941   0.428   3.664   7.547  0.1702  0.2304  0.4351
 1160SOL    HW114942   0.452   3.603   7.618  2.3928  1.4870  0.7701
 1160SOL    HW214943   0.439   3.602   7.475  0.1774  1.1426 -0.3418
 1161SOL     OW14944   3.999   1.266  17.668  0.6595 -0.4530 -0.1049
 1161SOL    HW114945   4.063   1.196  17.654  1.2365 -0.1581  1.0639
 1161SOL    HW214946   4.041   1.327   0.037  0.9592 -0.6514 -0.1129
 1162SOL     OW14947   4.297   0.687   8.796 -0.5109  0.9619 -0.0561
 1162SOL    HW114948   4.293   0.670   8.702 -0.6856  0.8047 -0.0199
 1162SOL    HW214949   4.208   0.722   8.804 -0.5985  0.2741  2.0212
 1163SOL     OW14950   2.921   4.635   5.232 -0.2071  0.6194 -0.5581
 1163SOL    HW114951   3.009   4.598   5.237  0.4298  1.7735 -3.2391
 1163SOL    HW214952   2.923   4.677   5.147  1.2244 -0.0991 -0.8724
 1164SOL     OW14953   3.243   1.728   1.838 -0.3702  0.3755  0.5864
 1164SOL    HW114954   3.260   1.756   1.928  0.5193 -0.7900  0.7690
 1164SOL    HW214955   3.331   1.746   1.806 -0.9729 -1.7301 -2.2133
 1165SOL     OW14956   0.622   3.846  12.322  0.2377  0.1435  0.3872
 1165SOL    HW114957   0.620   3.925  12.376  0.9763  0.2002  0.3333
 1165SOL    HW214958   0.623   3.893  12.239  0.0493 -2.4643 -1.1041
 1166SOL     OW14959   4.096   2.890   4.075  0.2526  0.2225 -0.1139
 1166SOL    HW114960   4.146   2.887   4.157 -0.0719  2.3264  0.1421
 1166SOL    HW214961   4.050   2.972   4.091  0.8005  0.4110  0.5127
 1167SOL     OW14962   0.149   3.242   5.474 -0.3269 -0.0105  0.1829
 1167SOL    HW114963   0.144   3.300   5.550  0.8480  0.1591  0.1400
 1167SOL    HW214964   0.241   3.254   5.449 -0.4767 -0.4319 -0.5583
 1168SOL     OW14965   0.775   2.817   8.871 -0.1411  0.3336 -0.4457
 1168SOL    HW114966   0.788   2.905   8.904  2.6693 -0.7049  1.1984
 1168SOL    HW214967   0.836   2.775   8.933 -1.0113  0.6644  0.6331
 1169SOL     OW14968   2.525   1.375   0.550  0.1386 -0.1471 -0.1536
 1169SOL    HW114969   2.493   1.290   0.579 -1.2886  0.8526  1.1744
 1169SOL    HW214970   2.562   1.338   0.469  0.4488 -0.3802  0.0938
 1170SOL     OW14971   3.990   4.343   8.133  0.6029 -0.4168 -0.1130
 1170SOL    HW114972   4.084   4.343   8.116  0.9560  0.4217  1.7151
 1170SOL    HW214973   3.972   4.250   8.139  0.5985 -0.3644  0.7791
 1171SOL     OW14974   3.831   0.584   7.726  0.3610 -0.4447 -0.3661
 1171SOL    HW114975   3.915   0.629   7.737  0.0946 -0.7735  2.8879
 1171SOL    HW214976   3.868   0.510   7.679  1.6718  0.0606 -0.1398
 1172SOL     OW14977   1.298   1.064   3.811 -0.1630  0.3756 -0.3005
 1172SOL    HW114978   1.241   1.038   3.739  0.0912 -0.2804 -0.2721
 1172SOL    HW214979   1.237   1.094   3.878  0.6006  0.5434  0.3270
 1173SOL     OW14980   2.192   0.990   1.260  0.4027  0.3757 -0.8234
 1173SOL    HW114981   2.250   0.916   1.277 -0.3924  0.1796  1.1407
 1173SOL    HW214982   2.192   1.003   1.165 -0.7997 -4.0787 -1.4110
 1174SOL     OW14983   2.522   1.131   2.083 -0.4140 -0.2267 -0.4013
 1174SOL    HW114984   2.563   1.116   1.998 -0.4562  0.8230 -0.6036
 1174SOL    HW214985   2.434   1.154   2.052 -0.6214  0.4193  0.6809
 1175SOL     OW14986   1.207   3.610  17.039 -0.0119  0.2146  0.0261
 1175SOL    HW114987   1.197   3.517  17.059  1.9643  0.3812  1.7399
 1175SOL    HW214988   1.113   3.627  17.030 -0.2388 -0.9150  0.2828
 1176SOL     OW14989   2.892   2.913   4.278  0.5160  0.1339 -0.0468
 1176SOL    HW114990   2.954   2.882   4.212 -1.3653 -2.5472 -0.5112
 1176SOL    HW214991   2.881   2.832   4.328  0.5558 -0.7186 -1.4117
 1177SOL     OW14992   4.277   4.712   3.180 -0.2490 -0.8882 -0.0343
 1177SOL    HW114993   4.269   0.042   3.101 -1.1195 -1.6356 -0.4430
 1177SOL    HW214994   4.204   0.025   3.231  0.2238  0.8608 -0.5668
 1178SOL     OW14995   0.408   2.603   8.240  0.1513 -0.2659 -0.1283
 1178SOL    HW114996   0.478   2.541   8.262 -0.8002 -0.8809  1.1361
 1178SOL    HW214997   0.387   2.643   8.324  1.5905 -0.4279  0.3175
 1179SOL     OW14998   1.580   2.282   4.392 -0.2304  0.5503  0.3530
 1179SOL    HW114999   1.647   2.313   4.330 -0.0539  0.7527  0.6481
 1179SOL    HW215000   1.558   2.365   4.433  0.1017  0.3481  0.9375
 1180SOL     OW15001   3.282   4.268   5.037  0.1143 -0.7255 -0.5600
 1180SOL    HW115002   3.370   4.300   5.016  0.2848 -0.0203  1.2429
 1180SOL    HW215003   3.290   4.176   5.012 -0.9588 -1.1235  0.5780
 1181SOL     OW15004   1.282   2.759   5.905  0.2742  0.3197 -0.2345
 1181SOL    HW115005   1.312   2.722   5.988 -0.9387  0.6694  0.3610
 1181SOL    HW215006   1.237   2.838   5.936  0.2765  1.2439 -2.6422
 1182SOL     OW15007   3.432   2.013   5.378 -0.1165  0.3521 -0.0418
 1182SOL    HW115008   3.441   1.962   5.297 -1.4886  2.1817 -1.3324
 1182SOL    HW215009   3.350   2.058   5.359 -1.0710 -1.1183  0.6305
 1183SOL     OW15010   1.426   1.004  15.833  0.7089  0.2843 -0.2671
 1183SOL    HW115011   1.389   1.000  15.921  0.1680 -1.3820 -0.5737
 1183SOL    HW215012   1.468   1.090  15.840  2.8373 -1.0044  2.6100
 1184SOL     OW15013   3.674   3.266   7.512 -0.7873 -0.6312  0.1163
 1184SOL    HW115014   3.723   3.347   7.499  0.4534 -1.5144 -0.7706
 1184SOL    HW215015   3.625   3.261   7.431  0.5048 -1.4080 -0.6284
 1185SOL     OW15016   4.552   4.300   7.246  0.2801 -0.5949 -0.5604
 1185SOL    HW115017   4.645   4.324   7.249 -0.0762  0.6897  0.1537
 1185SOL    HW215018   4.533   4.321   7.155  1.2648  0.9443 -0.3994
 1186SOL     OW15019   3.095   4.597  11.459 -0.3178 -0.0738 -0.4847
 1186SOL    HW115020   3.164   4.567  11.401 -1.2298  1.1701 -2.2003
 1186SOL    HW215021   3.120   4.689  11.456 -0.4167 -0.0163  0.4093
 1187SOL     OW15022   3.846   0.581   7.344 -0.1380 -0.1656  0.1781
 1187SOL    HW115023   3.914   0.550   7.285  0.0912 -0.1317  0.4216
 1187SOL    HW215024   3.891   0.567   7.428  1.0089 -1.5328 -0.6443
 1188SOL     OW15025   1.989   1.904   4.026 -0.4895 -0.1871  0.2084
 1188SOL    HW115026   1.967   1.904   3.933  2.5293 -2.8573 -0.4866
 1188SOL    HW215027   1.931   1.965   4.072  0.9251  0.9061  0.5354
 1189SOL     OW15028   1.818   0.265   5.233 -0.4030  0.8765  0.3955
 1189SOL    HW115029   1.892   0.234   5.285 -1.0192 -1.6367 -0.2241
 1189SOL    HW215030   1.824   0.360   5.231 -0.1104  0.7845 -2.3554
 1190SOL     OW15031   0.111   2.965   3.827 -0.2372  0.0175 -0.0926
 1190SOL    HW115032   0.057   2.940   3.752  0.8385  1.5811 -1.3659
 1190SOL    HW215033   0.142   3.051   3.800 -0.0167 -0.2968 -0.8390
 1191SOL     OW15034   3.278   4.537   8.269 -0.3669 -0.1809  0.1686
 1191SOL    HW115035   3.225   4.529   8.348  1.9578  1.9138  1.9244
 1191SOL    HW215036   3.313   4.625   8.279  2.7385 -1.4920  1.0644
 1192SOL     OW15037   2.501   1.837   7.356 -0.2617  0.1840  0.4388
 1192SOL    HW115038   2.498   1.923   7.398  1.0005  0.5427 -0.1881
 1192SOL    HW215039   2.466   1.864   7.271 -1.0835  2.2753  1.4431
 1193SOL     OW15040   2.395   3.737   1.641  0.4895  0.5887 -0.3011
 1193SOL    HW115041   2.457   3.805   1.668 -1.1551  1.1061  2.2286
 1193SOL    HW215042   2.316   3.782   1.611  1.5435  2.2716 -0.5516
 1194SOL     OW15043   4.457   3.680   3.682  0.1805 -0.4316  0.7349
 1194SOL    HW115044   4.395   3.613   3.711  1.1990 -0.9951  1.6389
 1194SOL    HW215045   4.482   3.632   3.603  0.9984 -0.8363  1.2408
 1195SOL     OW15046   3.053   1.727   1.660 -0.0659 -0.1402  0.2925
 1195SOL    HW115047   3.088   1.796   1.604 -0.5002 -1.9153 -2.1377
 1195SOL    HW215048   3.110   1.715   1.737 -0.1794  0.5096  0.4795
 1196SOL     OW15049   1.614   3.603  16.938  0.9818 -0.1981 -0.0133
 1196SOL    HW115050   1.606   3.508  16.932  1.1413 -0.1884 -0.3690
 1196SOL    HW215051   1.604   3.632  16.848 -1.2956 -0.5005  0.1320
 1197SOL     OW15052   3.924   4.412   4.363  0.2287  0.2304 -0.1916
 1197SOL    HW115053   3.947   4.429   4.455 -0.7368 -1.1635  0.3090
 1197SOL    HW215054   3.976   4.482   4.324  0.0734  0.0122 -0.7818
 1198SOL     OW15055   0.667   1.915  15.998  0.6618  0.2205  0.4958
 1198SOL    HW115056   0.693   1.866  15.920 -0.0240 -0.8262  0.9258
 1198SOL    HW215057   0.573   1.919  15.978  0.4119  0.9694  1.7884
 1199SOL     OW15058   3.761   0.159   6.590  0.8057  0.7320  0.2088
 1199SOL    HW115059   3.700   0.148   6.517 -0.2432 -0.3586  1.2463
 1199SOL    HW215060   3.836   0.192   6.541  0.0437 -1.1981 -2.2889
 1200SOL     OW15061   4.312   1.497   5.919 -0.1149 -0.4817 -0.3967
 1200SOL    HW115062   4.240   1.503   5.982 -0.9681 -1.2186 -1.2915
 1200SOL    HW215063   4.371   1.436   5.962 -3.5861 -0.9420  3.6499
 1201SOL     OW15064   0.385   4.720   5.669  0.3487 -0.1506  0.1371
 1201SOL    HW115065   0.448   0.059   5.630 -1.5978  2.9061  1.7809
 1201SOL    HW215066   0.443   4.678   5.732  1.5961  0.0414 -0.8732
 1202SOL     OW15067   4.284   1.941   1.074 -0.3031 -0.2578  0.1645
 1202SOL    HW115068   4.219   1.890   1.123 -0.2793  0.8641  1.3465
 1202SOL    HW215069   4.281   1.892   0.992 -1.0864  1.9650 -1.1100
 1203SOL     OW15070   1.138   1.349   4.681 -0.1733  0.4221  0.0394
 1203SOL    HW115071   1.070   1.338   4.615  0.2844 -0.7610 -0.2242
 1203SOL    HW215072   1.157   1.257   4.699  1.0272  1.0416  2.0359
 1204SOL     OW15073   3.320   0.658   7.219 -0.3671 -0.8223  0.4005
 1204SOL    HW115074   3.351   0.606   7.293 -2.5427 -1.6178  0.7262
 1204SOL    HW215075   3.391   0.670   7.156 -0.4377 -2.2560  0.0500
 1205SOL     OW15076   2.243   4.211  10.717 -0.1184  0.8294  0.1294
 1205SOL    HW115077   2.256   4.296  10.676 -1.3035  0.6908 -0.5386
 1205SOL    HW215078   2.148   4.200  10.715 -0.1563  0.9668  1.5278
 1206SOL     OW15079   1.187   4.646   6.662 -0.2648  0.4648 -0.3029
 1206SOL    HW115080   1.220   4.680   6.579  0.7278  3.1745  1.1967
 1206SOL    HW215081   1.254   4.671   6.725 -0.1511 -1.7562  0.4727
 1207SOL     OW15082   2.320   3.979   0.654 -0.4419 -0.3403  0.1936
 1207SOL    HW115083   2.387   4.037   0.616 -1.0874 -0.0440 -0.4924
 1207SOL    HW215084   2.348   3.984   0.746 -1.2553  3.3240  0.2596
 1208SOL     OW15085   4.697   4.252   6.771 -0.1171 -0.0945  0.3076
 1208SOL    HW115086   4.611   4.211   6.763  0.4239 -1.4113  1.3036
 1208SOL    HW215087   4.674   4.334   6.814 -0.5633 -1.0455  1.8738
 1209SOL     OW15088   3.982   0.057   9.174 -0.0416 -0.5169  0.0906
 1209SOL    HW115089   4.026   4.717   9.116 -1.2479 -2.4693  1.2997
 1209SOL    HW215090   3.914   0.082   9.112 -0.1942  1.6365  1.1368
 1210SOL     OW15091   0.530   2.231  11.934  0.1782 -0.0872  0.0805
 1210SOL    HW115092   0.560   2.289  12.004  0.7858 -0.1837 -0.1017
 1210SOL    HW215093   0.442   2.204  11.962  0.5771 -0.3891  1.0285
 1211SOL     OW15094   0.049   4.567  10.607 -0.1635 -0.7506 -0.1318
 1211SOL    HW115095   0.075   4.513  10.681  1.6410  0.4778  0.1217
 1211SOL    HW215096   4.698   4.615  10.647 -1.1222 -2.6086  0.3410
 1212SOL     OW15097   0.299   3.122   5.213 -0.5143 -0.0280 -0.6650
 1212SOL    HW115098   0.249   3.057   5.164 -1.5625 -1.3729  2.2431
 1212SOL    HW215099   0.321   3.080   5.296 -0.9131 -0.0856 -0.5894
 1213SOL     OW15100   1.710   1.377   4.326  0.6887  0.6890 -0.1017
 1213SOL    HW115101   1.695   1.375   4.231  0.6354 -2.2618 -0.0365
 1213SOL    HW215102   1.806   1.370   4.327  0.7790  2.1000  0.5751
 1214SOL     OW15103   4.261   4.259   5.640  0.2551 -0.0638  0.0565
 1214SOL    HW115104   4.205   4.181   5.633  3.3228 -2.4417  1.7500
 1214SOL    HW215105   4.197   4.328   5.653  0.0839 -0.3115  0.5507
 1215SOL     OW15106   2.508   2.329   1.865  0.0085 -0.0789  0.4571
 1215SOL    HW115107   2.434   2.322   1.925  0.1946 -1.8318  0.4776
 1215SOL    HW215108   2.548   2.244   1.877 -1.0193 -0.1299  3.5514
 1216SOL     OW15109   4.475   0.914  10.518 -0.0212  0.5271  0.0272
 1216SOL    HW115110   4.381   0.910  10.500 -0.4463  0.2501  2.3016
 1216SOL    HW215111   4.500   0.823  10.536  1.4784  0.8012 -0.6074
 1217SOL     OW15112   2.408   3.112   7.758  0.1059  0.5940  0.2792
 1217SOL    HW115113   2.431   3.094   7.849  0.0372 -1.5450 -0.1140
 1217SOL    HW215114   2.489   3.156   7.733  0.3253 -0.2561 -0.5183
 1218SOL     OW15115   0.767   0.730  13.423  0.7816  0.6846 -0.5922
 1218SOL    HW115116   0.755   0.732  13.518  0.3877  3.4491 -0.6876
 1218SOL    HW215117   0.720   0.807  13.390 -2.7555 -0.4122  1.8938
 1219SOL     OW15118   2.790   0.714   8.785 -0.2440  0.2721 -0.2137
 1219SOL    HW115119   2.778   0.679   8.873  4.2051 -0.2246  0.1743
 1219SOL    HW215120   2.836   0.797   8.799  1.5672 -1.0247  1.5054
 1220SOL     OW15121   1.184   0.037  17.653  0.9053 -0.1389  0.1938
 1220SOL    HW115122   1.097   0.050   0.000  0.4061 -1.5652 -0.4860
 1220SOL    HW215123   1.172   4.703  17.577  2.8324  0.3553 -0.4903
 1221SOL     OW15124   2.160   4.482   2.199 -0.0569  0.0766 -0.4445
 1221SOL    HW115125   2.187   4.515   2.113  2.5139  0.8583  0.6583
 1221SOL    HW215126   2.237   4.426   2.202  0.4183  0.6855 -1.1175
 1222SOL     OW15127   2.532   0.396   8.357  0.1050  1.2485 -0.6516
 1222SOL    HW115128   2.524   0.325   8.420  0.0630  2.1108  0.3293
 1222SOL    HW215129   2.441   0.423   8.344  0.3257  1.9803 -0.7154
 1223SOL     OW15130   1.384   2.619   3.073 -0.1114  0.2918  0.5503
 1223SOL    HW115131   1.362   2.553   3.008  0.7073 -1.1640  1.7651
 1223SOL    HW215132   1.463   2.580   3.111 -1.0443 -0.4390  1.7424
 1224SOL     OW15133   3.314   1.230   5.738 -0.1958 -0.1318 -0.3509
 1224SOL    HW115134   3.403   1.197   5.730  0.7475  2.8040 -1.7215
 1224SOL    HW215135   3.314   1.242   5.833  0.1009 -1.5513 -0.1750
 1225SOL     OW15136   2.265   3.002   7.549 -0.1252 -0.0372  0.2129
 1225SOL    HW115137   2.248   3.079   7.495  0.8045 -0.3123 -0.4893
 1225SOL    HW215138   2.305   3.034   7.629 -0.1415 -1.0384  0.6262
 1226SOL     OW15139   0.656   1.669   8.021 -0.0005  0.2286  0.0864
 1226SOL    HW115140   0.657   1.735   8.091 -0.2009 -0.5186  0.7903
 1226SOL    HW215141   0.612   1.596   8.064 -2.5503  1.4664 -0.3873
 1227SOL     OW15142   1.266   4.702   2.048 -0.1879 -0.2912  0.5615
 1227SOL    HW115143   1.285   4.659   2.131  0.2226 -0.7621  0.2276
 1227SOL    HW215144   1.355   0.012   2.030  0.1652 -2.4767 -1.6038
 1228SOL     OW15145   1.624   0.673   5.034  0.2507  0.0668  0.5544
 1228SOL    HW115146   1.548   0.615   5.041  1.6868 -2.1823 -2.7266
 1228SOL    HW215147   1.634   0.689   4.940  0.0723  1.6624  0.8028
 1229SOL     OW15148   3.470   2.545   8.974 -0.0817 -0.1949 -0.1303
 1229SOL    HW115149   3.551   2.527   9.023 -0.9708 -1.2753  0.9495
 1229SOL    HW215150   3.500   2.523   8.886 -2.3954 -0.8812 -0.7348
 1230SOL     OW15151   3.634   3.261  17.133 -0.9452 -0.4926  0.0330
 1230SOL    HW115152   3.586   3.255  17.050 -1.9235  0.6051  0.5139
 1230SOL    HW215153   3.572   3.214  17.189 -1.4129  2.8864  2.3570
 1231SOL     OW15154   1.546   2.354   8.242 -0.2887  0.1655 -0.2819
 1231SOL    HW115155   1.590   2.438   8.257 -1.4873  0.7989 -0.3618
 1231SOL    HW215156   1.500   2.376   8.161 -3.2805 -0.6903  1.2070
 1232SOL     OW15157   0.803   1.460   5.216  0.2173  0.2719 -0.1144
 1232SOL    HW115158   0.767   1.484   5.131  0.7230 -1.4835 -0.8386
 1232SOL    HW215159   0.748   1.498   5.284 -0.1347 -0.0539 -0.2174
 1233SOL     OW15160   2.363   4.244   4.724 -0.1891  0.2854  0.9577
 1233SOL    HW115161   2.374   4.151   4.746  2.3114 -0.0259 -1.6057
 1233SOL    HW215162   2.311   4.231   4.645 -0.5843  1.8475  0.9616
 1234SOL     OW15163   4.107   2.461   5.469 -0.2126  0.1791  0.2701
 1234SOL    HW115164   4.100   2.557   5.462  0.5743  0.2587  0.5850
 1234SOL    HW215165   4.187   2.447   5.519  0.5016 -0.8207 -1.1665
 1235SOL     OW15166   3.334   2.287  16.952 -0.1100  0.8012 -0.0900
 1235SOL    HW115167   3.266   2.308  17.016 -0.7642  1.4692 -1.0025
 1235SOL    HW215168   3.415   2.285  17.003  0.3005 -1.8536 -0.8189
 1236SOL     OW15169   2.797   1.420   2.872 -0.2668 -0.4614 -0.5539
 1236SOL    HW115170   2.809   1.364   2.794  3.0366 -1.1566  0.4449
 1236SOL    HW215171   2.854   1.492   2.845  1.1027 -1.1188  0.6058
 1237SOL     OW15172   0.754   1.265   4.341 -0.4840 -0.6684  0.4008
 1237SOL    HW115173   0.842   1.233   4.359  0.0961  0.0079 -1.2520
 1237SOL    HW215174   0.766   1.360   4.342  2.6730 -0.9984 -3.5976
 1238SOL     OW15175   1.952   1.919  13.520 -0.1331  0.2944 -0.0346
 1238SOL    HW115176   1.932   2.013  13.522  0.7590  0.4616  1.0805
 1238SOL    HW215177   1.898   1.882  13.590  1.4045 -2.8020 -0.4879
 1239SOL     OW15178   3.740   2.528   9.407  0.1072  0.7324  0.1424
 1239SOL    HW115179   3.832   2.547   9.428 -0.3874  2.7168  0.5026
 1239SOL    HW215180   3.703   2.488   9.486  4.9395  0.5722  2.3468
 1240SOL     OW15181   2.169   4.198   2.323 -0.2355 -0.2160  0.2464
 1240SOL    HW115182   2.230   4.247   2.268 -0.4738 -1.2135 -0.9162
 1240SOL    HW215183   2.094   4.195   2.264 -0.2484  4.1626  0.0294
 1241SOL     OW15184   1.074   2.829   4.314 -0.1209  0.1757 -0.1053
 1241SOL    HW115185   1.087   2.737   4.292 -0.7914  0.2148 -0.6820
 1241SOL    HW215186   0.995   2.836   4.261 -1.0262  2.9660  1.5871
 1242SOL     OW15187   3.682   4.305   4.773  0.7537  0.0437  0.2094
 1242SOL    HW115188   3.743   4.372   4.741 -1.3056  2.2425  0.9391
 1242SOL    HW215189   3.624   4.297   4.697 -0.2205 -0.1912  0.9877
 1243SOL     OW15190   0.196   4.031   2.839  0.2839 -0.5733 -0.4044
 1243SOL    HW115191   0.258   4.012   2.769  0.1819  1.8265 -1.1521
 1243SOL    HW215192   0.225   4.120   2.862 -0.0162 -1.3438  2.9300
 1244SOL     OW15193   2.107   3.005   0.655 -0.1305 -0.3331 -0.2712
 1244SOL    HW115194   2.037   3.068   0.675  0.6224  0.3502  0.2300
 1244SOL    HW215195   2.078   2.976   0.569 -0.3811  1.0820 -0.6599
 1245SOL     OW15196   2.938   0.728   8.300 -0.2056  0.3425 -0.6009
 1245SOL    HW115197   2.986   0.651   8.328 -1.1231 -0.7557 -2.0653
 1245SOL    HW215198   2.891   0.732   8.383 -1.0975 -2.6656 -0.9810
 1246SOL     OW15199   4.346   3.771  15.012 -0.2707 -0.3837 -0.3627
 1246SOL    HW115200   4.266   3.729  15.043 -1.2545 -0.3603 -2.9550
 1246SOL    HW215201   4.320   3.861  15.033 -1.7211 -0.4872 -1.8191
 1247SOL     OW15202   2.999   0.300   3.975 -0.2824 -0.1641  0.8041
 1247SOL    HW115203   2.985   0.375   3.918 -0.5772 -1.5572 -0.9322
 1247SOL    HW215204   2.929   0.311   4.039  0.2723 -1.9748  1.7429
 1248SOL     OW15205   2.713   1.867   1.156  0.2693 -0.7941 -0.3392
 1248SOL    HW115206   2.697   1.920   1.078  0.3082  0.3315  0.4362
 1248SOL    HW215207   2.663   1.790   1.128  1.2820 -1.3911 -0.5237
 1249SOL     OW15208   4.598   0.523   6.684 -0.1024 -0.0305 -0.2685
 1249SOL    HW115209   4.639   0.603   6.650 -1.0841  1.4445  2.0784
 1249SOL    HW215210   4.577   0.469   6.607 -0.9052  0.6708 -0.5319
 1250SOL     OW15211   2.444   1.420   4.672  0.5613 -0.7004 -0.5386
 1250SOL    HW115212   2.414   1.386   4.588 -2.2091  1.4675 -0.4344
 1250SOL    HW215213   2.404   1.506   4.686  2.9557  0.4733 -0.7425
 1251SOL     OW15214   3.042   3.442   5.503 -0.4337  0.2723 -0.0758
 1251SOL    HW115215   3.007   3.488   5.580  0.1076  1.1077 -0.3310
 1251SOL    HW215216   3.043   3.352   5.535 -0.1049 -0.4990 -2.3413
 1252SOL     OW15217   3.844   2.606   2.249  0.2142 -0.4330 -0.1104
 1252SOL    HW115218   3.784   2.659   2.302  0.2838 -1.5485  1.0858
 1252SOL    HW215219   3.930   2.613   2.290 -1.5875 -0.1019  3.6749
 1253SOL     OW15220   4.673   3.316   6.806  0.1607  0.2043 -0.0560
 1253SOL    HW115221   4.684   3.404   6.770 -0.3575  0.0508 -0.5772
 1253SOL    HW215222   4.666   3.333   6.900  1.9218 -0.6028  0.2237
 1254SOL     OW15223   2.975   3.044   3.638 -0.6632 -0.8643 -0.1950
 1254SOL    HW115224   2.914   2.977   3.608  1.5073 -2.8065 -0.2281
 1254SOL    HW215225   2.933   3.091   3.711 -0.1954  0.4733 -0.7762
 1255SOL     OW15226   4.544   2.854   9.294  0.3868  0.3199  0.7675
 1255SOL    HW115227   4.590   2.915   9.236 -0.4899 -1.6707 -2.0563
 1255SOL    HW215228   4.608   2.786   9.316  0.2157  0.3618  1.3817
 1256SOL     OW15229   2.442   1.963   8.779 -0.3837 -0.3343  0.5650
 1256SOL    HW115230   2.441   2.001   8.691  1.8107 -0.7513  0.3637
 1256SOL    HW215231   2.451   2.042   8.832  0.2333 -0.0113 -0.0225
 1257SOL     OW15232   4.100   3.523   9.621  0.5391  0.0589 -0.1642
 1257SOL    HW115233   4.174   3.511   9.681  0.8503  0.4314 -0.4723
 1257SOL    HW215234   4.024   3.526   9.679  0.5642  0.7358 -0.1638
 1258SOL     OW15235   1.913   0.858   4.528  0.0395 -0.0320 -0.1639
 1258SOL    HW115236   1.891   0.934   4.475  0.4963 -1.2690 -2.1250
 1258SOL    HW215237   1.830   0.810   4.524  0.9006 -1.4869 -0.6535
 1259SOL     OW15238   3.520   2.914   1.123  0.2169 -0.3925 -0.1208
 1259SOL    HW115239   3.567   2.834   1.098 -0.7770  0.1014 -3.5156
 1259SOL    HW215240   3.441   2.883   1.168 -0.0317 -0.9285 -0.9231
 1260SOL     OW15241   4.568   3.006   2.937 -0.3764 -0.3223  0.4222
 1260SOL    HW115242   4.603   2.993   2.849  1.5265 -1.6103  1.3696
 1260SOL    HW215243   4.505   3.077   2.923  0.8578  0.5830 -0.4949
 1261SOL     OW15244   0.903   0.333   7.278 -0.4746  0.5009 -0.6304
 1261SOL    HW115245   0.963   0.317   7.351  0.6527 -0.2440 -1.7084
 1261SOL    HW215246   0.967   0.359   7.210 -1.9837  0.3495 -2.1032
 1262SOL     OW15247   0.462   1.815   1.025 -0.0333 -0.6900 -0.1023
 1262SOL    HW115248   0.430   1.888   1.078 -0.5614  0.2616 -1.7274
 1262SOL    HW215249   0.534   1.845   0.970 -0.6299  1.7335  0.4192
 1263SOL     OW15250   0.892   3.199   3.314 -0.4828  0.0325  0.0259
 1263SOL    HW115251   0.945   3.184   3.236 -1.1699 -0.0214 -0.4198
 1263SOL    HW215252   0.948   3.250   3.373  0.5027  1.2288 -1.9383
 1264SOL     OW15253   4.581   2.810  13.449 -0.3795 -0.5041 -0.0450
 1264SOL    HW115254   4.511   2.866  13.484  1.8314  2.0268  0.3892
 1264SOL    HW215255   4.558   2.718  13.462 -1.0317 -0.3692 -0.2351
 1265SOL     OW15256   2.898   2.291   3.498 -0.0677  0.0108  0.3223
 1265SOL    HW115257   2.918   2.208   3.541 -0.3766 -0.5437 -0.5991
 1265SOL    HW215258   2.872   2.261   3.411 -1.0917  1.0250  0.2767
 1266SOL     OW15259   3.989   3.938  14.893  0.4758 -0.0477 -0.3450
 1266SOL    HW115260   3.931   4.010  14.869 -1.0824 -0.5781  1.8492
 1266SOL    HW215261   3.928   3.868  14.916 -0.4330  1.1654  0.9481
 1267SOL     OW15262   2.734   3.978   0.535  0.0477  0.2059  0.4034
 1267SOL    HW115263   2.641   3.957   0.521  0.2320  0.3484 -1.0692
 1267SOL    HW215264   2.766   3.931   0.458  0.3909  1.2704 -0.1146
 1268SOL     OW15265   3.989   1.952  15.975 -0.9240  0.0774  0.0612
 1268SOL    HW115266   3.966   2.022  16.036 -1.3593  1.2288 -1.4202
 1268SOL    HW215267   4.002   1.886  16.043  0.1502  0.8897  0.6382
 1269SOL     OW15268   4.017   3.776   8.209  0.6759  0.4125  0.5031
 1269SOL    HW115269   4.020   3.857   8.260 -0.7238  0.6861  0.1523
 1269SOL    HW215270   4.077   3.802   8.139 -0.5601  0.6993 -0.4445
 1270SOL     OW15271   0.050   1.639   3.754 -0.4549  0.3218 -0.2791
 1270SOL    HW115272   0.022   1.691   3.679  1.2304  1.0836 -0.3821
 1270SOL    HW215273   0.052   1.709   3.819  0.7168 -0.1877  0.2385
 1271SOL     OW15274   1.336   0.701   8.099 -0.2673 -0.0998  0.5793
 1271SOL    HW115275   1.303   0.772   8.045 -0.5302 -0.6445  0.0280
 1271SOL    HW215276   1.320   0.629   8.038  1.0714 -0.3662  0.5332
 1272SOL     OW15277   1.450   3.653   2.286 -0.2081 -0.8572  0.4883
 1272SOL    HW115278   1.357   3.657   2.307 -0.1834  0.9358  0.3150
 1272SOL    HW215279   1.482   3.695   2.366 -0.5641  1.5047 -0.6168
 1273SOL     OW15280   3.282   2.303   8.889 -0.5272 -0.0204  0.0566
 1273SOL    HW115281   3.335   2.225   8.871 -0.6760  0.0351 -0.6243
 1273SOL    HW215282   3.301   2.296   8.983 -1.0202  0.9219  0.2262
 1274SOL     OW15283   0.035   4.059   7.631  0.3530 -0.0567  0.3085
 1274SOL    HW115284   4.714   4.026   7.552  1.7712 -1.0955 -0.0361
 1274SOL    HW215285   0.093   4.122   7.588  0.6637 -0.4147  0.1973
 1275SOL     OW15286   4.557   4.337  10.128 -0.2629  0.0407  0.3567
 1275SOL    HW115287   4.645   4.356  10.096 -0.8279  0.2098 -1.0860
 1275SOL    HW215288   4.580   4.264  10.185 -0.9128 -0.7003 -0.3400
 1276SOL     OW15289   2.953   2.742   0.685  0.0210  0.3758  0.0206
 1276SOL    HW115290   3.018   2.753   0.755  0.0984 -0.6539  0.1171
 1276SOL    HW215291   2.907   2.826   0.678 -0.7332  0.1076  1.8735
 1277SOL     OW15292   2.551   4.561  10.217 -0.2933 -0.5871  0.1442
 1277SOL    HW115293   2.557   4.630  10.150 -1.5779  0.0097  0.6347
 1277SOL    HW215294   2.623   4.580  10.277 -0.4636 -1.8457  0.7253
 1278SOL     OW15295   0.120   3.295   2.772 -0.3795  0.3350  0.3945
 1278SOL    HW115296   0.167   3.247   2.841  1.7157 -0.0381 -1.2949
 1278SOL    HW215297   0.192   3.347   2.736 -0.5988  0.1015 -0.3778
 1279SOL     OW15298   3.162   3.052  15.453 -0.4061  0.1592 -0.0342
 1279SOL    HW115299   3.072   3.019  15.453 -0.7575  1.1017  0.1876
 1279SOL    HW215300   3.170   3.112  15.527 -0.1737 -0.2781  0.2918
 1280SOL     OW15301   2.737   3.998   8.548  0.4648 -0.4130  0.4318
 1280SOL    HW115302   2.683   3.998   8.469  0.0708 -0.0763  0.7050
 1280SOL    HW215303   2.700   3.932   8.606 -2.3784 -0.2614 -1.2377
 1281SOL     OW15304   1.817   4.702   7.745 -0.1692 -0.2959  0.2855
 1281SOL    HW115305   1.770   4.656   7.815 -1.3406 -0.9507 -0.9161
 1281SOL    HW215306   1.882   0.032   7.793 -0.5699 -0.1649  0.6948
 1282SOL     OW15307   0.749   0.948  11.126 -0.3746 -0.4772  0.4344
 1282SOL    HW115308   0.685   0.942  11.055  0.2960 -1.4351 -0.0850
 1282SOL    HW215309   0.711   1.023  11.172 -2.5407  0.1559 -2.3479
 1283SOL     OW15310   0.927   0.582  11.273 -0.5237 -0.2697  0.1071
 1283SOL    HW115311   0.852   0.639  11.261 -0.9005 -0.5305  1.2478
 1283SOL    HW215312   0.911   0.544  11.359  0.9186  2.0754  1.4168
 1284SOL     OW15313   2.656   3.528  11.220 -0.2935  0.3833  0.3510
 1284SOL    HW115314   2.577   3.525  11.275 -0.0883  0.0291  0.6265
 1284SOL    HW215315   2.619   3.492  11.139  1.2619 -0.7156  0.1315
 1285SOL     OW15316   0.674   0.622  11.498  0.5175  0.4026 -0.1396
 1285SOL    HW115317   0.649   0.574  11.419  1.1437 -0.5105  0.2239
 1285SOL    HW215318   0.705   0.701  11.454  1.4540  0.5769  0.8154
 1286SOL     OW15319   1.806   0.139   9.829 -0.0786 -0.1399  0.8733
 1286SOL    HW115320   1.822   0.087   9.908  0.6112  1.5271  1.8258
 1286SOL    HW215321   1.892   0.179   9.843 -0.3351  0.1781  1.5407
 1287SOL     OW15322   0.769   0.802   6.777  0.2066  0.0978  0.0203
 1287SOL    HW115323   0.768   0.875   6.714  0.4346  1.3992  1.5415
 1287SOL    HW215324   0.689   0.824   6.824 -1.4616  0.3516 -2.8928
 1288SOL     OW15325   3.283   4.691   5.403 -0.2595  0.6274 -0.3425
 1288SOL    HW115326   3.296   4.610   5.453 -0.1240  1.0612  0.3320
 1288SOL    HW215327   3.304   4.661   5.315  3.4087  0.4021  0.6050
 1289SOL     OW15328   2.224   0.573   3.462  0.5628 -0.1677  0.3604
 1289SOL    HW115329   2.221   0.558   3.367 -0.8529  0.9135  0.2287
 1289SOL    HW215330   2.255   0.484   3.478  1.5874 -0.0818 -1.2096
 1290SOL     OW15331   2.311   4.171   2.732 -0.0318  0.1568 -0.0634
 1290SOL    HW115332   2.398   4.136   2.750 -0.0009 -0.7275 -1.9536
 1290SOL    HW215333   2.295   4.218   2.814  0.0723  0.7881 -0.4034
 1291SOL     OW15334   0.323   4.019  11.874 -0.5841 -0.1299 -0.1139
 1291SOL    HW115335   0.416   4.000  11.887 -0.8041 -1.2353 -0.1735
 1291SOL    HW215336   0.320   4.109  11.841 -2.2501 -0.0882  0.1817
 1292SOL     OW15337   4.533   2.785  10.224 -0.4531  0.4463  0.0093
 1292SOL    HW115338   4.528   2.796  10.129  2.1165  0.4254 -0.1154
 1292SOL    HW215339   4.481   2.862  10.248 -0.0734 -0.5523  4.0409
 1293SOL     OW15340   1.299   1.384   4.020 -0.2572  0.6879 -0.3987
 1293SOL    HW115341   1.360   1.378   4.094 -0.3903  0.7412 -0.2855
 1293SOL    HW215342   1.240   1.314   4.047 -2.2570  1.4397 -2.8197
 1294SOL     OW15343   1.062   1.006   5.823  0.1727  0.1401  0.1275
 1294SOL    HW115344   1.136   1.011   5.883  1.1463  0.1530 -1.0726
 1294SOL    HW215345   1.038   1.098   5.812  0.0565  0.0250 -0.5615
 1295SOL     OW15346   2.792   3.539   5.378 -0.1281  0.0148 -0.2878
 1295SOL    HW115347   2.846   3.614   5.403  2.6760 -1.7154 -1.0996
 1295SOL    HW215348   2.826   3.508   5.294  0.8861  0.6921 -0.1263
 1296SOL     OW15349   3.081   2.123   9.329  0.1256 -0.4255 -0.4869
 1296SOL    HW115350   3.116   2.211   9.340 -0.3938 -0.4088  0.9970
 1296SOL    HW215351   3.002   2.132   9.275  0.5695 -0.1925 -1.1000
 1297SOL     OW15352   0.660   3.811  15.765 -0.0404  0.2148 -0.1060
 1297SOL    HW115353   0.574   3.782  15.736 -0.2014  0.0431  0.5416
 1297SOL    HW215354   0.647   3.905  15.773  0.8898  0.3463 -0.1529
 1298SOL     OW15355   2.643   2.550  15.420  0.3900 -0.1760 -0.4063
 1298SOL    HW115356   2.599   2.609  15.358  0.8917  0.3012 -0.3076
 1298SOL    HW215357   2.580   2.557  15.492  1.8515 -0.8363  0.9231
 1299SOL     OW15358   2.511   0.418  14.909  0.3845 -0.0510 -0.0870
 1299SOL    HW115359   2.481   0.455  14.827  0.5978 -0.0649 -0.1720
 1299SOL    HW215360   2.553   0.498  14.940 -0.9589  0.4586  0.3936
 1300SOL     OW15361   4.461   3.646   2.084  0.7805  0.0393  0.5579
 1300SOL    HW115362   4.455   3.682   2.173 -2.0866 -1.5510  0.9921
 1300SOL    HW215363   4.387   3.681   2.035 -0.9342 -0.8888  2.4979
 1301SOL     OW15364   3.011   1.312   0.566 -0.4167 -0.4384 -0.4412
 1301SOL    HW115365   2.946   1.373   0.533 -0.3482  0.0680  0.3609
 1301SOL    HW215366   3.011   1.329   0.661 -0.4150 -1.9822 -0.1553
 1302SOL     OW15367   3.593   4.461   6.424 -0.5729 -0.0196 -0.4944
 1302SOL    HW115368   3.688   4.470   6.426 -0.9471  3.9455 -1.2130
 1302SOL    HW215369   3.580   4.555   6.414  0.6853  0.5000  2.5642
 1303SOL     OW15370   4.042   2.091   3.029 -0.0241  0.1840  0.3786
 1303SOL    HW115371   3.986   2.020   3.060 -1.0424  0.0167 -1.8719
 1303SOL    HW215372   4.032   2.086   2.934  1.0568 -0.5536  0.2961
 1304SOL     OW15373   0.070   0.929   3.621 -0.1397 -0.2904 -0.4691
 1304SOL    HW115374   4.716   0.986   3.611  0.1643  0.1502 -0.2501
 1304SOL    HW215375   0.049   0.856   3.563 -2.9725 -0.8076  1.2237
 1305SOL     OW15376   2.640   2.683   0.957  0.2934 -0.2806  0.0357
 1305SOL    HW115377   2.608   2.720   0.875 -1.3289 -0.5955  0.5365
 1305SOL    HW215378   2.715   2.744   0.962 -0.2848  0.2107  2.9525
 1306SOL     OW15379   4.661   1.013  12.238 -0.2449  0.0784  0.0328
 1306SOL    HW115380   4.660   1.073  12.164  2.5397  0.5440  0.3398
 1306SOL    HW215381   4.634   1.073  12.308 -1.0071  1.8667 -1.8105
 1307SOL     OW15382   4.348   3.973   9.279  0.1132 -0.2401 -0.3566
 1307SOL    HW115383   4.442   3.989   9.272  0.1237 -0.0934  0.1196
 1307SOL    HW215384   4.339   4.027   9.357  1.5056  0.1714 -0.4702
 1308SOL     OW15385   1.575   2.588  14.971  0.1444 -0.1689  0.0815
 1308SOL    HW115386   1.612   2.652  14.910 -1.5370  1.2522  0.5272
 1308SOL    HW215387   1.487   2.578  14.934  0.5261 -0.0829 -0.8523
 1309SOL     OW15388   0.881   1.172   8.642  0.2774 -0.9138 -0.3841
 1309SOL    HW115389   0.802   1.143   8.688 -0.4666 -1.9342 -2.3394
 1309SOL    HW215390   0.921   1.222   8.714 -0.2431 -0.1710 -0.6099
 1310SOL     OW15391   2.455   3.425   7.225 -0.0991  0.1882  0.6729
 1310SOL    HW115392   2.406   3.502   7.254 -0.4521  0.8001 -1.4731
 1310SOL    HW215393   2.527   3.462   7.174  1.0279 -0.0096  2.1437
 1311SOL     OW15394   3.120   0.333   4.701 -0.7444  0.0940 -0.0886
 1311SOL    HW115395   3.025   0.332   4.699 -0.7521  0.3333  0.2442
 1311SOL    HW215396   3.144   0.322   4.793 -2.5227 -1.5561  0.1839
 1312SOL     OW15397   1.443   3.767  15.228  0.6744 -0.1376 -0.1145
 1312SOL    HW115398   1.476   3.794  15.313  1.7256 -1.2286 -0.1766
 1312SOL    HW215399   1.493   3.694  15.193 -0.6452 -1.1749  0.1784
 1313SOL     OW15400   1.010   0.100   4.557  0.4686  0.3637 -0.0881
 1313SOL    HW115401   0.921   0.122   4.530  1.3953 -0.9374 -4.1394
 1313SOL    HW215402   0.995   0.018   4.604  1.2020  0.0820 -0.3433
 1314SOL     OW15403   1.264   2.133   8.907 -0.4174 -0.4753  0.4958
 1314SOL    HW115404   1.273   2.179   8.823  0.7353 -0.0044  0.8814
 1314SOL    HW215405   1.328   2.064   8.890  0.8123  0.5935  0.8435
 1315SOL     OW15406   2.131   3.966   5.533  0.5690  0.0776  0.1410
 1315SOL    HW115407   2.223   3.967   5.559 -0.1226  0.0037  2.6212
 1315SOL    HW215408   2.099   4.050   5.566  2.9256  0.8676  0.4404
 1316SOL     OW15409   3.604   0.555  11.905 -0.1356  0.1137  0.3762
 1316SOL    HW115410   3.545   0.488  11.870  0.8239 -0.5928  0.1030
 1316SOL    HW215411   3.689   0.512  11.890 -1.2206 -1.3515 -1.5603
 1317SOL     OW15412   1.479   2.995  17.485 -0.8282  0.2523  0.5326
 1317SOL    HW115413   1.423   2.924  17.515  1.3038 -1.1569  1.1861
 1317SOL    HW215414   1.454   3.000  17.393 -0.7231  2.8403  0.6548
 1318SOL     OW15415   4.125   1.078  10.623 -0.0730 -0.0374 -0.2824
 1318SOL    HW115416   4.129   1.007  10.560 -1.5981  1.6759 -2.3091
 1318SOL    HW215417   4.042   1.060  10.669 -0.6089  0.7081 -0.9567
 1319SOL     OW15418   0.298   3.529   9.351  0.3828 -0.0504  0.0592
 1319SOL    HW115419   0.264   3.608   9.394  0.0283  0.4446 -1.1445
 1319SOL    HW215420   0.274   3.466   9.418 -0.0446 -1.0105 -1.0160
 1320SOL     OW15421   0.215   0.331   2.987  0.0624 -0.0041  0.4168
 1320SOL    HW115422   0.280   0.393   3.021  1.0700 -0.0741 -1.4118
 1320SOL    HW215423   0.245   0.331   2.896  1.8065 -4.0146  0.9901
 1321SOL     OW15424   3.191   2.227  15.952  0.3389 -0.6111  0.3941
 1321SOL    HW115425   3.159   2.145  15.991 -0.6614 -0.0166  0.8335
 1321SOL    HW215426   3.198   2.209  15.859  2.2432 -1.3766  0.6874
 1322SOL     OW15427   0.314   3.096   9.484 -0.1546 -0.4746 -0.0953
 1322SOL    HW115428   0.397   3.137   9.461 -0.2291 -0.6562 -0.6975
 1322SOL    HW215429   0.250   3.129   9.421  1.1889  0.7305 -0.8256
 1323SOL     OW15430   4.462   1.101   7.968  0.1553  0.5575 -0.4901
 1323SOL    HW115431   4.518   1.100   7.891  0.3020  1.4482 -0.3971
 1323SOL    HW215432   4.408   1.025   7.946 -1.5199  1.2940  1.1315
 1324SOL     OW15433   3.485   0.723   3.354 -0.4584  0.3755 -0.2009
 1324SOL    HW115434   3.446   0.810   3.353 -1.0676  0.1393  3.4620
 1324SOL    HW215435   3.543   0.743   3.427 -1.0470  2.0320 -0.2008
 1325SOL     OW15436   4.113   3.999   9.121 -0.2496  0.2731 -0.4750
 1325SOL    HW115437   4.196   4.006   9.168 -1.4990 -1.5236  2.0052
 1325SOL    HW215438   4.074   4.083   9.147  0.2086  0.5893 -0.8111
 1326SOL     OW15439   2.206   2.941   4.391  0.0189  0.0601 -0.1040
 1326SOL    HW115440   2.300   2.922   4.386  0.4527  2.2936 -0.4026
 1326SOL    HW215441   2.172   2.882   4.458 -0.7284  0.8859  0.2462
 1327SOL     OW15442   4.528   2.687  16.436  0.1992  0.3831 -0.2673
 1327SOL    HW115443   4.513   2.725  16.522 -2.0226 -1.0596 -0.0170
 1327SOL    HW215444   4.436   2.675  16.412 -0.1766 -0.5700  1.6180
 1328SOL     OW15445   0.523   2.720  10.834  0.1163  0.3352 -0.1546
 1328SOL    HW115446   0.499   2.634  10.869  2.0872 -0.0050  0.3775
 1328SOL    HW215447   0.612   2.713  10.869 -0.5418  0.6675  1.5632
 1329SOL     OW15448   4.054   2.336  12.633 -0.1402 -0.1596  0.5744
 1329SOL    HW115449   4.067   2.431  12.621  2.7769 -0.4171  1.6878
 1329SOL    HW215450   4.142   2.303  12.620 -0.4868 -1.0936  0.6339
 1330SOL     OW15451   2.988   2.268  15.057  0.0131 -0.0413 -0.4012
 1330SOL    HW115452   2.912   2.212  15.076 -1.2874  1.3330 -1.6080
 1330SOL    HW215453   3.051   2.206  15.021 -1.3803 -1.2149 -0.8741
 1331SOL     OW15454   2.364   0.761   0.831  0.1770 -0.2440  0.4845
 1331SOL    HW115455   2.407   0.680   0.857  0.7224 -0.2749 -0.5190
 1331SOL    HW215456   2.444   0.813   0.832 -0.2896  0.4838  0.1845
 1332SOL     OW15457   2.758   2.132  15.100  0.1995  0.0125 -0.1641
 1332SOL    HW115458   2.707   2.069  15.049  1.0062  1.1017 -2.3068
 1332SOL    HW215459   2.697   2.162  15.167  0.3106  0.0566 -0.0824
 1333SOL     OW15460   4.038   1.251  15.250  0.3414  0.0963 -0.1536
 1333SOL    HW115461   3.957   1.281  15.292  0.6600  1.1356 -0.3033
 1333SOL    HW215462   4.093   1.225  15.324 -3.2674 -0.4422  2.3772
 1334SOL     OW15463   1.277   4.367  15.382 -0.5802 -0.1317 -0.3367
 1334SOL    HW115464   1.350   4.305  15.383 -0.1681  0.4416  4.1125
 1334SOL    HW215465   1.257   4.377  15.475 -1.1265 -0.5790 -0.4087
 1335SOL     OW15466   3.682   2.765   2.939  0.2619  0.3169 -0.1813
 1335SOL    HW115467   3.611   2.711   2.973 -0.7572  2.1390  0.5795
 1335SOL    HW215468   3.757   2.707   2.923  0.3895  0.9678 -2.0184
 1336SOL     OW15469   2.698   1.906   3.266 -0.0079 -0.5894  0.1592
 1336SOL    HW115470   2.734   1.887   3.352  1.7766  1.6574 -0.0955
 1336SOL    HW215471   2.654   1.827   3.234 -0.7580 -1.0597  2.3729
 1337SOL     OW15472   1.056   2.367   3.045  0.2907  0.3953 -0.1620
 1337SOL    HW115473   1.069   2.354   2.951 -2.0499  2.2815 -0.7681
 1337SOL    HW215474   1.003   2.447   3.054 -0.3191 -0.2052  1.5455
 1338SOL     OW15475   2.197   4.565   4.879 -0.3965 -0.2858  0.0820
 1338SOL    HW115476   2.124   4.627   4.876  0.1341  0.2744 -1.1704
 1338SOL    HW215477   2.140   4.491   4.859 -1.5298  0.4927  0.4218
 1339SOL     OW15478   2.276   4.498   1.650  0.0108  0.5582  0.6773
 1339SOL    HW115479   2.230   4.421   1.684 -0.8585  1.6830  2.0914
 1339SOL    HW215480   2.345   4.447   1.608 -0.2463  2.0478 -1.5666
 1340SOL     OW15481   0.679   0.767  11.964  0.2392 -0.4308  0.2154
 1340SOL    HW115482   0.664   0.844  11.910  0.3818 -0.0487  0.7298
 1340SOL    HW215483   0.673   0.820  12.043  0.8225 -2.2796  1.4945
 1341SOL     OW15484   0.453   2.664   2.915  0.4380  0.2509 -0.0113
 1341SOL    HW115485   0.405   2.604   2.858  1.2013 -0.8291  0.4847
 1341SOL    HW215486   0.459   2.737   2.853  0.2929  1.8030  1.7865
 1342SOL     OW15487   3.530   4.205   6.499  0.6212 -0.4548  0.7145
 1342SOL    HW115488   3.617   4.214   6.538  0.4263  2.3498  0.4744
 1342SOL    HW215489   3.514   4.298   6.486  1.2856 -0.4741 -0.2855
 1343SOL     OW15490   2.981   1.821   4.497 -0.5727  0.1738 -0.1129
 1343SOL    HW115491   3.005   1.730   4.481 -0.0325  0.6226 -1.8695
 1343SOL    HW215492   2.902   1.806   4.549 -1.5403 -0.2463 -1.7009
 1344SOL     OW15493   1.813   3.115   4.426 -0.5036  0.8073  0.5917
 1344SOL    HW115494   1.849   3.038   4.469 -0.4477  0.4796 -0.0381
 1344SOL    HW215495   1.872   3.183   4.457 -0.2012  0.6466  0.3627
 1345SOL     OW15496   4.145   1.080   2.835 -0.0838 -0.1801 -0.3385
 1345SOL    HW115497   4.093   1.156   2.864  1.3473  0.6077  0.1339
 1345SOL    HW215498   4.203   1.059   2.908  0.2159 -0.3840 -0.6410
 1346SOL     OW15499   3.631   2.682   5.918 -0.0518  0.6249 -0.4912
 1346SOL    HW115500   3.553   2.708   5.968  0.2557 -1.2320  0.9600
 1346SOL    HW215501   3.698   2.702   5.982 -0.5745 -0.4362  0.3913
 1347SOL     OW15502   2.014   0.924   2.947 -0.1262  0.2913 -0.4639
 1347SOL    HW115503   1.955   0.978   2.999 -1.8805  0.2410 -2.4074
 1347SOL    HW215504   2.037   0.986   2.878 -0.7274  0.6488 -0.3340
 1348SOL     OW15505   1.166   3.542   9.791 -0.1448  0.0281 -0.2788
 1348SOL    HW115506   1.165   3.517   9.699 -0.2605  0.6310 -0.4438
 1348SOL    HW215507   1.204   3.464   9.831 -1.1891 -0.4129 -0.1440
 1349SOL     OW15508   2.428   2.074   8.539 -0.0734 -0.2432 -0.0277
 1349SOL    HW115509   2.356   2.110   8.487 -0.2224 -0.1333  0.2559
 1349SOL    HW215510   2.463   2.028   8.463 -0.8233 -5.8337  2.9960
 1350SOL     OW15511   3.872   1.779   0.050 -0.5263 -0.2873 -0.4700
 1350SOL    HW115512   3.900   1.859   0.096  0.5197 -1.6580  1.2515
 1350SOL    HW215513   3.817   1.732   0.113 -1.1454 -0.0094 -0.7998
 1351SOL     OW15514   3.775   0.068   4.638 -0.5273 -0.1042  0.0698
 1351SOL    HW115515   3.859   0.113   4.635 -0.2613 -0.4838  1.8081
 1351SOL    HW215516   3.723   0.124   4.696  1.8788  2.5648 -0.3707
 1352SOL     OW15517   3.242   2.756   1.572  0.0390 -0.0056  0.2782
 1352SOL    HW115518   3.286   2.836   1.603 -0.0275  0.0139  0.3231
 1352SOL    HW215519   3.194   2.728   1.650  0.5722 -1.4575  0.0726
 1353SOL     OW15520   2.906   0.225   8.065  0.0589  0.5094 -0.0732
 1353SOL    HW115521   2.829   0.178   8.035  0.5003  0.4527 -1.1225
 1353SOL    HW215522   2.863   0.269   8.139 -2.3949  0.3298 -1.4224
 1354SOL     OW15523   4.295   1.696   3.871 -0.1695  0.1746  0.1285
 1354SOL    HW115524   4.350   1.729   3.799  2.1215 -1.0078  1.3446
 1354SOL    HW215525   4.298   1.774   3.927 -1.3140 -0.8333  1.5742
 1355SOL     OW15526   0.068   2.022   2.174 -0.1178 -0.0505  0.1971
 1355SOL    HW115527   4.707   2.067   2.188  0.0068  0.3097 -0.2115
 1355SOL    HW215528   0.039   1.933   2.154 -0.5727 -0.4561  2.6124
 1356SOL     OW15529   1.647   4.164   4.014  0.2633  0.5827 -0.1896
 1356SOL    HW115530   1.621   4.218   3.940 -0.0047  2.0928  0.9933
 1356SOL    HW215531   1.571   4.158   4.072  0.6823  2.0960  0.5224
 1357SOL     OW15532   4.438   1.700   2.636 -0.0725  0.5494 -0.4373
 1357SOL    HW115533   4.376   1.670   2.570 -0.3324 -1.1874  0.5939
 1357SOL    HW215534   4.452   1.616   2.679  0.3321  0.5614 -0.5453
 1358SOL     OW15535   2.376   1.574   3.584 -0.9443  0.1092 -0.0039
 1358SOL    HW115536   2.414   1.507   3.526 -0.6706  0.5553 -0.3480
 1358SOL    HW215537   2.325   1.638   3.535 -1.7518 -0.2431  0.3854
 1359SOL     OW15538   1.377   0.507   1.744 -0.7920  0.5120 -0.0297
 1359SOL    HW115539   1.301   0.540   1.792 -0.7477 -1.3214  1.3090
 1359SOL    HW215540   1.335   0.496   1.659  0.6160  1.4677 -0.8398
 1360SOL     OW15541   2.051   2.844   9.104  0.2802 -0.1679  0.2466
 1360SOL    HW115542   2.011   2.770   9.059 -1.0254  0.7309 -0.0493
 1360SOL    HW215543   2.071   2.902   9.031  0.3080  1.8838  1.8851
 1361SOL     OW15544   2.832   3.733  16.944  0.2745 -0.4647 -0.0746
 1361SOL    HW115545   2.825   3.676  16.866  2.6590  0.6832 -1.1054
 1361SOL    HW215546   2.749   3.725  16.990  0.0680 -0.4567 -0.4387
 1362SOL     OW15547   2.170   4.103   8.687  0.0929 -0.1666  0.3587
 1362SOL    HW115548   2.119   4.161   8.744 -0.0867  0.9045 -0.8964
 1362SOL    HW215549   2.115   4.103   8.609 -2.2275 -2.8612  2.0141
 1363SOL     OW15550   2.741   1.479   5.283  0.3366  0.0606  0.2941
 1363SOL    HW115551   2.818   1.498   5.336 -0.4017  1.9998  0.7019
 1363SOL    HW215552   2.774   1.480   5.193 -0.1206  0.7228  0.1341
 1364SOL     OW15553   0.299   0.598   0.760  0.4903 -0.7307  0.5021
 1364SOL    HW115554   0.247   0.560   0.689  0.7584  0.0176 -0.0906
 1364SOL    HW215555   0.228   0.629   0.815 -0.2778 -2.1522  0.3084
 1365SOL     OW15556   3.640   1.839  17.477 -0.0893  0.1905 -0.0108
 1365SOL    HW115557   3.575   1.779  17.439 -0.9096  0.4427  1.0010
 1365SOL    HW215558   3.628   1.820  17.570 -0.0776 -0.6425 -0.1834
 1366SOL     OW15559   4.017   0.547  12.432  0.0379 -0.2165  0.2617
 1366SOL    HW115560   3.976   0.567  12.516  0.5768  2.3665 -0.0749
 1366SOL    HW215561   4.006   0.452  12.431 -0.6954 -0.1291  0.1296
 1367SOL     OW15562   4.543   3.095   3.233 -0.9269 -0.2837  0.4591
 1367SOL    HW115563   4.568   3.074   3.143  3.3920  0.6904  1.4332
 1367SOL    HW215564   4.450   3.079   3.221 -0.1921 -2.1906 -2.5826
 1368SOL     OW15565   3.909   0.374   7.596 -0.8488 -0.2534 -0.3594
 1368SOL    HW115566   3.946   0.321   7.667 -2.4844  1.1036  1.5442
 1368SOL    HW215567   3.943   0.337   7.515  0.7763 -0.6480  0.5033
 1369SOL     OW15568   2.968   0.358   7.299 -0.5479  1.0392  0.2044
 1369SOL    HW115569   2.876   0.332   7.285 -0.7430  2.7028 -1.6477
 1369SOL    HW215570   3.021   0.288   7.262 -1.1867  1.8491 -2.2315
 1370SOL     OW15571   2.785   3.226  15.616 -0.4787 -0.4198 -0.9132
 1370SOL    HW115572   2.766   3.225  15.522 -0.9482 -0.7494 -0.8152
 1370SOL    HW215573   2.764   3.135  15.637  1.4103 -0.3819  1.1859
 1371SOL     OW15574   2.919   2.034  10.984 -0.0157  0.3095  0.4087
 1371SOL    HW115575   2.826   2.042  10.961  0.2827 -1.1778 -1.2354
 1371SOL    HW215576   2.929   2.099  11.053  1.0464  0.8978 -0.3109
 1372SOL     OW15577   2.649   1.499   5.828  0.1594  0.0439  0.1138
 1372SOL    HW115578   2.674   1.475   5.739  2.1298  2.2318  0.0864
 1372SOL    HW215579   2.638   1.594   5.836  0.8305  0.2160 -0.9996
 1373SOL     OW15580   0.332   0.024  15.145  0.5665 -0.2864 -0.4707
 1373SOL    HW115581   0.280   0.104  15.154  2.4917  0.7228  1.6236
 1373SOL    HW215582   0.395   0.015  15.217 -0.1452  0.3993  0.2332
 1374SOL     OW15583   1.552   0.286   4.897 -0.0183 -0.1901 -0.0416
 1374SOL    HW115584   1.584   0.241   4.975 -2.0190 -0.8069  0.4278
 1374SOL    HW215585   1.486   0.343   4.935  0.3950  0.6137 -0.5369
 1375SOL     OW15586   2.857   1.166   6.319  0.7560 -0.0429 -0.1524
 1375SOL    HW115587   2.929   1.230   6.310 -0.1896  1.1573  0.7911
 1375SOL    HW215588   2.802   1.219   6.377  2.1263 -1.2448  2.2604
 1376SOL     OW15589   4.092   3.698   7.456 -0.4145 -0.0533 -0.0601
 1376SOL    HW115590   4.097   3.791   7.436  1.9206 -0.0198  0.5918
 1376SOL    HW215591   3.997   3.694   7.450 -0.4856 -0.7356  1.4489
 1377SOL     OW15592   3.367   0.369   9.247  0.4745 -0.0403  0.4844
 1377SOL    HW115593   3.337   0.293   9.296  1.2674 -0.6196  0.0882
 1377SOL    HW215594   3.385   0.431   9.318 -1.5859  0.5001  0.5400
 1378SOL     OW15595   3.194   0.342  12.550  0.8782 -0.6652  0.2311
 1378SOL    HW115596   3.288   0.324  12.553  1.0546 -0.1983 -2.4635
 1378SOL    HW215597   3.205   0.417  12.609 -2.2913 -2.0367  2.6114
 1379SOL     OW15598   3.568   3.123   3.615  0.4566 -0.0119 -0.0806
 1379SOL    HW115599   3.504   3.144   3.546  1.2367  0.9782 -0.5147
 1379SOL    HW215600   3.511   3.086   3.682  1.6371  0.6187  1.2530
 1380SOL     OW15601   2.630   2.064   2.797  0.0381  0.2251  0.2647
 1380SOL    HW115602   2.542   2.030   2.816 -0.3767  1.3769  0.4514
 1380SOL    HW215603   2.613   2.147   2.752  1.7657  0.6606  0.4184
 1381SOL     OW15604   0.434   0.982   4.934 -0.2252 -0.0398 -0.1778
 1381SOL    HW115605   0.378   1.002   5.010  1.3235 -0.9325  1.1930
 1381SOL    HW215606   0.377   0.916   4.895  1.2288 -0.2812 -1.8729
 1382SOL     OW15607   0.632   0.455  13.323  0.5160  0.3233  0.4242
 1382SOL    HW115608   0.641   0.525  13.258 -0.4512 -0.3010 -0.3734
 1382SOL    HW215609   0.711   0.473  13.374 -1.0080  0.4949  2.7414
 1383SOL     OW15610   0.411   2.631   4.406  0.3636 -0.1955 -0.1461
 1383SOL    HW115611   0.464   2.581   4.344  0.6590  3.3145 -2.7687
 1383SOL    HW215612   0.400   2.716   4.362 -0.0446  0.1300  0.5755
 1384SOL     OW15613   2.615   2.468   8.079 -0.1710 -0.4992  0.3114
 1384SOL    HW115614   2.664   2.478   8.160  1.4982  0.5130 -0.8222
 1384SOL    HW215615   2.688   2.445   8.022 -2.2094 -4.1989 -0.8854
 1385SOL     OW15616   2.566   0.891   4.778  0.2273  0.0242  0.3554
 1385SOL    HW115617   2.604   0.904   4.691 -0.6481  0.8632  0.0950
 1385SOL    HW215618   2.595   0.971   4.822  0.9964  0.2890 -0.6345
 1386SOL     OW15619   2.009   3.773   1.148 -0.1119 -0.7021  0.5481
 1386SOL    HW115620   1.926   3.794   1.105  0.4009  0.8329  0.3005
 1386SOL    HW215621   2.061   3.847   1.117  0.9337 -1.3501  0.7864
 1387SOL     OW15622   4.108   4.172   3.260  0.0593 -0.9778  0.2303
 1387SOL    HW115623   4.137   4.264   3.258  0.1033 -0.9847  0.6246
 1387SOL    HW215624   4.035   4.183   3.199 -0.3330  1.2731  1.1113
 1388SOL     OW15625   1.718   4.590   9.969 -1.0519  0.0584  0.0321
 1388SOL    HW115626   1.669   4.606  10.049  1.7259  1.1522  1.5280
 1388SOL    HW215627   1.802   4.629   9.996 -1.9411  2.3660 -0.5151
 1389SOL     OW15628   1.490   2.701   8.101  0.1847 -0.3298  0.5144
 1389SOL    HW115629   1.404   2.704   8.058  0.9769  1.9247 -0.9242
 1389SOL    HW215630   1.538   2.637   8.049  0.3827 -0.0075  0.2997
 1390SOL     OW15631   3.144   1.376  15.293  0.2101  0.1036 -0.2471
 1390SOL    HW115632   3.163   1.295  15.341 -1.5142 -0.2415 -0.1674
 1390SOL    HW215633   3.064   1.361  15.244  1.2418  0.9279 -2.1750
 1391SOL     OW15634   3.945   1.805  10.087  0.4513  0.0909 -0.4302
 1391SOL    HW115635   3.904   1.889  10.068 -2.6143 -1.2381  0.3392
 1391SOL    HW215636   4.005   1.792  10.014  1.0850  1.0704 -0.0758
 1392SOL     OW15637   1.144   0.850  11.269  0.0940  0.6405  0.0804
 1392SOL    HW115638   1.218   0.852  11.209 -0.4552 -2.2992 -0.6952
 1392SOL    HW215639   1.161   0.772  11.323 -0.8194 -1.1895 -2.2722
 1393SOL     OW15640   0.401   4.679  13.866  0.5313  0.2022  0.0893
 1393SOL    HW115641   0.411   0.039  13.914 -0.8410  0.6312 -0.3777
 1393SOL    HW215642   0.432   4.703  13.779 -1.4541 -0.6204 -0.8547
 1394SOL     OW15643   4.431   2.070   5.951  0.6046  0.1865 -0.1321
 1394SOL    HW115644   4.395   1.982   5.958  0.2174  0.5320  2.0433
 1394SOL    HW215645   4.469   2.052   5.865  2.3662  1.4528  0.3646
 1395SOL     OW15646   3.342   0.535   9.937 -0.4971  0.1490  0.2289
 1395SOL    HW115647   3.382   0.449   9.940  1.0593  0.9513  2.6187
 1395SOL    HW215648   3.276   0.523   9.869  0.0740 -0.2838 -0.2435
 1396SOL     OW15649   1.210   4.628   3.243  0.5140 -0.0325 -0.0066
 1396SOL    HW115650   1.162   4.578   3.309  1.2838 -1.9201 -0.8696
 1396SOL    HW215651   1.272   4.568   3.203  0.9295 -0.3367  1.0819
 1397SOL     OW15652   4.284   4.062   4.109  0.6488  0.3579  0.4993
 1397SOL    HW115653   4.250   4.104   4.030 -0.4032 -3.3340 -1.0028
 1397SOL    HW215654   4.279   3.970   4.081  1.5617  0.4795 -0.0642
 1398SOL     OW15655   3.390   2.534  15.677  0.1711  0.8218  0.1502
 1398SOL    HW115656   3.389   2.469  15.607  0.3265 -1.1649  2.0146
 1398SOL    HW215657   3.441   2.601  15.630 -0.1438 -0.1267 -1.5419
 1399SOL     OW15658   0.176   4.607   3.016 -0.2882  0.2191 -0.2466
 1399SOL    HW115659   0.222   4.554   3.080 -2.2603 -0.6908  0.4284
 1399SOL    HW215660   0.175   4.696   3.052 -1.1309 -0.3254  1.0499
 1400SOL     OW15661   1.109   3.981   6.619 -0.2596 -1.0132  0.4052
 1400SOL    HW115662   1.187   3.951   6.666  0.5348 -1.8414 -1.4303
 1400SOL    HW215663   1.059   4.027   6.686  0.3104 -0.2958  0.3354
 1401SOL     OW15664   1.583   3.874   0.984 -0.1802  0.2809 -0.3612
 1401SOL    HW115665   1.572   3.851   1.076 -1.8859  2.9960  0.1252
 1401SOL    HW215666   1.547   3.800   0.935  0.1842 -0.6100  0.7079
 1402SOL     OW15667   0.359   2.074   8.138  0.2915  0.2648  0.4589
 1402SOL    HW115668   0.293   2.032   8.193 -0.3693 -0.2629 -0.7201
 1402SOL    HW215669   0.315   2.157   8.118 -2.4284 -1.1403  0.5539
 1403SOL     OW15670   0.794   3.784   5.184 -0.5083  0.2661 -0.0241
 1403SOL    HW115671   0.732   3.782   5.112 -0.1229 -3.0482 -0.2676
 1403SOL    HW215672   0.746   3.847   5.238  0.1073  0.4030  0.3629
 1404SOL     OW15673   4.598   3.873   8.473 -0.4419 -0.3638  0.1185
 1404SOL    HW115674   4.684   3.899   8.443 -0.0004 -0.4984  1.2543
 1404SOL    HW215675   4.579   3.795   8.420 -0.1593 -0.3530  0.0082
 1405SOL     OW15676   2.665   3.027  10.549 -0.4633  0.1062  0.5716
 1405SOL    HW115677   2.700   2.943  10.577  0.9112 -0.0423 -1.5773
 1405SOL    HW215678   2.664   3.079  10.629  1.9170 -0.6617  1.0862
 1406SOL     OW15679   3.806   3.916   2.355  0.2706  0.3520 -0.0131
 1406SOL    HW115680   3.729   3.864   2.377 -0.2273  0.4210 -1.5710
 1406SOL    HW215681   3.781   3.990   2.411  0.0425  2.8643 -3.4035
 1407SOL     OW15682   0.810   3.500   2.649 -0.1612 -0.5326  0.2977
 1407SOL    HW115683   0.738   3.544   2.696 -0.0247 -0.4994  0.4741
 1407SOL    HW215684   0.870   3.485   2.721  0.6575 -0.6032 -0.3952
 1408SOL     OW15685   2.265   0.184   2.000  0.1691 -0.1497  0.1711
 1408SOL    HW115686   2.174   0.171   1.974  0.9579 -1.8305 -1.7421
 1408SOL    HW215687   2.264   0.142   2.085 -0.0283 -0.1429  0.1706
 1409SOL     OW15688   0.755   1.079   8.883  0.3036  0.0211 -0.0137
 1409SOL    HW115689   0.795   1.108   8.964  0.2398  3.2934 -1.1291
 1409SOL    HW215690   0.783   0.988   8.883  1.9843  0.5446 -0.2025
 1410SOL     OW15691   3.086   4.163   7.935 -0.0322  0.0266 -0.5519
 1410SOL    HW115692   3.002   4.125   7.911 -1.0411  0.5926  2.1831
 1410SOL    HW215693   3.056   4.248   7.966 -1.4768 -0.0502 -1.7694
 1411SOL     OW15694   3.069   3.290   4.458 -0.0579  0.5825 -0.3913
 1411SOL    HW115695   3.095   3.262   4.370 -0.0012  0.3916 -0.3126
 1411SOL    HW215696   3.060   3.385   4.459  1.9421  0.7569 -0.2176
 1412SOL     OW15697   2.057   3.318   7.622  0.1361 -0.2657  0.2737
 1412SOL    HW115698   2.115   3.352   7.689 -1.5229  0.6943  1.2261
 1412SOL    HW215699   2.120   3.314   7.550  1.8376  1.6073  1.6863
 1413SOL     OW15700   1.031   0.030   3.824 -0.0836  0.5956 -0.1795
 1413SOL    HW115701   1.071   4.675   3.783 -0.6536 -0.3652  1.0792
 1413SOL    HW215702   1.098   0.099   3.819  0.7170 -0.1472  0.1938
 1414SOL     OW15703   3.846   1.948   3.626  0.1700  0.1062 -0.4148
 1414SOL    HW115704   3.872   1.947   3.719  0.7970  2.3105 -0.5680
 1414SOL    HW215705   3.919   1.991   3.581  1.1372 -0.7586  0.3172
 1415SOL     OW15706   1.278   3.028   5.981 -0.7744 -0.7581 -0.4387
 1415SOL    HW115707   1.267   3.068   6.067  0.7831 -1.0649 -0.0965
 1415SOL    HW215708   1.252   3.097   5.920 -0.3452  0.3784  0.6588
 1416SOL     OW15709   2.481   1.582  17.219  0.0727 -0.0959  0.4934
 1416SOL    HW115710   2.502   1.512  17.157  4.4068  0.2656  1.5847
 1416SOL    HW215711   2.560   1.635  17.217  0.2548 -0.4237 -0.9120
 1417SOL     OW15712   0.377   3.325   4.455 -0.4275  0.3161 -0.3052
 1417SOL    HW115713   0.455   3.365   4.494 -1.0803 -0.7160  2.0017
 1417SOL    HW215714   0.312   3.307   4.523  0.9949 -1.2847  0.6135
 1418SOL     OW15715   3.140   2.031   1.617 -0.3245 -0.0975  0.0254
 1418SOL    HW115716   3.069   2.041   1.681  0.6356  1.3521  0.8684
 1418SOL    HW215717   3.218   2.012   1.668 -0.7074  0.0621  0.6734
 1419SOL     OW15718   3.856   2.732  16.124  0.0096 -0.3389  0.3108
 1419SOL    HW115719   3.763   2.730  16.148 -0.4248  1.0318 -1.2383
 1419SOL    HW215720   3.857   2.776  16.039 -0.4387 -0.8889  0.0180
 1420SOL     OW15721   4.377   4.321  12.556 -0.1164  0.2354 -0.2207
 1420SOL    HW115722   4.347   4.397  12.507 -2.4815 -0.0288  0.8253
 1420SOL    HW215723   4.325   4.322  12.636  0.6333  1.3547  0.2431
 1421SOL     OW15724   4.319   3.364  10.122 -0.5147  0.1496  0.3788
 1421SOL    HW115725   4.328   3.320  10.037 -0.4679  0.7149  0.0907
 1421SOL    HW215726   4.223   3.365  10.120 -0.5459 -1.0327  0.9003
 1422SOL     OW15727   2.627   4.193   7.046 -0.1298 -0.3455  0.5045
 1422SOL    HW115728   2.617   4.271   7.102 -0.1310  1.2169 -1.6769
 1422SOL    HW215729   2.642   4.127   7.114  1.2565 -1.7056 -1.1210
 1423SOL     OW15730   1.036   0.348   2.366 -0.1907  0.4082  0.6406
 1423SOL    HW115731   1.044   0.268   2.314  0.1690 -0.4820  2.0408
 1423SOL    HW215732   1.022   0.416   2.301 -0.9247  1.3473  1.7753
 1424SOL     OW15733   0.005   4.314   5.827  0.0208  0.0300  0.3312
 1424SOL    HW115734   4.682   4.370   5.763  1.7474  0.0915 -0.8313
 1424SOL    HW215735   4.704   4.234   5.780  1.8922 -0.5537  0.4161
 1425SOL     OW15736   3.888   1.866  10.573 -0.4062  0.1166  0.0424
 1425SOL    HW115737   3.870   1.855  10.480  2.8067 -0.1352 -0.5428
 1425SOL    HW215738   3.856   1.782  10.607  1.5313 -0.1740  1.1211
 1426SOL     OW15739   4.535   3.401   6.162  0.3351  0.2243  0.5131
 1426SOL    HW115740   4.500   3.459   6.230 -1.1310  0.0674 -0.0954
 1426SOL    HW215741   4.503   3.441   6.081  1.4003  0.9627  0.4655
 1427SOL     OW15742   0.590   4.200   4.897  0.1860  0.1571 -0.4337
 1427SOL    HW115743   0.660   4.160   4.948  1.5908 -1.4653 -3.6467
 1427SOL    HW215744   0.527   4.128   4.893 -1.6280  1.8186 -2.0923
 1428SOL     OW15745   2.609   1.036   8.021 -0.4711  0.3010 -0.1139
 1428SOL    HW115746   2.594   1.046   7.927  0.7663  1.1013 -0.2194
 1428SOL    HW215747   2.671   0.963   8.016 -1.9876 -0.9031 -1.8519
 1429SOL     OW15748   0.546   3.661   9.339  0.0372 -0.0511  0.6498
 1429SOL    HW115749   0.464   3.614   9.326 -1.1019  2.0693  0.0197
 1429SOL    HW215750   0.514   3.731   9.396  2.3815  1.1459  0.5023
 1430SOL     OW15751   4.072   3.497   6.389  0.3599  0.4316 -0.2298
 1430SOL    HW115752   4.167   3.502   6.380  0.4760 -1.7326 -0.2167
 1430SOL    HW215753   4.072   3.533   6.478  2.3978  0.7666 -0.3684
 1431SOL     OW15754   0.409   4.325   7.832  0.7411 -1.0580  0.7993
 1431SOL    HW115755   0.428   4.291   7.745 -1.8592 -2.2971  0.7000
 1431SOL    HW215756   0.457   4.254   7.875  0.2042 -0.5349  2.2664
 1432SOL     OW15757   3.846   4.171   9.327  0.6765 -0.3404  0.1844
 1432SOL    HW115758   3.852   4.265   9.310 -2.7556 -0.3663 -1.0902
 1432SOL    HW215759   3.877   4.172   9.418  2.9648  1.5532 -0.6227
 1433SOL     OW15760   2.706   1.015   9.973 -0.3840  0.1213  0.1209
 1433SOL    HW115761   2.746   0.997   9.888  1.4930  0.9544  0.8249
 1433SOL    HW215762   2.745   1.099   9.995 -1.5155  0.5173  0.6032
 1434SOL     OW15763   0.566   2.736   2.581  0.0518 -0.5319  0.3002
 1434SOL    HW115764   0.618   2.656   2.573  1.2341  0.4520 -1.6570
 1434SOL    HW215765   0.562   2.766   2.490  2.1421  0.6561  0.6169
 1435SOL     OW15766   2.769   2.924  12.537 -0.7438 -0.4142  0.2109
 1435SOL    HW115767   2.707   2.981  12.582 -1.6575 -0.0732 -1.5064
 1435SOL    HW215768   2.805   2.868  12.606 -1.1640 -0.6496  0.2360
 1436SOL     OW15769   4.032   1.992  15.006  0.2906  0.3979  0.9119
 1436SOL    HW115770   3.997   1.903  15.009  2.0074 -0.2537  1.3761
 1436SOL    HW215771   4.024   2.016  15.098 -1.2064 -1.6330  1.3210
 1437SOL     OW15772   4.681   1.691   7.440 -0.4245  0.4511 -0.5482
 1437SOL    HW115773   4.614   1.626   7.460  1.1165 -1.0595 -0.2990
 1437SOL    HW215774   4.630   1.772   7.444  0.7014  1.0655  1.3043
 1438SOL     OW15775   3.469   3.312   3.958  0.2417  0.4469 -0.0128
 1438SOL    HW115776   3.523   3.367   3.901  1.3168 -0.5644  0.0432
 1438SOL    HW215777   3.481   3.222   3.928  1.2548 -0.3722  2.9265
 1439SOL     OW15778   3.109   0.256   8.575 -0.1593  0.3335  0.3756
 1439SOL    HW115779   3.191   0.207   8.567 -0.6280 -0.8619  3.1166
 1439SOL    HW215780   3.119   0.301   8.659  1.9380 -1.2121  0.9439
 1440SOL     OW15781   4.544   2.084   8.262 -0.3533 -0.1836 -0.7358
 1440SOL    HW115782   4.542   2.069   8.356  2.5019 -1.5369 -0.8949
 1440SOL    HW215783   4.504   2.171   8.255  0.4716  0.3836  1.6631
 1441SOL     OW15784   2.839   4.486   0.018  0.3943  0.0570  0.1358
 1441SOL    HW115785   2.764   4.454  17.659  0.1507 -2.4941  2.1639
 1441SOL    HW215786   2.898   4.518  17.640  0.5200 -0.3337  0.0636
 1442SOL     OW15787   0.406   1.519   1.140 -0.0251 -0.0279  0.4175
 1442SOL    HW115788   0.343   1.574   1.186  0.0302 -0.5202  1.0905
 1442SOL    HW215789   0.436   1.576   1.070 -1.9706  1.0541  0.4840
 1443SOL     OW15790   2.161   4.509   6.291 -0.6279  0.2151  0.1011
 1443SOL    HW115791   2.072   4.537   6.269  0.3115  3.0856 -0.0868
 1443SOL    HW215792   2.171   4.447   6.219  1.9991  0.5377  0.1790
 1444SOL     OW15793   0.521   3.552  12.670 -0.3098 -0.0486  0.5791
 1444SOL    HW115794   0.464   3.541  12.594  0.5417 -0.2500 -0.0299
 1444SOL    HW215795   0.598   3.602  12.642 -0.7232  0.8823  1.1397
 1445SOL     OW15796   3.578   3.159   5.138 -0.1356 -0.1129 -0.1417
 1445SOL    HW115797   3.487   3.188   5.132  0.0801  0.6999  0.5348
 1445SOL    HW215798   3.557   3.076   5.180  0.6994  0.0782  0.6607
 1446SOL     OW15799   1.728   2.561  15.406  0.6102 -0.0159 -0.0122
 1446SOL    HW115800   1.765   2.603  15.483 -0.4766  1.9322 -0.5588
 1446SOL    HW215801   1.639   2.546  15.438  0.9935 -1.2466  0.4973
 1447SOL     OW15802   3.748   2.604   2.567  0.5098  0.2423 -0.1471
 1447SOL    HW115803   3.841   2.622   2.579  0.5611 -0.3109  0.2699
 1447SOL    HW215804   3.709   2.689   2.588 -2.2056 -0.7138 -1.2575
 1448SOL     OW15805   0.573   2.600   6.488  0.2333 -0.5444 -0.2258
 1448SOL    HW115806   0.480   2.620   6.479 -0.3717 -2.0643  2.6217
 1448SOL    HW215807   0.582   2.615   6.582 -2.6569 -1.6333  0.2061
 1449SOL     OW15808   1.766   3.451   0.877  0.3313 -0.0258 -0.1651
 1449SOL    HW115809   1.712   3.482   0.950 -0.0631 -0.1287 -0.4156
 1449SOL    HW215810   1.840   3.512   0.875 -0.8584  1.3960 -0.8607
 1450SOL     OW15811   3.557   3.882   2.605 -0.3167 -0.3118 -0.2282
 1450SOL    HW115812   3.473   3.850   2.638  0.1827 -1.2330  0.1286
 1450SOL    HW215813   3.552   3.834   2.522  1.8238  0.4413 -0.8110
 1451SOL     OW15814   3.202   2.565  16.343  0.1322  0.0048 -0.1409
 1451SOL    HW115815   3.175   2.473  16.350 -5.3205  1.7542  1.3831
 1451SOL    HW215816   3.161   2.604  16.420  0.1503 -0.7902  0.2706
 1452SOL     OW15817   1.005   2.095   9.663 -0.2599 -0.6941 -0.0373
 1452SOL    HW115818   1.058   2.135   9.732 -3.3651  0.2659  1.7783
 1452SOL    HW215819   0.928   2.069   9.713 -0.2422 -1.6711 -0.5205
 1453SOL     OW15820   0.587   3.782  10.931  0.7680 -0.5786  0.2154
 1453SOL    HW115821   0.604   3.874  10.951 -0.7860 -0.2759  0.1989
 1453SOL    HW215822   0.599   3.791  10.837 -0.6332  0.7594  0.1602
 1454SOL     OW15823   4.599   2.268   2.890 -0.1715 -0.4617 -0.1076
 1454SOL    HW115824   4.629   2.228   2.808 -0.6156  2.3635 -1.6625
 1454SOL    HW215825   4.644   2.209   2.950  0.7127 -0.0059 -0.3132
 1455SOL     OW15826   3.553   0.673   9.687  0.4574 -0.0764 -0.3205
 1455SOL    HW115827   3.613   0.748   9.692  2.0756 -1.4907  1.6052
 1455SOL    HW215828   3.477   0.699   9.739  1.6636 -0.2183  1.5042
 1456SOL     OW15829   4.543   1.134   0.953  0.3523 -0.4607  0.2005
 1456SOL    HW115830   4.580   1.221   0.937 -0.3437 -0.2652 -0.3437
 1456SOL    HW215831   4.623   1.081   0.959 -1.0980 -2.6109  0.5150
 1457SOL     OW15832   1.474   0.039  10.471  0.4587 -0.2252 -0.2128
 1457SOL    HW115833   1.385   0.021  10.500 -0.6551  2.3706 -2.0112
 1457SOL    HW215834   1.504   0.128  10.489 -0.3869  0.2445 -1.1380
 1458SOL     OW15835   1.338   4.606   2.627 -0.2335  0.2719 -0.1412
 1458SOL    HW115836   1.430   4.620   2.652 -0.2925  0.0980  0.1802
 1458SOL    HW215837   1.334   4.511   2.624  0.3056  0.2895 -1.1054
 1459SOL     OW15838   1.028   0.036   5.791 -0.2307 -0.0287 -0.5881
 1459SOL    HW115839   0.978   4.681   5.763 -3.0364  1.1639  1.1014
 1459SOL    HW215840   1.119   0.007   5.782 -0.5350 -0.8749 -0.9581
 1460SOL     OW15841   1.098   2.750   9.514  0.0157 -0.2226 -0.3689
 1460SOL    HW115842   1.123   2.843   9.514  1.1250 -0.5187  1.0209
 1460SOL    HW215843   1.109   2.733   9.608 -0.7729 -0.5479 -0.3389
 1461SOL     OW15844   3.140   0.035  15.159  0.3711 -0.0705  0.3487
 1461SOL    HW115845   3.128   4.662  15.164 -0.5534  0.0730  0.8229
 1461SOL    HW215846   3.192   0.041  15.239 -1.6616 -0.2940  1.7002
 1462SOL     OW15847   4.439   0.534   7.662  0.0519  0.4771 -0.2827
 1462SOL    HW115848   4.516   0.493   7.622  1.0662  0.5245  1.6305
 1462SOL    HW215849   4.365   0.486   7.625  0.7871 -0.2122 -0.8493
 1463SOL     OW15850   3.889   3.584  10.061 -0.4357  0.0545 -0.5451
 1463SOL    HW115851   3.798   3.587  10.090 -0.5052 -0.0710 -0.7527
 1463SOL    HW215852   3.930   3.552  10.142  1.1019 -0.1813 -1.4058
 1464SOL     OW15853   2.716   0.532   0.758  0.0774  0.5324 -0.7401
 1464SOL    HW115854   2.785   0.470   0.732 -0.4450 -0.5492  0.4589
 1464SOL    HW215855   2.654   0.525   0.685 -0.1571  2.0024 -0.6795
 1465SOL     OW15856   3.349   1.288  10.511 -0.3052 -0.4206 -0.1153
 1465SOL    HW115857   3.441   1.266  10.528 -0.2642  0.0382  0.2566
 1465SOL    HW215858   3.323   1.213  10.458 -0.9407  0.7984 -1.5317
 1466SOL     OW15859   3.457   1.965   3.179  0.4468  0.2248  0.2126
 1466SOL    HW115860   3.381   2.008   3.141  0.7299  0.3367 -0.2281
 1466SOL    HW215861   3.501   1.954   3.095 -0.0014  1.3930 -0.1725
 1467SOL     OW15862   2.845   0.010   6.813 -0.3685 -0.5336 -0.1069
 1467SOL    HW115863   2.814   0.048   6.732  1.5388 -0.0666 -0.6199
 1467SOL    HW215864   2.923   0.062   6.835  0.4344 -1.9213  0.3505
 1468SOL     OW15865   0.439   1.973  12.192 -0.2049 -0.0725  0.4763
 1468SOL    HW115866   0.436   2.064  12.221  1.1146  0.7761 -2.0569
 1468SOL    HW215867   0.511   1.954  12.252  0.8993 -0.7968 -1.0551
 1469SOL     OW15868   4.281   0.197   8.368 -0.2099 -0.3809 -0.1260
 1469SOL    HW115869   4.319   0.265   8.423 -0.2111 -2.1135  2.0344
 1469SOL    HW215870   4.359   0.172   8.319  0.5156  2.0183 -0.1690
 1470SOL     OW15871   2.237   2.030   0.101 -0.2957 -0.4963  0.2453
 1470SOL    HW115872   2.332   2.042   0.106 -0.4637  0.1713  1.6579
 1470SOL    HW215873   2.224   1.995   0.013 -3.7682  3.2605 -0.7313
 1471SOL     OW15874   3.526   3.403   4.925 -0.4441 -0.0267 -0.4430
 1471SOL    HW115875   3.522   3.382   5.019  1.0611  0.7970 -0.1952
 1471SOL    HW215876   3.613   3.441   4.914 -1.7975  3.7448  1.6226
 1472SOL     OW15877   0.668   1.307   4.864  0.4704  0.1661  0.6147
 1472SOL    HW115878   0.732   1.369   4.829  0.4241 -0.0056  0.2214
 1472SOL    HW215879   0.619   1.282   4.786  3.0116 -0.8611 -0.6602
 1473SOL     OW15880   0.084   2.398  15.000  0.1083  0.9625  0.2377
 1473SOL    HW115881   0.033   2.400  15.080 -1.7279 -0.6149 -0.8899
 1473SOL    HW215882   0.055   2.316  14.958  2.8053  0.9332 -1.6478
 1474SOL     OW15883   1.468   1.309   6.610 -0.3364  0.6288  0.4084
 1474SOL    HW115884   1.490   1.402   6.608  1.5513  0.2255  1.8079
 1474SOL    HW215885   1.416   1.312   6.691  0.0137  0.7051  0.6330
 1475SOL     OW15886   0.146   4.084   4.823 -0.4369  0.4861  0.2980
 1475SOL    HW115887   0.139   4.097   4.728  2.5518 -0.6945 -0.0814
 1475SOL    HW215888   0.086   4.011   4.836 -0.1170  0.3832  1.2057
 1476SOL     OW15889   3.958   1.666  17.518 -0.5235 -0.2500 -0.0311
 1476SOL    HW115890   3.916   1.730  17.575  1.0502 -0.4217  1.3215
 1476SOL    HW215891   4.043   1.658  17.561  0.4534  2.6006 -1.4245
 1477SOL     OW15892   0.873   0.808   5.882  0.1990 -0.1202  0.0763
 1477SOL    HW115893   0.942   0.769   5.936  1.5077 -0.6438 -1.9971
 1477SOL    HW215894   0.906   0.892   5.853  0.3088 -0.3267 -0.3929
 1478SOL     OW15895   1.351   3.287   0.304  0.0192  0.3529  0.4476
 1478SOL    HW115896   1.335   3.366   0.355 -0.2224  1.7220 -1.7601
 1478SOL    HW215897   1.268   3.244   0.324 -0.6278 -0.2100 -3.3363
 1479SOL     OW15898   0.722   3.473   3.957 -0.7070  0.2901  0.1808
 1479SOL    HW115899   0.631   3.497   3.944 -0.2479  2.1381  0.4123
 1479SOL    HW215900   0.746   3.464   3.865 -0.6507  0.3909  0.1855
 1480SOL     OW15901   2.584   2.469  17.246 -0.1256 -0.3299 -0.5680
 1480SOL    HW115902   2.638   2.545  17.266 -0.6736  0.3014 -1.4481
 1480SOL    HW215903   2.552   2.441  17.332  1.5949 -1.0650 -0.1832
 1481SOL     OW15904   0.520   1.226   1.740 -0.1596 -0.4963  0.2681
 1481SOL    HW115905   0.611   1.198   1.739  0.9341  3.0384  1.8912
 1481SOL    HW215906   0.485   1.143   1.707 -0.2952  0.3739 -1.7654
 1482SOL     OW15907   0.410   1.246  12.898 -0.3077 -0.0071  0.2103
 1482SOL    HW115908   0.315   1.250  12.897 -0.5383 -4.4036  1.4754
 1482SOL    HW215909   0.436   1.292  12.819  1.1209  0.4125  0.9209
 1483SOL     OW15910   2.200   1.881  17.562  0.0223  0.1444  0.4018
 1483SOL    HW115911   2.286   1.841  17.579  0.7967  2.5847  2.2085
 1483SOL    HW215912   2.133   1.815  17.579  0.7425 -0.0378  2.5266
 1484SOL     OW15913   2.807   2.163   3.259 -0.4331  0.0091  0.0756
 1484SOL    HW115914   2.869   2.146   3.189 -1.3892 -0.8291 -0.5660
 1484SOL    HW215915   2.774   2.073   3.264  2.4250 -1.1539 -2.2093
 1485SOL     OW15916   0.699   2.288   1.465 -0.1322  0.4655 -0.3683
 1485SOL    HW115917   0.628   2.261   1.407  0.1561 -0.0612 -0.4750
 1485SOL    HW215918   0.656   2.339   1.535  0.1104  0.1424  0.0166
 1486SOL     OW15919   4.112   3.467  16.804 -0.2767 -0.0663 -0.0895
 1486SOL    HW115920   4.132   3.556  16.834  0.7898  0.4061 -2.2095
 1486SOL    HW215921   4.029   3.473  16.756 -1.4344 -0.6944  1.8470
 1487SOL     OW15922   4.004   1.700   5.592 -0.3387 -0.3202 -0.6337
 1487SOL    HW115923   4.021   1.757   5.517 -1.2822  0.5949 -0.1516
 1487SOL    HW215924   3.967   1.764   5.653 -2.5295 -2.1629  0.0187
 1488SOL     OW15925   2.352   1.781   5.771 -1.0651  0.3750 -0.0018
 1488SOL    HW115926   2.391   1.757   5.687 -2.3573  2.0935 -1.0828
 1488SOL    HW215927   2.301   1.859   5.748 -0.2146  0.4885 -1.5413
 1489SOL     OW15928   4.482   1.657   9.182 -0.2418  0.1652 -0.5087
 1489SOL    HW115929   4.498   1.747   9.152 -3.1038  0.5815 -0.7449
 1489SOL    HW215930   4.536   1.601   9.126  0.5197  1.1738 -0.7930
 1490SOL     OW15931   3.677   3.622   6.756  0.2659  0.1659  0.4504
 1490SOL    HW115932   3.586   3.615   6.784 -0.1340 -1.3168 -1.2200
 1490SOL    HW215933   3.735   3.616   6.833 -1.7036 -1.2702  1.8360
 1491SOL     OW15934   0.877   3.839   4.229  0.6085 -0.4692  0.1759
 1491SOL    HW115935   0.826   3.809   4.304  2.1718 -1.3306  0.8954
 1491SOL    HW215936   0.906   3.927   4.254 -0.2512  0.0507 -0.6669
 1492SOL     OW15937   3.778   0.483   4.916 -0.5621 -0.1006  0.2063
 1492SOL    HW115938   3.832   0.406   4.900 -1.3392 -0.6584  0.2862
 1492SOL    HW215939   3.827   0.533   4.981  1.8609 -3.3880  0.8705
 1493SOL     OW15940   3.883   2.809  15.872  0.1479 -0.4999 -0.4920
 1493SOL    HW115941   3.933   2.891  15.868  0.0423 -0.2760  2.5298
 1493SOL    HW215942   3.946   2.756  15.824  2.0002  0.4732  0.8298
 1494SOL     OW15943   4.031   3.239  14.688 -0.2255 -0.5416  0.1401
 1494SOL    HW115944   4.028   3.236  14.592 -0.8308 -2.1262  0.2082
 1494SOL    HW215945   4.119   3.276  14.696 -1.7492  2.6861  2.1987
 1495SOL     OW15946   2.879   1.494  17.374 -0.3222  0.2316  0.2537
 1495SOL    HW115947   2.884   1.521  17.465  0.4774 -1.4981  0.7420
 1495SOL    HW215948   2.973   1.481  17.360 -0.4972  0.3061 -1.0204
 1496SOL     OW15949   4.103   0.795   9.110  0.2955  0.3198  0.1392
 1496SOL    HW115950   4.037   0.832   9.051 -0.8916 -0.6333  0.8531
 1496SOL    HW215951   4.100   0.852   9.187  0.9738  1.8344 -0.9674
 1497SOL     OW15952   3.864   2.861   5.333 -0.3589  0.1621 -0.3574
 1497SOL    HW115953   3.822   2.939   5.370 -1.1136 -0.8054  0.8558
 1497SOL    HW215954   3.935   2.903   5.285 -1.2155  0.1164 -1.6633
 1498SOL     OW15955   2.531   2.892   4.758  0.4440  0.3074 -0.3447
 1498SOL    HW115956   2.481   2.812   4.774  0.3072  0.5292  0.3763
 1498SOL    HW215957   2.535   2.931   4.846 -1.4206 -0.2975 -0.0036
 1499SOL     OW15958   1.333   4.472   8.847 -0.0013  0.1096 -0.2340
 1499SOL    HW115959   1.331   4.556   8.893 -0.6534  0.1129 -0.2699
 1499SOL    HW215960   1.394   4.423   8.903 -1.2417 -2.1545 -0.8795
 1500SOL     OW15961   2.677   2.876  14.612  0.8341 -0.8927  0.2869
 1500SOL    HW115962   2.728   2.828  14.546  1.2193 -0.3338  0.1754
 1500SOL    HW215963   2.753   2.929  14.638  1.1370 -1.9748  1.6303
 1501SOL     OW15964   0.901   4.627  13.585 -0.1087 -0.7567 -0.1795
 1501SOL    HW115965   0.855   4.619  13.501 -0.9486 -1.2732  0.3268
 1501SOL    HW215966   0.833   4.593  13.644  2.0280 -1.8370  1.6499
 1502SOL     OW15967   1.666   3.090  11.071  0.6499 -0.6570 -0.1885
 1502SOL    HW115968   1.697   3.179  11.087  0.6354 -0.6124 -0.4064
 1502SOL    HW215969   1.732   3.034  11.111  1.8272  1.1592  0.4291
 1503SOL     OW15970   2.201   0.460   6.011 -0.0323  0.4349 -0.4461
 1503SOL    HW115971   2.220   0.544   6.053 -0.7770 -0.5265  1.8365
 1503SOL    HW215972   2.287   0.419   6.017  0.5229  1.8270  1.0270
 1504SOL     OW15973   4.120   1.472   5.706  0.1196  0.0150  1.1902
 1504SOL    HW115974   4.084   1.559   5.689  1.2857  0.7192  2.3018
 1504SOL    HW215975   4.167   1.492   5.787 -0.3535 -0.5431  1.6050
 1505SOL     OW15976   1.898   3.560  11.474 -0.5672  0.4048 -0.6086
 1505SOL    HW115977   1.816   3.562  11.524 -0.8105  2.0690 -1.0851
 1505SOL    HW215978   1.954   3.555  11.552 -2.5889  1.1867  0.9136
 1506SOL     OW15979   3.992   4.509  15.592 -0.6658 -0.1605  0.0222
 1506SOL    HW115980   4.003   4.604  15.581  0.9089 -0.2757  0.6017
 1506SOL    HW215981   3.897   4.518  15.588 -0.6139  0.6556  0.5279
 1507SOL     OW15982   3.165   1.960   3.440 -0.0216 -0.0243 -0.2815
 1507SOL    HW115983   3.164   1.904   3.518 -1.5190  0.9160  0.3739
 1507SOL    HW215984   3.211   2.028   3.488 -1.9092  1.2563 -0.3036
 1508SOL     OW15985   4.403   3.901   5.943 -0.0229 -0.4980 -0.2813
 1508SOL    HW115986   4.408   3.967   6.012  0.8134 -0.5217 -0.3184
 1508SOL    HW215987   4.310   3.885   5.929  0.1325 -0.6918 -1.1160
 1509SOL     OW15988   3.537   2.318   2.718  0.3337 -0.1179  0.0665
 1509SOL    HW115989   3.560   2.386   2.655  4.0456 -1.3061  0.1426
 1509SOL    HW215990   3.485   2.260   2.662  0.3563  1.9758 -2.1190
 1510SOL     OW15991   3.555   1.524  15.918 -0.3360 -0.4633  0.4290
 1510SOL    HW115992   3.650   1.529  15.926 -0.0527 -3.3902 -1.0817
 1510SOL    HW215993   3.541   1.440  15.874  0.7637  0.1634 -1.1147
 1511SOL     OW15994   3.204   3.639  17.654  0.0245 -0.3116  0.4810
 1511SOL    HW115995   3.282   3.584  17.661 -0.9224 -2.0349 -2.1753
 1511SOL    HW215996   3.225   3.703  17.587 -0.8758  0.2500  0.7368
 1512SOL     OW15997   0.159   2.834   3.040 -0.2092 -0.4379 -0.2885
 1512SOL    HW115998   0.199   2.914   3.073  2.5122 -1.6204 -0.7732
 1512SOL    HW215999   0.241   2.786   3.033  0.9511  1.8843 -2.6889
 1513SOL     OW16000   0.453   1.134   8.869 -0.7853  0.3589  0.2086
 1513SOL    HW116001   0.543   1.105   8.858 -0.0959  2.9733 -0.9706
 1513SOL    HW216002   0.432   1.099   8.956 -1.0623 -1.9798 -0.7873
 1514SOL     OW16003   4.386   1.166   4.386 -0.2130 -0.2282 -0.4005
 1514SOL    HW116004   4.380   1.207   4.472  0.0847 -0.4906 -0.2504
 1514SOL    HW216005   4.431   1.232   4.334 -0.0540 -1.6081 -2.0206
 1515SOL     OW16006   4.651   3.606  17.336 -0.0459 -0.1605 -0.3294
 1515SOL    HW116007   4.684   3.682  17.289  1.2992 -0.1147  0.7143
 1515SOL    HW216008   4.576   3.642  17.384  0.4392  1.6171 -0.8888
 1516SOL     OW16009   4.337   4.348  14.597  0.3839  0.2043 -0.0176
 1516SOL    HW116010   4.422   4.303  14.599 -0.3932 -1.3102 -1.0020
 1516SOL    HW216011   4.331   4.371  14.504 -1.1372  0.1607  0.0825
 1517SOL     OW16012   4.636   4.698  12.637  0.4911  0.2566  0.6014
 1517SOL    HW116013   4.650   4.703  12.543 -4.8996  1.0840 -0.1873
 1517SOL    HW216014   4.554   0.026  12.635  0.8388  0.7110 -2.3673
 1518SOL     OW16015   3.829   4.130   7.720  0.6492  0.0628  0.1645
 1518SOL    HW116016   3.858   4.206   7.770 -1.6767 -1.1619  3.3499
 1518SOL    HW216017   3.742   4.163   7.700  0.1424 -0.8383  0.8494
 1519SOL     OW16018   2.241   2.477   5.441 -0.2828  0.1510 -0.2472
 1519SOL    HW116019   2.333   2.468   5.464 -0.9565 -1.6521  1.7444
 1519SOL    HW216020   2.226   2.568   5.464  1.2069  0.8027 -1.7934
 1520SOL     OW16021   3.152   3.781  10.710  0.6194  0.3737 -0.4164
 1520SOL    HW116022   3.098   3.801  10.786  0.7218 -0.5961 -0.0896
 1520SOL    HW216023   3.242   3.797  10.741 -0.5261  0.7252  2.7014
 1521SOL     OW16024   0.990   0.151   4.986  0.3200 -0.6006  0.2839
 1521SOL    HW116025   0.896   0.132   4.991 -0.1473  1.4966 -0.5007
 1521SOL    HW216026   0.984   0.229   4.931 -1.0147 -0.5545  0.4974
 1522SOL     OW16027   0.037   4.707   6.505 -0.5524 -0.4162  0.7905
 1522SOL    HW116028   0.014   4.683   6.415 -0.9024 -0.3285  0.8557
 1522SOL    HW216029   0.114   0.040   6.492  0.2879 -1.8834 -0.4938
 1523SOL     OW16030   1.768   2.179   8.210 -0.3349 -0.5233 -0.0568
 1523SOL    HW116031   1.706   2.252   8.219  0.0050 -0.2477  0.0845
 1523SOL    HW216032   1.771   2.172   8.114 -0.0163  3.1863 -0.3495
 1524SOL     OW16033   3.311   1.538  15.693  0.6918  0.7826  0.7382
 1524SOL    HW116034   3.253   1.520  15.767 -0.5992  0.3005 -0.4007
 1524SOL    HW216035   3.383   1.477  15.710  0.1329  0.6521  2.6265
 1525SOL     OW16036   2.613   4.397   8.720 -0.0787 -0.3229 -0.2768
 1525SOL    HW116037   2.654   4.472   8.678  0.2833 -2.0558 -2.9531
 1525SOL    HW216038   2.671   4.387   8.796  2.3821 -0.7785 -2.2338
 1526SOL     OW16039   0.178   3.997  17.330 -0.1637  0.6398  0.7127
 1526SOL    HW116040   0.123   4.073  17.311  0.8647  0.7511 -1.8298
 1526SOL    HW216041   0.199   4.001  17.423 -2.0166  3.9747  0.9740
 1527SOL     OW16042   0.393   2.709   8.486  0.1924 -0.7407  0.4847
 1527SOL    HW116043   0.453   2.718   8.560  2.5643 -0.8950 -1.4113
 1527SOL    HW216044   0.311   2.744   8.520  1.0205  1.6475 -0.0153
 1528SOL     OW16045   1.651   2.117   5.067 -0.4206 -0.3193  0.1505
 1528SOL    HW116046   1.726   2.082   5.019  0.7815 -0.2309  1.9922
 1528SOL    HW216047   1.669   2.078   5.152  0.0679  1.6920  0.9553
 1529SOL     OW16048   2.286   1.325   6.308 -0.0361  0.4372 -0.0794
 1529SOL    HW116049   2.314   1.416   6.309  0.4345  0.2997 -0.5291
 1529SOL    HW216050   2.252   1.326   6.219  0.0662 -0.9600 -0.1327
 1530SOL     OW16051   1.986   2.259   2.593 -0.0629 -0.0958 -0.1642
 1530SOL    HW116052   2.039   2.259   2.513  0.7373  2.3347  0.3637
 1530SOL    HW216053   2.015   2.174   2.626 -0.1767 -0.7885 -1.8349
 1531SOL     OW16054   0.789   3.158   5.032 -0.2900 -0.1519 -0.5096
 1531SOL    HW116055   0.711   3.124   5.076  1.5185 -3.1470  0.3361
 1531SOL    HW216056   0.761   3.140   4.942  1.1195 -0.0924 -0.9622
 1532SOL     OW16057   4.145   3.455   9.160 -0.2375 -0.1561  0.2006
 1532SOL    HW116058   4.214   3.513   9.190  0.5129 -1.2921  0.6845
 1532SOL    HW216059   4.179   3.370   9.189 -0.3267 -0.5260 -0.7731
 1533SOL     OW16060   3.316   3.006   8.496  0.4989 -0.1014  0.2335
 1533SOL    HW116061   3.242   3.060   8.524  0.4334 -0.9501  1.6864
 1533SOL    HW216062   3.293   2.914   8.510  1.1140 -0.3046 -0.1270
 1534SOL     OW16063   3.770   1.176  10.979 -0.7858  1.0875  0.2056
 1534SOL    HW116064   3.685   1.211  10.956 -1.3829  0.1262  0.9256
 1534SOL    HW216065   3.738   1.087  10.999  2.8330 -0.3817 -0.4826
 1535SOL     OW16066   2.620   1.662   8.687 -0.2790 -0.2510 -0.2604
 1535SOL    HW116067   2.674   1.741   8.691  0.0472 -0.5193  0.6492
 1535SOL    HW216068   2.690   1.597   8.676 -1.8932 -1.6779 -2.0689
 1536SOL     OW16069   4.497   4.616   3.504 -0.1734 -0.1835  0.4387
 1536SOL    HW116070   4.484   4.604   3.598  1.9190  0.3042  0.7768
 1536SOL    HW216071   4.544   4.534   3.491 -0.1399  0.5058 -3.5632
 1537SOL     OW16072   0.130   4.306   7.235  0.0182  0.1727 -0.7553
 1537SOL    HW116073   0.146   4.364   7.160 -0.7492  1.3693  0.0177
 1537SOL    HW216074   0.124   4.231   7.175 -1.6878 -0.7867  0.6102
 1538SOL     OW16075   3.997   1.310   8.931  0.4707  0.3149  0.4998
 1538SOL    HW116076   4.026   1.401   8.935 -0.9140  0.7935 -0.4771
 1538SOL    HW216077   3.954   1.293   9.014  0.3038  1.8767  0.7282
 1539SOL     OW16078   0.507   4.669   4.688  0.0689 -0.1999  0.4272
 1539SOL    HW116079   0.521   4.613   4.764 -1.5322 -0.7496  0.3206
 1539SOL    HW216080   0.414   4.659   4.666 -0.1285 -1.1407  1.7115
 1540SOL     OW16081   0.195   1.467  15.642 -0.3212 -0.5184  0.0434
 1540SOL    HW116082   0.249   1.546  15.646  0.3920 -0.9726 -0.6697
 1540SOL    HW216083   0.110   1.497  15.611  1.1769  3.9961  0.2947
 1541SOL     OW16084   0.607   4.055   3.178  0.5090 -0.5419 -0.1202
 1541SOL    HW116085   0.634   4.098   3.260 -1.3635 -0.7409  0.6032
 1541SOL    HW216086   0.541   3.997   3.217  1.0479 -2.8909 -2.7592
 1542SOL     OW16087   1.605   3.911   8.800 -0.3460 -0.7061 -0.0929
 1542SOL    HW116088   1.550   3.833   8.788 -0.3981 -0.4055 -1.7065
 1542SOL    HW216089   1.626   3.949   8.715  2.3138 -0.6675  0.5774
 1543SOL     OW16090   4.209   0.976   4.332  0.2447  0.5030  0.5936
 1543SOL    HW116091   4.276   1.040   4.355  0.0752  1.1528 -0.6892
 1543SOL    HW216092   4.253   0.892   4.329 -1.0339 -0.2751  3.7318
 1544SOL     OW16093   2.644   0.346   7.085  0.0432  0.4484 -0.5268
 1544SOL    HW116094   2.669   0.348   6.992  0.1894  0.7809 -0.4826
 1544SOL    HW216095   2.634   0.253   7.103  0.1689  0.2294 -1.6099
 1545SOL     OW16096   3.087   1.384  10.180  0.4355 -0.1297  0.4679
 1545SOL    HW116097   3.004   1.421  10.152  0.8666  1.8881  1.8122
 1545SOL    HW216098   3.104   1.307  10.126 -0.3470  0.8329 -1.1421
 1546SOL     OW16099   4.389   1.404  16.781 -0.2887 -0.1942  0.3944
 1546SOL    HW116100   4.428   1.440  16.861 -0.9078 -0.5101  0.8367
 1546SOL    HW216101   4.462   1.356  16.740 -0.2243  0.5243 -0.3245
 1547SOL     OW16102   0.591   0.210   4.794 -0.2522  0.4648  0.0946
 1547SOL    HW116103   0.648   0.275   4.755 -0.6258  0.1519 -0.9603
 1547SOL    HW216104   0.516   0.205   4.734 -0.1741  0.5583 -0.0101
 1548SOL     OW16105   2.770   4.271   4.857 -0.1999 -0.4301 -0.1448
 1548SOL    HW116106   2.860   4.262   4.890  0.6671  1.4225 -1.9978
 1548SOL    HW216107   2.741   4.345   4.911  0.5445 -0.1521 -0.1258
 1549SOL     OW16108   4.321   2.790   9.399 -0.1463 -1.0352  0.7416
 1549SOL    HW116109   4.400   2.811   9.350 -1.7734 -0.5132 -1.6667
 1549SOL    HW216110   4.287   2.709   9.360 -0.7837 -0.9154  1.0423
 1550SOL     OW16111   0.296   1.734   2.756  0.2678  0.4374 -0.2088
 1550SOL    HW116112   0.335   1.796   2.695  0.4338 -0.2354 -0.7893
 1550SOL    HW216113   0.374   1.709   2.807 -1.5938 -0.9277  1.9758
 1551SOL     OW16114   4.074   0.286  13.554 -0.0019 -0.6149 -0.1729
 1551SOL    HW116115   4.016   0.318  13.485  0.0931 -0.8553 -0.3643
 1551SOL    HW216116   4.092   0.195  13.531  1.4018 -1.0884  2.6913
 1552SOL     OW16117   0.944   3.729   5.818  0.0633 -0.5312 -0.2579
 1552SOL    HW116118   0.929   3.667   5.746  0.1310 -1.8448  0.8521
 1552SOL    HW216119   0.856   3.760   5.839  0.6828  0.9889  0.0445
 1553SOL     OW16120   1.973   0.442   8.276  0.4993 -0.4054 -0.3861
 1553SOL    HW116121   1.933   0.360   8.305 -0.3807  0.6053  1.2885
 1553SOL    HW216122   1.924   0.516   8.310 -1.3346 -0.4138 -3.0168
 1554SOL     OW16123   3.201   1.749   4.704  0.0572 -0.3354 -0.6546
 1554SOL    HW116124   3.128   1.687   4.714  1.0032 -1.9395 -3.6802
 1554SOL    HW216125   3.208   1.750   4.609 -1.9872 -1.6149 -0.8295
 1555SOL     OW16126   2.183   4.538   9.898  0.3057  0.8396  0.1937
 1555SOL    HW116127   2.197   4.583   9.814  2.2178  0.7340  0.4381
 1555SOL    HW216128   2.175   4.609   9.961  1.1872 -0.3906  1.6792
 1556SOL     OW16129   4.205   1.687  15.773 -0.0237 -0.1756  0.1319
 1556SOL    HW116130   4.248   1.755  15.721  0.8789 -1.2810 -0.5731
 1556SOL    HW216131   4.116   1.694  15.738  0.4054 -1.8559 -1.2869
 1557SOL     OW16132   1.193   3.095   2.095  0.0135 -0.3232  0.1988
 1557SOL    HW116133   1.099   3.079   2.105 -0.1578  0.2943 -0.4255
 1557SOL    HW216134   1.226   3.009   2.070 -1.8519 -0.6988 -0.9564
 1558SOL     OW16135   1.706   2.753   5.664 -0.1741 -0.2284  0.3480
 1558SOL    HW116136   1.799   2.730   5.664 -0.7804 -2.7093 -0.7849
 1558SOL    HW216137   1.687   2.723   5.754 -0.0481 -2.0312 -0.2185
 1559SOL     OW16138   1.731   3.371  11.044 -0.1735  0.0869 -0.6275
 1559SOL    HW116139   1.801   3.335  10.990  0.1202  0.5862 -0.5769
 1559SOL    HW216140   1.705   3.449  10.996 -0.0560  0.3216 -0.3138
 1560SOL     OW16141   1.808   1.997   8.784 -0.1178  0.4986  0.5110
 1560SOL    HW116142   1.782   2.019   8.694 -0.5288 -0.1585  0.4641
 1560SOL    HW216143   1.743   2.046   8.834 -1.0666 -1.6502  1.3911
 1561SOL     OW16144   2.375   3.538   0.822 -0.6485 -0.0088 -0.2600
 1561SOL    HW116145   2.341   3.494   0.900 -1.0271  1.0156  0.1384
 1561SOL    HW216146   2.461   3.537   0.865 -1.2489 -0.4325  0.9367
 1562SOL     OW16147   2.040   1.275   4.874 -0.0518 -0.1317 -0.1222
 1562SOL    HW116148   2.054   1.240   4.962 -1.5153  0.1266  0.2124
 1562SOL    HW216149   2.024   1.198   4.819  1.6884 -0.4382 -0.1998
 1563SOL     OW16150   0.794   3.717  14.958 -0.3326 -0.5179 -0.0665
 1563SOL    HW116151   0.888   3.711  14.971 -0.5757 -0.4393  1.8468
 1563SOL    HW216152   0.799   3.799  14.909  1.0101  0.3854  1.5679
 1564SOL     OW16153   3.605   1.103   6.198  0.2212 -0.2231 -0.3450
 1564SOL    HW116154   3.552   1.150   6.134 -0.6477  0.7011  1.0450
 1564SOL    HW216155   3.670   1.170   6.221 -0.9591  0.7958  0.0612
 1565SOL     OW16156   2.518   0.336   5.843 -0.2239  0.3606 -0.4784
 1565SOL    HW116157   2.489   0.363   5.930 -1.4961  0.1026 -0.8176
 1565SOL    HW216158   2.446   0.279   5.816 -0.2675 -0.1105  0.6452
 1566SOL     OW16159   0.444   4.413  13.341  0.2841  0.0907  0.3811
 1566SOL    HW116160   0.374   4.422  13.406 -0.0601 -0.9034  0.1523
 1566SOL    HW216161   0.471   4.323  13.359 -1.8109 -0.7519 -0.7317
 1567SOL     OW16162   0.363   1.601   7.498  0.0035 -0.1437 -0.0146
 1567SOL    HW116163   0.303   1.563   7.562 -0.1904 -2.1455 -1.4153
 1567SOL    HW216164   0.338   1.555   7.418  3.5836 -2.9447  0.4872
 1568SOL     OW16165   2.688   3.116   1.187 -0.4077 -0.1185  0.2959
 1568SOL    HW116166   2.615   3.128   1.248 -0.7106 -1.9056  0.2892
 1568SOL    HW216167   2.729   3.202   1.190 -0.8979  0.1978 -2.2662
 1569SOL     OW16168   1.222   4.248   9.152  0.2919  0.1184 -0.2148
 1569SOL    HW116169   1.310   4.219   9.127 -0.6019 -1.5097 -1.4861
 1569SOL    HW216170   1.249   4.307   9.223  0.6169 -2.2068  1.5863
 1570SOL     OW16171   1.742   4.500   8.008  0.4552 -0.4154  0.4386
 1570SOL    HW116172   1.749   4.408   8.032  2.2187 -0.3776  0.0263
 1570SOL    HW216173   1.828   4.532   8.034  0.3527 -1.0145  1.4904
 1571SOL     OW16174   3.735   1.188   1.775  0.3645  0.9368 -0.4757
 1571SOL    HW116175   3.722   1.229   1.860 -1.4001 -0.7910  0.0766
 1571SOL    HW216176   3.828   1.164   1.785  0.0733 -0.6267 -1.4286
 1572SOL     OW16177   3.373   0.003   2.422  0.2270 -0.2259 -0.3266
 1572SOL    HW116178   3.447   0.031   2.368  0.0867 -0.3283 -0.5735
 1572SOL    HW216179   3.395   4.641   2.461  0.6024 -0.3554 -0.8221
 1573SOL     OW16180   2.230   2.927   5.787 -0.3739  0.0218 -0.2537
 1573SOL    HW116181   2.217   3.020   5.767  3.1489  0.7802  1.0566
 1573SOL    HW216182   2.154   2.912   5.844 -0.7993  3.2467  0.0294
 1574SOL     OW16183   0.113   3.828  13.460  0.5664  0.6148 -0.1164
 1574SOL    HW116184   0.045   3.857  13.399  0.2357  1.5590  0.6958
 1574SOL    HW216185   0.178   3.898  13.459  1.9596 -0.6848  0.1290
 1575SOL     OW16186   0.061   2.677   8.371 -0.0227 -0.4126 -0.4975
 1575SOL    HW116187   0.105   2.688   8.456 -2.5908 -0.5238  0.8375
 1575SOL    HW216188   0.090   2.757   8.329 -0.0563 -0.1511 -0.0226
 1576SOL     OW16189   0.870   2.586   4.494 -0.1699 -0.6003  0.0069
 1576SOL    HW116190   0.864   2.636   4.575 -0.9279  2.5556 -2.0005
 1576SOL    HW216191   0.964   2.578   4.482  0.3011  1.8980  2.2010
 1577SOL     OW16192   2.143   1.375   2.952  0.1046  0.5182  0.0899
 1577SOL    HW116193   2.195   1.427   2.891  0.2995  1.3516  0.9575
 1577SOL    HW216194   2.175   1.414   3.033 -2.0005  0.6219  0.8734
 1578SOL     OW16195   2.671   3.324   2.022  0.3445 -0.1073  0.4642
 1578SOL    HW116196   2.638   3.328   1.932 -0.7434 -1.5263  0.8085
 1578SOL    HW216197   2.617   3.256   2.061 -1.6957  1.4866  0.4067
 1579SOL     OW16198   1.950   4.549   1.777 -0.0767 -0.1518 -0.5723
 1579SOL    HW116199   1.932   4.599   1.698 -0.5124 -0.4280 -0.6433
 1579SOL    HW216200   1.987   4.467   1.745 -0.1618 -1.0666  1.6591
 1580SOL     OW16201   3.888   1.750  17.281  0.2231  1.3299  0.3716
 1580SOL    HW116202   3.917   1.714  17.365 -0.5813  1.3074  0.6331
 1580SOL    HW216203   3.795   1.768  17.292 -0.6161 -1.4871 -2.1701
 1581SOL     OW16204   0.026   4.462   9.153  0.3816  0.4742  0.2881
 1581SOL    HW116205   4.716   4.426   9.071  1.2606 -0.7190  0.4743
 1581SOL    HW216206   0.003   4.554   9.142  1.1616  0.4690 -1.4024
 1582SOL     OW16207   3.401   2.404  16.721  0.4842 -0.0500  0.1538
 1582SOL    HW116208   3.338   2.473  16.740  0.5295  0.3060 -0.9872
 1582SOL    HW216209   3.376   2.355  16.799  3.0150  2.0921  2.2881
 1583SOL     OW16210   2.740   2.282   5.681  0.1245  0.5539  0.0845
 1583SOL    HW116211   2.814   2.233   5.718  1.5728  1.0100 -2.2568
 1583SOL    HW216212   2.720   2.345   5.751 -0.7735 -0.0985  0.4201
 1584SOL     OW16213   1.253   1.821  13.047  0.6343 -0.2619 -0.1552
 1584SOL    HW116214   1.325   1.758  13.058  0.6156  0.2285  2.9162
 1584SOL    HW216215   1.303   1.898  13.019 -1.3369  1.6475  1.5483
 1585SOL     OW16216   0.146   3.251   1.380 -0.0801 -0.1515  0.3182
 1585SOL    HW116217   0.205   3.207   1.441 -0.5015  0.0446  0.8607
 1585SOL    HW216218   0.164   3.345   1.387 -1.2915 -0.0810  2.2764
 1586SOL     OW16219   2.726   2.673  12.416 -0.2951  0.1051  0.1014
 1586SOL    HW116220   2.756   2.759  12.444  0.8153 -0.7246  1.4986
 1586SOL    HW216221   2.650   2.698  12.363 -1.5622  0.1647  1.9108
 1587SOL     OW16222   3.570   0.513   6.110 -0.4819  0.4391 -0.1281
 1587SOL    HW116223   3.529   0.553   6.034  2.2144  0.0006 -1.8254
 1587SOL    HW216224   3.522   0.558   6.180 -0.3227 -2.0755  1.5975
 1588SOL     OW16225   4.193   3.917  14.684  0.0926  0.4369  0.1856
 1588SOL    HW116226   4.266   3.970  14.715 -0.5882  0.0908  2.3920
 1588SOL    HW216227   4.140   3.908  14.763 -2.0882 -1.8093 -1.5337
 1589SOL     OW16228   1.134   4.695   7.261 -0.9119 -0.2844 -0.1320
 1589SOL    HW116229   1.195   4.623   7.274 -0.5891  0.0278  0.0740
 1589SOL    HW216230   1.149   4.705   7.167  2.3405 -1.2205  0.3073
 1590SOL     OW16231   0.049   4.576   7.833  0.0409 -0.1625  0.2053
 1590SOL    HW116232   0.012   4.584   7.921  2.5140  1.0835  1.1143
 1590SOL    HW216233   0.057   4.481   7.838  2.2287  0.0519  0.7498
 1591SOL     OW16234   0.314   1.647   2.174 -0.4688  0.4759  0.2029
 1591SOL    HW116235   0.375   1.691   2.115  2.1045 -0.8273  1.8600
 1591SOL    HW216236   0.315   1.562   2.129 -0.7530  1.0226 -0.8517
 1592SOL     OW16237   2.145   2.446   3.950 -0.2216 -0.6663 -0.4833
 1592SOL    HW116238   2.195   2.370   3.980  2.1009  1.5312  1.2031
 1592SOL    HW216239   2.180   2.435   3.861  0.3920 -3.0370  0.0478
 1593SOL     OW16240   2.362   4.614   8.542 -0.0005  0.1627  0.2750
 1593SOL    HW116241   2.417   4.540   8.515  2.0903  1.6074  0.5684
 1593SOL    HW216242   2.317   4.571   8.615  1.9916  0.0213  1.4216
 1594SOL     OW16243   1.282   2.090   2.677 -1.3422  0.2547  0.0762
 1594SOL    HW116244   1.312   2.128   2.595  0.3593  2.4313  1.7157
 1594SOL    HW216245   1.342   2.016   2.680 -0.7850  0.7001 -0.1880
 1595SOL     OW16246   1.726   4.446   4.798  0.2214 -0.3709 -0.1429
 1595SOL    HW116247   1.646   4.481   4.837 -1.0806 -2.0744 -1.2457
 1595SOL    HW216248   1.743   4.491   4.716  0.0151  1.0296  0.5903
 1596SOL     OW16249   4.639   4.406   4.598 -0.2848 -0.2525 -0.0224
 1596SOL    HW116250   4.667   4.446   4.680 -3.1537  0.5780  0.5710
 1596SOL    HW216251   4.664   4.315   4.611 -0.3081 -0.3460 -0.6298
 1597SOL     OW16252   2.651   3.643   8.280  0.4372 -0.2984 -0.3062
 1597SOL    HW116253   2.584   3.690   8.329 -0.9121 -1.4769 -1.0242
 1597SOL    HW216254   2.714   3.626   8.351  0.2218 -2.1764 -0.5691
 1598SOL     OW16255   3.448   2.942   4.132  0.4296 -0.3223  0.0846
 1598SOL    HW116256   3.511   3.012   4.117 -2.5268  2.2684 -0.3053
 1598SOL    HW216257   3.506   2.866   4.124  3.1277  1.7660  0.1201
 1599SOL     OW16258   0.388   3.399   5.056  0.7215  0.2155  0.4644
 1599SOL    HW116259   0.426   3.394   4.969 -1.6991 -1.4394 -0.4986
 1599SOL    HW216260   0.357   3.310   5.070  1.9230 -0.4289 -1.0742
 1600SOL     OW16261   4.640   1.438  10.159  0.0253 -0.1738  0.0765
 1600SOL    HW116262   4.565   1.407  10.211 -0.4583 -1.1059 -1.1860
 1600SOL    HW216263   4.709   1.390  10.204  0.4860  1.3132  0.9712
 1601SOL     OW16264   0.801   0.979   7.551 -0.0654 -0.1329 -0.2066
 1601SOL    HW116265   0.757   0.895   7.564  1.2988 -0.4606  2.2730
 1601SOL    HW216266   0.784   0.998   7.458  1.8395 -1.3870 -0.8273
 1602SOL     OW16267   1.376   3.836   4.877  0.1222  0.0796  0.3505
 1602SOL    HW116268   1.429   3.916   4.875  0.4683 -0.1366  1.3082
 1602SOL    HW216269   1.287   3.865   4.899  0.1465 -1.3246  2.2686
 1603SOL     OW16270   4.447   3.476  12.391 -0.1228  0.6991  0.2571
 1603SOL    HW116271   4.514   3.486  12.324  0.3175 -0.7657  0.4835
 1603SOL    HW216272   4.362   3.500  12.352 -0.2761  2.0921  1.4731
 1604SOL     OW16273   3.475   1.706   2.846 -0.2612 -0.1264  0.0247
 1604SOL    HW116274   3.439   1.627   2.885 -1.1704 -0.0091 -0.5623
 1604SOL    HW216275   3.511   1.668   2.766  3.2665  2.4839  0.4003
 1605SOL     OW16276   2.041   3.673   7.971  0.3677 -0.1828  0.2209
 1605SOL    HW116277   2.050   3.604   7.905 -2.0747 -0.0873 -0.1926
 1605SOL    HW216278   2.048   3.756   7.922  2.6153 -1.2552 -1.3112
 1606SOL     OW16279   0.670   1.011  11.867  0.3500  0.6117  0.4460
 1606SOL    HW116280   0.670   1.036  11.775 -0.1026  0.0276  0.2914
 1606SOL    HW216281   0.628   1.083  11.915  3.2974  1.9742  1.0415
 1607SOL     OW16282   2.488   2.246   8.199  0.1377  0.4721  0.0790
 1607SOL    HW116283   2.563   2.187   8.204 -0.9867 -0.8956  0.8589
 1607SOL    HW216284   2.533   2.325   8.167 -0.1447  0.7733  0.4268
 1608SOL     OW16285   3.663   1.873   4.547 -0.5499  0.1239 -0.2308
 1608SOL    HW116286   3.691   1.876   4.639 -4.1285 -1.8756  0.9501
 1608SOL    HW216287   3.706   1.793   4.519 -1.1935  0.3380 -1.8548
 1609SOL     OW16288   0.901   2.881   3.767 -0.1928  0.1035 -0.4782
 1609SOL    HW116289   0.903   2.911   3.676  0.7186 -0.8473 -0.7661
 1609SOL    HW216290   0.857   2.953   3.813  1.0132  1.1682 -0.9847
 1610SOL     OW16291   1.147   1.372   3.657 -0.1542 -0.4121 -0.0377
 1610SOL    HW116292   1.232   1.376   3.702  1.0021  2.4561 -2.4725
 1610SOL    HW216293   1.093   1.326   3.721  0.1360 -1.0026 -0.2170
 1611SOL     OW16294   0.635   3.786  12.913  0.8219 -0.0336  0.6458
 1611SOL    HW116295   0.727   3.774  12.939  1.2022  2.4436  0.5237
 1611SOL    HW216296   0.645   3.779  12.818  1.8589  1.8464  0.6199
 1612SOL     OW16297   4.419   0.773  16.376 -0.8038 -0.2848  0.0669
 1612SOL    HW116298   4.412   0.728  16.292 -1.9834 -1.5023  0.7998
 1612SOL    HW216299   4.398   0.861  16.348  1.6198  0.0741 -0.6205
 1613SOL     OW16300   3.997   4.696  14.396 -0.0266 -0.4158 -0.4667
 1613SOL    HW116301   3.921   4.690  14.337 -0.9206 -1.8081  0.8289
 1613SOL    HW216302   4.059   0.024  14.344  0.6533 -0.6094  0.1609
 1614SOL     OW16303   3.388   1.738   1.103 -0.0785 -0.4864 -0.0398
 1614SOL    HW116304   3.427   1.663   1.146 -2.5760 -1.9347 -0.3208
 1614SOL    HW216305   3.294   1.746   1.120  0.1103  0.3509  0.6275
 1615SOL     OW16306   0.183   1.853   2.994  0.4673 -0.0433  0.0324
 1615SOL    HW116307   0.099   1.807   3.003 -0.0403  1.1185  1.2568
 1615SOL    HW216308   0.225   1.819   2.915 -0.6931 -2.9675  0.6626
 1616SOL     OW16309   0.211   0.961   8.708 -0.2572  0.1788 -0.0711
 1616SOL    HW116310   0.151   0.890   8.731  0.4503 -0.3305  0.2179
 1616SOL    HW216311   0.258   0.983   8.789 -0.0662  0.1320 -0.1672
 1617SOL     OW16312   3.460   2.667  11.649  0.0700  0.9529 -0.3389
 1617SOL    HW116313   3.438   2.758  11.633  0.4193  0.8777 -1.3141
 1617SOL    HW216314   3.540   2.639  11.603  0.7837 -0.4200  1.7524
 1618SOL     OW16315   4.386   2.405   5.405  0.5392 -0.6091 -0.3422
 1618SOL    HW116316   4.376   2.409   5.309 -2.7847  1.8160  0.0916
 1618SOL    HW216317   4.436   2.481   5.433 -2.1626  0.5517  1.3318
 1619SOL     OW16318   1.302   1.513   6.809  0.3874 -0.2725 -0.0466
 1619SOL    HW116319   1.318   1.597   6.766 -0.9358  0.9767  1.8733
 1619SOL    HW216320   1.391   1.487   6.832  1.0575  1.0185 -1.2093
 1620SOL     OW16321   4.273   2.223   7.660 -0.5451 -0.7149 -0.3302
 1620SOL    HW116322   4.207   2.280   7.700  1.6234  1.6992 -0.1839
 1620SOL    HW216323   4.350   2.280   7.650  0.7728 -2.1700  1.4717
 1621SOL     OW16324   2.967   1.521   5.453 -0.6638  0.7861 -0.0383
 1621SOL    HW116325   2.978   1.471   5.535 -1.2963  0.1249 -0.3653
 1621SOL    HW216326   3.041   1.582   5.457 -0.0600 -0.0421  1.6293
 1622SOL     OW16327   2.537   3.587   1.825 -0.7279 -0.5765 -0.2024
 1622SOL    HW116328   2.469   3.638   1.782  0.1449 -0.0953 -1.0237
 1622SOL    HW216329   2.496   3.572   1.910  1.1366 -1.2140  0.6004
 1623SOL     OW16330   3.588   2.362   1.390  1.0073  0.4522  0.0031
 1623SOL    HW116331   3.611   2.289   1.332 -0.8452 -0.6147  0.6137
 1623SOL    HW216332   3.524   2.319   1.447  2.1255  0.2441  1.0926
 1624SOL     OW16333   3.368   1.280   1.084 -0.1658  0.4303  0.5162
 1624SOL    HW116334   3.303   1.243   1.144 -1.0896 -1.1311 -1.4426
 1624SOL    HW216335   3.328   1.248   1.003  0.7354 -0.4840  0.4278
 1625SOL     OW16336   4.619   4.052   2.901  0.8359  0.0935  0.1816
 1625SOL    HW116337   4.620   3.976   2.960  0.1958 -0.6069 -0.7028
 1625SOL    HW216338   4.712   4.077   2.897  0.5826  1.1693  1.1604
 1626SOL     OW16339   0.396   1.532   9.501  0.2977  0.5230 -0.2553
 1626SOL    HW116340   0.305   1.562   9.508 -0.0563 -1.2389  2.6282
 1626SOL    HW216341   0.442   1.615   9.515 -0.1233  0.7116 -0.0067
 1627SOL     OW16342   3.777   0.134   8.938  0.3953 -0.1899 -0.1801
 1627SOL    HW116343   3.711   0.068   8.916  0.9504 -0.0556 -2.2170
 1627SOL    HW216344   3.794   0.160   8.848  2.3954 -1.3365 -0.1181
 1628SOL     OW16345   3.973   3.048   4.239  0.1181 -0.4554 -0.2471
 1628SOL    HW116346   3.936   2.975   4.290  1.8266 -1.1613 -0.0321
 1628SOL    HW216347   4.038   3.082   4.301 -1.0305  0.4732  0.4663
 1629SOL     OW16348   1.820   3.163   8.313 -0.5686  0.0165  0.0456
 1629SOL    HW116349   1.732   3.164   8.276 -0.8516 -0.8238  0.7150
 1629SOL    HW216350   1.876   3.174   8.235  1.4837  0.7363  1.6142
 1630SOL     OW16351   0.024   4.109   3.470 -0.3161 -1.0094 -0.3097
 1630SOL    HW116352   0.088   4.051   3.428  0.2934  1.2753 -2.5988
 1630SOL    HW216353   4.667   4.086   3.422 -0.7954 -0.2281  0.1005
 1631SOL     OW16354   4.154   0.469  10.330 -0.0935 -0.0087 -0.1704
 1631SOL    HW116355   4.109   0.450  10.248 -0.5856 -2.2440  0.6148
 1631SOL    HW216356   4.163   0.562  10.309  0.3834 -0.2248 -0.9139
 1632SOL     OW16357   0.661   3.129   2.214  0.1170 -0.3270 -0.3780
 1632SOL    HW116358   0.620   3.081   2.142  1.0495 -0.1385 -1.0461
 1632SOL    HW216359   0.597   3.121   2.284  0.3746 -0.7040 -0.1891
 1633SOL     OW16360   3.171   2.683   8.272 -0.2545  0.7614 -0.0618
 1633SOL    HW116361   3.115   2.756   8.248  1.0933  1.6646 -0.4680
 1633SOL    HW216362   3.178   2.708   8.364 -0.7277  1.8721 -0.3249
 1634SOL     OW16363   0.939   4.614   8.419  0.2803  0.4632 -0.2040
 1634SOL    HW116364   0.949   4.655   8.505  1.7368  1.6892 -0.9480
 1634SOL    HW216365   0.844   4.603   8.422  0.4854 -1.6397 -1.0236
 1635SOL     OW16366   0.204   0.655   5.585  0.3592 -0.2304  0.3817
 1635SOL    HW116367   0.250   0.734   5.615  0.8478 -0.7338  0.9512
 1635SOL    HW216368   0.116   0.678   5.616  0.2548 -0.5673  0.3284
 1636SOL     OW16369   1.882   3.391   2.545  0.3449  0.0119 -0.4063
 1636SOL    HW116370   1.863   3.482   2.569  0.2743 -0.3388  0.8494
 1636SOL    HW216371   1.976   3.378   2.556  0.4223 -0.9502 -2.1744
 1637SOL     OW16372   0.149   2.661   7.905 -0.3721 -1.1049 -0.1095
 1637SOL    HW116373   0.071   2.640   7.957 -1.1020 -0.9447 -1.1291
 1637SOL    HW216374   0.192   2.577   7.889  0.4764 -0.4676 -1.1645
 1638SOL     OW16375   1.707   1.076  13.670 -0.4443 -0.1251 -0.1376
 1638SOL    HW116376   1.613   1.064  13.682 -0.3548  0.5712  1.2703
 1638SOL    HW216377   1.705   1.120  13.585 -1.0776 -0.8862 -0.5137
 1639SOL     OW16378   4.678   3.369  10.272  0.1595 -0.3817 -0.2912
 1639SOL    HW116379   4.689   3.307  10.344 -0.6330  0.0071  0.1598
 1639SOL    HW216380   4.613   3.319  10.222  0.4381 -1.1801  0.1619
 1640SOL     OW16381   1.268   2.740   4.910  0.1909 -0.4940 -0.0269
 1640SOL    HW116382   1.187   2.774   4.946 -0.6825 -1.2874 -1.2222
 1640SOL    HW216383   1.323   2.764   4.984  0.6010 -1.3326 -0.0596
 1641SOL     OW16384   1.934   0.457  15.396 -0.9222  0.2776 -0.2039
 1641SOL    HW116385   1.872   0.476  15.467  0.5108  0.1245  1.0981
 1641SOL    HW216386   1.877   0.403  15.342 -0.8767  0.3209 -0.2940
 1642SOL     OW16387   3.493   4.061   3.333  0.3644 -0.2917 -0.4986
 1642SOL    HW116388   3.520   3.986   3.387  2.3550  0.6076 -0.2515
 1642SOL    HW216389   3.576   4.091   3.296  0.6642 -1.0357 -0.4336
 1643SOL     OW16390   3.752   0.920   7.112 -0.6325 -0.5853 -0.4942
 1643SOL    HW116391   3.781   0.994   7.059 -0.7942 -0.0047  0.2285
 1643SOL    HW216392   3.787   0.846   7.063  0.9279  0.8006 -1.4598
 1644SOL     OW16393   2.227   4.215   1.943  0.4172 -0.0418  0.6025
 1644SOL    HW116394   2.307   4.181   1.902 -0.1010 -0.7351  0.1645
 1644SOL    HW216395   2.261   4.257   2.022  0.6968 -1.5121  1.2599
 1645SOL     OW16396   4.015   2.448   4.022 -0.5454  0.1792  0.2895
 1645SOL    HW116397   4.092   2.416   3.974  0.1567  1.3090  0.6516
 1645SOL    HW216398   3.966   2.368   4.040  0.2418 -0.3786 -0.0181
 1646SOL     OW16399   2.384   2.747   7.130  0.2246 -0.1035  0.0316
 1646SOL    HW116400   2.397   2.654   7.109 -2.8544 -0.5059 -0.1036
 1646SOL    HW216401   2.366   2.734   7.223  1.7686 -0.4858  0.2829
 1647SOL     OW16402   1.016   2.333  10.544 -0.7191 -0.1509  0.6011
 1647SOL    HW116403   0.932   2.374  10.565 -0.8715 -1.1488  1.9032
 1647SOL    HW216404   1.002   2.243  10.571 -0.3336 -0.2967  0.3179
 1648SOL     OW16405   4.624   1.504  12.426 -0.0239 -0.1008 -0.0441
 1648SOL    HW116406   4.640   1.582  12.374 -0.4900 -0.4273 -0.6845
 1648SOL    HW216407   4.642   1.527  12.517 -1.0690 -0.1349  0.1757
 1649SOL     OW16408   4.678   1.881   7.709  0.7486  0.2922  0.1891
 1649SOL    HW116409   4.674   1.962   7.657  0.9248 -0.9030 -1.7103
 1649SOL    HW216410   4.593   1.841   7.692  0.6195  1.3203 -1.6207
 1650SOL     OW16411   3.304   2.823   7.191  0.3834  0.4702  0.1002
 1650SOL    HW116412   3.322   2.749   7.133  0.5294 -1.4888  2.6417
 1650SOL    HW216413   3.283   2.891   7.127  1.3945 -1.2058 -2.0117
 1651SOL     OW16414   3.208   0.853   8.204  0.3998  0.1044 -0.5630
 1651SOL    HW116415   3.210   0.875   8.111  1.3092  0.3603 -0.4827
 1651SOL    HW216416   3.115   0.868   8.222  0.0965 -0.3216 -1.7513
 1652SOL     OW16417   3.080   0.949  11.693 -0.1398 -0.5841 -0.1484
 1652SOL    HW116418   3.089   1.012  11.621 -1.3813  0.9405  1.0252
 1652SOL    HW216419   2.988   0.961  11.718 -0.1170 -1.0824  0.1717
 1653SOL     OW16420   3.337   3.131   7.251 -0.3286  0.3276 -0.2092
 1653SOL    HW116421   3.312   3.095   7.165 -1.2915 -0.5985  0.4485
 1653SOL    HW216422   3.261   3.097   7.299  0.0716 -1.0982 -0.5686
 1654SOL     OW16423   0.103   4.378  12.919 -0.8598  0.1075 -0.0874
 1654SOL    HW116424   0.077   4.315  12.987 -1.8154  1.7673  1.0984
 1654SOL    HW216425   0.163   4.330  12.862  0.6698 -0.3298  1.8961
 1655SOL     OW16426   2.213   2.774   7.868 -0.1969 -0.0228  0.7894
 1655SOL    HW116427   2.229   2.690   7.824  3.0077  1.9305 -1.8285
 1655SOL    HW216428   2.279   2.773   7.938 -0.3980  0.8508  0.9874
 1656SOL     OW16429   3.518   2.537   5.116  0.4561 -0.0338 -0.1390
 1656SOL    HW116430   3.564   2.503   5.193  0.1631  0.2830  0.1792
 1656SOL    HW216431   3.579   2.606   5.090 -1.9445  2.9415  2.0419
 1657SOL     OW16432   2.368   1.241   6.595 -0.4037 -0.1207  0.4030
 1657SOL    HW116433   2.285   1.287   6.606 -2.2432 -2.9302 -1.6494
 1657SOL    HW216434   2.387   1.266   6.504 -0.9598 -0.0125  0.3154
 1658SOL     OW16435   2.047   3.374   4.211 -0.8511 -0.3143 -0.3009
 1658SOL    HW116436   2.089   3.437   4.268 -2.1474 -1.2293  1.6717
 1658SOL    HW216437   2.104   3.298   4.226 -0.8348 -0.2759 -0.1731
 1659SOL     OW16438   3.849   0.598   2.947 -0.3210  0.2635  0.3617
 1659SOL    HW116439   3.782   0.548   2.901 -1.6317  1.0180  1.4663
 1659SOL    HW216440   3.879   0.653   2.875  0.9437  0.6548  1.1719
 1660SOL     OW16441   2.793   2.302  17.161  0.2331  0.1165  0.2784
 1660SOL    HW116442   2.731   2.357  17.210 -0.9355  0.9375 -2.1241
 1660SOL    HW216443   2.754   2.216  17.147  1.4496 -0.6802  1.7633
 1661SOL     OW16444   2.654   2.670   7.301 -0.0847 -0.7042  0.0905
 1661SOL    HW116445   2.622   2.631   7.219  0.4078 -1.3840  0.2216
 1661SOL    HW216446   2.743   2.690   7.272  0.1279 -2.4173 -0.4507
 1662SOL     OW16447   1.819   4.019   0.538  0.4799 -0.2706 -0.2833
 1662SOL    HW116448   1.827   4.110   0.564 -0.6644 -0.1079 -0.4735
 1662SOL    HW216449   1.889   3.979   0.589 -1.7287 -3.4084  0.3118
 1663SOL     OW16450   2.760   3.590   8.531  0.0643 -0.3573 -0.0461
 1663SOL    HW116451   2.711   3.558   8.607  0.7567  1.1375  1.0339
 1663SOL    HW216452   2.808   3.654   8.583  2.1148  0.9015 -3.5350
 1664SOL     OW16453   0.962   4.472   3.349  0.5151 -0.0168 -0.8026
 1664SOL    HW116454   0.885   4.521   3.378  0.5567 -0.6048  0.3125
 1664SOL    HW216455   0.928   4.434   3.268 -2.4252 -1.9378  1.3253
 1665SOL     OW16456   1.465   3.054   4.886 -0.5968  0.6051  0.1695
 1665SOL    HW116457   1.465   3.143   4.922 -2.1738  0.6756 -0.0261
 1665SOL    HW216458   1.553   3.032   4.918  1.0782  1.5606 -3.7736
 1666SOL     OW16459   2.252   2.891   0.015  0.2201 -0.2359  0.2873
 1666SOL    HW116460   2.223   2.882   0.106 -1.8676 -0.0377 -0.3667
 1666SOL    HW216461   2.189   2.850  17.648 -0.4986  1.9023 -0.4495
 1667SOL     OW16462   0.523   2.466  13.097  0.1279  0.2258 -0.0989
 1667SOL    HW116463   0.439   2.452  13.141  0.9125  0.7119  1.5186
 1667SOL    HW216464   0.486   2.461  13.008 -0.7624 -1.7639  0.3756
 1668SOL     OW16465   3.461   1.830   5.181  0.2160 -0.6771  0.3984
 1668SOL    HW116466   3.496   1.837   5.092  2.3925 -1.4358  1.1911
 1668SOL    HW216467   3.490   1.743   5.209 -2.1735 -1.9218 -1.0566
 1669SOL     OW16468   0.415   2.538   9.582 -0.4335 -0.4226  0.1432
 1669SOL    HW116469   0.353   2.466   9.599 -3.0051  1.7360 -0.0969
 1669SOL    HW216470   0.470   2.487   9.523 -2.3824 -0.5408 -1.5834
 1670SOL     OW16471   1.841   0.249   6.899 -0.0979  0.6783 -0.0125
 1670SOL    HW116472   1.918   0.216   6.946  1.1866 -1.0532 -3.3398
 1670SOL    HW216473   1.816   0.320   6.958 -0.7667 -0.2052  0.7575
 1671SOL     OW16474   3.579   2.089   7.349  0.0558  0.1820 -0.1285
 1671SOL    HW116475   3.516   2.017   7.342 -1.3811  1.4055  0.1920
 1671SOL    HW216476   3.621   2.090   7.263  2.0902 -0.0708  0.8546
 1672SOL     OW16477   2.771   1.671  16.218  0.3071 -0.0289  0.2280
 1672SOL    HW116478   2.803   1.721  16.294  0.6145 -1.1093  0.8090
 1672SOL    HW216479   2.766   1.587  16.264 -3.4008  0.3788  0.5801
 1673SOL     OW16480   2.688   3.682  11.539  0.2134 -0.3802 -0.4759
 1673SOL    HW116481   2.660   3.768  11.569 -0.0054 -0.9730  1.0399
 1673SOL    HW216482   2.611   3.648  11.494 -0.3741  0.1960  0.0883
 1674SOL     OW16483   4.069   0.552  11.722 -0.3885 -0.0168  0.4016
 1674SOL    HW116484   4.098   0.467  11.756  0.7428  0.8118  1.5004
 1674SOL    HW216485   4.155   0.592  11.710 -0.0455 -0.4861  1.2371
 1675SOL     OW16486   1.856   3.554   1.713 -0.2504  0.8831 -0.4640
 1675SOL    HW116487   1.838   3.633   1.764 -0.1217  1.8764 -1.9631
 1675SOL    HW216488   1.771   3.510   1.715  0.1525  0.1974  1.7016
 1676SOL     OW16489   0.517   0.140  11.142  0.2785 -0.1254  0.2191
 1676SOL    HW116490   0.447   0.114  11.082  0.2645 -0.8716  0.5499
 1676SOL    HW216491   0.579   0.163  11.073  1.3747 -1.8929  0.6149
 1677SOL     OW16492   2.506   2.969   8.000  0.1875  0.8290  0.3907
 1677SOL    HW116493   2.596   2.990   8.026  0.0367 -0.1606  1.7213
 1677SOL    HW216494   2.520   2.875   7.986  0.6337  0.8721  0.5489
 1678SOL     OW16495   3.191   3.243   7.506 -0.2470 -0.1296  0.6528
 1678SOL    HW116496   3.275   3.283   7.525  0.3313 -0.4846 -1.1056
 1678SOL    HW216497   3.207   3.169   7.565 -0.4908 -0.9244 -0.2623
 1679SOL     OW16498   2.225   4.370   5.188  0.3218 -0.1194 -0.0988
 1679SOL    HW116499   2.286   4.389   5.117 -0.8059 -0.3910 -1.1353
 1679SOL    HW216500   2.248   4.278   5.198  4.2241  0.8160 -0.5288
 1680SOL     OW16501   1.070   0.266   1.760  0.1561 -0.2568 -0.4451
 1680SOL    HW116502   1.031   0.188   1.720  0.8228 -1.3776  1.1215
 1680SOL    HW216503   1.053   0.251   1.853  0.3244 -1.1241 -0.5555
 1681SOL     OW16504   2.474   0.147   7.820  0.2068 -0.1132 -0.1585
 1681SOL    HW116505   2.466   0.209   7.747 -0.3725  1.6561  1.4136
 1681SOL    HW216506   2.421   0.186   7.889 -0.2098  1.5466 -1.4141
 1682SOL     OW16507   0.579   3.039   5.150  0.4806 -0.0623 -0.2528
 1682SOL    HW116508   0.484   3.037   5.163  0.6182  0.6915  0.8457
 1682SOL    HW216509   0.606   2.971   5.212 -0.6612 -0.2265  0.0638
 1683SOL     OW16510   1.253   0.761   5.605  0.4046 -0.5004  0.2826
 1683SOL    HW116511   1.297   0.676   5.613  1.3795 -0.2201 -1.9234
 1683SOL    HW216512   1.316   0.821   5.645  1.4527 -0.6200 -1.1622
 1684SOL     OW16513   0.583   2.073   2.299  0.3157  0.6077  0.2886
 1684SOL    HW116514   0.533   1.994   2.319  0.6089  0.4380  0.3369
 1684SOL    HW216515   0.672   2.044   2.317  0.9186  1.9494 -0.4700
 1685SOL     OW16516   3.277   2.394   4.305  0.5201  0.6327  0.5430
 1685SOL    HW116517   3.351   2.337   4.285 -0.8224 -1.3057  1.0062
 1685SOL    HW216518   3.223   2.372   4.229  1.0613  2.2764 -0.3185
 1686SOL     OW16519   4.086   1.061  13.322  0.1803  0.0798  0.1495
 1686SOL    HW116520   4.096   0.970  13.349 -1.9053  0.2208  1.4435
 1686SOL    HW216521   4.119   1.096  13.405 -0.3709  1.6109 -0.2659
 1687SOL     OW16522   2.829   0.046  11.283  0.1519  0.1949 -0.2614
 1687SOL    HW116523   2.903   0.008  11.236 -0.4350  3.4649 -3.8647
 1687SOL    HW216524   2.825   0.132  11.242  3.4626  0.8649  0.8166
 1688SOL     OW16525   4.468   1.072   5.315 -0.4194 -0.0544 -0.3726
 1688SOL    HW116526   4.558   1.070   5.345  0.2527 -0.4378 -2.4377
 1688SOL    HW216527   4.439   1.135   5.381 -1.5732  0.4561 -1.3594
 1689SOL     OW16528   1.556   3.488   9.784  0.2605  0.3768  0.2271
 1689SOL    HW116529   1.577   3.396   9.801  0.2802 -0.0038 -1.8861
 1689SOL    HW216530   1.541   3.520   9.873 -0.8930  0.2760  0.0706
 1690SOL     OW16531   1.934   0.773   7.120 -0.3405 -0.1277 -0.6187
 1690SOL    HW116532   1.900   0.786   7.208 -1.9860 -0.7761 -1.1693
 1690SOL    HW216533   1.896   0.853   7.084 -0.3893  0.4839  0.7806
 1691SOL     OW16534   0.809   2.613   3.837  0.0401  0.1591 -0.1495
 1691SOL    HW116535   0.743   2.631   3.904 -0.4040 -0.8934 -0.3019
 1691SOL    HW216536   0.839   2.701   3.813  1.5290 -0.4989 -0.6898
 1692SOL     OW16537   0.619   1.261   6.557  0.3634 -0.3468 -0.1847
 1692SOL    HW116538   0.639   1.307   6.476  2.7458 -2.2772 -0.6882
 1692SOL    HW216539   0.696   1.292   6.605  0.9137 -1.5562 -0.2981
 1693SOL     OW16540   4.262   0.055   7.405 -0.6432  0.5175 -0.0046
 1693SOL    HW116541   4.283   0.105   7.484 -1.0642 -0.1642  0.5350
 1693SOL    HW216542   4.237   4.694   7.444  0.7941  0.5264  0.9414
 1694SOL     OW16543   1.267   2.333   9.552 -0.3906  0.0039 -0.0319
 1694SOL    HW116544   1.178   2.352   9.582 -1.2357 -0.6088 -2.2229
 1694SOL    HW216545   1.325   2.342   9.628 -2.0131  1.2387  1.0715
 1695SOL     OW16546   0.697   2.318   6.515 -0.2123 -0.4089  0.7287
 1695SOL    HW116547   0.624   2.255   6.518  0.5392 -1.2732  0.7955
 1695SOL    HW216548   0.651   2.399   6.493 -0.5296 -1.0013 -0.8018
 1696SOL     OW16549   1.796   4.445   6.512 -0.0041  0.0442 -0.3624
 1696SOL    HW116550   1.799   4.508   6.584  2.1078  0.1268 -0.5208
 1696SOL    HW216551   1.875   4.394   6.528 -1.0272 -1.7616 -1.0795
 1697SOL     OW16552   2.775   0.096   2.349  0.1620 -0.2554  0.1500
 1697SOL    HW116553   2.767   0.009   2.309 -1.7685 -0.3589  0.7796
 1697SOL    HW216554   2.871   0.101   2.343  0.0246  0.6432 -1.3285
 1698SOL     OW16555   3.881   3.539  12.831  0.2313  0.6872  0.3945
 1698SOL    HW116556   3.824   3.578  12.897  0.2999  3.4368 -1.1570
 1698SOL    HW216557   3.837   3.456  12.814 -2.9749  2.5414 -0.3622
 1699SOL     OW16558   3.681   3.592  10.405  0.0974 -0.3855  0.1610
 1699SOL    HW116559   3.674   3.514  10.460 -1.3986 -0.1738  0.2678
 1699SOL    HW216560   3.776   3.605  10.395  0.5458 -2.1072  2.2094
 1700SOL     OW16561   1.691   1.827   1.690  0.1722  0.3718  0.3817
 1700SOL    HW116562   1.614   1.774   1.709 -0.8670  1.3436 -1.0993
 1700SOL    HW216563   1.760   1.761   1.693 -1.6240 -1.5448 -0.8623
 1701SOL     OW16564   1.786   1.602   5.326  0.3651  0.2492 -0.2897
 1701SOL    HW116565   1.764   1.638   5.412  0.6900 -0.5578  0.1307
 1701SOL    HW216566   1.721   1.645   5.271 -0.0706 -0.6798 -0.4956
 1702SOL     OW16567   2.452   4.695  16.098  0.0445 -0.3919  0.1429
 1702SOL    HW116568   2.387   4.674  16.031 -0.7947 -0.4679  0.9987
 1702SOL    HW216569   2.515   4.623  16.092  1.2645  0.6703  0.3164
 1703SOL     OW16570   2.218   3.984   5.910  0.4539  0.5706 -0.6552
 1703SOL    HW116571   2.152   4.045   5.942 -0.2678  0.1581 -1.3827
 1703SOL    HW216572   2.158   3.919   5.873 -0.6837  1.4257 -0.2936
 1704SOL     OW16573   0.302   3.293   6.236  0.7971 -0.2215  0.1796
 1704SOL    HW116574   0.227   3.306   6.179 -0.3514 -1.1023  1.5095
 1704SOL    HW216575   0.352   3.366   6.199 -0.5100 -0.3715 -1.8752
 1705SOL     OW16576   1.127   4.259   6.527 -0.1915 -1.0346 -0.3800
 1705SOL    HW116577   1.049   4.204   6.512 -1.0624 -0.3467  1.6567
 1705SOL    HW216578   1.149   4.226   6.614 -0.6855 -1.0127 -0.2463
 1706SOL     OW16579   0.267   1.915   1.232 -0.0149 -0.5506 -0.2962
 1706SOL    HW116580   0.266   1.944   1.324 -1.3724  0.7577 -0.7234
 1706SOL    HW216581   0.269   1.824   1.261  2.5798 -0.1430  0.8252
 1707SOL     OW16582   4.228   2.987   9.962 -0.2123  0.0819  0.0333
 1707SOL    HW116583   4.277   3.069   9.962 -1.0190  0.5728  0.3472
 1707SOL    HW216584   4.148   3.011   9.915 -0.1045 -0.9948 -0.6830
 1708SOL     OW16585   3.526   3.859  10.432 -0.4887  0.0643  0.5006
 1708SOL    HW116586   3.617   3.839  10.457 -0.2776 -0.7198 -0.8858
 1708SOL    HW216587   3.506   3.780  10.381 -0.2403 -0.0212  0.5346
 1709SOL     OW16588   3.115   1.867   3.192 -0.5444  0.6212 -0.4016
 1709SOL    HW116589   3.135   1.912   3.275 -1.9610  2.5269 -1.1164
 1709SOL    HW216590   3.150   1.927   3.127  0.4927  2.8239  2.1743
 1710SOL     OW16591   4.374   4.290   1.301 -0.3500 -0.0666 -0.0167
 1710SOL    HW116592   4.291   4.250   1.324 -0.2506 -1.2100 -1.6314
 1710SOL    HW216593   4.376   4.365   1.361 -1.5422  1.9245 -2.4770
 1711SOL     OW16594   3.834   1.335   5.995  0.4336 -0.4402  0.1224
 1711SOL    HW116595   3.927   1.359   5.998 -0.3562  2.8161 -1.5763
 1711SOL    HW216596   3.816   1.340   6.089  2.4807 -0.0809  0.5065
 1712SOL     OW16597   3.423   0.482   7.418  0.0704  0.1276  0.2541
 1712SOL    HW116598   3.494   0.426   7.448 -0.0180  0.3428  0.8699
 1712SOL    HW216599   3.379   0.502   7.501  1.0069 -1.9766  1.2244
 1713SOL     OW16600   2.166   1.937   0.501 -0.1714 -0.3015  0.3221
 1713SOL    HW116601   2.151   1.898   0.587  0.6762 -0.4681  0.3955
 1713SOL    HW216602   2.124   2.022   0.509  0.0141 -0.3285  1.5077
 1714SOL     OW16603   2.549   0.200   3.480  0.7764  0.4142  0.3521
 1714SOL    HW116604   2.628   0.152   3.456 -0.6456 -1.6536 -0.1238
 1714SOL    HW216605   2.555   0.265   3.410 -1.4505  0.4371  0.1953
 1715SOL     OW16606   0.589   4.250   8.906  0.1209  0.0050  0.1940
 1715SOL    HW116607   0.662   4.311   8.890  1.0444 -1.4645 -1.1637
 1715SOL    HW216608   0.517   4.302   8.871 -0.3314 -1.2687 -0.7373
 1716SOL     OW16609   2.947   0.768   1.718  0.5469  0.3996 -0.2244
 1716SOL    HW116610   2.963   0.676   1.738  1.4312 -0.1373 -3.4713
 1716SOL    HW216611   2.911   0.773   1.630 -0.2108 -2.2617 -0.0587
 1717SOL     OW16612   0.947   1.468   9.324 -0.3485  0.6936  0.1969
 1717SOL    HW116613   0.983   1.528   9.390  1.5940 -2.0706  1.6315
 1717SOL    HW216614   0.907   1.392   9.366  0.1170 -0.1800 -0.9476
 1718SOL     OW16615   3.493   1.030   6.460 -0.1715  0.8441  0.0658
 1718SOL    HW116616   3.534   1.074   6.386  2.1645 -0.1293  0.7481
 1718SOL    HW216617   3.405   1.064   6.443 -0.6767 -1.8433 -2.6230
 1719SOL     OW16618   4.108   4.679   9.533  0.5885 -0.6246  0.4914
 1719SOL    HW116619   4.115   4.646   9.623 -1.7912  1.2266  1.3661
 1719SOL    HW216620   4.203   4.690   9.522  0.4643 -0.4916 -0.4418
 1720SOL     OW16621   4.058   0.856   0.895 -0.8385  0.2667 -0.0320
 1720SOL    HW116622   4.151   0.859   0.914 -0.6427 -1.7609 -0.6122
 1720SOL    HW216623   4.046   0.931   0.836  4.3315  1.2179  0.1781
 1721SOL     OW16624   1.408   2.613   3.763 -0.0305  0.6101  0.1165
 1721SOL    HW116625   1.422   2.652   3.849 -3.2007  0.0435  0.9072
 1721SOL    HW216626   1.322   2.654   3.755 -1.0686 -1.1492  2.0623
 1722SOL     OW16627   3.513   3.194  10.552  0.8583 -0.6109  0.8821
 1722SOL    HW116628   3.508   3.286  10.528 -0.7194 -0.8361  0.3470
 1722SOL    HW216629   3.583   3.158  10.498 -0.5190  2.6956 -3.0456
 1723SOL     OW16630   0.256   1.232   6.923  0.2315 -0.3626 -0.0668
 1723SOL    HW116631   0.335   1.203   6.879  0.9275  1.9135 -0.3456
 1723SOL    HW216632   0.256   1.322   6.888 -1.0222 -0.4226 -0.2547
 1724SOL     OW16633   3.087   3.904   4.632  0.3193  0.2618 -0.0816
 1724SOL    HW116634   3.014   3.845   4.654  1.8871 -2.1247 -1.1979
 1724SOL    HW216635   3.039   3.977   4.594 -1.7927 -0.7851  0.5052
 1725SOL     OW16636   1.740   3.558   9.351 -0.0468  0.2105  0.1460
 1725SOL    HW116637   1.737   3.654   9.357  0.7534  0.1834  0.8997
 1725SOL    HW216638   1.652   3.534   9.378 -1.1397  4.7583  0.7054
 1726SOL     OW16639   3.044   4.394   3.328  0.2512 -0.3450 -0.0035
 1726SOL    HW116640   3.066   4.466   3.387  1.2136  0.5872 -1.4809
 1726SOL    HW216641   2.949   4.399   3.336  0.0079 -0.7439 -2.7053
 1727SOL     OW16642   3.002   3.497   1.857 -0.0524  0.0126 -0.9459
 1727SOL    HW116643   3.026   3.571   1.801  0.5106 -0.0065 -0.7334
 1727SOL    HW216644   2.984   3.427   1.794 -2.3475  0.3654 -0.6961
 1728SOL     OW16645   0.101   3.457   9.086 -0.2957 -0.5044  0.2158
 1728SOL    HW116646   0.190   3.492   9.089 -1.0850  1.6712 -1.4156
 1728SOL    HW216647   0.067   3.480   9.172  0.2611 -1.4451  0.6840
 1729SOL     OW16648   2.814   3.068   8.926  0.3024 -0.6043  0.4968
 1729SOL    HW116649   2.802   2.986   8.880  0.0562  0.6179 -1.6232
 1729SOL    HW216650   2.767   3.131   8.871  0.6305 -2.5647 -1.9939
 1730SOL     OW16651   0.978   3.482   3.293 -0.0119  0.2505 -0.5996
 1730SOL    HW116652   0.994   3.544   3.363  0.0326  0.5509 -0.8762
 1730SOL    HW216653   0.883   3.489   3.291 -0.1298 -1.0868  0.7211
 1731SOL     OW16654   1.294   1.348   5.182 -0.4694 -0.0067  0.4834
 1731SOL    HW116655   1.330   1.299   5.257 -3.0677 -0.6085  1.3312
 1731SOL    HW216656   1.378   1.367   5.140 -2.6503  0.8872 -3.4896
 1732SOL     OW16657   4.677   3.978  13.263 -0.9082 -0.0963 -0.4052
 1732SOL    HW116658   4.629   4.045  13.214  0.8562  1.3868 -0.1515
 1732SOL    HW216659   4.658   4.009  13.352  0.4922 -3.0734  0.9311
 1733SOL     OW16660   4.236   3.471   8.752 -0.0215  0.0016  0.2540
 1733SOL    HW116661   4.228   3.379   8.775  1.9352 -0.7532 -2.1290
 1733SOL    HW216662   4.150   3.513   8.760 -0.8924 -1.7622 -0.0575
 1734SOL     OW16663   1.998   1.513   9.161 -0.4380  0.4597  0.3344
 1734SOL    HW116664   1.976   1.568   9.236 -1.1388  0.6291  0.0049
 1734SOL    HW216665   2.067   1.570   9.125 -1.4221  1.0197 -0.6500
 1735SOL     OW16666   1.653   3.719   5.644  0.5911 -0.3755 -0.1086
 1735SOL    HW116667   1.589   3.748   5.708  1.5751 -0.4151  0.8989
 1735SOL    HW216668   1.662   3.791   5.581 -3.1619  1.5351  1.5691
 1736SOL     OW16669   3.697   0.568  10.165 -0.0308 -0.0597 -0.0816
 1736SOL    HW116670   3.750   0.579  10.086 -0.2614 -1.2897 -0.4144
 1736SOL    HW216671   3.637   0.494  10.151 -1.5461  0.4589  3.5852
 1737SOL     OW16672   2.610   0.699   6.842  0.1975  0.5398 -1.1881
 1737SOL    HW116673   2.525   0.666   6.816  0.5636 -1.2231 -0.1817
 1737SOL    HW216674   2.674   0.631   6.821  1.1339  0.5203  1.7220
 1738SOL     OW16675   3.713   0.391  12.920  0.6514  0.0520 -0.1533
 1738SOL    HW116676   3.728   0.313  12.973  1.0106 -0.1106 -0.4875
 1738SOL    HW216677   3.768   0.373  12.843 -2.4027  1.2535 -2.6353
 1739SOL     OW16678   3.506   4.110  12.232 -0.1513 -0.2595  0.0320
 1739SOL    HW116679   3.482   4.160  12.154  1.0959  0.5120  0.1474
 1739SOL    HW216680   3.582   4.160  12.261  0.6682 -2.6126  1.9126
 1740SOL     OW16681   2.331   3.708   4.933 -0.4131 -0.3364  0.5887
 1740SOL    HW116682   2.288   3.793   4.931  0.5688  0.1192 -1.4768
 1740SOL    HW216683   2.304   3.680   5.020 -1.9306  1.7806  0.7892
 1741SOL     OW16684   2.792   1.472   0.522 -0.3883 -0.5606  0.1542
 1741SOL    HW116685   2.697   1.460   0.530 -0.5584 -0.7306 -1.9201
 1741SOL    HW216686   2.819   1.544   0.578 -0.8230 -0.9539  0.8727
 1742SOL     OW16687   4.631   3.586  16.281 -0.4122  0.4899 -0.3852
 1742SOL    HW116688   4.557   3.545  16.326  0.9310 -0.4536  0.9174
 1742SOL    HW216689   4.589   3.612  16.199 -0.9261  2.0662  0.3739
 1743SOL     OW16690   0.202   3.087   3.271 -0.3268  0.0573 -0.2032
 1743SOL    HW116691   0.208   3.005   3.319  0.5747 -1.0194 -2.1585
 1743SOL    HW216692   0.266   3.083   3.199 -0.0248  0.9623  0.0069
 1744SOL     OW16693   1.909   2.616   8.989 -0.7007 -0.6605  0.2107
 1744SOL    HW116694   1.911   2.610   8.893 -0.7365  1.9222  0.0543
 1744SOL    HW216695   1.814   2.630   8.993 -0.8708 -1.4419 -1.0736
 1745SOL     OW16696   0.366   3.746   4.576 -0.3467 -0.7885  0.3134
 1745SOL    HW116697   0.440   3.695   4.544 -1.8791 -2.7105 -0.1434
 1745SOL    HW216698   0.289   3.691   4.561 -1.2370  0.3157  0.8438
 1746SOL     OW16699   2.746   0.153   6.598 -0.6964 -0.3869  0.0736
 1746SOL    HW116700   2.669   0.118   6.553 -1.5100 -2.9652  3.5189
 1746SOL    HW216701   2.822   0.140   6.541 -1.4794 -0.7820 -0.8761
 1747SOL     OW16702   4.230   0.380  14.071  0.7909  0.8622  0.5022
 1747SOL    HW116703   4.324   0.368  14.058  0.4954  0.2372 -1.0696
 1747SOL    HW216704   4.183   0.362  13.989  2.6205  0.6729 -0.4984
 1748SOL     OW16705   0.045   0.937   0.936  0.6701  0.6330 -0.7485
 1748SOL    HW116706   0.048   0.913   1.029 -0.8527  1.4919 -0.4788
 1748SOL    HW216707   0.132   0.974   0.918  1.6260 -1.5957 -0.6783
 1749SOL     OW16708   1.301   0.970   4.435  0.1636 -0.4730  0.5779
 1749SOL    HW116709   1.270   0.930   4.354 -0.1924 -2.0282  1.4885
 1749SOL    HW216710   1.223   0.986   4.487  0.7496 -0.7834  1.5608
 1750SOL     OW16711   0.579   0.688   4.898  0.4725 -0.0105  0.3482
 1750SOL    HW116712   0.496   0.694   4.850 -0.9442 -3.0360  2.3924
 1750SOL    HW216713   0.651   0.698   4.835 -0.9270 -0.0346 -1.2699
 1751SOL     OW16714   4.594   1.659   0.721 -0.0220  0.5810 -0.3324
 1751SOL    HW116715   4.608   1.745   0.761  1.8869 -0.9433  2.2578
 1751SOL    HW216716   4.681   1.619   0.725  0.0208  0.5453 -1.6440
 1752SOL     OW16717   2.540   1.900   4.728  0.4154 -0.0624 -0.1113
 1752SOL    HW116718   2.450   1.902   4.759  0.6195  1.9399  0.3487
 1752SOL    HW216719   2.546   1.984   4.684 -0.2748  0.7905  1.4092
 1753SOL     OW16720   2.129   3.467  10.602 -0.2413  0.0871  0.0493
 1753SOL    HW116721   2.176   3.405  10.546 -0.5436 -0.5665  0.5150
 1753SOL    HW216722   2.180   3.459  10.683  1.7222  2.5550 -0.9639
 1754SOL     OW16723   3.161   3.224   3.842 -0.5005 -0.5231  0.6939
 1754SOL    HW116724   3.115   3.153   3.796 -1.1715  0.5368 -0.2718
 1754SOL    HW216725   3.251   3.192   3.845  0.0158  1.0511  1.8660
 1755SOL     OW16726   4.511   3.821   9.514 -0.3738  0.4681  0.1960
 1755SOL    HW116727   4.546   3.753   9.456  1.0742 -0.3280  2.0228
 1755SOL    HW216728   4.554   3.898   9.477 -0.8948  0.0147 -1.3597
 1756SOL     OW16729   2.052   4.440   7.166  0.0484 -0.0554  0.3583
 1756SOL    HW116730   2.148   4.437   7.162  0.0323  0.5552 -0.3229
 1756SOL    HW216731   2.026   4.410   7.253 -0.1512 -0.3043  0.2122
 1757SOL     OW16732   0.254   1.499  11.476  0.1556  0.1103  0.2429
 1757SOL    HW116733   0.262   1.590  11.448  1.4575  0.3402  1.3551
 1757SOL    HW216734   0.348   1.485  11.491 -0.2689  0.9177  3.8805
 1758SOL     OW16735   3.130   0.803   5.958  0.3712  0.7187  0.2762
 1758SOL    HW116736   3.047   0.768   5.923  1.5040 -2.4014  0.7338
 1758SOL    HW216737   3.130   0.888   5.914 -0.6449  0.3363 -0.4683
 1759SOL     OW16738   4.675   3.970  16.212  0.3637  0.6888 -0.5151
 1759SOL    HW116739   4.610   3.903  16.190  0.3288  0.3987  0.4590
 1759SOL    HW216740   4.666   4.022  16.133 -0.0555  1.7971  0.2702
 1760SOL     OW16741   1.581   1.158   5.834 -0.4442 -0.0811 -0.3493
 1760SOL    HW116742   1.636   1.175   5.757  1.0838 -1.7954  0.3669
 1760SOL    HW216743   1.529   1.238   5.838 -1.6591 -0.9107  0.1065
 1761SOL     OW16744   2.856   3.338   1.156  0.1770  0.4704 -0.1223
 1761SOL    HW116745   2.849   3.433   1.150  0.5942  0.4311 -1.3111
 1761SOL    HW216746   2.937   3.324   1.205  1.6385 -1.0046 -2.9027
 1762SOL     OW16747   4.369   1.812   9.818  0.4641 -0.2392  0.0322
 1762SOL    HW116748   4.435   1.762   9.770 -1.7416 -2.1203 -1.0235
 1762SOL    HW216749   4.388   1.778   9.905 -1.8061  0.2364  0.7182
 1763SOL     OW16750   4.194   3.141   5.699 -0.1195  0.0741  0.0583
 1763SOL    HW116751   4.231   3.190   5.773  2.5030 -0.1640 -1.1037
 1763SOL    HW216752   4.117   3.197   5.689  2.1295  3.3640  1.0478
 1764SOL     OW16753   1.798   2.340   4.239 -0.0049  0.0344 -0.1428
 1764SOL    HW116754   1.777   2.306   4.152  0.9812 -0.8792 -0.0238
 1764SOL    HW216755   1.823   2.427   4.210  1.3699  0.6434  2.8663
 1765SOL     OW16756   1.119   0.445   3.158  0.2980 -0.4452 -0.4843
 1765SOL    HW116757   1.178   0.371   3.175  0.3912  0.0424  1.3249
 1765SOL    HW216758   1.147   0.463   3.068  0.0396  1.6461 -0.1408
 1766SOL     OW16759   0.262   3.962   8.623 -0.2020  0.6244  0.2593
 1766SOL    HW116760   0.348   3.950   8.664  0.2744  2.5951 -0.1581
 1766SOL    HW216761   0.208   3.926   8.693  3.3652 -0.4388  2.5007
 1767SOL     OW16762   3.203   4.414   7.842  0.1003 -0.0391  0.3034
 1767SOL    HW116763   3.173   4.441   7.929  0.4199 -0.3727  0.5168
 1767SOL    HW216764   3.292   4.448   7.847  0.4883 -1.4162  2.5690
 1768SOL     OW16765   2.317   2.668   2.017 -0.5550  0.4270  0.1364
 1768SOL    HW116766   2.411   2.683   2.029 -0.3050 -0.4595 -0.7256
 1768SOL    HW216767   2.304   2.759   1.990  1.1054  0.8343  0.6821
 1769SOL     OW16768   2.926   0.482   1.740  0.0959  0.0463 -0.5787
 1769SOL    HW116769   2.968   0.447   1.662  0.0368 -0.5614 -0.3369
 1769SOL    HW216770   2.971   0.437   1.812 -0.9994 -0.4733 -0.2203
 1770SOL     OW16771   2.627   0.961   7.137 -0.5046 -0.1060  0.0576
 1770SOL    HW116772   2.715   0.922   7.144 -0.2973 -0.0946 -2.2631
 1770SOL    HW216773   2.571   0.884   7.142 -2.1969  1.1568  0.3331
 1771SOL     OW16774   0.612   1.374   1.181 -0.0969  0.1111 -0.3459
 1771SOL    HW116775   0.636   1.406   1.268 -0.3388 -0.3860 -0.0904
 1771SOL    HW216776   0.537   1.432   1.169 -1.4008 -1.7929 -1.4286
 1772SOL     OW16777   0.829   0.682   1.536  0.0902 -0.1640  0.1658
 1772SOL    HW116778   0.758   0.743   1.517 -0.1869 -0.1861  1.1376
 1772SOL    HW216779   0.801   0.620   1.469  2.3174 -3.2948  2.0705
 1773SOL     OW16780   0.413   0.064   9.000  0.0601  0.1846 -0.1392
 1773SOL    HW116781   0.470   0.099   9.069 -0.4802 -3.1489  2.0157
 1773SOL    HW216782   0.471   0.080   8.926  1.5108 -0.2555  0.9234
 1774SOL     OW16783   3.820   0.395   2.691 -0.8278  0.2949 -0.0008
 1774SOL    HW116784   3.859   0.310   2.670  0.1715  0.6807  0.3150
 1774SOL    HW216785   3.742   0.378   2.744 -0.3677  2.3606  1.3421
 1775SOL     OW16786   4.534   2.802  12.660 -0.0023  0.4781 -0.4915
 1775SOL    HW116787   4.544   2.836  12.749  1.4099 -0.9756 -0.1014
 1775SOL    HW216788   4.480   2.871  12.622 -0.3959  0.2545 -0.3467
 1776SOL     OW16789   3.287   0.526   0.177 -0.2628  0.5799  0.4762
 1776SOL    HW116790   3.348   0.454   0.195 -2.1290 -1.5723 -1.8155
 1776SOL    HW216791   3.318   0.597   0.233 -2.0044  2.1293 -0.5320
 1777SOL     OW16792   4.197   4.597  11.078  0.1876 -0.0593  0.3989
 1777SOL    HW116793   4.136   4.667  11.057  0.6437 -0.0184 -0.7949
 1777SOL    HW216794   4.160   4.571  11.163 -0.5972  1.6285  0.5787
 1778SOL     OW16795   1.149   1.508  12.747 -0.1311 -0.4041 -0.0367
 1778SOL    HW116796   1.183   1.580  12.694  0.2185 -1.6025 -1.4057
 1778SOL    HW216797   1.108   1.448  12.685 -2.5854  0.1640  1.0310
 1779SOL     OW16798   3.066   2.908  11.230  0.5562  0.3021  0.4869
 1779SOL    HW116799   3.117   2.892  11.309  1.2729  3.1999  0.5980
 1779SOL    HW216800   3.030   2.996  11.239  0.1493  0.0613  1.2316
 1780SOL     OW16801   4.585   1.312   4.289 -0.1597  0.0987 -0.0861
 1780SOL    HW116802   4.563   1.252   4.218  1.0534 -0.0111 -0.3562
 1780SOL    HW216803   4.642   1.374   4.244  2.4730 -2.1261  0.2067
 1781SOL     OW16804   2.252   2.168   3.134 -0.4207  0.3666 -0.0821
 1781SOL    HW116805   2.307   2.095   3.105  2.6821  2.2537  1.0577
 1781SOL    HW216806   2.315   2.240   3.136  1.7593 -1.5493  0.5076
 1782SOL     OW16807   0.266   3.072   0.546  0.2995  0.3975 -0.0064
 1782SOL    HW116808   0.258   3.064   0.641  1.7055  0.5373  0.1318
 1782SOL    HW216809   0.323   3.148   0.534  0.9868 -0.3259 -1.3500
 1783SOL     OW16810   4.560   4.558   6.608 -0.5728 -0.1575  0.0331
 1783SOL    HW116811   4.541   4.587   6.697 -2.3311  1.2436 -0.7952
 1783SOL    HW216812   4.638   4.608   6.586 -0.0984 -1.1474 -0.5795
 1784SOL     OW16813   2.110   3.616  11.681  0.2559 -0.3858  0.2258
 1784SOL    HW116814   2.157   3.633  11.600 -0.1668 -1.8467 -0.3313
 1784SOL    HW216815   2.128   3.698  11.725  0.6883 -0.5658  0.3759
 1785SOL     OW16816   2.844   3.885   2.777  0.0838  0.2480  0.1519
 1785SOL    HW116817   2.758   3.905   2.813 -1.2699 -0.8722 -2.4512
 1785SOL    HW216818   2.890   3.892   2.860 -0.9903 -1.6956  0.8971
 1786SOL     OW16819   0.677   2.158   9.118  0.2034 -0.0118 -0.3104
 1786SOL    HW116820   0.749   2.216   9.143  0.5715 -0.5480 -0.1254
 1786SOL    HW216821   0.668   2.189   9.028  1.1695  1.1176 -0.0334
 1787SOL     OW16822   2.582   3.613   7.472 -0.1502  0.1505  0.0610
 1787SOL    HW116823   2.558   3.622   7.565  0.7063  3.5635 -0.0619
 1787SOL    HW216824   2.501   3.576   7.439 -1.4830  3.6104 -0.5279
 1788SOL     OW16825   0.206   2.592   3.721  0.5496  0.4931  0.3787
 1788SOL    HW116826   0.148   2.609   3.647 -0.4377 -0.5822  0.9068
 1788SOL    HW216827   0.164   2.512   3.754 -1.1879  0.6229 -1.5471
 1789SOL     OW16828   4.493   2.529   6.952  0.3637 -0.3562 -0.8405
 1789SOL    HW116829   4.549   2.595   6.994 -0.7328  1.0142 -1.5674
 1789SOL    HW216830   4.549   2.452   6.964  0.7512 -0.0085 -0.3796
 1790SOL     OW16831   3.068   0.798   5.621  0.5832  0.0993 -0.3485
 1790SOL    HW116832   3.027   0.785   5.536 -1.7976  0.5819  0.6976
 1790SOL    HW216833   3.160   0.808   5.599  0.6808 -0.7322 -0.3016
 1791SOL     OW16834   1.620   3.158   7.364 -0.4626 -1.2607  0.1265
 1791SOL    HW116835   1.561   3.110   7.422  0.2310  0.9014  2.6428
 1791SOL    HW216836   1.659   3.079   7.328 -1.5065 -0.1982 -3.3271
 1792SOL     OW16837   2.592   4.415  14.905 -0.9579  0.8266  0.4646
 1792SOL    HW116838   2.529   4.485  14.890 -2.1702 -0.5742 -0.9716
 1792SOL    HW216839   2.668   4.457  14.866 -0.2134  1.0708  2.1598
 1793SOL     OW16840   2.985   4.310   4.989 -0.1007  0.1148  0.1464
 1793SOL    HW116841   3.011   4.318   4.897  1.2212  1.2872  0.6239
 1793SOL    HW216842   3.076   4.315   5.017 -1.4615 -1.1652  4.7683
 1794SOL     OW16843   4.661   0.713  12.981 -0.3102 -0.8907  0.0546
 1794SOL    HW116844   4.615   0.729  12.898 -1.0532 -1.2534  0.4002
 1794SOL    HW216845   0.027   0.711  12.944  0.4948  1.0554  1.8678
 1795SOL     OW16846   2.258   4.581   7.398  0.8941  0.5016 -0.8776
 1795SOL    HW116847   2.300   4.641   7.460 -0.6962  1.8052 -1.0610
 1795SOL    HW216848   2.301   4.496   7.412  1.3194  0.9867  0.8375
 1796SOL     OW16849   2.856   1.521   8.677  0.1306 -0.3677  0.1986
 1796SOL    HW116850   2.890   1.458   8.613  0.5704  0.4171 -0.3369
 1796SOL    HW216851   2.925   1.587   8.672  0.5918 -0.7805  1.1890
 1797SOL     OW16852   3.854   0.763   5.375  0.6945 -0.5961 -0.5669
 1797SOL    HW116853   3.851   0.677   5.416 -1.6109 -0.1428  0.2389
 1797SOL    HW216854   3.947   0.784   5.380  0.5366  0.1092 -0.5454
 1798SOL     OW16855   2.304   2.768   4.105  0.5534 -0.1151 -0.6828
 1798SOL    HW116856   2.294   2.779   4.200  1.6673  1.7764 -0.7749
 1798SOL    HW216857   2.251   2.840   4.070  1.8556  2.0697  1.7833
 1799SOL     OW16858   3.168   2.324   1.566 -0.4860  0.0327 -0.8419
 1799SOL    HW116859   3.150   2.272   1.645  0.8441 -0.5431 -0.9145
 1799SOL    HW216860   3.124   2.283   1.492 -0.7519 -0.6062 -0.3359
 1800SOL     OW16861   0.219   1.328  16.715  0.2623  0.2499  0.1559
 1800SOL    HW116862   0.266   1.385  16.654 -0.0763  1.4784  1.0361
 1800SOL    HW216863   0.279   1.254  16.712 -0.2125 -0.1670  1.1041
 1801SOL     OW16864   2.289   1.497   0.023 -0.6554  0.0055  0.1377
 1801SOL    HW116865   2.338   1.500  17.632  1.6428  1.1447  1.5592
 1801SOL    HW216866   2.293   1.403   0.044  0.6385 -0.2066 -1.1025
 1802SOL     OW16867   3.351   2.602   6.011 -0.2422 -0.5130  0.5652
 1802SOL    HW116868   3.370   2.530   6.070  1.7006 -0.2794  0.2302
 1802SOL    HW216869   3.340   2.557   5.927  1.0400 -1.8712  1.1445
 1803SOL     OW16870   1.784   2.164  15.251  0.2504 -0.0340 -0.4015
 1803SOL    HW116871   1.810   2.073  15.232 -1.1417 -0.5390  0.0805
 1803SOL    HW216872   1.734   2.148  15.331  0.5136  0.9276 -0.0464
 1804SOL     OW16873   3.615   2.245  17.680 -0.2832 -0.1372  0.3093
 1804SOL    HW116874   3.623   2.268  17.588  3.5779 -0.1396  0.6289
 1804SOL    HW216875   3.561   2.318   0.019  0.3344  0.1933  0.6212
 1805SOL     OW16876   3.184   4.224   7.613 -0.4782 -0.0545 -0.0539
 1805SOL    HW116877   3.261   4.279   7.598 -1.8015  2.4708  2.6616
 1805SOL    HW216878   3.159   4.247   7.702 -0.7059 -1.0374  0.1343
 1806SOL     OW16879   1.714   0.764   1.059  0.2947  0.4382  0.0568
 1806SOL    HW116880   1.747   0.793   1.144 -1.7888 -1.3608  1.4795
 1806SOL    HW216881   1.694   0.851   1.022 -0.9177  0.5585  0.9849
 1807SOL     OW16882   4.007   0.969  11.941  0.0559  0.1802  0.6798
 1807SOL    HW116883   4.074   1.000  11.879 -0.1007  4.2056  2.5254
 1807SOL    HW216884   4.065   0.962  12.017 -2.8061  1.5478  2.9947
 1808SOL     OW16885   3.541   1.126   0.131 -0.1681 -0.3985  0.1503
 1808SOL    HW116886   3.498   1.112   0.216  1.5578  1.5836  1.3219
 1808SOL    HW216887   3.474   1.089   0.073 -0.0056  0.6335 -0.6937
 1809SOL     OW16888   3.319   3.845   5.872  0.2909 -0.2652 -0.3310
 1809SOL    HW116889   3.332   3.858   5.966  2.3619  0.8486 -0.7788
 1809SOL    HW216890   3.348   3.755   5.863  0.2637 -0.2763 -0.3088
 1810SOL     OW16891   0.869   4.137   6.339 -0.2106  0.0520 -0.1901
 1810SOL    HW116892   0.885   4.186   6.259  1.1631  1.5359  0.9933
 1810SOL    HW216893   0.935   4.068   6.334 -0.1557  0.1168 -0.3461
 1811SOL     OW16894   2.449   2.543   4.051 -0.2658 -0.1520  0.3561
 1811SOL    HW116895   2.389   2.616   4.066  1.6172  1.7430 -1.2698
 1811SOL    HW216896   2.535   2.583   4.062  0.6958 -1.9387 -0.5743
 1812SOL     OW16897   0.451   1.919   4.182 -0.4406 -0.0735 -0.1982
 1812SOL    HW116898   0.425   1.847   4.124  0.0069  0.4879 -1.0883
 1812SOL    HW216899   0.387   1.985   4.159  1.7308  1.4493 -1.8891
 1813SOL     OW16900   0.806   3.610   8.479  0.4119  0.0806  0.2828
 1813SOL    HW116901   0.888   3.609   8.529  1.4897  0.2335 -1.4461
 1813SOL    HW216902   0.741   3.620   8.548 -0.8509  1.0971 -1.0701
 1814SOL     OW16903   0.584   2.245   6.970  0.9183  0.1608  0.4893
 1814SOL    HW116904   0.659   2.230   7.028  1.4710 -1.0355 -0.5124
 1814SOL    HW216905   0.602   2.331   6.933 -1.4248 -0.5627 -2.3729
 1815SOL     OW16906   4.035   0.097  12.168  0.2884  0.4572 -0.0924
 1815SOL    HW116907   3.999   0.079  12.255 -0.5653 -0.3927 -0.6336
 1815SOL    HW216908   3.997   0.029  12.114 -3.4313  1.6879  0.9609
 1816SOL     OW16909   0.572   1.198  12.218  0.0253  0.1417 -0.1300
 1816SOL    HW116910   0.604   1.278  12.260  2.8363 -1.0963  0.0851
 1816SOL    HW216911   0.489   1.183  12.264  0.3395 -0.4392  0.2446
 1817SOL     OW16912   3.250   3.768  11.151  0.0203 -0.2032  0.4228
 1817SOL    HW116913   3.169   3.794  11.106 -0.1463  0.7859  1.2746
 1817SOL    HW216914   3.217   3.700  11.210  0.7302 -0.6428  0.3060
 1818SOL     OW16915   0.740   3.164   7.777  0.1890 -0.0745  0.1896
 1818SOL    HW116916   0.680   3.090   7.777 -0.6041  0.5741  3.4128
 1818SOL    HW216917   0.807   3.141   7.842  0.3441 -1.3519 -0.4148
 1819SOL     OW16918   0.455   3.910   0.416  0.0956 -0.1931  0.1355
 1819SOL    HW116919   0.450   3.839   0.352  0.3146  1.3679 -1.5964
 1819SOL    HW216920   0.496   3.860   0.487 -0.7370  1.0709  1.4910
 1820SOL     OW16921   1.038   3.794   3.713  0.2756  0.5124  0.4719
 1820SOL    HW116922   0.963   3.838   3.754 -2.4755 -2.2094 -1.6326
 1820SOL    HW216923   1.069   3.725   3.772 -0.0949  0.4390  0.5840
 1821SOL     OW16924   4.692   4.555   7.562 -0.1084 -0.1497 -0.1325
 1821SOL    HW116925   4.715   4.647   7.546 -1.2998  0.0545 -0.6958
 1821SOL    HW216926   0.009   4.547   7.649  0.3035 -1.7049 -0.4594
 1822SOL     OW16927   3.174   4.637   7.616 -0.6091 -0.4490  0.7780
 1822SOL    HW116928   3.228   4.564   7.585 -0.6408 -0.3953  0.5978
 1822SOL    HW216929   3.096   4.587   7.641 -0.2432 -1.1595  0.4895
 1823SOL     OW16930   4.375   4.394  15.060  0.2598 -0.1559  0.4834
 1823SOL    HW116931   4.288   4.359  15.042  0.2144 -0.2749  0.9419
 1823SOL    HW216932   4.401   4.422  14.972  1.5770  1.4291  1.3742
 1824SOL     OW16933   2.931   3.844  13.336 -1.0852  0.4648 -0.0620
 1824SOL    HW116934   2.993   3.914  13.357 -0.0970 -0.7486  1.0548
 1824SOL    HW216935   2.860   3.868  13.396  0.0183  0.6423  1.1725
 1825SOL     OW16936   2.089   4.013  12.408 -0.2490  0.5759 -0.2362
 1825SOL    HW116937   2.030   4.083  12.378 -1.4109 -1.2857 -2.2360
 1825SOL    HW216938   2.177   4.051  12.402 -0.2939  0.7663  0.2526
 1826SOL     OW16939   2.345   3.419   1.377 -0.3896  0.6038 -0.0665
 1826SOL    HW116940   2.405   3.434   1.304 -1.1242 -1.7435 -1.1586
 1826SOL    HW216941   2.280   3.486   1.357  1.0166  2.2344  0.8485
 1827SOL     OW16942   2.390   3.926  14.025  0.1969  0.1065  0.8611
 1827SOL    HW116943   2.394   4.019  14.007  2.1850  0.0270  0.8825
 1827SOL    HW216944   2.408   3.923  14.119  1.8535 -2.6074  0.4700
 1828SOL     OW16945   3.732   2.258   1.146  0.4410  0.3135 -0.6375
 1828SOL    HW116946   3.741   2.175   1.099 -0.4342 -0.4183  0.4878
 1828SOL    HW216947   3.797   2.311   1.100 -0.3139  1.2232 -0.6442
 1829SOL     OW16948   2.756   0.820  11.575  0.2593 -0.7184  0.1615
 1829SOL    HW116949   2.677   0.792  11.622  0.1789 -1.5688 -0.4653
 1829SOL    HW216950   2.802   0.879  11.634 -2.6698  1.2929  0.4308
 1830SOL     OW16951   4.035   4.644   1.105 -0.7117 -0.3602  0.3580
 1830SOL    HW116952   4.049   4.610   1.016  1.7280 -1.3323  1.1117
 1830SOL    HW216953   4.113   4.603   1.143 -1.3385  0.4891  2.5409
 1831SOL     OW16954   0.604   4.080  15.883 -0.3663 -0.3240  0.1972
 1831SOL    HW116955   0.612   4.164  15.838 -1.8924  0.1197  0.7728
 1831SOL    HW216956   0.515   4.090  15.915  0.4863  2.3753  1.7051
 1832SOL     OW16957   2.737   0.323   3.127  0.2089  0.0124  0.7516
 1832SOL    HW116958   2.746   0.233   3.098 -0.3167  1.2071 -3.0642
 1832SOL    HW216959   2.765   0.369   3.048 -1.1236  2.2784  1.5805
 1833SOL     OW16960   3.620   0.569   3.960  0.0684 -0.1403  0.0861
 1833SOL    HW116961   3.658   0.519   3.887  0.2086 -0.8823  0.6673
 1833SOL    HW216962   3.676   0.554   4.036  2.3122  1.7202 -1.1864
 1834SOL     OW16963   2.232   2.416   4.653  0.5169  0.1446  0.1307
 1834SOL    HW116964   2.221   2.333   4.606 -1.1730 -0.3861  1.4786
 1834SOL    HW216965   2.168   2.409   4.723 -0.3329  2.6502 -0.4008
 1835SOL     OW16966   1.469   4.589   6.291 -0.2893 -0.3602 -0.1827
 1835SOL    HW116967   1.526   4.593   6.214  2.6266  0.1896  2.0155
 1835SOL    HW216968   1.449   4.495   6.296  3.6477 -1.2666 -0.9891
 1836SOL     OW16969   2.046   2.093   0.272  0.1396  0.0930 -0.4100
 1836SOL    HW116970   2.130   2.076   0.230  0.4385 -2.7878  1.3368
 1836SOL    HW216971   2.083   2.126   0.353 -1.0288 -0.1133  0.2172
 1837SOL     OW16972   2.136   4.587   3.817  0.0096  0.2122  0.1413
 1837SOL    HW116973   2.086   4.613   3.740  1.8736  0.4069 -1.0031
 1837SOL    HW216974   2.202   4.655   3.825  1.0575 -0.8831  0.7783
 1838SOL     OW16975   0.899   2.507   2.697 -0.1575 -0.9624  0.9412
 1838SOL    HW116976   0.837   2.460   2.753 -3.1598  0.0737 -1.5237
 1838SOL    HW216977   0.982   2.468   2.723 -0.9126 -1.7274  2.2558
 1839SOL     OW16978   4.507   2.550  13.454  0.2311 -0.4615 -0.2622
 1839SOL    HW116979   4.487   2.502  13.534  4.4114 -0.4705  0.7818
 1839SOL    HW216980   4.574   2.504  13.403 -0.3475  0.0096 -1.4543
 1840SOL     OW16981   1.454   4.145   8.413 -0.5070 -0.3539  0.7020
 1840SOL    HW116982   1.424   4.108   8.497  0.3188  1.6995  1.9011
 1840SOL    HW216983   1.370   4.143   8.368 -0.4107 -1.0940  0.5438
 1841SOL     OW16984   2.815   3.599   1.273  0.1939  0.1921  0.5609
 1841SOL    HW116985   2.881   3.569   1.335  0.2701  1.5240  1.1301
 1841SOL    HW216986   2.754   3.638   1.336 -0.3683  0.4954 -0.1688
 1842SOL     OW16987   3.206   3.945   9.815  0.7483  0.1092  0.8312
 1842SOL    HW116988   3.243   3.862   9.786 -0.0788  0.0805 -0.1748
 1842SOL    HW216989   3.123   3.952   9.768  0.6873 -2.6526  0.5718
 1843SOL     OW16990   1.742   3.577   9.071 -0.6273  0.0554 -0.6668
 1843SOL    HW116991   1.737   3.662   9.028 -0.6712 -1.1159 -2.9746
 1843SOL    HW216992   1.773   3.600   9.159 -0.0184 -0.2016 -0.8194
 1844SOL     OW16993   2.442   0.590   4.577 -0.1718 -0.1861  0.1228
 1844SOL    HW116994   2.411   0.590   4.668 -1.2891  1.4844 -0.2634
 1844SOL    HW216995   2.535   0.568   4.581 -0.2464  0.0274  3.1247
 1845SOL     OW16996   0.630   0.506   2.669 -0.3541  0.4816  0.0556
 1845SOL    HW116997   0.612   0.504   2.763  1.3200 -0.9979  0.3584
 1845SOL    HW216998   0.672   0.420   2.662 -0.4878  0.5145 -1.1418
 1846SOL     OW16999   0.952   1.422  11.886  0.3651 -0.0496 -0.3481
 1846SOL    HW117000   0.902   1.416  11.967  0.8695  0.8445  0.0283
 1846SOL    HW217001   0.884   1.390  11.827  0.6446  1.0448 -1.2711
 1847SOL     OW17002   4.284   2.724   3.226 -0.1799 -0.6668 -0.1586
 1847SOL    HW117003   4.254   2.813   3.243 -0.6854 -1.0774  1.1058
 1847SOL    HW217004   4.345   2.709   3.299  0.6081  1.5308 -0.3829
 1848SOL     OW17005   3.816   2.933  13.631  0.6683 -0.1414  0.2872
 1848SOL    HW117006   3.829   2.839  13.623  0.6551 -0.0737 -0.5239
 1848SOL    HW217007   3.761   2.950  13.555 -0.9860 -1.6613  1.1448
 1849SOL     OW17008   3.407   1.389   9.155 -0.0187  0.2461 -0.1405
 1849SOL    HW117009   3.439   1.383   9.065  0.1095  0.0499 -0.0821
 1849SOL    HW217010   3.320   1.356   9.131  0.5076 -1.0190 -0.3171
 1850SOL     OW17011   0.407   4.072   9.040 -0.0432 -0.4227  0.2741
 1850SOL    HW117012   0.485   4.110   8.998 -0.8251  1.5271  0.5625
 1850SOL    HW217013   0.380   4.140   9.101 -0.9678  2.4723 -3.3577
 1851SOL     OW17014   2.211   1.808   5.451 -0.1857  0.6518 -0.3877
 1851SOL    HW117015   2.250   1.818   5.364 -1.3104 -1.4809 -1.1559
 1851SOL    HW217016   2.266   1.735   5.479 -1.1276  0.4196  0.8493
 1852SOL     OW17017   1.797   4.272  10.055  0.6785  0.2657 -0.4509
 1852SOL    HW117018   1.809   4.319   9.973 -0.2262 -2.0749 -1.9241
 1852SOL    HW217019   1.807   4.333  10.128  2.0363  0.4734 -0.8237
 1853SOL     OW17020   0.641   3.032  13.373  0.2305 -0.0349  0.0724
 1853SOL    HW117021   0.723   3.027  13.324 -0.2783  1.5183 -0.9606
 1853SOL    HW217022   0.621   3.126  13.367  1.0584  0.3294  2.9855
 1854SOL     OW17023   2.089   3.587   6.935  0.1283 -0.5406 -0.0256
 1854SOL    HW117024   2.116   3.679   6.938 -0.9107 -0.2431  0.4214
 1854SOL    HW217025   2.111   3.559   6.846 -0.9385  0.3720 -0.5791
 1855SOL     OW17026   2.580   2.586   6.844  0.4983  0.2639 -0.0401
 1855SOL    HW117027   2.550   2.496   6.842  0.4678  0.2478  1.0290
 1855SOL    HW217028   2.674   2.565   6.843  0.8101  1.6737 -0.7082
 1856SOL     OW17029   0.127   1.903  10.130 -0.5127  0.4360 -0.3794
 1856SOL    HW117030   0.053   1.843  10.122  0.0075 -0.5166  1.8929
 1856SOL    HW217031   0.126   1.910  10.225  1.1366 -0.5459 -0.2771
 1857SOL     OW17032   2.087   0.612   6.958  0.3354 -0.1578 -0.7146
 1857SOL    HW117033   2.028   0.658   7.017  0.8793  2.6829 -2.4028
 1857SOL    HW217034   2.155   0.679   6.956 -0.7490  0.9579 -0.0870
 1858SOL     OW17035   2.579   1.877  14.338 -0.3439  0.1918 -0.4023
 1858SOL    HW117036   2.510   1.892  14.402 -0.6716  0.2735 -0.7790
 1858SOL    HW217037   2.638   1.943  14.376 -0.3720  0.6087 -1.0821
 1859SOL     OW17038   4.372   3.391   2.745 -0.3162  0.3087  0.0148
 1859SOL    HW117039   4.336   3.479   2.755  0.6573  0.4220  2.4583
 1859SOL    HW217040   4.328   3.358   2.666 -1.3099  1.9490 -0.1095
 1860SOL     OW17041   1.809   2.280   6.908  0.3016 -0.4924  0.2047
 1860SOL    HW117042   1.728   2.245   6.871 -0.1516  2.9849 -1.9942
 1860SOL    HW217043   1.849   2.325   6.834 -2.3442  2.0881  0.3281
 1861SOL     OW17044   0.146   1.224   1.278  0.8123  0.4589 -0.0745
 1861SOL    HW117045   0.072   1.165   1.294 -1.5116  3.8437  1.7057
 1861SOL    HW217046   0.105   1.303   1.314  1.1512  0.8836 -0.6396
 1862SOL     OW17047   4.272   0.700   8.481  0.0630  0.3932  0.5695
 1862SOL    HW117048   4.360   0.725   8.510  0.1542 -1.2454  1.7520
 1862SOL    HW217049   4.297   0.642   8.409 -0.8478  0.8843 -0.1433
 1863SOL     OW17050   0.627   2.167   8.277  0.3693 -0.3271  0.3348
 1863SOL    HW117051   0.554   2.201   8.225  0.5478  1.9629  1.5643
 1863SOL    HW217052   0.605   2.075   8.291 -1.1671  0.0162  0.1624
 1864SOL     OW17053   3.209   0.004  15.825  0.2000 -0.0496 -0.0859
 1864SOL    HW117054   3.305   0.003  15.833  0.3497  0.1015 -1.8360
 1864SOL    HW217055   3.183   0.038  15.910 -2.3875 -1.2452 -0.4040
 1865SOL     OW17056   3.597   2.353   7.083 -0.0870  0.5760  0.2468
 1865SOL    HW117057   3.676   2.356   7.137  1.6247 -0.9610 -2.1211
 1865SOL    HW217058   3.634   2.292   7.019 -1.5252 -0.1946  0.1499
 1866SOL     OW17059   0.429   3.279   0.536  0.1641  0.2970  0.1555
 1866SOL    HW117060   0.427   3.285   0.632  1.9146 -1.9054  0.3275
 1866SOL    HW217061   0.478   3.356   0.507  2.3973 -0.7728  1.0446
 1867SOL     OW17062   2.422   3.993   3.719 -0.8313 -0.0268 -0.1529
 1867SOL    HW117063   2.428   4.022   3.810 -0.8588 -2.6173  0.6773
 1867SOL    HW217064   2.457   4.069   3.672  0.2324  0.3494  1.2580
 1868SOL     OW17065   1.274   2.911  11.774  0.2476 -0.0614  0.4378
 1868SOL    HW117066   1.241   2.821  11.776 -1.5396  0.6513  2.6438
 1868SOL    HW217067   1.261   2.920  11.869 -1.7691  0.8067  0.0690
 1869SOL     OW17068   3.669   1.729   5.525  0.1778  0.1378 -0.5794
 1869SOL    HW117069   3.654   1.745   5.431 -3.2280 -0.8485 -0.2306
 1869SOL    HW217070   3.762   1.711   5.539 -0.0824 -2.6828 -2.3120
 1870SOL     OW17071   0.209   2.901   2.370  0.3031  0.8248  0.3800
 1870SOL    HW117072   0.234   2.831   2.431  1.6220 -0.5432 -1.7044
 1870SOL    HW217073   0.144   2.855   2.317  0.8080 -0.3772  0.8109
 1871SOL     OW17074   3.391   2.846   4.754  0.0715  0.7792 -0.2477
 1871SOL    HW117075   3.471   2.814   4.795  1.4619  1.6184 -2.2838
 1871SOL    HW217076   3.400   2.941   4.754 -3.2139  1.0787  1.2487
 1872SOL     OW17077   3.458   1.120   4.069  0.3991 -0.4748  0.3039
 1872SOL    HW117078   3.496   1.146   3.985  0.5147  2.1040  1.1410
 1872SOL    HW217079   3.448   1.208   4.104  0.8703 -1.3752  2.6807
 1873SOL     OW17080   3.174   1.029  15.222  0.8323  0.5231  0.0429
 1873SOL    HW117081   3.078   1.025  15.224  0.9212 -1.2467  0.3916
 1873SOL    HW217082   3.190   1.068  15.308 -0.9507  0.1131  0.5722
 1874SOL     OW17083   0.159   2.866   3.432 -0.1828  0.1092  0.2476
 1874SOL    HW117084   0.133   2.788   3.383  0.1794 -0.0824  0.3618
 1874SOL    HW217085   0.087   2.883   3.494  2.0849  1.8494  2.3865
 1875SOL     OW17086   2.807   1.687  14.585  0.4125  0.0038 -0.3165
 1875SOL    HW117087   2.727   1.663  14.537  1.0248 -0.5341 -1.0652
 1875SOL    HW217088   2.868   1.622  14.551  1.1462  1.4158 -1.6497
 1876SOL     OW17089   3.678   1.161   2.958  0.1742  0.5504  0.3922
 1876SOL    HW117090   3.729   1.088   2.994  0.8658 -0.0110 -1.7127
 1876SOL    HW217091   3.620   1.184   3.030  1.3099  0.4525  1.3456
 1877SOL     OW17092   3.315   3.572  10.663  0.0365 -0.1542 -0.6225
 1877SOL    HW117093   3.353   3.557  10.749 -0.8814 -0.7292 -0.3166
 1877SOL    HW217094   3.251   3.641  10.680  0.6283  0.4497 -0.8287
 1878SOL     OW17095   1.238   3.386   5.104  0.1024  0.2438  0.0327
 1878SOL    HW117096   1.157   3.424   5.072 -0.6891 -1.2572  0.3014
 1878SOL    HW217097   1.279   3.454   5.159  3.1485 -1.2234 -0.3951
 1879SOL     OW17098   4.573   2.568   5.868  0.4406  0.0834  0.7279
 1879SOL    HW117099   4.512   2.507   5.827 -0.0537 -0.3268  2.0530
 1879SOL    HW217100   4.516   2.621   5.925  0.5995  1.0231  0.0039
 1880SOL     OW17101   0.822   4.479  15.299 -0.3927  0.1791 -0.0035
 1880SOL    HW117102   0.780   4.561  15.276 -0.1674  0.7060  1.4881
 1880SOL    HW217103   0.912   4.511  15.291 -0.2017 -1.3132 -3.9222
 1881SOL     OW17104   2.278   3.531   5.879 -0.0902  0.1483  0.7674
 1881SOL    HW117105   2.246   3.557   5.965  2.1943 -3.8729  2.8070
 1881SOL    HW217106   2.363   3.574   5.883 -0.4572  0.8777  0.8989
 1882SOL     OW17107   4.361   2.620   2.870 -0.0865  0.1196  0.2740
 1882SOL    HW117108   4.316   2.664   2.942  1.4816  2.4304 -0.1394
 1882SOL    HW217109   4.337   2.527   2.864 -0.8560  0.3646 -0.5282
 1883SOL     OW17110   2.115   0.099   4.217  0.4079  0.3478  0.6358
 1883SOL    HW117111   2.129   0.091   4.312  2.3432  1.5034  0.4579
 1883SOL    HW217112   2.026   0.066   4.207  0.6152  0.3405 -1.0647
 1884SOL     OW17113   3.536   2.590  12.456  0.2181  0.4209 -0.0104
 1884SOL    HW117114   3.483   2.510  12.460 -2.4183  2.0693 -2.0996
 1884SOL    HW217115   3.614   2.552  12.416 -1.4010 -1.5330 -1.3143
 1885SOL     OW17116   1.944   0.428   5.883  0.1426  0.3213 -0.0865
 1885SOL    HW117117   1.915   0.348   5.926  2.6129  0.0934  1.1533
 1885SOL    HW217118   2.018   0.457   5.937 -0.7469  1.6278  0.4269
 1886SOL     OW17119   2.316   1.780  12.910  0.6206  0.0028 -0.4545
 1886SOL    HW117120   2.260   1.704  12.927  1.1366 -0.3446 -0.3141
 1886SOL    HW217121   2.323   1.810  13.001  0.5793  0.7985 -0.7125
 1887SOL     OW17122   4.641   1.478   5.641 -0.5769 -0.2312  0.7400
 1887SOL    HW117123   4.571   1.542   5.630  1.8152  2.1268 -0.8694
 1887SOL    HW217124   4.647   1.469   5.736 -1.3593  0.4567  0.8535
 1888SOL     OW17125   1.934   3.703   7.501  0.0204  0.4985 -0.3089
 1888SOL    HW117126   1.938   3.612   7.469 -1.9382  0.3334 -0.1171
 1888SOL    HW217127   1.891   3.737   7.423 -0.7138 -2.1009 -1.0574
 1889SOL     OW17128   0.765   1.611   8.806 -0.4290 -0.2156 -0.4922
 1889SOL    HW117129   0.744   1.520   8.829  1.1074 -0.1315  1.2445
 1889SOL    HW217130   0.808   1.636   8.888 -2.2121 -2.0764  1.0114
 1890SOL     OW17131   0.705   2.048  13.955 -0.1984  0.2097 -0.0296
 1890SOL    HW117132   0.618   2.070  13.987  0.1351  1.8827 -0.2940
 1890SOL    HW217133   0.748   2.123  13.997  0.2764  0.6370 -1.2658
 1891SOL     OW17134   1.735   1.649   8.093  0.5859  0.0249 -0.3384
 1891SOL    HW117135   1.647   1.627   8.122  0.3924  1.5596  0.2397
 1891SOL    HW217136   1.714   1.724   8.038 -0.6033 -0.3715 -0.4197
 1892SOL     OW17137   4.370   3.277   7.583  0.3443  0.4599  0.1688
 1892SOL    HW117138   4.408   3.359   7.616 -0.2770  0.6301  0.4688
 1892SOL    HW217139   4.368   3.283   7.488 -0.0072  0.9180  0.2048
 1893SOL     OW17140   1.335   2.395   7.057  0.3307  0.0407  0.2350
 1893SOL    HW117141   1.383   2.371   7.136  1.3699 -0.6871 -0.6246
 1893SOL    HW217142   1.395   2.378   6.984  0.2867 -1.7833  0.6107
 1894SOL     OW17143   3.433   2.368  11.160  0.6190 -0.1066  0.1090
 1894SOL    HW117144   3.428   2.352  11.065 -0.9287 -1.7857  0.4588
 1894SOL    HW217145   3.428   2.272  11.170  0.1887 -0.1066 -0.0781
 1895SOL     OW17146   2.017   4.433   3.417  0.9830 -0.1163  0.0794
 1895SOL    HW117147   2.036   4.361   3.477  1.3400 -0.1767 -0.1044
 1895SOL    HW217148   1.943   4.480   3.455  0.7739  0.3269 -0.8732
 1896SOL     OW17149   4.242   0.479   1.151 -0.7017 -0.0491  0.5815
 1896SOL    HW117150   4.234   0.386   1.172  2.0321 -0.3466  0.2632
 1896SOL    HW217151   4.305   0.469   1.080 -1.2470  1.8041 -0.1707
 1897SOL     OW17152   2.394   3.908   4.667 -0.1445  0.0828  0.3562
 1897SOL    HW117153   2.313   3.871   4.631  0.0090  1.9215 -1.8506
 1897SOL    HW217154   2.436   3.947   4.591  0.5685 -3.0163 -0.8340
 1898SOL     OW17155   3.724   0.667   5.730  0.0998 -0.1104 -0.3522
 1898SOL    HW117156   3.745   0.576   5.753 -0.2846 -0.0418  0.2753
 1898SOL    HW217157   3.776   0.709   5.798  1.9122 -1.5766 -0.8112
 1899SOL     OW17158   2.719   2.570   4.906  0.2445 -0.5660 -0.3575
 1899SOL    HW117159   2.778   2.632   4.949  0.9596 -1.7884  0.4287
 1899SOL    HW217160   2.637   2.570   4.956  2.0766 -0.6537  2.6584
 1900SOL     OW17161   2.450   2.036   1.255 -0.2628 -0.2532 -0.0730
 1900SOL    HW117162   2.451   2.079   1.169 -0.9621 -0.4004 -0.1600
 1900SOL    HW217163   2.427   1.950   1.218 -0.0538  0.2022 -1.2655
 1901SOL     OW17164   2.476   1.648   6.335  0.2906 -0.8103 -0.2823
 1901SOL    HW117165   2.464   1.597   6.255  3.2546 -0.6577 -0.8351
 1901SOL    HW217166   2.395   1.644   6.385  0.1799 -0.4778 -0.4332
 1902SOL     OW17167   2.266   0.878   7.709 -0.0287 -0.5478  0.6181
 1902SOL    HW117168   2.291   0.815   7.641 -1.3591  2.1281 -2.4019
 1902SOL    HW217169   2.171   0.865   7.708 -0.2314  0.9010  1.9148
 1903SOL     OW17170   3.326   2.678  15.326  0.6494  0.1119 -0.3704
 1903SOL    HW117171   3.238   2.647  15.348  0.0252  1.2084 -1.2978
 1903SOL    HW217172   3.364   2.707  15.409 -0.6563 -0.2422  0.3367
 1904SOL     OW17173   2.842   4.240   8.188 -0.5232  0.0271 -0.2452
 1904SOL    HW117174   2.869   4.153   8.159  3.0893  1.2263 -0.4481
 1904SOL    HW217175   2.763   4.251   8.136 -1.6110 -0.3625  1.3244
 1905SOL     OW17176   1.068   3.202  11.343  0.3026 -0.1495  1.0617
 1905SOL    HW117177   1.158   3.222  11.316  0.2368 -1.5701 -0.2243
 1905SOL    HW217178   1.045   3.292  11.366 -0.2294  0.7720 -3.0833
 1906SOL     OW17179   1.792   2.872   7.506  0.1016  0.2394 -0.2599
 1906SOL    HW117180   1.799   2.894   7.412  2.1200 -0.9682 -0.4013
 1906SOL    HW217181   1.884   2.876   7.533 -0.0203  1.7253 -0.0383
 1907SOL     OW17182   1.397   2.592   9.058  0.0901  0.1809  0.4488
 1907SOL    HW117183   1.327   2.578   9.121  1.1186 -0.7798  1.3713
 1907SOL    HW217184   1.368   2.540   8.982 -0.9164 -2.5032  2.6712
 1908SOL     OW17185   4.414   1.622   7.921 -0.0594 -0.2308  0.1791
 1908SOL    HW117186   4.366   1.539   7.921  0.4277 -0.5219  0.6740
 1908SOL    HW217187   4.430   1.643   8.013  1.3644 -0.8181  0.0822
 1909SOL     OW17188   2.598   4.397   5.539 -0.1483 -0.2819  0.2824
 1909SOL    HW117189   2.690   4.408   5.515 -0.3728  2.5621  0.6727
 1909SOL    HW217190   2.570   4.370   5.451  3.0229  1.0024 -1.1249
 1910SOL     OW17191   4.481   3.707  16.046 -0.6209  0.4086 -0.3159
 1910SOL    HW117192   4.448   3.639  15.987 -0.0514 -0.3636  0.2433
 1910SOL    HW217193   4.426   3.780  16.020 -0.8968  0.6303  0.9311
 1911SOL     OW17194   3.867   4.445  11.003 -0.1531  0.9299  0.3013
 1911SOL    HW117195   3.827   4.375  10.952  1.1036 -0.1728  0.8428
 1911SOL    HW217196   3.959   4.422  10.988 -0.5519  1.3311 -2.7995
 1912SOL     OW17197   0.494   3.507   1.790  0.5240 -0.8620  0.4973
 1912SOL    HW117198   0.410   3.505   1.836 -1.1546 -2.1162 -2.5847
 1912SOL    HW217199   0.457   3.516   1.702  2.7686  0.0088 -0.3415
 1913SOL     OW17200   3.176   2.759  11.026 -0.1071  0.6831 -0.2526
 1913SOL    HW117201   3.151   2.816  11.099  2.6835  1.1330  0.3767
 1913SOL    HW217202   3.157   2.813  10.949  0.6999 -2.6216 -2.7609
 1914SOL     OW17203   1.788   1.129   3.992 -0.3221 -0.1801 -0.2051
 1914SOL    HW117204   1.810   1.048   3.944  3.5650  0.1381  1.0021
 1914SOL    HW217205   1.804   1.195   3.925  3.4908 -0.5768  0.3237
 1915SOL     OW17206   2.646   1.437  11.516 -0.4823  0.3654  0.6635
 1915SOL    HW117207   2.721   1.485  11.480 -1.0689  1.1945  0.5411
 1915SOL    HW217208   2.699   1.367  11.554  0.7348  2.4906  2.9082
 1916SOL     OW17209   2.906   4.186   3.605 -0.2651  0.5863 -1.0001
 1916SOL    HW117210   2.898   4.230   3.689  0.7568 -1.5390  0.1870
 1916SOL    HW217211   3.001   4.180   3.594  0.0340  2.7147  0.3053
 1917SOL     OW17212   4.651   1.190   8.346 -0.1082 -0.0369  0.1295
 1917SOL    HW117213   4.678   1.152   8.429  0.4225 -1.2544 -0.6115
 1917SOL    HW217214   4.596   1.118   8.315  3.2772 -2.5301  0.0370
 1918SOL     OW17215   4.575   3.943  11.111 -0.7299 -0.0307 -0.2745
 1918SOL    HW117216   4.507   4.005  11.136  1.5640  2.5431 -0.3908
 1918SOL    HW217217   4.654   3.991  11.138 -1.6181 -0.1512  2.5950
 1919SOL     OW17218   2.711   0.158  13.014 -0.1925  0.2556  0.5408
 1919SOL    HW117219   2.650   0.230  13.002  1.0185  0.8354 -2.3269
 1919SOL    HW217220   2.655   0.080  13.011 -1.5052  1.1338  2.5324
 1920SOL     OW17221   2.542   3.592   5.832  0.1455  0.1436  0.1210
 1920SOL    HW117222   2.598   3.669   5.848 -1.8376  0.9693  3.1127
 1920SOL    HW217223   2.577   3.569   5.746 -0.0765  1.6090 -0.3632
 1921SOL     OW17224   2.728   1.301   9.120  0.1908  0.4184 -0.7042
 1921SOL    HW117225   2.710   1.393   9.101 -1.3325 -0.0822 -1.5976
 1921SOL    HW217226   2.700   1.267   9.035 -0.8615  3.5910 -1.6176
 1922SOL     OW17227   2.303   0.577   1.998 -0.4298 -0.0656  0.0884
 1922SOL    HW117228   2.327   0.552   2.087  2.2406  1.4722 -0.1702
 1922SOL    HW217229   2.361   0.520   1.947  1.9343  3.9279 -1.6335
 1923SOL     OW17230   4.628   3.423   8.578 -0.2465  0.0013  0.7635
 1923SOL    HW117231   4.685   3.439   8.654 -0.2859 -0.2428  0.8431
 1923SOL    HW217232   4.614   3.508   8.535  1.3709 -0.1582 -0.0684
 1924SOL     OW17233   2.004   3.971   9.109  0.5159 -0.1674  0.5423
 1924SOL    HW117234   1.967   3.891   9.146 -2.2458  0.7190 -0.2657
 1924SOL    HW217235   1.967   3.959   9.021  0.2698  0.6161  0.5386
 1925SOL     OW17236   2.029   0.084   7.874  0.0417  0.3725  0.1372
 1925SOL    HW117237   2.101   0.043   7.825 -0.5783 -2.0823  1.2534
 1925SOL    HW217238   2.074   0.157   7.916 -1.9176  2.0210 -0.6148
 1926SOL     OW17239   1.196   4.553  15.052 -0.0955  0.4645  0.0819
 1926SOL    HW117240   1.118   4.607  15.061 -0.3385 -0.2083  1.9934
 1926SOL    HW217241   1.147   4.471  15.048  1.8213 -0.5595 -2.4285
 1927SOL     OW17242   4.700   3.822   1.828 -0.3627 -0.3838  0.7110
 1927SOL    HW117243   0.000   3.901   1.878  0.6381 -0.6513  0.6841
 1927SOL    HW217244   0.066   3.800   1.797 -0.1981  0.9192  0.2264
 1928SOL     OW17245   0.018   0.565   9.470 -0.2176  0.1111 -0.0668
 1928SOL    HW117246   4.650   0.569   9.440  0.3425  1.2055 -1.6562
 1928SOL    HW217247   0.001   0.572   9.564  0.4397  1.9218 -0.0706
 1929SOL     OW17248   4.229   1.356  15.477  0.2254 -0.4779  0.0259
 1929SOL    HW117249   4.256   1.400  15.557 -2.2093  0.9779  0.0249
 1929SOL    HW217250   4.158   1.415  15.454  0.2488 -0.0332  1.1020
 1930SOL     OW17251   0.358   4.432   3.690 -0.0198 -0.4785 -0.4877
 1930SOL    HW117252   0.436   4.482   3.665 -1.2849  2.5162  1.6878
 1930SOL    HW217253   0.374   4.350   3.642 -3.2802  0.9459 -4.0027
 1931SOL     OW17254   3.722   0.165  12.653 -0.4399  0.4776  0.0117
 1931SOL    HW117255   3.684   0.214  12.581  1.9345  3.1195  0.5294
 1931SOL    HW217256   3.779   0.234  12.690  2.1787 -0.6992 -1.8219
 1932SOL     OW17257   2.093   0.973   9.416  0.3330 -0.4328 -0.0734
 1932SOL    HW117258   2.027   1.023   9.368  0.7518  1.1900  1.0712
 1932SOL    HW217259   2.177   1.014   9.400 -0.6916  1.3865 -0.7268
 1933SOL     OW17260   4.622   1.968   7.406  0.1426  0.6350 -0.2727
 1933SOL    HW117261   4.539   2.015   7.412 -1.7648 -2.6763 -0.9212
 1933SOL    HW217262   4.681   2.040   7.387 -1.9730  1.7895 -2.3913
 1934SOL     OW17263   4.476   1.109   1.522  0.2638  0.2978  0.6536
 1934SOL    HW117264   4.451   1.128   1.613 -1.0508  0.5353  0.2370
 1934SOL    HW217265   4.511   1.195   1.500 -0.9388  0.8951  1.0526
 1935SOL     OW17266   4.290   2.455   3.143 -0.0008 -0.1823  0.3763
 1935SOL    HW117267   4.280   2.548   3.166  2.0895  0.0157  0.4149
 1935SOL    HW217268   4.385   2.457   3.136 -0.0537  3.9255  0.7710
 1936SOL     OW17269   0.640   1.995   7.719 -0.1918 -0.7085  0.0421
 1936SOL    HW117270   0.642   2.028   7.629 -1.8707 -0.2018  0.1933
 1936SOL    HW217271   0.567   1.933   7.711 -0.1780 -0.7833  0.4984
 1937SOL     OW17272   2.207   0.918   2.103 -0.0595 -0.5400 -0.4467
 1937SOL    HW117273   2.183   1.009   2.088  0.6919 -0.5919 -1.9958
 1937SOL    HW217274   2.233   0.927   2.195  1.4388 -0.0617 -0.9095
 1938SOL     OW17275   0.050   1.135   4.740  0.2367  0.1996 -0.1910
 1938SOL    HW117276   0.037   1.220   4.780  1.1214  0.4088 -0.3447
 1938SOL    HW217277   0.019   1.154   4.651  3.2173  2.9317 -0.6470
 1939SOL     OW17278   2.935   2.006   1.258  0.2371 -0.0401  0.2521
 1939SOL    HW117279   2.850   1.965   1.238  0.1479  0.0970  0.3496
 1939SOL    HW217280   2.900   2.092   1.236  0.5190 -0.2356 -0.9930
 1940SOL     OW17281   3.460   0.867   3.809  0.3031 -0.3864 -0.0230
 1940SOL    HW117282   3.398   0.794   3.810 -2.4528  1.9315  0.7380
 1940SOL    HW217283   3.416   0.949   3.833  1.6476 -0.0371  1.2423
 1941SOL     OW17284   4.627   3.175  15.674 -0.0279 -0.0603 -0.1347
 1941SOL    HW117285   4.614   3.171  15.580 -1.4607  1.2461 -0.0065
 1941SOL    HW217286   4.558   3.240  15.693  0.5477  0.5176 -0.0159
 1942SOL     OW17287   2.263   2.412   2.476  0.4758 -0.1807 -0.3239
 1942SOL    HW117288   2.196   2.367   2.423  1.3545 -0.7563 -0.9476
 1942SOL    HW217289   2.343   2.372   2.443  1.8336  1.8802  0.4870
 1943SOL     OW17290   3.117   2.505   2.581 -0.3201 -0.4714  0.5173
 1943SOL    HW117291   3.175   2.545   2.646  0.6456 -1.4002  0.2300
 1943SOL    HW217292   3.175   2.512   2.506  0.7022 -0.7226  1.2840
 1944SOL     OW17293   4.264   4.270   8.148 -0.7010 -0.1785 -0.4770
 1944SOL    HW117294   4.343   4.269   8.094 -1.9420 -0.0054 -2.3220
 1944SOL    HW217295   4.276   4.192   8.202  3.1471  0.6037 -0.1944
 1945SOL     OW17296   2.584   1.928   8.091 -0.1007  0.1596  0.3737
 1945SOL    HW117297   2.565   1.838   8.064 -1.4245  0.5866 -0.1316
 1945SOL    HW217298   2.632   1.956   8.013 -1.4418  1.8280  0.1442
 1946SOL     OW17299   3.785   2.132   9.271 -0.4422 -0.1612  0.6237
 1946SOL    HW117300   3.750   2.048   9.240  0.7247 -0.0555 -0.9462
 1946SOL    HW217301   3.862   2.104   9.321  1.9284  4.1353 -0.6230
 1947SOL     OW17302   2.240   1.604   6.457  0.3552  0.2285 -0.1246
 1947SOL    HW117303   2.214   1.526   6.506 -0.4430  0.9661  0.6054
 1947SOL    HW217304   2.160   1.655   6.442  1.2433  1.6224 -0.1212
 1948SOL     OW17305   2.601   3.731   3.845  0.2052 -0.3075 -0.0187
 1948SOL    HW117306   2.593   3.733   3.750 -0.9043  2.9903  0.1615
 1948SOL    HW217307   2.691   3.764   3.850 -0.3981  1.5502 -1.5981
 1949SOL     OW17308   1.948   1.444  15.756  0.2551  1.0403 -0.1200
 1949SOL    HW117309   2.002   1.506  15.707 -0.3358 -0.0689 -2.1524
 1949SOL    HW217310   1.983   1.356  15.738  0.9366  1.6301 -1.6922
 1950SOL     OW17311   1.430   1.307  14.595 -0.4102  0.1386 -0.3250
 1950SOL    HW117312   1.344   1.338  14.623 -0.0183  1.1039 -0.1702
 1950SOL    HW217313   1.456   1.248  14.666 -0.6105 -0.8849 -1.1087
 1951SOL     OW17314   1.078   1.613   6.357  0.4644  0.3438  0.1322
 1951SOL    HW117315   1.078   1.668   6.435  0.1109  2.1360 -1.1238
 1951SOL    HW217316   1.170   1.611   6.334  0.3245 -2.9268 -0.1222
 1952SOL     OW17317   0.306   1.760  14.079 -0.3061  0.3097  0.6980
 1952SOL    HW117318   0.391   1.718  14.093  0.6354  1.9598 -0.1719
 1952SOL    HW217319   0.303   1.824  14.150  0.5944 -0.9131  1.8439
 1953SOL     OW17320   1.341   1.476   9.069 -0.1709 -0.1333  0.2526
 1953SOL    HW117321   1.433   1.485   9.044 -0.4165  1.5505 -0.0014
 1953SOL    HW217322   1.317   1.384   9.060 -1.4523  0.2405 -0.1933
 1954SOL     OW17323   4.319   3.172   3.971  0.5908 -0.0569  0.2378
 1954SOL    HW117324   4.260   3.222   4.027  2.3563 -0.5067  2.4764
 1954SOL    HW217325   4.407   3.205   3.991  1.2765 -1.8190  0.1412
 1955SOL     OW17326   2.512   0.274   3.970 -0.0317 -0.2395 -0.0089
 1955SOL    HW117327   2.549   0.333   3.903 -0.2137 -1.7180 -1.4185
 1955SOL    HW217328   2.439   0.328   4.000  0.9201  1.5920 -0.9744
 1956SOL     OW17329   3.195   2.020   7.876  0.3547  0.0712 -0.4977
 1956SOL    HW117330   3.156   2.075   7.808  1.7364  0.0191 -1.3207
 1956SOL    HW217331   3.192   1.938   7.827 -0.6984 -0.6484  0.7755
 1957SOL     OW17332   1.824   2.209   5.446  0.0089  0.0005  0.2637
 1957SOL    HW117333   1.841   2.291   5.399  2.4726  0.4323  1.9075
 1957SOL    HW217334   1.752   2.239   5.502 -0.1265  0.4246 -0.1375
 1958SOL     OW17335   4.504   0.664   6.194  0.2930  0.5584 -0.0841
 1958SOL    HW117336   4.434   0.599   6.203 -0.0985  1.0940  0.7700
 1958SOL    HW217337   4.554   0.623   6.265  0.0435 -1.8066 -1.2899
 1959SOL     OW17338   3.530   1.313  10.891 -0.1707  0.3392  0.3085
 1959SOL    HW117339   3.520   1.350  10.979  3.3721 -1.2258  1.3765
 1959SOL    HW217340   3.527   1.387  10.830 -0.1642 -0.2930 -0.4572
 1960SOL     OW17341   2.811   1.417  16.354 -0.5698  0.5814  0.3213
 1960SOL    HW117342   2.824   1.460  16.439 -2.1857 -1.6330  1.6931
 1960SOL    HW217343   2.757   1.343  16.383 -1.2873  1.1047  0.3229
 1961SOL     OW17344   3.195   2.124   1.358  0.1663 -0.7037 -0.5033
 1961SOL    HW117345   3.179   2.076   1.439 -1.0746 -0.9868 -0.9194
 1961SOL    HW217346   3.116   2.099   1.310  0.3564 -0.5207 -0.9157
 1962SOL     OW17347   1.250   1.970   8.613  0.1643  0.4632  0.5378
 1962SOL    HW117348   1.265   1.929   8.528 -0.7181  1.7983 -0.2497
 1962SOL    HW217349   1.189   1.910   8.656 -1.0970  0.3086 -1.4453
 1963SOL     OW17350   3.047   0.184  13.997 -0.2028  0.1604 -0.3783
 1963SOL    HW117351   3.027   0.218  13.911 -4.3480 -0.8142  0.2183
 1963SOL    HW217352   3.080   0.253  14.054 -0.7627  1.0797 -1.1790
 1964SOL     OW17353   0.565   1.223   5.092  0.1487  0.4135  0.1499
 1964SOL    HW117354   0.527   1.141   5.061  0.2124  0.3438  0.2568
 1964SOL    HW217355   0.585   1.264   5.008 -0.4600 -0.7861 -0.5787
 1965SOL     OW17356   2.628   4.278   7.536 -0.1959 -0.3459 -0.1102
 1965SOL    HW117357   2.596   4.190   7.556 -2.5892  0.4501 -0.4121
 1965SOL    HW217358   2.613   4.287   7.442 -0.3588  1.5357  0.0910
 1966SOL     OW17359   1.458   4.135   7.687 -1.2833  0.0354  0.3309
 1966SOL    HW117360   1.465   4.098   7.775  0.0242  0.7190  0.5152
 1966SOL    HW217361   1.486   4.225   7.701  1.4391 -0.7948  0.1838
 1967SOL     OW17362   0.280   0.587   6.694  0.1492  0.0950 -0.4972
 1967SOL    HW117363   0.294   0.519   6.760  1.2802  0.7496 -0.0498
 1967SOL    HW217364   0.369   0.617   6.676  0.0006  0.5881 -0.4141
 1968SOL     OW17365   1.205   4.233   4.393  0.0122 -0.1518 -0.0204
 1968SOL    HW117366   1.117   4.225   4.431 -0.0581  2.8200  0.3881
 1968SOL    HW217367   1.246   4.168   4.451 -1.0665 -1.5899 -0.8527
 1969SOL     OW17368   1.430   4.399   6.854 -0.2346  0.1193 -0.6969
 1969SOL    HW117369   1.412   4.485   6.815 -6.4324 -1.7745 -2.0881
 1969SOL    HW217370   1.521   4.397   6.826  0.3135  1.6209  1.0250
 1970SOL     OW17371   1.126   3.261   7.767  0.2629 -0.2003  0.1952
 1970SOL    HW117372   1.198   3.293   7.822  0.6009  0.5918 -0.6991
 1970SOL    HW217373   1.130   3.320   7.691 -1.8016  1.0785  1.0850
 1971SOL     OW17374   1.129   3.375   4.083 -0.0606  0.0257  0.0534
 1971SOL    HW117375   1.105   3.313   4.014 -0.8432  0.8080 -0.3865
 1971SOL    HW217376   1.044   3.419   4.086 -0.3639 -0.4988 -0.7472
 1972SOL     OW17377   4.223   0.405   8.735 -0.3135 -0.3010 -0.3644
 1972SOL    HW117378   4.246   0.469   8.803  1.0473  1.3674 -2.3782
 1972SOL    HW217379   4.128   0.411   8.731 -0.2389 -0.3352 -2.1894
 1973SOL     OW17380   2.706   0.594   4.517  0.3760 -0.3074  0.1437
 1973SOL    HW117381   2.729   0.674   4.565 -0.9969 -0.2419  0.6840
 1973SOL    HW217382   2.784   0.541   4.504  0.2442 -0.5717  0.4355
 1974SOL     OW17383   2.527   1.160   8.260 -0.0485  0.2408  0.1133
 1974SOL    HW117384   2.437   1.188   8.242 -0.8931 -0.7408  2.7491
 1974SOL    HW217385   2.551   1.117   8.178 -3.0033 -0.4236 -0.4304
 1975SOL     OW17386   4.196   3.650   9.401 -0.2664  0.3063  0.5046
 1975SOL    HW117387   4.154   3.613   9.479 -0.3257  1.5276  1.0454
 1975SOL    HW217388   4.222   3.735   9.436  1.0491 -0.4131  1.2610
 1976SOL     OW17389   3.392   0.210  13.725  0.4283  0.2839  0.2723
 1976SOL    HW117390   3.387   0.304  13.742 -0.1694  0.5630 -1.4413
 1976SOL    HW217391   3.455   0.183  13.791  1.6084 -0.8527 -1.3186
 1977SOL     OW17392   3.025   2.396   8.231 -0.0525  0.0332 -0.4102
 1977SOL    HW117393   3.093   2.450   8.273 -2.0055  0.2029  2.5381
 1977SOL    HW217394   3.074   2.317   8.208  0.8754  0.6983 -0.7196
 1978SOL     OW17395   0.719   0.173   2.398 -0.1510 -0.1634  0.8104
 1978SOL    HW117396   0.662   0.113   2.445  1.1631 -2.1844 -0.1966
 1978SOL    HW217397   0.783   0.107   2.372 -0.2553  0.2674 -0.5243
 1979SOL     OW17398   1.521   4.099   8.071  0.2259  0.0053 -0.0792
 1979SOL    HW117399   1.470   4.179   8.057  1.5904  0.4857 -2.2695
 1979SOL    HW217400   1.596   4.139   8.114  1.1986 -2.3074  0.3683
 1980SOL     OW17401   4.168   1.201   7.077  0.0123  0.4182 -0.3484
 1980SOL    HW117402   4.236   1.215   7.144 -0.5391 -0.0264  0.3087
 1980SOL    HW217403   4.118   1.278   7.101 -1.8602 -1.0779  0.5766
 1981SOL     OW17404   4.588   1.661   8.425 -0.1457 -1.0778  0.1018
 1981SOL    HW117405   4.650   1.697   8.489 -2.6330  3.4473 -0.0237
 1981SOL    HW217406   4.510   1.662   8.480  0.5445  0.6473  1.0561
 1982SOL     OW17407   1.013   1.064   6.137 -0.2999  0.4005 -0.3707
 1982SOL    HW117408   1.108   1.054   6.138 -0.6727 -3.0113  1.0805
 1982SOL    HW217409   1.002   1.159   6.145 -1.6048  0.1656  0.5897
 1983SOL     OW17410   2.546   4.683   7.491 -0.3278  0.1133 -0.1169
 1983SOL    HW117411   2.494   0.038   7.510  1.3135  1.1135  0.3153
 1983SOL    HW217412   2.559   4.647   7.579  1.8150  0.3917 -0.3181
 1984SOL     OW17413   2.225   3.140   0.856  0.4533 -0.0670  0.0189
 1984SOL    HW117414   2.211   3.074   0.789  1.6523 -2.9898  2.6343
 1984SOL    HW217415   2.160   3.126   0.925 -1.9701  3.3259 -1.5769
 1985SOL     OW17416   2.990   1.639  17.607  0.3972  0.5085 -0.2918
 1985SOL    HW117417   3.070   1.613  17.561  1.8440  2.3048  1.1853
 1985SOL    HW217418   2.981   1.565  17.667 -0.9586  1.6065  0.8616
 1986SOL     OW17419   0.893   2.341   1.806  0.1383  0.5565 -0.2983
 1986SOL    HW117420   0.918   2.391   1.728 -0.3920  0.0711 -0.7835
 1986SOL    HW217421   0.930   2.259   1.773  0.4406  1.3712 -1.9859
 1987SOL     OW17422   3.486   4.077   3.788  0.0616  0.2155 -0.1830
 1987SOL    HW117423   3.520   4.107   3.872  0.7149  3.4029 -1.5481
 1987SOL    HW217424   3.563   4.078   3.731  0.1656  0.4998 -0.0387
 1988SOL     OW17425   1.551   4.390   7.782 -0.4214 -0.2308  0.6920
 1988SOL    HW117426   1.608   4.452   7.826 -0.8680  0.0759  0.8295
 1988SOL    HW217427   1.469   4.418   7.822  0.0139  0.5761  0.9993
 1989SOL     OW17428   2.891   2.565   6.395  0.2211 -0.7519  0.1954
 1989SOL    HW117429   2.827   2.505   6.432  0.6718 -0.7633  0.9610
 1989SOL    HW217430   2.881   2.550   6.301 -2.4931  2.4703 -0.0377
 1990SOL     OW17431   0.619   3.368  13.889 -0.4096 -0.3124  0.2158
 1990SOL    HW117432   0.598   3.449  13.843  1.5758  0.1277  0.0584
 1990SOL    HW217433   0.585   3.379  13.977 -3.1100 -1.4406 -0.7081
 1991SOL     OW17434   1.866   2.187   4.601  0.4227 -0.7527 -0.2063
 1991SOL    HW117435   1.798   2.121   4.598 -1.3741  1.0040  2.7249
 1991SOL    HW217436   1.915   2.183   4.519 -0.5152 -1.0854 -0.7494
 1992SOL     OW17437   1.998   0.644   3.617 -0.7490  0.4418  0.6392
 1992SOL    HW117438   2.070   0.646   3.554  0.4021 -0.2915  1.9194
 1992SOL    HW217439   2.045   0.670   3.696  1.7364  2.9122 -1.6587
 1993SOL     OW17440   3.496   4.127   6.050 -0.4698 -0.0429  0.0735
 1993SOL    HW117441   3.539   4.213   6.041  0.7082 -0.7776 -1.4037
 1993SOL    HW217442   3.464   4.138   6.139 -1.8732  1.1771 -0.5802
 1994SOL     OW17443   0.173   3.832   5.813 -0.6393  0.2465  0.2374
 1994SOL    HW117444   0.123   3.872   5.884 -2.6189  0.5312 -1.3214
 1994SOL    HW217445   0.217   3.908   5.774 -0.6651  1.6374  2.9298
 1995SOL     OW17446   0.202   0.801   0.301 -0.1558 -0.3236  0.2220
 1995SOL    HW117447   0.135   0.856   0.260 -0.9182 -0.8984  0.7116
 1995SOL    HW217448   0.192   0.826   0.393  1.3575  1.8074 -0.1767
 1996SOL     OW17449   0.114   0.097   8.980 -0.1767  0.2544  0.3969
 1996SOL    HW117450   0.073   0.056   9.056 -1.1198 -0.1545 -0.3247
 1996SOL    HW217451   0.204   0.103   9.013  0.3079 -1.7614 -0.5529
 1997SOL     OW17452   4.470   3.682   2.718 -0.2069  0.0334  0.0353
 1997SOL    HW117453   4.491   3.665   2.809 -0.4869  0.3786  0.1640
 1997SOL    HW217454   4.524   3.619   2.670 -1.7623 -0.9286 -0.4744
 1998SOL     OW17455   2.905   0.116   1.030  0.0838  0.6738  1.0210
 1998SOL    HW117456   2.993   0.113   0.992 -0.2601  2.9690  0.0395
 1998SOL    HW217457   2.885   0.203   0.995 -2.3898  0.0010  0.7615
 1999SOL     OW17458   2.262   0.542   7.906 -0.1641  0.8551 -0.1677
 1999SOL    HW117459   2.223   0.463   7.868  1.3275  0.4955 -0.9354
 1999SOL    HW217460   2.339   0.502   7.946 -1.0858 -1.1431 -0.3906
 2000SOL     OW17461   0.969   2.974   4.848  0.0682  0.1912 -0.2651
 2000SOL    HW117462   1.033   2.977   4.777 -1.1859 -2.3141 -1.5140
 2000SOL    HW217463   0.889   3.022   4.825 -0.9258 -1.8131 -1.0293
 2001SOL     OW17464   0.094   3.683  16.452  0.1850  0.0905  0.5042
 2001SOL    HW117465   0.025   3.642  16.401  0.5919  0.1740 -0.1133
 2001SOL    HW217466   0.065   3.774  16.441  0.0192 -0.3612 -2.6432
 2002SOL     OW17467   4.045   3.438   1.409  0.2122  0.0693 -0.1780
 2002SOL    HW117468   3.984   3.382   1.457  1.9638 -1.5207  0.2163
 2002SOL    HW217469   4.122   3.390   1.439  0.5151 -0.5789 -2.0320
 2003SOL     OW17470   0.072   1.900   3.908  0.4546  0.2516  0.6332
 2003SOL    HW117471   0.068   1.883   4.002 -0.7764 -1.5284  0.2491
 2003SOL    HW217472   4.722   1.963   3.904  0.8741  0.8132  1.9273
 2004SOL     OW17473   3.772   3.546   2.818  0.0655 -0.1772 -0.0913
 2004SOL    HW117474   3.677   3.545   2.811  0.0812  1.5547 -0.6591
 2004SOL    HW217475   3.797   3.503   2.736 -0.9164 -2.0995  0.6325
 2005SOL     OW17476   4.365   0.219   8.852  0.4414 -0.4677 -0.5346
 2005SOL    HW117477   4.312   0.282   8.801 -1.5840 -1.4905  0.2925
 2005SOL    HW217478   4.451   0.250   8.825 -0.5488  1.7702 -1.1988
 2006SOL     OW17479   3.657   3.548   3.459  0.0746 -0.7869 -0.1253
 2006SOL    HW117480   3.699   3.481   3.405 -1.5897 -0.3709 -1.8996
 2006SOL    HW217481   3.706   3.547   3.542 -0.2149 -0.4278  0.0499
 2007SOL     OW17482   0.130   1.417   2.091  0.1660  0.0761  0.2525
 2007SOL    HW117483   0.116   1.376   2.176 -0.0547 -1.6572 -0.6108
 2007SOL    HW217484   0.055   1.374   2.050  0.6100 -0.9163  0.4754
 2008SOL     OW17485   2.678   4.581   2.200 -0.5822  0.1428  0.5656
 2008SOL    HW117486   2.624   4.518   2.247  0.6094 -0.0655  1.6364
 2008SOL    HW217487   2.657   4.550   2.112  2.1039 -0.4345  0.1179
 2009SOL     OW17488   3.314   4.119   8.850 -0.2182  0.7395  0.1751
 2009SOL    HW117489   3.313   4.201   8.900  0.4445  1.5950 -1.2221
 2009SOL    HW217490   3.368   4.145   8.776  0.0373  0.3530  0.2233
 2010SOL     OW17491   3.122   1.919   6.109  0.2424  0.3175 -0.0514
 2010SOL    HW117492   3.166   2.003   6.113  1.2265 -0.2017  0.0676
 2010SOL    HW217493   3.202   1.872   6.130 -0.0482  0.1129  0.5869
 2011SOL     OW17494   3.427   3.607   5.857  0.8884 -0.0805  0.1042
 2011SOL    HW117495   3.521   3.608   5.837  0.5434 -0.8715 -1.5057
 2011SOL    HW217496   3.393   3.518   5.853  0.1795  0.1270  1.2806
 2012SOL     OW17497   3.857   3.542  16.703 -0.0943 -0.3825  0.3166
 2012SOL    HW117498   3.765   3.537  16.729 -0.9493 -0.4762 -2.7227
 2012SOL    HW217499   3.856   3.629  16.663 -0.2556  0.4235  2.1004
 2013SOL     OW17500   3.662   1.353   9.435  0.1794  0.1340  0.4079
 2013SOL    HW117501   3.650   1.313   9.521  1.1327  1.4432  1.1413
 2013SOL    HW217502   3.652   1.445   9.457  0.4085  0.6360 -1.5735
 2014SOL     OW17503   0.943   3.886   5.572 -0.0493 -0.3346 -0.2616
 2014SOL    HW117504   0.969   3.904   5.662 -0.1054 -0.6701 -0.1764
 2014SOL    HW217505   0.850   3.908   5.578  0.0030  0.1463 -1.2726
 2015SOL     OW17506   0.248   0.033  12.436  0.0242  0.1483  0.0183
 2015SOL    HW117507   0.219   0.010  12.524  0.3098 -1.4843 -0.3106
 2015SOL    HW217508   0.317   0.098  12.438  0.3767 -0.2718  1.3323
 2016SOL     OW17509   3.424   2.810  16.328  0.2154  0.4548  0.5472
 2016SOL    HW117510   3.389   2.852  16.406  1.6637 -1.6573  2.3404
 2016SOL    HW217511   3.482   2.880  16.296  2.0100 -1.3018 -0.0429
 2017SOL     OW17512   3.942   0.433  14.859  0.5907  0.6257 -0.0154
 2017SOL    HW117513   4.037   0.428  14.846  0.5737 -3.7184  1.6157
 2017SOL    HW217514   3.920   0.355  14.910 -1.1205  0.8101 -0.4871
 2018SOL     OW17515   4.226   3.906   0.601  0.1573  0.4212  0.4191
 2018SOL    HW117516   4.252   3.819   0.572  0.1205  0.9665 -1.2764
 2018SOL    HW217517   4.188   3.890   0.687  1.3523  0.5807  0.9844
 2019SOL     OW17518   0.103   1.938   8.225 -0.0961  0.2983  0.4580
 2019SOL    HW117519   0.039   1.899   8.284  0.0619 -0.0068  0.4306
 2019SOL    HW217520   0.039   1.990   8.177  1.2668  1.6445  0.1056
 2020SOL     OW17521   0.113   3.543   1.372 -0.4661 -0.1077  0.0842
 2020SOL    HW117522   0.190   3.583   1.332 -1.2305  0.3778 -0.9101
 2020SOL    HW217523   0.052   3.545   1.298  0.4822  1.8934 -0.6627
 2021SOL     OW17524   4.661   1.660  14.941 -0.1025  0.2271  0.7740
 2021SOL    HW117525   4.584   1.632  14.990 -0.0956 -1.6360 -0.3000
 2021SOL    HW217526   4.711   1.687  15.018  0.7525 -1.1207  0.6801
 2022SOL     OW17527   3.574   2.215   3.783  0.0095 -0.4870 -0.1757
 2022SOL    HW117528   3.552   2.150   3.716 -0.7875 -0.1807 -0.2124
 2022SOL    HW217529   3.668   2.225   3.769  0.5133 -2.5402  1.7805
 2023SOL     OW17530   0.758   1.613   6.888  0.0490  0.1864  0.1341
 2023SOL    HW117531   0.728   1.696   6.925 -1.8609 -0.3657 -0.1868
 2023SOL    HW217532   0.703   1.618   6.810 -0.6206  0.2037  0.6014
 2024SOL     OW17533   3.393   0.471   5.672 -0.0151  0.4417 -0.1486
 2024SOL    HW117534   3.424   0.558   5.649 -0.3448  0.0315 -2.0926
 2024SOL    HW217535   3.342   0.447   5.595 -2.1492  0.1207  1.3763
 2025SOL     OW17536   2.959   0.282   5.541  0.9240  0.0501 -0.5334
 2025SOL    HW117537   2.900   0.220   5.498  1.3578 -0.6524 -0.1182
 2025SOL    HW217538   2.906   0.362   5.543  0.7918 -0.0486 -0.1675
 2026SOL     OW17539   0.313   2.239   0.431 -0.4457  0.3475  0.2451
 2026SOL    HW117540   0.255   2.276   0.498 -0.2324 -1.4462  1.4091
 2026SOL    HW217541   0.393   2.274   0.468  0.0687 -1.2406  0.6201
 2027SOL     OW17542   2.717   3.808   7.714 -0.0746  0.9091 -0.2470
 2027SOL    HW117543   2.701   3.714   7.726 -1.1093  1.0620 -0.4525
 2027SOL    HW217544   2.807   3.813   7.681 -0.0250 -0.9602 -0.4111
 2028SOL     OW17545   0.911   2.997  12.128 -0.4237  0.4511 -0.3473
 2028SOL    HW117546   0.868   2.987  12.213 -1.7553  1.0041 -0.9435
 2028SOL    HW217547   0.838   2.950  12.086  0.5495 -0.6475 -0.8337
 2029SOL     OW17548   3.636   4.461  12.109  0.3077 -0.5293 -0.5518
 2029SOL    HW117549   3.567   4.454  12.174  0.6803  0.7802 -0.0143
 2029SOL    HW217550   3.592   4.410  12.041 -0.2043 -0.8261  0.0056
 2030SOL     OW17551   4.405   3.635  10.055  0.2109  0.0946  0.2898
 2030SOL    HW117552   4.393   3.602   9.966  1.4090  0.1109  0.1295
 2030SOL    HW217553   4.355   3.568  10.102 -2.4974  1.2818 -0.8662
 2031SOL     OW17554   3.757   1.428   0.272 -0.3399 -0.2306  0.1036
 2031SOL    HW117555   3.817   1.358   0.248  1.1742  1.0642  0.1041
 2031SOL    HW217556   3.815   1.459   0.342 -2.9530 -0.8859  2.5307
 2032SOL     OW17557   0.150   3.729   9.451 -0.6930 -0.8341  0.7832
 2032SOL    HW117558   0.131   3.765   9.537 -0.5911  0.0044  0.4507
 2032SOL    HW217559   0.166   3.806   9.397 -0.0567 -1.3788  0.1784
 2033SOL     OW17560   1.897   2.984   5.398  0.0258  0.1866  0.2756
 2033SOL    HW117561   1.805   2.989   5.371 -0.3104 -0.6612  1.2599
 2033SOL    HW217562   1.909   2.890   5.410 -0.4431  0.2431  1.1938
 2034SOL     OW17563   4.320   1.295   4.670  0.3443 -0.2192  0.1478
 2034SOL    HW117564   4.380   1.362   4.638  0.7763 -0.3752  0.6462
 2034SOL    HW217565   4.361   1.274   4.754 -1.5221  1.2404  1.4230
 2035SOL     OW17566   1.055   4.525   4.678  0.1803  0.0244  0.1628
 2035SOL    HW117567   1.010   4.462   4.735  0.4349 -0.0292  0.3082
 2035SOL    HW217568   1.094   4.578   4.748  0.1427 -0.1271  0.2985
 2036SOL     OW17569   2.585   4.601   3.225 -0.4299 -0.7476  0.4153
 2036SOL    HW117570   2.520   4.663   3.193  1.5433  0.7438 -0.7537
 2036SOL    HW217571   2.653   4.668   3.232 -1.9981  0.9572 -0.7131
 2037SOL     OW17572   3.404   2.010   1.706  0.2860  0.8158 -0.4831
 2037SOL    HW117573   3.481   2.062   1.728  0.7425  0.1425 -0.4821
 2037SOL    HW217574   3.418   2.005   1.612 -1.5820  1.7519 -0.7994
 2038SOL     OW17575   2.076   3.052   7.985 -0.3991 -0.5818 -0.4334
 2038SOL    HW117576   2.151   3.085   8.036 -1.9546 -1.8167  2.6229
 2038SOL    HW217577   2.101   2.965   7.953  0.0557 -0.8115  0.5468
 2039SOL     OW17578   3.442   0.796  13.772  0.2606  0.0899 -0.3015
 2039SOL    HW117579   3.495   0.847  13.711  0.7996 -1.0068 -0.7637
 2039SOL    HW217580   3.512   0.755  13.822  0.7798 -0.3232 -1.3507
 2040SOL     OW17581   4.181   0.123   4.331  0.4764 -0.1624  0.2178
 2040SOL    HW117582   4.198   0.057   4.399 -1.0509 -0.2149  0.5639
 2040SOL    HW217583   4.092   0.106   4.300 -0.0693  2.0456  0.6175
 2041SOL     OW17584   2.155   1.596  11.738 -0.0067  0.0256  0.1064
 2041SOL    HW117585   2.240   1.594  11.694 -0.0927 -0.3950 -0.0332
 2041SOL    HW217586   2.162   1.678  11.788  2.9911 -0.5265  0.5745
 2042SOL     OW17587   3.947   1.251   3.524  0.3453  0.3009 -0.2366
 2042SOL    HW117588   3.922   1.261   3.616 -0.2715  1.0707 -0.4888
 2042SOL    HW217589   3.936   1.156   3.517 -0.3139  0.2185  1.6456
 2043SOL     OW17590   1.875   2.675   6.817 -0.4812 -0.7321  0.0512
 2043SOL    HW117591   1.793   2.699   6.775 -0.8174  2.4631  2.4663
 2043SOL    HW217592   1.939   2.738   6.784 -2.3412  1.7335  1.1217
 2044SOL     OW17593   4.391   2.369   5.796  0.2059  0.4398  0.2190
 2044SOL    HW117594   4.339   2.290   5.781  0.3019  0.5804 -0.8459
 2044SOL    HW217595   4.318   2.430   5.798  1.0763  1.4623  1.0232
 2045SOL     OW17596   2.357   2.196  16.954 -0.5801 -0.1896 -0.4453
 2045SOL    HW117597   2.284   2.156  16.907 -0.2374  0.3740 -1.4516
 2045SOL    HW217598   2.364   2.285  16.919  1.5063  0.2128  1.0087
 2046SOL     OW17599   0.256   2.147   8.549  0.2066  0.2312 -0.4947
 2046SOL    HW117600   0.349   2.126   8.544  0.7190  2.6601 -1.1686
 2046SOL    HW217601   0.220   2.059   8.565 -2.6429  1.6434  0.8505
 2047SOL     OW17602   4.212   0.345  14.336  0.0709  0.1563  0.3759
 2047SOL    HW117603   4.129   0.384  14.363 -1.3228 -1.8735 -0.9785
 2047SOL    HW217604   4.203   0.368  14.243  2.1744  0.3758  0.2299
 2048SOL     OW17605   1.645   2.516   5.488 -0.1058 -0.0571  0.2253
 2048SOL    HW117606   1.575   2.526   5.423 -1.0630  2.3786  1.5958
 2048SOL    HW217607   1.616   2.574   5.559  1.0740 -0.2707  0.8762
 2049SOL     OW17608   2.219   0.909   4.739 -0.3987  0.2425  0.4394
 2049SOL    HW117609   2.261   0.922   4.824  0.9707 -1.1022 -0.0397
 2049SOL    HW217610   2.241   0.816   4.731  0.5706  0.4236  1.0506
 2050SOL     OW17611   1.172   2.026   0.078  0.4745 -0.2416  0.6225
 2050SOL    HW117612   1.252   2.012   0.028 -0.1978 -0.4742 -0.3812
 2050SOL    HW217613   1.149   1.933   0.078  0.0582 -0.1368  0.3733
 2051SOL     OW17614   2.661   4.323   2.777 -0.4134  0.1423 -0.0821
 2051SOL    HW117615   2.641   4.359   2.864  1.0835 -0.5943  0.5798
 2051SOL    HW217616   2.592   4.362   2.724 -1.9239 -0.4953  1.4286
 2052SOL     OW17617   0.447   1.730  15.339  0.1775  0.5146 -0.0313
 2052SOL    HW117618   0.372   1.702  15.286 -0.2333 -1.5799  1.7058
 2052SOL    HW217619   0.396   1.781  15.402  0.2515 -0.2241  0.6113
 2053SOL     OW17620   0.209   2.174   2.548  0.5699 -0.1740  0.1276
 2053SOL    HW117621   0.237   2.116   2.477  1.5239  0.4974 -0.0511
 2053SOL    HW217622   0.266   2.244   2.516 -0.3338  0.8000  0.6347
 2054SOL     OW17623   0.949   2.663  15.866 -0.8885 -0.0542  0.2093
 2054SOL    HW117624   0.929   2.570  15.856 -1.8480  0.3011 -1.1953
 2054SOL    HW217625   0.949   2.670  15.962 -2.3112 -0.3155  0.2292
 2055SOL     OW17626   1.795   4.522   7.400  0.4103 -0.1379  0.0694
 2055SOL    HW117627   1.712   4.474   7.396 -0.3166  1.2215 -1.0239
 2055SOL    HW217628   1.833   4.490   7.482  1.4761  1.0565  0.0411
 2056SOL     OW17629   0.736   1.853  16.547  0.1954  0.2581 -0.0961
 2056SOL    HW117630   0.683   1.851  16.467  0.6902  0.3474 -0.4233
 2056SOL    HW217631   0.730   1.945  16.572 -0.6198  0.3542 -0.6531
 2057SOL     OW17632   0.479   3.389   5.514  0.5797 -0.3199  0.2054
 2057SOL    HW117633   0.458   3.431   5.598 -2.0489 -1.2041 -0.0276
 2057SOL    HW217634   0.542   3.321   5.538 -0.5006 -0.7569  1.8245
 2058SOL     OW17635   3.677   2.072  12.962  0.3485  0.2495 -1.0360
 2058SOL    HW117636   3.691   2.060  13.056  0.3842 -0.6190 -1.1534
 2058SOL    HW217637   3.700   1.986  12.927 -0.4513 -0.5783  0.4603
 2059SOL     OW17638   4.640   3.971   4.565 -0.2662 -0.4127 -0.2118
 2059SOL    HW117639   4.567   4.012   4.611 -1.1069  1.1947 -2.9853
 2059SOL    HW217640   4.612   3.965   4.474 -0.4541  0.6342 -0.2185
 2060SOL     OW17641   2.251   2.370   1.691  0.8867 -0.1921 -0.1244
 2060SOL    HW117642   2.289   2.289   1.723 -0.4189 -0.7987 -0.1077
 2060SOL    HW217643   2.309   2.388   1.617  0.7562 -0.6784 -0.3427
 2061SOL     OW17644   2.334   4.265   4.355  0.1290  0.2198 -0.4091
 2061SOL    HW117645   2.251   4.258   4.403  1.2792  1.2224  1.7397
 2061SOL    HW217646   2.308   4.326   4.287 -1.5262 -0.5054 -0.4280
 2062SOL     OW17647   3.627   1.925   2.308 -0.5079  0.5493 -0.1393
 2062SOL    HW117648   3.554   1.866   2.328 -0.5418  0.8416  0.5848
 2062SOL    HW217649   3.612   1.995   2.372  0.8680  0.8733 -0.1858
 2063SOL     OW17650   4.622   4.038   5.770  0.3330 -0.5108 -0.2265
 2063SOL    HW117651   4.657   4.007   5.854  0.9455 -0.2967 -0.4003
 2063SOL    HW217652   4.535   3.999   5.775  0.0130  0.1676 -0.5019
 2064SOL     OW17653   2.981   1.671   8.903 -0.5325  0.1812  0.0518
 2064SOL    HW117654   2.916   1.608   8.872 -0.8020  0.9185 -0.8826
 2064SOL    HW217655   3.058   1.637   8.856 -1.0096 -1.4525  0.4381
 2065SOL     OW17656   4.220   0.082  14.271 -0.4328  0.2901  0.2256
 2065SOL    HW117657   4.194   0.086  14.179 -1.3514 -0.8736  0.4424
 2065SOL    HW217658   4.210   0.171  14.305  0.1835  0.2626  0.4749
 2066SOL     OW17659   1.935   3.331   6.010 -0.2280 -0.0291  0.0797
 2066SOL    HW117660   1.952   3.260   5.947 -0.6915  0.6586 -0.8300
 2066SOL    HW217661   1.942   3.286   6.094  0.9977 -1.9408 -1.0322
 2067SOL     OW17662   3.837   0.250  14.681  0.0570  0.3766  0.3014
 2067SOL    HW117663   3.914   0.206  14.645  1.0843  2.6068 -0.2035
 2067SOL    HW217664   3.874   0.321  14.733 -0.8069  0.8002  0.3511
 2068SOL     OW17665   0.607   0.864   5.150  0.7411  1.4238  0.1448
 2068SOL    HW117666   0.685   0.820   5.182 -0.7896 -1.2574  0.1613
 2068SOL    HW217667   0.596   0.824   5.064  2.0762  1.5083 -0.0608
 2069SOL     OW17668   3.992   1.768   8.179 -0.8303 -0.0025 -0.0232
 2069SOL    HW117669   3.951   1.787   8.094  0.0507  2.5441  0.1298
 2069SOL    HW217670   4.035   1.850   8.201  0.0976 -0.6511  0.5913
 2070SOL     OW17671   2.772   2.659   2.254 -0.1278  1.2820  0.3289
 2070SOL    HW117672   2.830   2.697   2.321  0.5284 -0.8631  0.9643
 2070SOL    HW217673   2.732   2.589   2.306  3.7807 -0.8185  0.5321
 2071SOL     OW17674   0.031   0.002  12.959 -0.1604 -0.4611 -0.0045
 2071SOL    HW117675   0.089   0.077  12.970  0.5098 -0.5328 -2.8085
 2071SOL    HW217676   4.670   0.031  12.995  0.0281 -0.3489  0.3328
 2072SOL     OW17677   1.913   4.291   3.221  0.1183  0.1336 -0.1505
 2072SOL    HW117678   1.979   4.260   3.160 -0.4583 -0.3319 -0.5361
 2072SOL    HW217679   1.964   4.357   3.269 -2.4307  1.2467  1.0437
 2073SOL     OW17680   2.851   2.903   6.172  0.3315  0.3255 -0.2021
 2073SOL    HW117681   2.927   2.906   6.115  0.2810  0.2565 -0.2737
 2073SOL    HW217682   2.790   2.867   6.107 -0.4928  2.3657 -0.5520
 2074SOL     OW17683   4.084   0.986   6.176 -0.2317 -0.0157  0.7069
 2074SOL    HW117684   4.048   0.951   6.257  0.5142  0.3324  1.1945
 2074SOL    HW217685   4.108   0.904   6.133 -1.1085  0.6532 -1.0729
 2075SOL     OW17686   1.727   1.084  17.388  0.0675  0.4264  0.6333
 2075SOL    HW117687   1.776   1.032  17.324 -0.9495  0.8386 -0.4712
 2075SOL    HW217688   1.642   1.044  17.371  1.7560 -2.6137 -0.5482
 2076SOL     OW17689   0.035   3.628   8.190 -0.4333 -0.3462  0.1295
 2076SOL    HW117690   0.017   3.658   8.101  1.9834 -1.5474 -0.7582
 2076SOL    HW217691   4.686   3.665   8.242 -1.3886 -0.4974 -1.0697
 2077SOL     OW17692   3.900   2.605   2.914  0.3844 -0.3126  0.2243
 2077SOL    HW117693   3.841   2.529   2.918 -1.0872  0.8563  0.8347
 2077SOL    HW217694   3.973   2.574   2.967  0.4850  2.1339  1.5104
 2078SOL     OW17695   2.929   4.246  10.381 -0.5558 -0.3514  0.0373
 2078SOL    HW117696   2.851   4.268  10.330  0.7161 -1.0217 -2.2080
 2078SOL    HW217697   2.894   4.226  10.468  1.1432 -0.3701  0.7163
 2079SOL     OW17698   1.201   3.976  15.024  0.1487 -0.0821  0.3726
 2079SOL    HW117699   1.250   4.046  14.979 -1.2384 -0.0285 -1.0636
 2079SOL    HW217700   1.235   3.984  15.113 -0.8980 -0.1762  0.7814
 2080SOL     OW17701   0.348   0.590   3.830  0.5266  0.1326  0.0060
 2080SOL    HW117702   0.308   0.566   3.913 -1.8469  0.7500 -0.9661
 2080SOL    HW217703   0.358   0.685   3.838 -0.3426  0.2147  0.0415
 2081SOL     OW17704   4.414   3.495   9.002  0.5272  0.3183  0.0011
 2081SOL    HW117705   4.394   3.534   9.088 -1.5725  1.4102 -0.9970
 2081SOL    HW217706   4.331   3.484   8.957  0.6056 -2.8089  0.6543
 2082SOL     OW17707   2.129   4.543   5.678 -0.0852  0.6487  0.3028
 2082SOL    HW117708   2.207   4.488   5.668 -1.2630 -1.5826  3.7366
 2082SOL    HW217709   2.117   4.554   5.772 -2.9963 -0.5616  0.0660
 2083SOL     OW17710   2.872   2.871   6.990  0.2909 -0.5319  0.0592
 2083SOL    HW117711   2.783   2.872   6.956  0.5361 -0.5224 -0.5906
 2083SOL    HW217712   2.860   2.814   7.066 -1.0560  1.2678  1.2115
 2084SOL     OW17713   1.117   3.036  16.881  0.0592 -0.6159  0.2777
 2084SOL    HW117714   1.079   2.974  16.943 -0.4902 -0.3279  0.2242
 2084SOL    HW217715   1.113   2.989  16.798 -1.3308  0.1944 -0.1115
 2085SOL     OW17716   2.764   1.028   3.745  0.0812  0.0979  0.0627
 2085SOL    HW117717   2.817   1.053   3.670  0.1853  2.1338  0.8239
 2085SOL    HW217718   2.748   1.117   3.774 -1.5860  0.3551 -1.6462
 2086SOL     OW17719   3.646   0.323   7.487 -0.3166  0.2012  0.0194
 2086SOL    HW117720   3.707   0.316   7.414 -0.7470 -0.2330 -0.3047
 2086SOL    HW217721   3.696   0.370   7.554  1.0661 -1.1893 -0.0395
 2087SOL     OW17722   0.060   0.641   6.510  0.0280  0.5059  0.6680
 2087SOL    HW117723   0.142   0.631   6.559  2.2357  1.8246 -2.7499
 2087SOL    HW217724   0.086   0.582   6.439  0.9118  0.5836  0.9301
 2088SOL     OW17725   2.386   0.978   1.007 -0.3119  0.1699 -0.1539
 2088SOL    HW117726   2.381   1.074   1.001  2.0000  0.3340  0.3890
 2088SOL    HW217727   2.301   0.961   0.967 -1.4268  0.4541  2.1219
 2089SOL     OW17728   1.454   3.836   1.878  0.2348  0.2248 -0.7544
 2089SOL    HW117729   1.451   3.841   1.782  2.1856 -2.2722 -0.9332
 2089SOL    HW217730   1.361   3.839   1.901  0.3916  1.4743 -0.2660
 2090SOL     OW17731   2.053   2.444   3.389  0.2621  0.1405  0.3716
 2090SOL    HW117732   2.022   2.517   3.442  0.4049  1.0945 -0.8416
 2090SOL    HW217733   2.146   2.465   3.386 -0.5019  3.2389 -1.7999
 2091SOL     OW17734   0.447   3.226   5.917 -0.0628  0.0652 -0.1413
 2091SOL    HW117735   0.431   3.281   5.840 -1.3789  0.8971  0.7101
 2091SOL    HW217736   0.493   3.296   5.964 -1.6182  0.8954  0.1794
 2092SOL     OW17737   4.500   0.778   5.225 -0.0355 -0.0458  0.0760
 2092SOL    HW117738   4.462   0.865   5.220 -0.1156  0.0001  1.4747
 2092SOL    HW217739   4.592   0.804   5.223 -0.8585  2.9287  1.3253
 2093SOL     OW17740   1.084   1.105   9.422 -0.2341 -0.0947  0.2431
 2093SOL    HW117741   1.044   1.179   9.466  2.7490  1.4518  0.3425
 2093SOL    HW217742   1.014   1.065   9.369  0.8329  0.8434 -1.8811
 2094SOL     OW17743   1.578   0.770   5.321  0.1179  0.7692 -0.1876
 2094SOL    HW117744   1.640   0.812   5.382 -0.3344 -1.3871  1.7442
 2094SOL    HW217745   1.582   0.829   5.246  0.2987  1.2716  0.2134
 2095SOL     OW17746   3.288   3.844   6.480 -0.4688  0.7828 -0.6234
 2095SOL    HW117747   3.281   3.903   6.554  0.1085 -0.5578  0.4982
 2095SOL    HW217748   3.380   3.866   6.462 -0.4708  0.8107 -0.5985
 2096SOL     OW17749   2.889   2.217   8.875  0.8149 -0.2360 -0.0479
 2096SOL    HW117750   2.836   2.183   8.803  1.0794  1.3364 -1.0007
 2096SOL    HW217751   2.976   2.193   8.844  0.7182 -0.2590 -0.3013
 2097SOL     OW17752   1.452   0.783   9.583 -0.2815 -0.5124 -0.2502
 2097SOL    HW117753   1.534   0.785   9.633  0.1822 -1.1173 -0.9953
 2097SOL    HW217754   1.393   0.803   9.656  0.2183 -0.7881  0.2357
 2098SOL     OW17755   4.422   2.859   5.220 -0.2061  0.2658  0.1422
 2098SOL    HW117756   4.392   2.828   5.135 -0.7619  1.1517  0.0234
 2098SOL    HW217757   4.398   2.951   5.222 -0.8216  0.1351 -2.1301
 2099SOL     OW17758   4.594   0.150   3.096  0.0012 -0.3314  0.0189
 2099SOL    HW117759   4.547   0.076   3.058  1.4109 -1.1190 -0.1667
 2099SOL    HW217760   4.562   0.145   3.186  1.8526  1.2962  0.7758
 2100SOL     OW17761   0.443   0.162   8.081 -0.1872  0.9824  0.5985
 2100SOL    HW117762   0.422   0.231   8.018  2.2552  2.4568  1.4049
 2100SOL    HW217763   0.392   0.198   8.154 -1.4743 -0.0388  0.2248
 2101SOL     OW17764   0.908   3.610   5.587 -0.3936 -0.4499  0.3088
 2101SOL    HW117765   0.906   3.577   5.498  2.3243  0.7164 -0.2003
 2101SOL    HW217766   0.886   3.701   5.565 -2.8861 -0.8915  1.0180
 2102SOL     OW17767   2.556   2.463  12.459  0.3557 -0.1958 -0.2706
 2102SOL    HW117768   2.625   2.417  12.411 -0.5874 -1.3234 -0.5461
 2102SOL    HW217769   2.602   2.547  12.454  2.9119 -1.5534  0.5622
 2103SOL     OW17770   3.521   1.181   3.173 -0.0088 -0.3965  0.2539
 2103SOL    HW117771   3.467   1.260   3.170  0.6985  0.0144 -1.6154
 2103SOL    HW217772   3.468   1.131   3.236  1.4270  0.6036  2.2369
 2104SOL     OW17773   1.984   2.857   6.315  0.2245  0.0862 -0.4871
 2104SOL    HW117774   2.020   2.775   6.350 -0.0726  1.3364  2.7396
 2104SOL    HW217775   1.936   2.893   6.389 -1.8115 -1.3885 -1.0675
 2105SOL     OW17776   3.709   0.822   4.179  0.4827  0.8100 -0.5576
 2105SOL    HW117777   3.719   0.771   4.259 -0.8592 -1.5261 -1.8804
 2105SOL    HW217778   3.804   0.821   4.164  0.6895  0.4393  0.8195
 2106SOL     OW17779   0.460   0.286   4.307 -0.3377 -0.0957  0.0903
 2106SOL    HW117780   0.465   0.365   4.362  1.7536  0.1917 -0.4839
 2106SOL    HW217781   0.380   0.242   4.334 -1.4025  0.9751 -1.2742
 2107SOL     OW17782   0.876   2.351   9.148 -0.4672  0.2771  0.5126
 2107SOL    HW117783   0.931   2.317   9.219 -1.0362  0.5732  1.0938
 2107SOL    HW217784   0.905   2.442   9.157  2.3775 -0.8087  2.3159
 2108SOL     OW17785   3.413   0.308   2.825 -0.0537 -0.2758 -0.5658
 2108SOL    HW117786   3.431   0.220   2.859 -1.0230 -0.2422  0.0044
 2108SOL    HW217787   3.499   0.349   2.838  0.1287 -0.8057 -0.0669
 2109SOL     OW17788   0.362   1.439   1.835 -0.3799 -0.1984  0.3405
 2109SOL    HW117789   0.407   1.356   1.822 -1.3945 -0.8516  0.9462
 2109SOL    HW217790   0.283   1.417   1.785  0.1976 -1.0857 -0.1869
 2110SOL     OW17791   4.623   1.900   6.543  0.3505 -0.1924 -0.2211
 2110SOL    HW117792   4.549   1.842   6.564  0.5394 -0.5354 -0.4941
 2110SOL    HW217793   4.639   1.870   6.453  0.6065 -1.6684  0.3046
 2111SOL     OW17794   2.615   2.427   2.345  0.4904 -0.3372 -0.3806
 2111SOL    HW117795   2.557   2.414   2.270  0.6319  0.5931 -0.6585
 2111SOL    HW217796   2.634   2.339   2.375 -2.5376 -1.4059 -1.5707
 2112SOL     OW17797   2.232   2.562   9.087  0.3004 -0.4546 -0.0249
 2112SOL    HW117798   2.258   2.628   9.022 -1.0664  0.9508  0.8656
 2112SOL    HW217799   2.272   2.582   9.171 -0.2450 -0.3683  0.2113
 2113SOL     OW17800   2.721   0.211   7.342 -0.6266 -0.4652 -0.0817
 2113SOL    HW117801   2.664   0.155   7.288 -0.9757 -2.4164  2.3067
 2113SOL    HW217802   2.793   0.154   7.370  0.3617  0.2832 -1.1209
 2114SOL     OW17803   1.143   0.397   8.446 -0.2215 -0.1032 -0.1580
 2114SOL    HW117804   1.089   0.467   8.481 -1.2947 -0.5356 -0.9375
 2114SOL    HW217805   1.206   0.380   8.516 -0.1927  1.6888  0.2279
 2115SOL     OW17806   3.940   0.737   0.448 -0.6153  0.6825 -0.3838
 2115SOL    HW117807   3.900   0.800   0.388 -1.4806 -0.5274 -1.1005
 2115SOL    HW217808   4.005   0.694   0.392  0.0780 -0.5072  1.3558
 2116SOL     OW17809   2.303   1.302   4.448 -0.0454  0.4151 -0.8313
 2116SOL    HW117810   2.242   1.241   4.489  0.6640  1.5612  1.9160
 2116SOL    HW217811   2.250   1.325   4.372 -0.3646  0.5580 -0.5638
 2117SOL     OW17812   0.919   4.423  16.995 -0.6307 -0.5121 -0.5567
 2117SOL    HW117813   0.868   4.388  17.067 -0.7870  1.2029  0.1614
 2117SOL    HW217814   0.976   4.347  16.982 -0.6520 -0.7657  0.8040
 2118SOL     OW17815   2.432   1.983   3.085 -0.2773 -0.1472 -0.4361
 2118SOL    HW117816   2.447   1.892   3.111 -0.5577 -0.0945 -0.0888
 2118SOL    HW217817   2.490   2.040   3.135 -1.2086 -0.2888  0.7956
 2119SOL     OW17818   0.228   0.960   6.973  0.1135  0.2798 -0.4030
 2119SOL    HW117819   0.247   1.053   6.957  0.9298  0.1374 -0.2594
 2119SOL    HW217820   0.285   0.943   7.048 -0.5636  0.6554  0.1933
 2120SOL     OW17821   1.922   3.776   4.042 -0.0194 -0.5726  0.3868
 2120SOL    HW117822   1.988   3.727   3.992 -1.9686 -2.9346  0.1487
 2120SOL    HW217823   1.861   3.707   4.068  0.8642 -1.3012  0.5247
 2121SOL     OW17824   0.089   2.738   4.439  0.0988 -0.2547  0.2198
 2121SOL    HW117825   0.129   2.733   4.352 -1.5501  2.1910 -0.6459
 2121SOL    HW217826   0.053   2.649   4.448  0.9513 -0.5739  0.5479
 2122SOL     OW17827   3.190   2.131   0.253  0.5659 -0.6608  0.2867
 2122SOL    HW117828   3.277   2.149   0.290  0.4000 -0.4494  0.5757
 2122SOL    HW217829   3.204   2.060   0.190  0.4954 -0.9619  0.6056
 2123SOL     OW17830   4.183   0.830  10.472 -0.0412  0.1509 -0.1290
 2123SOL    HW117831   4.207   0.746  10.511  0.0477  0.0077 -0.4988
 2123SOL    HW217832   4.127   0.804  10.399 -0.3197  0.3145  0.0261
 2124SOL     OW17833   3.526   0.178   3.643 -0.7737 -0.3881 -0.6529
 2124SOL    HW117834   3.591   0.108   3.632  0.3566  0.0199  3.2594
 2124SOL    HW217835   3.440   0.137   3.631 -0.6850 -1.6182  2.8370
 2125SOL     OW17836   0.789   3.831   2.657  0.2031  0.1496  0.3588
 2125SOL    HW117837   0.721   3.807   2.595  1.2649  2.4072 -1.7008
 2125SOL    HW217838   0.742   3.809   2.737 -0.2354  0.2706  0.1320
 2126SOL     OW17839   2.491   2.953   1.688 -0.6720 -0.5671 -0.0096
 2126SOL    HW117840   2.529   3.041   1.687 -1.9158 -0.0170  1.3777
 2126SOL    HW217841   2.567   2.896   1.701 -0.9757 -1.2919 -1.4232
 2127SOL     OW17842   1.757   3.963  16.528 -0.1389  0.0471  0.3165
 2127SOL    HW117843   1.815   3.937  16.455 -0.9457  1.6204 -0.8846
 2127SOL    HW217844   1.816   4.000  16.593  0.0669  0.5337 -0.1431
 2128SOL     OW17845   3.739   1.277   5.053  0.1097  0.2861 -0.3026
 2128SOL    HW117846   3.760   1.265   4.960 -0.4940  1.6911 -0.6173
 2128SOL    HW217847   3.733   1.187   5.087 -0.8949  0.3820 -0.2221
 2129SOL     OW17848   1.839   2.324  11.837  0.3698  0.0190  0.6015
 2129SOL    HW117849   1.799   2.302  11.921 -0.3493  0.2426  0.3137
 2129SOL    HW217850   1.908   2.258  11.829 -0.6491 -0.6857 -2.4134
 2130SOL     OW17851   2.335   0.236   8.048  0.5841  0.0938 -0.4976
 2130SOL    HW117852   2.291   0.175   8.108 -0.1530  2.2096  1.1015
 2130SOL    HW217853   2.253   0.257   8.003  1.1481  1.7692 -0.7170
 2131SOL     OW17854   1.435   1.197   7.702 -0.1055 -0.1632 -0.9887
 2131SOL    HW117855   1.478   1.222   7.783 -3.3043 -0.5679  0.8551
 2131SOL    HW217856   1.403   1.285   7.682 -1.1728 -0.5765 -1.1173
 2132SOL     OW17857   2.420   0.554  10.215  0.4606 -0.5116  0.6870
 2132SOL    HW117858   2.411   0.649  10.223 -1.9850 -0.5800 -1.2905
 2132SOL    HW217859   2.509   0.549  10.182  0.4063 -0.2673  0.5096
 2133SOL     OW17860   2.536   1.617   9.428 -0.1323 -0.2193  0.2781
 2133SOL    HW117861   2.577   1.531   9.437  0.1257 -0.0879  0.3352
 2133SOL    HW217862   2.452   1.577   9.402 -0.2671 -0.1871  0.6638
 2134SOL     OW17863   3.180   0.963   3.816  0.1017  0.0694 -0.0120
 2134SOL    HW117864   3.171   0.870   3.839 -0.1560  0.5647  1.8935
 2134SOL    HW217865   3.165   0.967   3.722  1.6879  0.0229 -0.2618
 2135SOL     OW17866   0.072   2.466   2.745 -0.2561  0.2499  0.0226
 2135SOL    HW117867   0.041   2.532   2.807  1.2867 -0.4471  1.5589
 2135SOL    HW217868   0.032   2.385   2.775 -0.3577 -0.2621 -1.5151
 2136SOL     OW17869   2.619   3.902   7.221 -0.1911  0.0430 -0.4355
 2136SOL    HW117870   2.697   3.956   7.231 -1.0060  1.7718 -3.7261
 2136SOL    HW217871   2.669   3.821   7.208  0.9322  0.6307  0.2107
 2137SOL     OW17872   2.169   0.630  15.505 -0.3224  0.0384  0.3412
 2137SOL    HW117873   2.079   0.656  15.525 -1.3123 -2.3085 -1.0666
 2137SOL    HW217874   2.157   0.596  15.416  1.4070 -0.9872  0.4969
 2138SOL     OW17875   1.234   3.378   4.647 -0.0362 -0.5183 -0.1045
 2138SOL    HW117876   1.327   3.377   4.671 -0.1066  1.2064  0.2558
 2138SOL    HW217877   1.240   3.342   4.559 -1.2065 -0.9929  0.0070
 2139SOL     OW17878   4.382   3.888  10.174  0.4442  0.4634  0.2214
 2139SOL    HW117879   4.405   3.809  10.126  0.6091  0.2595  0.6364
 2139SOL    HW217880   4.463   3.901  10.224 -0.1675  0.6607  1.1508
 2140SOL     OW17881   1.512   4.720   3.678 -0.1472  0.3242 -0.1525
 2140SOL    HW117882   1.561   0.080   3.685  1.2354 -0.6689  1.7375
 2140SOL    HW217883   1.519   4.685   3.767  0.8563  0.6374 -0.1108
 2141SOL     OW17884   0.782   0.617   6.168  0.1877 -0.4770 -0.5046
 2141SOL    HW117885   0.866   0.621   6.122  0.5448  0.6547  0.2192
 2141SOL    HW217886   0.719   0.585   6.105 -1.0683  1.5143 -0.2652
 2142SOL     OW17887   3.466   4.421  12.314 -0.1496 -0.0264  0.0751
 2142SOL    HW117888   3.493   4.411  12.405  0.2807  1.3722  0.0996
 2142SOL    HW217889   3.371   4.432  12.323 -0.2970  0.4609 -2.0233
 2143SOL     OW17890   3.015   0.762  16.691  0.0657 -0.5342  0.0221
 2143SOL    HW117891   2.972   0.792  16.611 -0.6081  0.2352  0.6830
 2143SOL    HW217892   3.104   0.768  16.656 -0.1445 -0.7328 -0.5537
 2144SOL     OW17893   4.462   2.413   3.829 -0.4309  0.0846  0.1909
 2144SOL    HW117894   4.540   2.468   3.840 -0.8892  0.5439  1.1441
 2144SOL    HW217895   4.483   2.353   3.758 -1.3524  0.2331 -0.2089
 2145SOL     OW17896   0.438   1.413   6.334  0.0056  0.1678  0.3755
 2145SOL    HW117897   0.372   1.474   6.367 -0.8061 -0.5608  0.1175
 2145SOL    HW217898   0.395   1.328   6.345  1.1942 -0.6184 -0.9101
 2146SOL     OW17899   1.216   2.276   3.268 -0.1287  0.3674 -0.0337
 2146SOL    HW117900   1.181   2.276   3.357  0.0177  0.1005  0.0213
 2146SOL    HW217901   1.149   2.323   3.219  0.1400  0.6840 -0.1043
 2147SOL     OW17902   2.443   2.245  14.878  0.2637  0.3963  0.2354
 2147SOL    HW117903   2.481   2.184  14.816  0.6348  0.2791  0.5796
 2147SOL    HW217904   2.425   2.201  14.961  2.4199 -1.1664 -0.1442
 2148SOL     OW17905   4.648   2.012   4.572  0.0479 -0.4783 -0.0255
 2148SOL    HW117906   4.712   2.057   4.628 -1.6887  1.4734  0.4157
 2148SOL    HW217907   4.703   2.009   4.494  0.0249 -0.4612 -0.0424
 2149SOL     OW17908   0.173   2.632   4.753 -0.0699 -0.0234 -0.1016
 2149SOL    HW117909   0.264   2.635   4.722 -0.1114 -0.3882 -0.2479
 2149SOL    HW217910   0.122   2.685   4.692 -0.3031 -0.0577  0.0646
 2150SOL     OW17911   0.034   3.804   3.630  0.1421 -0.2491  0.1303
 2150SOL    HW117912   4.698   3.786   3.556 -2.0555 -0.1025  1.7996
 2150SOL    HW217913   0.023   3.896   3.653 -2.4043 -0.3799 -0.5111
 2151SOL     OW17914   3.829   1.766  10.318  0.1126  0.4789 -0.3103
 2151SOL    HW117915   3.756   1.740  10.262 -1.2728  5.0963 -0.6486
 2151SOL    HW217916   3.902   1.749  10.259  1.6202 -1.4052  2.0984
 2152SOL     OW17917   4.693   3.047   9.168 -0.3403  0.1086 -0.6744
 2152SOL    HW117918   0.019   3.121   9.203 -0.9416 -0.4099  1.2399
 2152SOL    HW217919   4.620   3.099   9.134 -1.0409  0.7828  1.8371
 2153SOL     OW17920   3.701   3.576   9.644 -0.3244  0.7047  0.4522
 2153SOL    HW117921   3.610   3.556   9.666 -0.2072 -0.3433 -0.0248
 2153SOL    HW217922   3.712   3.539   9.557  1.5845  0.2334  0.8859
 2154SOL     OW17923   1.290   3.714   3.480 -0.0452  0.3681  0.4187
 2154SOL    HW117924   1.335   3.722   3.564  0.4094  2.2879 -0.0112
 2154SOL    HW217925   1.256   3.628   3.505 -1.3399  0.6330 -0.4216
 2155SOL     OW17926   3.400   1.940   0.538 -0.4109 -0.6089 -0.6082
 2155SOL    HW117927   3.383   1.935   0.444 -0.1858 -2.9587 -0.5393
 2155SOL    HW217928   3.471   1.875   0.545  0.5251  0.1784 -2.7831
 2156SOL     OW17929   1.919   4.010   4.192  0.0664 -0.2079 -0.1369
 2156SOL    HW117930   1.913   4.090   4.139 -0.2938 -0.2042 -0.0924
 2156SOL    HW217931   1.888   3.944   4.130 -1.5809  0.2199  0.2328
 2157SOL     OW17932   2.289   4.266   7.138 -0.3796 -0.4047 -0.0505
 2157SOL    HW117933   2.230   4.197   7.165 -0.2161  0.4594  2.5226
 2157SOL    HW217934   2.370   4.240   7.183  0.4446  0.3748 -1.0527
 2158SOL     OW17935   4.208   2.436   4.317  0.5912  0.3698 -0.4642
 2158SOL    HW117936   4.138   2.489   4.278  0.0673 -0.2796 -0.4109
 2158SOL    HW217937   4.267   2.507   4.342  3.2206 -1.2928 -1.9831
 2159SOL     OW17938   2.469   1.791   4.014  0.0159 -0.0707 -0.9981
 2159SOL    HW117939   2.399   1.827   3.959 -0.6919 -1.7049 -1.1533
 2159SOL    HW217940   2.526   1.739   3.957 -0.0294 -1.0632 -0.1454
 2160SOL     OW17941   0.684   3.178   5.537  0.3588 -0.1360  0.2551
 2160SOL    HW117942   0.748   3.182   5.466  2.3918 -1.9298  1.9571
 2160SOL    HW217943   0.623   3.118   5.494 -0.6861  0.9693  0.2130
 2161SOL     OW17944   0.157   2.964  14.871 -0.2189 -0.1777  0.3383
 2161SOL    HW117945   0.227   2.968  14.936  2.7325  3.0781 -3.0684
 2161SOL    HW217946   0.145   2.870  14.859  0.1009 -0.0629 -0.8585
 2162SOL     OW17947   0.275   1.240  15.782  0.2559  0.5381  0.0031
 2162SOL    HW117948   0.335   1.184  15.732  0.0457  1.5296 -1.3564
 2162SOL    HW217949   0.243   1.302  15.717 -0.2635 -0.3147 -0.5660
 2163SOL     OW17950   3.404   0.719  10.129 -0.1477  0.8529 -0.0306
 2163SOL    HW117951   3.367   0.673  10.054 -0.0729 -0.0107  0.4706
 2163SOL    HW217952   3.484   0.754  10.089 -0.8068  1.3077 -0.9613
 2164SOL     OW17953   3.812   0.227   8.679 -0.3514 -0.0804 -0.0101
 2164SOL    HW117954   3.884   0.254   8.622 -0.7473  0.1783 -0.3889
 2164SOL    HW217955   3.737   0.250   8.625 -0.0648  3.1778  0.9825
 2165SOL     OW17956   0.459   0.338   3.460 -0.5492 -0.1006  0.2824
 2165SOL    HW117957   0.382   0.393   3.477  0.1393  0.9964 -0.1702
 2165SOL    HW217958   0.426   0.272   3.400 -0.9765  1.0140 -0.7052
 2166SOL     OW17959   0.965   0.054   9.445  0.3297  0.4528  0.3952
 2166SOL    HW117960   1.018   0.092   9.515  1.9303 -0.5243 -0.3002
 2166SOL    HW217961   0.894   0.117   9.434  1.0901  1.3348  0.5405
 2167SOL     OW17962   0.272   4.493  14.999 -0.2606  0.0136  0.0555
 2167SOL    HW117963   0.298   4.442  15.076  0.2386  0.4981  0.2077
 2167SOL    HW217964   0.251   4.578  15.037 -1.1948 -0.2417  0.1273
 2168SOL     OW17965   4.013   0.200   4.642  0.2143  0.4376 -0.4111
 2168SOL    HW117966   3.997   0.294   4.644  0.0121  0.4188 -0.9579
 2168SOL    HW217967   4.100   0.187   4.603  1.1782  0.6818  1.6425
 2169SOL     OW17968   0.043   3.796  17.190 -0.4429 -0.5297  0.0259
 2169SOL    HW117969   0.083   3.872  17.232  1.2469 -1.6583  0.4416
 2169SOL    HW217970   0.115   3.766  17.136  0.0974 -0.9438  0.9865
 2170SOL     OW17971   2.908   1.812   6.276 -0.0008  0.0241 -0.1092
 2170SOL    HW117972   2.957   1.847   6.201  1.4681 -1.3652  0.2141
 2170SOL    HW217973   2.830   1.867   6.272  1.7526  2.4826 -0.4281
 2171SOL     OW17974   2.706   1.616   3.519 -0.5188 -0.2317  0.0940
 2171SOL    HW117975   2.755   1.571   3.451  1.1868 -1.2530  1.9875
 2171SOL    HW217976   2.755   1.695   3.544  0.8053 -0.6279 -1.2820
 2172SOL     OW17977   0.699   1.746   6.155 -0.3669  0.4640  0.2329
 2172SOL    HW117978   0.750   1.817   6.192 -1.5792  0.4132  1.9953
 2172SOL    HW217979   0.731   1.730   6.066  1.0170  0.1086  0.8000
 2173SOL     OW17980   1.663   3.471  10.341 -0.6005  0.0411 -0.1066
 2173SOL    HW117981   1.692   3.557  10.372 -1.1909  0.1317  0.2007
 2173SOL    HW217982   1.743   3.426  10.366 -0.2349  0.8636  0.2087
 2174SOL     OW17983   0.754   1.763  15.729 -0.8663 -0.1006  0.0956
 2174SOL    HW117984   0.716   1.691  15.779  2.4577 -2.1748 -0.4252
 2174SOL    HW217985   0.724   1.743  15.641 -1.2765  0.1689  0.1731
 2175SOL     OW17986   3.488   0.625  10.362 -0.2429  0.5653  0.4756
 2175SOL    HW117987   3.571   0.608  10.319 -0.3536 -1.0111  0.8961
 2175SOL    HW217988   3.442   0.659  10.285  0.9124  0.1688 -0.3845
 2176SOL     OW17989   2.646   3.166   6.703  0.4331 -0.2785  0.1028
 2176SOL    HW117990   2.634   3.212   6.787 -0.9294 -0.3946 -0.0243
 2176SOL    HW217991   2.557   3.158   6.667  0.7718 -3.7832  0.0382
 2177SOL     OW17992   1.039   1.500   3.940  0.3665  0.2195  1.0073
 2177SOL    HW117993   1.046   1.585   3.896  1.5966 -0.4277 -0.0540
 2177SOL    HW217994   1.124   1.488   3.982 -0.2714 -0.3705  2.1442
 2178SOL     OW17995   2.044   2.852   7.631  0.4449  0.5795  0.3667
 2178SOL    HW117996   2.121   2.892   7.590  3.2301 -3.0869  2.0029
 2178SOL    HW217997   2.091   2.821   7.709  2.9940  0.8333 -1.0626
 2179SOL     OW17998   1.416   0.784  13.170  0.1606  0.3267  0.3014
 2179SOL    HW117999   1.322   0.797  13.186  0.8113  2.5686  2.2777
 2179SOL    HW218000   1.435   0.704  13.218  0.6997  0.8845  1.0260
 2180SOL     OW18001   3.886   3.041   8.756  0.5786 -0.1804  0.1411
 2180SOL    HW118002   3.861   2.974   8.692 -1.8489  1.7848 -0.9638
 2180SOL    HW218003   3.887   3.117   8.699  1.9076  0.6652  1.3016
 2181SOL     OW18004   2.676   1.954   9.117  0.1475  0.2261  0.4470
 2181SOL    HW118005   2.603   1.892   9.126  1.4161 -1.3351 -0.0442
 2181SOL    HW218006   2.745   1.890   9.131 -0.0243  0.0948  0.7139
 2182SOL     OW18007   1.532   2.966   7.853 -0.1832  0.1496  0.6901
 2182SOL    HW118008   1.518   2.898   7.787 -0.6544 -0.6490  1.6005
 2182SOL    HW218009   1.575   3.030   7.797  1.3972 -0.5793  1.0813
 2183SOL     OW18010   1.128   4.675  13.084  0.2906 -0.2016 -0.1462
 2183SOL    HW118011   1.204   4.639  13.130  1.7083  0.5761 -1.9029
 2183SOL    HW218012   1.140   4.629  13.001  0.0363  1.0908 -0.8901
 2184SOL     OW18013   3.262   3.986   3.930 -0.1272  0.4672 -0.3580
 2184SOL    HW118014   3.316   3.933   3.987 -1.2842 -0.2140  0.1087
 2184SOL    HW218015   3.328   4.012   3.866  1.7219 -2.1350  0.5423
 2185SOL     OW18016   3.328   3.919  15.275  0.0183  0.9067 -0.3908
 2185SOL    HW118017   3.355   3.837  15.234 -0.1909 -0.1633  1.6199
 2185SOL    HW218018   3.261   3.958  15.219 -0.3847  3.0953  1.6348
 2186SOL     OW18019   2.761   4.478   4.396  0.2842  0.2178 -0.4165
 2186SOL    HW118020   2.681   4.478   4.448 -0.4224  0.8825 -1.4956
 2186SOL    HW218021   2.729   4.528   4.321 -1.3781  1.4240  1.1043
 2187SOL     OW18022   3.110   2.696  14.425 -0.1947  0.0516  0.1466
 2187SOL    HW118023   3.065   2.626  14.472  2.3660 -0.3353  2.0222
 2187SOL    HW218024   3.124   2.668  14.335 -0.3953 -1.5297  0.6065
 2188SOL     OW18025   4.296   2.792   1.412  0.4885 -0.1020  0.1465
 2188SOL    HW118026   4.284   2.742   1.331 -1.7294 -1.4843  1.3326
 2188SOL    HW218027   4.360   2.855   1.377 -0.0926  1.2873  1.5799
 2189SOL     OW18028   1.559   4.142  12.590 -0.1164 -0.1685 -0.3545
 2189SOL    HW118029   1.547   4.167  12.682  2.4820 -0.6414  0.1333
 2189SOL    HW218030   1.622   4.071  12.601 -0.1233 -0.3191 -1.2999
 2190SOL     OW18031   2.809   3.395   9.533 -0.8182 -0.0583  0.1035
 2190SOL    HW118032   2.879   3.337   9.563  0.3836  0.6743 -1.3366
 2190SOL    HW218033   2.774   3.413   9.621 -2.3860  1.0089 -0.7414
 2191SOL     OW18034   0.579   0.332   6.291  0.3848 -0.0760 -0.5001
 2191SOL    HW118035   0.620   0.253   6.326 -0.7864 -0.8056 -0.7614
 2191SOL    HW218036   0.595   0.329   6.197  1.1297 -0.1207 -0.3684
 2192SOL     OW18037   0.226   2.847   5.774 -0.0126  0.0610  0.3092
 2192SOL    HW118038   0.299   2.898   5.739  0.2748  1.9096  3.6674
 2192SOL    HW218039   0.156   2.896   5.731 -0.2929 -0.4365  0.1913
 2193SOL     OW18040   3.836   0.458   5.208  0.5110  0.0213  0.1841
 2193SOL    HW118041   3.744   0.472   5.186  0.7004  0.5398 -0.3021
 2193SOL    HW218042   3.841   0.456   5.303 -0.6662  1.8351  0.2793
 2194SOL     OW18043   2.866   4.515   6.954 -0.4078  0.4810  0.5073
 2194SOL    HW118044   2.836   4.587   6.898 -0.2630 -0.8780 -1.3094
 2194SOL    HW218045   2.915   4.553   7.027  0.6269 -3.9973  2.0997
 2195SOL     OW18046   0.270   2.756  15.923  0.0604  0.5236 -0.3435
 2195SOL    HW118047   0.282   2.679  15.866  0.6684 -0.3857  1.0030
 2195SOL    HW218048   0.196   2.746  15.983 -0.4979 -0.3900 -1.1855
 2196SOL     OW18049   0.788   3.142   8.646  0.1793  0.0702 -0.1681
 2196SOL    HW118050   0.842   3.217   8.673 -1.7712  1.9401 -1.5226
 2196SOL    HW218051   0.792   3.144   8.551  0.9021 -0.9786 -0.1676
 2197SOL     OW18052   4.640   3.560   5.017 -0.1397 -0.3307  0.0228
 2197SOL    HW118053   4.564   3.616   5.006 -1.3573 -1.6405  1.9516
 2197SOL    HW218054   4.590   3.487   5.053  0.5943 -0.9793 -0.2444
 2198SOL     OW18055   2.692   2.908   6.391  0.0909  0.4793  0.1993
 2198SOL    HW118056   2.740   2.989   6.410 -0.0382  0.2528  1.5507
 2198SOL    HW218057   2.724   2.874   6.308  1.5253 -1.4506  1.5184
 2199SOL     OW18058   1.202   2.873   2.626  0.3737  0.0715 -0.9291
 2199SOL    HW118059   1.282   2.915   2.594  0.2335 -0.8767 -2.5246
 2199SOL    HW218060   1.146   2.871   2.548 -0.4444 -0.6887 -0.3198
 2200SOL     OW18061   3.910   0.431   6.014 -0.0026  0.4138  0.4871
 2200SOL    HW118062   3.912   0.522   5.986  1.1138  0.5071  0.8782
 2200SOL    HW218063   3.892   0.392   5.928 -2.9303  0.1045  1.2407
 2201SOL     OW18064   3.257   1.347   8.726  0.1213  0.4154  0.4888
 2201SOL    HW118065   3.321   1.380   8.664  0.4184  1.0268  1.1205
 2201SOL    HW218066   3.194   1.418   8.739 -0.7761 -0.0366 -1.4466
 2202SOL     OW18067   2.487   0.756  14.765 -0.0824  0.0343  0.4967
 2202SOL    HW118068   2.564   0.806  14.736  0.6025 -1.2801  0.0420
 2202SOL    HW218069   2.489   0.680  14.706 -1.2215 -0.6624  1.3674
 2203SOL     OW18070   0.287   1.847   6.386  0.0303  0.0016  0.4360
 2203SOL    HW118071   0.316   1.879   6.301  1.5704  1.6773  1.6011
 2203SOL    HW218072   0.239   1.920   6.424 -4.1309 -2.0775 -0.8461
 2204SOL     OW18073   2.457   1.186   9.387 -0.2035 -0.1226  0.0565
 2204SOL    HW118074   2.426   1.160   9.300  2.1019  0.2772 -0.8937
 2204SOL    HW218075   2.376   1.213   9.430 -0.8532 -2.4342  0.2766
 2205SOL     OW18076   3.482   3.724   4.927  0.6163  0.1047 -0.5751
 2205SOL    HW118077   3.522   3.673   4.857 -0.2938 -0.4874 -0.6682
 2205SOL    HW218078   3.388   3.729   4.908  0.5307 -0.9454 -0.4604
 2206SOL     OW18079   3.170   1.949  14.981 -0.2370  0.1471 -0.3379
 2206SOL    HW118080   3.109   1.984  14.916 -1.1616  2.5525  1.7922
 2206SOL    HW218081   3.246   1.949  14.924  0.0889  0.4813  0.0992
 2207SOL     OW18082   1.034   1.975   2.738  0.2157 -0.3615  0.2621
 2207SOL    HW118083   1.118   1.979   2.692 -0.2444 -1.6141 -0.6777
 2207SOL    HW218084   1.074   1.971   2.825  0.9161  1.1204  0.0204
 2208SOL     OW18085   1.108   1.885  12.392 -0.4495  0.2578  0.1621
 2208SOL    HW118086   1.017   1.879  12.365 -0.8893 -0.4650  1.8049
 2208SOL    HW218087   1.149   1.919  12.312 -0.0318  3.6581  1.8469
 2209SOL     OW18088   4.361   4.270   3.422 -0.0137  0.2291  0.3302
 2209SOL    HW118089   4.441   4.281   3.474  0.8938  0.3989 -1.0965
 2209SOL    HW218090   4.345   4.177   3.407 -2.2637  0.9942 -2.1248
 2210SOL     OW18091   0.873   1.474   8.324 -0.6056 -0.1755 -0.3870
 2210SOL    HW118092   0.798   1.515   8.369  0.0786 -0.3799  0.9213
 2210SOL    HW218093   0.945   1.523   8.364 -0.0575  0.7312 -2.4786
 2211SOL     OW18094   0.123   2.005  13.899 -0.6704 -0.1838 -0.1294
 2211SOL    HW118095   0.125   1.992  13.993 -2.1975 -1.2315 -0.2465
 2211SOL    HW218096   0.120   2.100  13.884  2.6638 -0.3972 -2.1047
 2212SOL     OW18097   0.370   0.037  10.936 -0.4951 -0.0304  0.2439
 2212SOL    HW118098   0.423   4.679  10.935  1.1881  1.0771  0.3684
 2212SOL    HW218099   0.329   0.042  10.850 -0.5015 -0.5788  0.2116
 2213SOL     OW18100   1.225   0.805   6.213 -0.0445  0.4087  0.1521
 2213SOL    HW118101   1.170   0.781   6.287 -0.7159  1.4018 -0.0216
 2213SOL    HW218102   1.307   0.768   6.243  0.6140  1.4420 -0.3721
 2214SOL     OW18103   1.330   2.023   6.309  0.3345 -0.9399  0.3101
 2214SOL    HW118104   1.285   2.011   6.225  0.6193 -0.6980  0.1250
 2214SOL    HW218105   1.386   2.100   6.303  0.2331 -1.0516 -1.8644
 2215SOL     OW18106   0.433   1.424  12.710 -0.3847 -0.0347  0.4756
 2215SOL    HW118107   0.343   1.431  12.680 -0.7575  0.2692  1.6787
 2215SOL    HW218108   0.472   1.395  12.628 -0.9033 -0.2469  0.3076
 2216SOL     OW18109   0.034   1.811   8.586 -0.2374  0.1402 -0.0096
 2216SOL    HW118110   0.048   1.867   8.661 -0.8906 -2.4196  2.0243
 2216SOL    HW218111   0.125   1.793   8.560 -0.1177 -0.2712  0.7086
 2217SOL     OW18112   0.613   3.945   0.836  0.2072  0.0076  0.0178
 2217SOL    HW118113   0.669   3.884   0.883  0.6271  1.1548  1.0239
 2217SOL    HW218114   0.538   3.966   0.892  0.4343  0.4558  0.1488
 2218SOL     OW18115   3.850   2.280  14.446  0.1803  0.1780  0.2848
 2218SOL    HW118116   3.803   2.363  14.459 -0.2840 -0.0692  0.1983
 2218SOL    HW218117   3.879   2.262  14.535  0.3892  1.6947  0.5144
 2219SOL     OW18118   2.538   1.711   2.419 -0.4601  0.1880  0.4906
 2219SOL    HW118119   2.502   1.794   2.389 -1.7153 -0.6102 -0.2338
 2219SOL    HW218120   2.472   1.646   2.395  0.9422 -0.8186 -0.6667
 2220SOL     OW18121   0.833   1.235   5.607 -0.2938 -0.0084  0.5897
 2220SOL    HW118122   0.784   1.162   5.568  0.4946  0.1385 -0.6574
 2220SOL    HW218123   0.911   1.247   5.554 -0.8526 -1.2940 -0.5338
 2221SOL     OW18124   1.904   4.085   4.469  0.1149  0.0021 -0.0373
 2221SOL    HW118125   1.840   4.155   4.457 -1.0782 -1.1362 -0.2926
 2221SOL    HW218126   1.902   4.052   4.379 -0.3836 -0.7731  0.2606
 2222SOL     OW18127   0.083   3.554  10.961 -0.2245 -0.2706 -0.0978
 2222SOL    HW118128   0.046   3.603  11.034 -0.8634 -1.6559  0.4943
 2222SOL    HW218129   0.004   3.540  10.908  0.1026  1.4453 -1.0489
 2223SOL     OW18130   0.040   2.498   7.623  0.2339  0.4692 -0.3160
 2223SOL    HW118131   4.719   2.458   7.547  0.5493  1.6047 -1.0866
 2223SOL    HW218132   4.691   2.499   7.688  1.7862 -0.8104  1.3945
 2224SOL     OW18133   0.586   1.540   3.842 -0.2310  0.0846  1.3711
 2224SOL    HW118134   0.563   1.450   3.817  1.3264  0.4214 -1.2687
 2224SOL    HW218135   0.497   1.574   3.855 -0.5432 -0.1861  0.0359
 2225SOL     OW18136   3.189   0.800   3.491  0.8068 -0.0633 -0.5493
 2225SOL    HW118137   3.167   0.884   3.451  1.1473 -0.2762 -1.1741
 2225SOL    HW218138   3.209   0.745   3.415 -0.1651 -3.1723  1.4139
 2226SOL     OW18139   0.434   0.908   5.874 -0.2565 -0.4141  0.4082
 2226SOL    HW118140   0.505   0.852   5.841  0.2971  0.4837  0.0720
 2226SOL    HW218141   0.462   0.908   5.965 -0.2251  2.5577  0.3811
 2227SOL     OW18142   0.270   1.535   6.880 -0.6546 -0.4481 -0.2853
 2227SOL    HW118143   0.191   1.580   6.910 -1.0106 -0.8588 -0.6038
 2227SOL    HW218144   0.320   1.606   6.841 -1.2747 -0.7567 -1.6414
 2228SOL     OW18145   1.680   0.035   3.013  0.2644 -0.1862  0.6536
 2228SOL    HW118146   1.671   0.066   2.923 -0.8382 -0.6391  0.6055
 2228SOL    HW218147   1.601   0.058   3.061  0.3919 -0.5120  1.0157
 2229SOL     OW18148   4.236   3.297   3.511  0.5132  0.8449  0.0032
 2229SOL    HW118149   4.191   3.261   3.588 -0.2131  0.4178 -0.6175
 2229SOL    HW218150   4.324   3.266   3.529  1.0505  1.3412 -1.7437
 2230SOL     OW18151   3.752   1.095  15.589  0.1027  0.5640  0.4283
 2230SOL    HW118152   3.673   1.122  15.543  0.4315 -0.4298 -0.7092
 2230SOL    HW218153   3.774   1.172  15.642 -1.0320 -1.1940  3.4362
 2231SOL     OW18154   4.403   1.258   5.506 -0.0136 -0.0232  0.1980
 2231SOL    HW118155   4.456   1.321   5.554 -1.4382  0.2223  1.4253
 2231SOL    HW218156   4.378   1.318   5.435  1.7966  1.2805  0.6724
 2232SOL     OW18157   3.207   0.390   2.178  0.0383  0.2921 -0.5487
 2232SOL    HW118158   3.282   0.450   2.174 -0.0658  0.4050 -0.8314
 2232SOL    HW218159   3.206   0.364   2.270 -0.9650  0.8529 -0.3982
 2233SOL     OW18160   4.597   3.391  11.760  0.2982 -0.0876  0.0898
 2233SOL    HW118161   4.682   3.431  11.739  0.7276 -0.8417  0.3612
 2233SOL    HW218162   4.565   3.446  11.831 -2.8772 -0.0203 -1.4120
 2234SOL     OW18163   1.047   3.818  11.744  0.1677  0.2789  0.0826
 2234SOL    HW118164   1.035   3.898  11.692 -0.2980 -0.9145 -1.6287
 2234SOL    HW218165   1.083   3.762  11.676 -0.4985  2.2598 -1.9150
 2235SOL     OW18166   2.431   4.462   9.992  0.0032 -0.3092 -0.2287
 2235SOL    HW118167   2.456   4.483  10.082 -2.0262 -2.2612  0.7820
 2235SOL    HW218168   2.336   4.461   9.987  0.0910  1.7024 -2.0252
 2236SOL     OW18169   1.158   1.800   4.235 -0.4584 -0.3436  0.9208
 2236SOL    HW118170   1.228   1.811   4.170 -0.8295  2.2436  0.9558
 2236SOL    HW218171   1.076   1.829   4.195 -1.4919 -1.6092  2.1160
 2237SOL     OW18172   2.783   1.378   4.356  0.3281  0.1210 -0.0322
 2237SOL    HW118173   2.717   1.334   4.302  0.2291  1.2787 -0.8586
 2237SOL    HW218174   2.842   1.307   4.380 -1.4555 -1.7399 -1.0624
 2238SOL     OW18175   3.928   2.010   4.161  0.5960  0.0894 -0.4006
 2238SOL    HW118176   3.890   2.079   4.106  2.7286  0.7248 -1.0508
 2238SOL    HW218177   4.005   2.045   4.205 -0.0359 -1.2794  1.8510
 2239SOL     OW18178   1.597   4.679   7.110  0.0429 -0.1188  0.1682
 2239SOL    HW118179   1.601   0.015   7.034 -1.8088  1.4827  1.2863
 2239SOL    HW218180   1.680   4.637   7.091  0.8744  1.2599  0.7295
 2240SOL     OW18181   3.232   3.400   6.880  0.1909 -0.4142 -0.1136
 2240SOL    HW118182   3.245   3.476   6.937  1.3888 -0.5920 -0.1680
 2240SOL    HW218183   3.158   3.426   6.824  1.0153  1.4558 -0.3392
 2241SOL     OW18184   1.544   4.476   4.166  0.1326 -0.5331 -0.1990
 2241SOL    HW118185   1.538   4.403   4.229 -0.9608  0.0158  0.3439
 2241SOL    HW218186   1.456   4.472   4.127 -0.7214  0.9282  1.5573
 2242SOL     OW18187   2.616   3.236   5.250 -0.3214  0.1565 -0.2475
 2242SOL    HW118188   2.622   3.262   5.158 -1.5040  0.7125 -0.1705
 2242SOL    HW218189   2.613   3.317   5.302  2.1754 -1.3545  2.2495
 2243SOL     OW18190   0.307   2.718   6.436  0.1650 -0.4261  0.0529
 2243SOL    HW118191   0.233   2.757   6.389  0.7721 -0.4179 -0.9026
 2243SOL    HW218192   0.352   2.696   6.354  2.9299  0.2187  1.3832
 2244SOL     OW18193   4.197   4.324  15.355  0.2874 -0.0730 -0.1303
 2244SOL    HW118194   4.215   4.395  15.415  0.6573 -1.4249  1.3516
 2244SOL    HW218195   4.276   4.270  15.365 -0.6837 -1.6971 -1.0850
 2245SOL     OW18196   4.165   0.195   3.000 -0.3441 -0.3398  0.5129
 2245SOL    HW118197   4.182   0.289   2.993  1.8513 -0.6776  1.2019
 2245SOL    HW218198   4.098   0.193   3.069  0.1586 -0.2509  1.0046
 2246SOL     OW18199   3.005   0.906   8.572  0.2734  0.3286  0.1113
 2246SOL    HW118200   2.921   0.874   8.541  0.9674 -0.8516 -0.5381
 2246SOL    HW218201   2.980   0.959   8.648  2.4606 -1.4537  2.0911
 2247SOL     OW18202   2.098   1.454   1.944  0.4421 -1.5122  0.0672
 2247SOL    HW118203   2.005   1.442   1.960 -0.2986  3.0514 -0.8845
 2247SOL    HW218204   2.121   1.393   1.874 -1.6653  0.4768 -2.3090
 2248SOL     OW18205   3.522   0.950   7.270  0.1504 -0.3720  0.1829
 2248SOL    HW118206   3.524   0.865   7.312 -1.2587 -0.1280  0.7656
 2248SOL    HW218207   3.600   0.947   7.215  0.1819 -0.8458  0.2513
 2249SOL     OW18208   2.632   0.218  16.898 -0.1890 -1.0640 -0.2569
 2249SOL    HW118209   2.577   0.278  16.849 -1.0476 -0.5212  1.3541
 2249SOL    HW218210   2.585   0.191  16.977  1.6596 -1.4279  0.7370
 2250SOL     OW18211   1.459   3.829   8.440  0.1166 -0.4497 -0.0720
 2250SOL    HW118212   1.441   3.774   8.363 -0.5068 -1.3638  0.7285
 2250SOL    HW218213   1.524   3.895   8.416 -0.3200  0.2881  0.7795
 2251SOL     OW18214   1.900   4.457  10.231 -0.1811  0.1777  0.0548
 2251SOL    HW118215   1.884   4.542  10.271  0.0764  0.1593  0.1992
 2251SOL    HW218216   1.994   4.443  10.245  0.0926  0.6384 -1.2390
 2252SOL     OW18217   1.426   2.795   7.354 -0.5351 -0.1530 -0.0263
 2252SOL    HW118218   1.365   2.822   7.285 -2.8494 -1.6899  1.4321
 2252SOL    HW218219   1.369   2.735   7.402 -2.6589  1.5109 -0.5012
 2253SOL     OW18220   1.619   4.684   2.657 -0.1297 -0.0798  0.8222
 2253SOL    HW118221   1.659   4.714   2.576 -1.4419  0.9538  0.5402
 2253SOL    HW218222   1.649   4.594   2.656 -0.3245 -0.1232 -0.6110
 2254SOL     OW18223   2.467   1.892  11.863  0.4905 -0.4708 -0.1270
 2254SOL    HW118224   2.497   1.824  11.803 -1.7963  0.0491 -1.8527
 2254SOL    HW218225   2.394   1.846  11.904 -0.3071  0.4038 -0.5712
 2255SOL     OW18226   2.001   1.205   0.627 -0.3880  0.1217 -0.4660
 2255SOL    HW118227   1.999   1.276   0.563 -0.1943 -1.2579 -2.0192
 2255SOL    HW218228   1.958   1.136   0.576 -0.6633 -0.1398  0.1235
 2256SOL     OW18229   4.470   4.332   6.215 -0.8022 -0.3415  0.5770
 2256SOL    HW118230   4.377   4.332   6.238 -1.0399  2.9955 -0.3048
 2256SOL    HW218231   4.506   4.318   6.303  1.2361 -1.4808 -0.4436
 2257SOL     OW18232   3.723   2.290  10.324  0.5324 -0.1478  0.3941
 2257SOL    HW118233   3.763   2.204  10.315  1.1105  0.3132 -1.5532
 2257SOL    HW218234   3.664   2.288  10.249  1.1638  2.0301 -0.1585
 2258SOL     OW18235   0.743   0.095   0.850  0.3849  0.0511 -0.2444
 2258SOL    HW118236   0.649   0.076   0.841 -0.0581  0.5940  3.4072
 2258SOL    HW218237   0.736   0.188   0.869  3.2194  0.2794 -0.3739
 2259SOL     OW18238   0.373   2.053   3.134  0.4694 -0.2572  0.1922
 2259SOL    HW118239   0.418   2.039   3.051 -1.9794  1.2146 -1.3833
 2259SOL    HW218240   0.304   1.987   3.132  1.1205 -0.8826 -1.8390
 2260SOL     OW18241   3.551   3.164   0.988 -0.0419  0.0029 -0.6262
 2260SOL    HW118242   3.532   3.073   1.012 -0.6126  0.3741  0.3334
 2260SOL    HW218243   3.583   3.189   1.075 -0.2743  0.7137 -0.7431
 2261SOL     OW18244   3.857   2.273   3.747 -0.3668 -0.1062  0.5730
 2261SOL    HW118245   3.880   2.352   3.698 -3.2165  0.5587  0.3298
 2261SOL    HW218246   3.889   2.208   3.684 -1.5008  0.2551 -0.3963
 2262SOL     OW18247   4.161   4.379   9.402 -0.2376  0.3455 -0.0154
 2262SOL    HW118248   4.231   4.441   9.382 -0.9732  0.1938 -3.1197
 2262SOL    HW218249   4.090   4.441   9.418  0.3893  0.8662  0.7720
 2263SOL     OW18250   4.600   4.338   3.537  0.7316 -0.0854 -0.5282
 2263SOL    HW118251   4.663   4.285   3.489 -0.4311 -0.7602 -1.3144
 2263SOL    HW218252   4.649   4.384   3.605  0.9672 -1.0091 -0.0663
 2264SOL     OW18253   0.722   3.221   4.457  0.0585  0.1302 -0.2457
 2264SOL    HW118254   0.735   3.261   4.371  1.8689 -0.4438 -0.2354
 2264SOL    HW218255   0.807   3.212   4.499  0.4607  0.5110 -0.9829
 2265SOL     OW18256   3.728   1.123  17.636  0.3056  0.1739 -0.0860
 2265SOL    HW118257   3.659   1.141   0.009 -0.4016 -0.0939 -0.7665
 2265SOL    HW218258   3.810   1.138  17.682 -1.2644 -1.2742  3.2201
 2266SOL     OW18259   2.467   2.807  14.796 -0.7184 -0.6572  0.1296
 2266SOL    HW118260   2.528   2.813  14.722 -0.2023  0.2061  0.6350
 2266SOL    HW218261   2.465   2.715  14.821 -1.3047 -1.0881 -1.4831
 2267SOL     OW18262   1.496   3.117   2.322 -0.3114 -0.0421 -0.2165
 2267SOL    HW118263   1.585   3.113   2.287 -0.2249 -0.4316  0.0515
 2267SOL    HW218264   1.461   3.188   2.269 -4.1316 -2.8189 -1.4346
 2268SOL     OW18265   2.019   3.647  17.370 -0.0407 -0.0759  0.1653
 2268SOL    HW118266   2.005   3.739  17.390 -0.9526 -0.3982  1.0238
 2268SOL    HW218267   1.925   3.629  17.363 -0.0866 -0.9924  3.2586
 2269SOL     OW18268   3.649   0.921   5.484 -0.3308  0.0297  0.0683
 2269SOL    HW118269   3.725   0.865   5.468  0.3475  0.6818  1.0016
 2269SOL    HW218270   3.611   0.872   5.556 -1.7066 -0.1995 -0.8123
 2270SOL     OW18271   1.213   0.462   6.765  0.0941  0.4035  0.5788
 2270SOL    HW118272   1.298   0.419   6.755 -0.5467 -0.6394 -0.5104
 2270SOL    HW218273   1.174   0.435   6.681 -0.6412 -0.8797  1.3360
 2271SOL     OW18274   2.310   3.356   9.494  0.1407  0.6177 -0.5624
 2271SOL    HW118275   2.294   3.449   9.508 -1.4351  0.2727  0.0028
 2271SOL    HW218276   2.291   3.342   9.401  0.0862  0.8263 -0.5822
 2272SOL     OW18277   2.007   4.436   7.894  0.1424  0.0424 -0.3993
 2272SOL    HW118278   2.032   4.503   7.958  0.9549 -0.2447 -0.4161
 2272SOL    HW218279   2.079   4.374   7.910  0.4527  0.8328  1.2446
 2273SOL     OW18280   0.354   2.656   5.251  0.5724  0.2524  0.4203
 2273SOL    HW118281   0.283   2.705   5.293 -0.5759  0.5402 -1.8477
 2273SOL    HW218282   0.329   2.565   5.237  2.2065 -0.1131 -0.0278
 2274SOL     OW18283   2.638   1.336  12.143  0.3433  0.6254  0.2516
 2274SOL    HW118284   2.599   1.379  12.067  0.1170  0.2124  0.1329
 2274SOL    HW218285   2.658   1.243  12.128  0.6579  1.0310 -1.9263
 2275SOL     OW18286   4.140   4.325   3.710  0.1118 -0.6099 -0.4568
 2275SOL    HW118287   4.077   4.265   3.672 -3.5923  1.6528  2.0720
 2275SOL    HW218288   4.189   4.372   3.642 -0.2969 -1.0119 -1.0217
 2276SOL     OW18289   1.539   3.963   9.293  0.4854  0.0322  0.5424
 2276SOL    HW118290   1.514   3.968   9.385  1.4230  2.1959  0.6809
 2276SOL    HW218291   1.532   4.057   9.274 -0.9395 -0.6183 -2.2441
 2277SOL     OW18292   1.392   3.921   6.488  0.6097  0.0399 -0.2669
 2277SOL    HW118293   1.403   3.948   6.579  0.5992  0.9839 -0.5468
 2277SOL    HW218294   1.426   3.831   6.490  1.7951  0.4881 -0.0524
 2278SOL     OW18295   4.612   3.326   3.737 -0.3369 -0.1019  0.6526
 2278SOL    HW118296   4.592   3.278   3.657 -1.1145  0.8742  0.2502
 2278SOL    HW218297   4.690   3.287   3.775  0.4687  0.0983 -0.7959
 2279SOL     OW18298   1.813   0.787   6.311  0.1459  0.1401 -0.6139
 2279SOL    HW118299   1.853   0.861   6.265  0.5528  0.9062  0.9869
 2279SOL    HW218300   1.893   0.752   6.349 -0.2498 -0.6246 -0.4732
 2280SOL     OW18301   1.418   0.854  10.420  0.1726  0.7807 -0.3472
 2280SOL    HW118302   1.475   0.792  10.374 -0.5937  1.0280 -1.6145
 2280SOL    HW218303   1.447   0.929  10.368  0.0272  0.8300 -0.3561
 2281SOL     OW18304   0.859   4.013   9.913  0.1580 -0.1716  0.1439
 2281SOL    HW118305   0.767   4.037   9.901  0.5161  0.2141 -1.8156
 2281SOL    HW218306   0.900   4.047   9.834 -0.1491 -0.4783 -0.1492
 2282SOL     OW18307   2.797   3.890  11.958  1.0453  0.1932 -0.0020
 2282SOL    HW118308   2.732   3.825  11.932 -0.2624  1.3751  0.3077
 2282SOL    HW218309   2.863   3.867  11.893 -0.0431 -0.7754 -0.7694
 2283SOL     OW18310   2.074   2.620   4.142 -0.0596 -0.4301  0.8362
 2283SOL    HW118311   2.155   2.656   4.106 -0.6512 -1.5596 -1.6170
 2283SOL    HW218312   2.082   2.533   4.103  1.1846  0.0874 -0.0697
 2284SOL     OW18313   0.871   3.442  12.864  0.0527 -0.0086  0.6652
 2284SOL    HW118314   0.956   3.480  12.842 -0.2005  0.3058  0.2450
 2284SOL    HW218315   0.848   3.503  12.934  0.3293  0.1024  0.6576
 2285SOL     OW18316   0.291   2.747   9.710 -0.0480  0.1541 -0.0635
 2285SOL    HW118317   0.267   2.685   9.778 -2.1347  1.2704  0.2100
 2285SOL    HW218318   0.354   2.699   9.657 -0.3838 -0.9648  0.5568
 2286SOL     OW18319   3.441   1.668   7.549  1.1636  0.1911  0.0139
 2286SOL    HW118320   3.430   1.754   7.508  1.5726 -0.4744 -1.4475
 2286SOL    HW218321   3.401   1.689   7.634  2.3726 -1.5016  0.9857
 2287SOL     OW18322   2.423   0.174   8.479 -0.4335 -0.4323  0.1101
 2287SOL    HW118323   2.368   0.214   8.546 -1.2061 -0.4234 -0.5393
 2287SOL    HW218324   2.410   0.081   8.499  0.7423 -0.8791 -1.1685
 2288SOL     OW18325   0.061   4.393  10.393 -0.2958  0.3601 -0.3702
 2288SOL    HW118326   4.719   4.344  10.444 -0.7834 -0.7754 -2.0664
 2288SOL    HW218327   0.082   4.461  10.456  0.3024 -0.1617 -0.0060
 2289SOL     OW18328   0.620   0.443   3.197 -0.5546 -0.1088 -0.6233
 2289SOL    HW118329   0.706   0.403   3.202 -0.7133 -0.3536  0.2213
 2289SOL    HW218330   0.615   0.430   3.292  2.0936  1.0012 -0.3361
 2290SOL     OW18331   2.576   3.383   3.806 -0.4688 -0.1585  0.0311
 2290SOL    HW118332   2.587   3.466   3.760  3.2421 -0.7225 -0.0845
 2290SOL    HW218333   2.669   3.361   3.812  0.1872  1.8048 -3.2372
 2291SOL     OW18334   2.927   1.311   8.499  0.2282  0.1674 -0.3963
 2291SOL    HW118335   2.889   1.273   8.420 -0.9027 -0.2005  0.3239
 2291SOL    HW218336   2.961   1.236   8.547  0.5017  0.8930  0.5485
 2292SOL     OW18337   4.104   2.974   5.343  0.2353  0.0896  0.0568
 2292SOL    HW118338   4.047   3.014   5.409  0.8465 -0.6455  1.0280
 2292SOL    HW218339   4.173   3.040   5.334  1.3623 -0.8099  2.1178
 2293SOL     OW18340   0.094   1.119   5.088 -0.1457  0.1236  0.3791
 2293SOL    HW118341   0.015   1.081   5.049  0.7076  0.7164 -1.9107
 2293SOL    HW218342   0.068   1.211   5.082  2.9545  0.9919  0.5131
 2294SOL     OW18343   1.359   1.244  12.180  0.3689  0.0341  0.5323
 2294SOL    HW118344   1.359   1.323  12.234 -1.5075  1.1613 -1.1302
 2294SOL    HW218345   1.279   1.258  12.131 -1.1750 -1.8313  2.5143
 2295SOL     OW18346   0.241   3.358   8.580  0.0372 -0.4386  0.3912
 2295SOL    HW118347   0.265   3.444   8.615  4.8386  0.2750 -4.5456
 2295SOL    HW218348   0.208   3.374   8.491  3.3845  0.4974 -0.7176
 2296SOL     OW18349   1.931   2.484   8.393 -0.3011  0.0043 -0.9841
 2296SOL    HW118350   1.875   2.495   8.471 -0.5047  0.7048 -1.2265
 2296SOL    HW218351   1.865   2.512   8.329 -0.7282 -1.6992 -1.2891
 2297SOL     OW18352   1.223   2.584  11.998 -0.3018  0.0320  0.4519
 2297SOL    HW118353   1.264   2.667  12.021 -3.1751  1.3946  0.7470
 2297SOL    HW218354   1.202   2.588  11.905 -0.1758  1.1549  0.4791
 2298SOL     OW18355   3.045   2.007   7.049  0.0710  0.0681 -0.2097
 2298SOL    HW118356   3.057   1.975   7.138  0.9176 -0.7843 -0.6326
 2298SOL    HW218357   3.086   2.092   7.065  2.7143 -1.3572  0.6593
 2299SOL     OW18358   1.005   4.248  11.081  0.3101  0.7664 -0.2793
 2299SOL    HW118359   0.998   4.336  11.044  2.1428  0.3026 -1.7318
 2299SOL    HW218360   0.960   4.191  11.019  0.6154  0.0587  0.1464
 2300SOL     OW18361   1.596   2.342  10.489  0.2541 -0.0352  0.3975
 2300SOL    HW118362   1.665   2.313  10.429  0.4863 -1.8283  1.5374
 2300SOL    HW218363   1.616   2.272  10.550 -1.4943 -1.0561 -0.1950
 2301SOL     OW18364   1.498   3.848  15.498 -0.0944 -0.2686  0.2577
 2301SOL    HW118365   1.484   3.931  15.543 -0.2908  0.0682 -0.4291
 2301SOL    HW218366   1.542   3.795  15.565  0.6243 -2.2751 -1.8211
 2302SOL     OW18367   0.977   3.371   7.163 -0.0782  0.3349 -0.4741
 2302SOL    HW118368   1.051   3.351   7.105  0.7523  2.1348 -0.0220
 2302SOL    HW218369   1.016   3.386   7.249 -0.3748 -1.0400 -0.0988
 2303SOL     OW18370   4.318   3.674   4.512  0.4105  0.2383 -0.3558
 2303SOL    HW118371   4.293   3.711   4.428 -1.7988  0.4562  0.4069
 2303SOL    HW218372   4.236   3.632   4.536 -0.6545  2.1096 -0.6935
 2304SOL     OW18373   1.736   4.449   2.620 -0.6612  0.1001  0.1094
 2304SOL    HW118374   1.723   4.369   2.569 -1.0378  2.1503 -3.0356
 2304SOL    HW218375   1.832   4.453   2.620 -0.5076 -3.5047  0.3708
 2305SOL     OW18376   1.420   2.131   0.279  0.2442 -0.2193 -0.1846
 2305SOL    HW118377   1.485   2.142   0.349 -0.2180  0.2304  0.1687
 2305SOL    HW218378   1.472   2.180   0.215 -1.0355 -0.4506 -1.3861
 2306SOL     OW18379   0.994   3.276   3.876 -0.2471 -0.1201  0.2195
 2306SOL    HW118380   0.925   3.325   3.831  0.7275  1.3233  0.2973
 2306SOL    HW218381   1.042   3.230   3.806  1.1676  0.2984  0.9248
 2307SOL     OW18382   3.208   0.901   0.856  0.8599 -0.1042  0.0466
 2307SOL    HW118383   3.145   0.973   0.851  0.3601 -0.4404  1.5772
 2307SOL    HW218384   3.163   0.838   0.912  0.8191 -0.8109 -0.7898
 2308SOL     OW18385   4.405   4.046  14.798  0.0144 -0.2970  0.4046
 2308SOL    HW118386   4.389   4.046  14.892  1.6871 -0.3268  0.6936
 2308SOL    HW218387   4.490   4.003  14.790 -0.0943 -0.4409  0.0194
 2309SOL     OW18388   2.780   0.714   5.028 -0.0794  0.2955 -0.2690
 2309SOL    HW118389   2.692   0.704   4.993 -0.5113 -0.2821  0.9884
 2309SOL    HW218390   2.813   0.774   4.961 -0.3621 -0.3071 -0.9487
 2310SOL     OW18391   4.105   3.959   9.792  0.6885  0.9886 -0.6315
 2310SOL    HW118392   4.103   4.023   9.863  0.8040 -1.7000  1.7956
 2310SOL    HW218393   4.052   3.891   9.833  1.9829 -0.4069 -1.2820
 2311SOL     OW18394   1.563   4.204   0.475  0.5668 -0.0661  0.2595
 2311SOL    HW118395   1.519   4.278   0.517  0.9010  1.0612 -1.3801
 2311SOL    HW218396   1.615   4.244   0.406 -0.1795 -0.0568 -0.2950
 2312SOL     OW18397   2.652   0.332   6.780 -0.0912 -0.1556 -0.0961
 2312SOL    HW118398   2.660   0.266   6.712  0.3203  1.3602 -1.5135
 2312SOL    HW218399   2.723   0.385   6.746  0.6975  0.3648  2.3355
 2313SOL     OW18400   3.875   1.958   2.870 -0.1344 -0.0628  0.5568
 2313SOL    HW118401   3.878   1.868   2.837 -2.2645  0.1364 -0.1799
 2313SOL    HW218402   3.836   2.009   2.798  0.8595 -0.5213 -0.3073
 2314SOL     OW18403   4.059   3.026   7.519  0.0589  0.5156  0.0580
 2314SOL    HW118404   4.098   2.960   7.461  0.3466 -0.2606  1.1117
 2314SOL    HW218405   3.968   2.996   7.516  0.1066  0.4039 -0.2858
 2315SOL     OW18406   3.913   4.404   4.995  0.2500  0.1483 -0.6152
 2315SOL    HW118407   3.876   4.438   4.913 -0.0807  2.9899  0.7254
 2315SOL    HW218408   3.838   4.350   5.021  0.8095 -0.1309  0.3874
 2316SOL     OW18409   3.554   1.184   9.258 -1.0681 -0.0813  0.8128
 2316SOL    HW118410   3.624   1.211   9.317  0.9723  0.2853 -1.7877
 2316SOL    HW218411   3.517   1.269   9.236  0.7072 -0.2943 -3.0995
 2317SOL     OW18412   4.538   0.824   9.373 -0.2401  0.5738  1.0658
 2317SOL    HW118413   4.453   0.833   9.415 -0.4307  0.2979  0.7316
 2317SOL    HW218414   4.589   0.887   9.425 -1.9312  0.7145  2.5683
 2318SOL     OW18415   3.663   2.091   8.176 -0.2923  0.2972  0.3429
 2318SOL    HW118416   3.618   2.156   8.230  0.8879  2.0974 -0.8097
 2318SOL    HW218417   3.649   2.006   8.218 -2.6663 -0.1998 -1.4605
 2319SOL     OW18418   1.335   1.800   4.033  0.1348 -0.0030 -0.0166
 2319SOL    HW118419   1.371   1.874   3.984 -0.2245  0.8403  1.0185
 2319SOL    HW218420   1.415   1.760   4.068  1.0498 -0.1710 -2.2514
 2320SOL     OW18421   0.002   3.389   7.068 -0.3494 -0.1295 -0.8282
 2320SOL    HW118422   0.024   3.334   7.144 -2.0844 -0.9369 -0.9191
 2320SOL    HW218423   4.719   3.480   7.099 -0.9939 -0.4324 -0.0426
 2321SOL     OW18424   0.923   2.574  10.137  0.0298 -0.0406  0.1139
 2321SOL    HW118425   0.963   2.542  10.056  0.5627 -2.1055  1.2001
 2321SOL    HW218426   0.876   2.494  10.162 -0.7280  0.2538 -0.3600
 2322SOL     OW18427   1.790   1.131  12.031 -0.6324  0.5233 -0.2912
 2322SOL    HW118428   1.865   1.184  12.006  0.0482 -0.3569 -0.0986
 2322SOL    HW218429   1.771   1.164  12.119  0.3723  2.2069 -0.7234
 2323SOL     OW18430   1.247   3.057   3.243  0.0610 -0.5876 -0.2535
 2323SOL    HW118431   1.274   3.147   3.224  1.4141 -0.8779  0.3071
 2323SOL    HW218432   1.274   3.001   3.170  0.0709 -2.0346  0.8576
 2324SOL     OW18433   2.330   0.021   1.531 -0.1014  0.0292 -0.8397
 2324SOL    HW118434   2.283   4.667   1.565  0.8942 -0.0272  0.3977
 2324SOL    HW218435   2.355   0.075   1.606 -1.1498  0.6427 -0.9344
 2325SOL     OW18436   1.177   0.803   2.544 -0.2327 -0.1254 -0.6952
 2325SOL    HW118437   1.142   0.726   2.497  0.5364 -0.7150 -0.2979
 2325SOL    HW218438   1.219   0.856   2.476  1.1956  0.7604  0.8845
 2326SOL     OW18439   4.343   4.017   3.024 -0.0313 -0.1730  0.3866
 2326SOL    HW118440   4.276   4.019   2.955  0.5702  0.5321 -0.1829
 2326SOL    HW218441   4.353   4.104   3.063 -0.3828 -0.9204  2.1430
 2327SOL     OW18442   1.154   2.777  12.920  0.0418 -0.0239  0.6445
 2327SOL    HW118443   1.194   2.846  12.974 -0.7993  1.1537 -0.2356
 2327SOL    HW218444   1.228   2.759  12.862  1.2451  0.3685  2.0496
 2328SOL     OW18445   4.682   2.271  13.503  0.0992  0.0639  0.1230
 2328SOL    HW118446   4.623   2.253  13.575  1.2524 -1.7692  0.6117
 2328SOL    HW218447   4.654   2.205  13.440 -1.7819  1.9066 -0.9786
 2329SOL     OW18448   3.232   0.583   6.534  0.3270  0.2553  0.1300
 2329SOL    HW118449   3.236   0.666   6.581  2.3470  1.5681 -2.3129
 2329SOL    HW218450   3.190   0.610   6.452 -1.7440  1.2055  1.5077
 2330SOL     OW18451   3.118   0.390   8.218  0.2268  0.1416  0.3168
 2330SOL    HW118452   3.082   0.464   8.267  0.5349  1.2390 -1.0969
 2330SOL    HW218453   3.042   0.340   8.187  0.6128  0.7747 -1.6836
 2331SOL     OW18454   2.923   0.051   4.991 -0.6018  0.2949 -0.8017
 2331SOL    HW118455   2.851   0.110   4.966  0.3655  1.4036 -0.9749
 2331SOL    HW218456   2.950   0.005   4.912 -2.1528 -3.0950  0.6395
 2332SOL     OW18457   3.216   2.451   2.275  0.3991 -0.2177  0.0734
 2332SOL    HW118458   3.226   2.499   2.192  2.1874 -0.3456  0.2125
 2332SOL    HW218459   3.132   2.409   2.260  0.2400  0.3202 -0.5616
 2333SOL     OW18460   1.958   0.865  14.362 -0.1445  0.5867 -0.2487
 2333SOL    HW118461   1.869   0.837  14.385 -0.1044 -1.3672 -2.4101
 2333SOL    HW218462   1.940   0.946  14.315 -2.5139 -0.2639 -0.8169
 2334SOL     OW18463   2.209   1.048   0.385  0.3650 -0.5040  0.2644
 2334SOL    HW118464   2.243   1.016   0.468 -0.0872  0.8456  0.9551
 2334SOL    HW218465   2.117   1.022   0.394  0.8218 -1.9284  0.8115
 2335SOL     OW18466   0.565   3.922   8.700  0.6903  0.2066 -0.1669
 2335SOL    HW118467   0.653   3.945   8.729 -0.0385  1.1498  1.2603
 2335SOL    HW218468   0.547   3.982   8.628  1.8105  3.6671  2.4434
 2336SOL     OW18469   4.164   0.773   6.026 -0.0624 -0.3819  0.3588
 2336SOL    HW118470   4.214   0.692   6.012 -0.6949 -0.8315  0.6795
 2336SOL    HW218471   4.139   0.795   5.936  2.5600 -1.7738 -0.6959
 2337SOL     OW18472   4.189   2.932   2.975  0.1193  0.2547  0.8411
 2337SOL    HW118473   4.211   2.939   2.882  0.8117  1.8607  1.1349
 2337SOL    HW218474   4.268   2.963   3.020  1.2252 -1.3759  0.0631
 2338SOL     OW18475   1.974   0.805   5.257  0.5014  0.1327  0.3860
 2338SOL    HW118476   1.901   0.820   5.317 -0.5695  1.0951 -1.1657
 2338SOL    HW218477   1.953   0.860   5.181 -3.0192  0.4262  1.5887
 2339SOL     OW18478   1.283   3.327   2.177  0.0690 -0.5224  0.2326
 2339SOL    HW118479   1.205   3.377   2.155  1.6813  2.1661  0.6890
 2339SOL    HW218480   1.244   3.243   2.153  0.1367 -0.0492 -1.4851
 2340SOL     OW18481   2.780   1.204   7.695  0.0763 -0.0029  0.5092
 2340SOL    HW118482   2.686   1.185   7.702 -0.0431 -0.8340 -3.3379
 2340SOL    HW218483   2.785   1.191   7.600  0.0726 -0.6094  0.5887
 2341SOL     OW18484   3.524   4.223   9.036  0.2547 -0.0571 -0.4012
 2341SOL    HW118485   3.518   4.170   9.115  0.8696  0.5229  0.0342
 2341SOL    HW218486   3.600   4.183   8.992 -0.9349 -1.7919 -0.8874
 2342SOL     OW18487   3.955   1.968  13.681  0.0895 -0.2050 -0.0892
 2342SOL    HW118488   3.997   1.892  13.641 -2.2734 -2.0554  0.9608
 2342SOL    HW218489   4.001   2.036  13.632 -0.4388 -1.9346 -2.9589
 2343SOL     OW18490   2.766   1.168   2.207 -0.0269  0.1408  0.0367
 2343SOL    HW118491   2.715   1.120   2.142  0.3732 -0.2613  0.0144
 2343SOL    HW218492   2.710   1.173   2.284  2.4919 -1.6104  1.9973
 2344SOL     OW18493   3.320   1.124   9.810  0.9065 -0.2523 -0.6778
 2344SOL    HW118494   3.319   1.110   9.904  0.6745 -1.1161 -0.8066
 2344SOL    HW218495   3.259   1.195   9.791  0.2828 -0.8100 -0.7333
 2345SOL     OW18496   3.135   0.195   0.322 -0.1487 -0.4815  0.2155
 2345SOL    HW118497   3.145   0.245   0.403  0.2150  0.0727 -0.1749
 2345SOL    HW218498   3.040   0.201   0.310 -0.0473  1.5088  0.4166
 2346SOL     OW18499   4.120   1.092   8.139 -0.4973 -0.0268  0.3892
 2346SOL    HW118500   4.175   1.157   8.181 -2.6202  1.0964  1.4381
 2346SOL    HW218501   4.132   1.018   8.199  0.4972 -1.6156 -1.7669
 2347SOL     OW18502   1.541   3.046  12.079 -0.2058  0.6996 -0.1772
 2347SOL    HW118503   1.548   3.093  11.996 -0.9779 -0.8695 -1.1226
 2347SOL    HW218504   1.486   2.972  12.055 -1.3129  1.1760  0.9152
 2348SOL     OW18505   4.138   1.494  16.697 -0.4647 -0.0263  0.1144
 2348SOL    HW118506   4.160   1.567  16.639  0.5384  1.0146  1.7920
 2348SOL    HW218507   4.223   1.464  16.729 -1.0795 -1.9044 -0.0030
 2349SOL     OW18508   4.381   1.468   2.224  0.4175  0.0703  0.5137
 2349SOL    HW118509   4.412   1.454   2.313 -0.5939 -1.5624  0.6116
 2349SOL    HW218510   4.399   1.379   2.193 -0.9452 -0.5067  1.3804
 2350SOL     OW18511   1.349   4.590  15.262 -0.5168 -0.2311  0.2408
 2350SOL    HW118512   1.313   4.524  15.320  0.9437 -1.9993 -0.8737
 2350SOL    HW218513   1.306   4.578  15.178 -0.0886 -1.6713  0.2330
 2351SOL     OW18514   4.408   0.234   6.694 -0.2452  0.1782 -0.0254
 2351SOL    HW118515   4.497   0.232   6.658 -0.3633  0.4737 -0.3337
 2351SOL    HW218516   4.434   0.232   6.786 -0.7911 -0.2098  0.1190
 2352SOL     OW18517   2.456   2.723   8.341  0.0553  0.0081 -0.0511
 2352SOL    HW118518   2.424   2.637   8.367  1.2008  0.0600  1.4796
 2352SOL    HW218519   2.377   2.756   8.297  0.1752 -0.3856 -0.5543
 2353SOL     OW18520   0.531   3.577  15.436 -0.1544 -0.1444  0.1810
 2353SOL    HW118521   0.544   3.611  15.348 -0.6030 -0.1179  0.1286
 2353SOL    HW218522   0.584   3.498  15.423  1.6292  1.2262 -0.7797
 2354SOL     OW18523   0.327   2.367   5.241  1.3004 -0.2831  0.2925
 2354SOL    HW118524   0.273   2.321   5.177  0.1890  0.3505  0.7722
 2354SOL    HW218525   0.288   2.315   5.311  0.4296  1.2299  0.9146
 2355SOL     OW18526   2.919   4.032  14.952  0.9428  0.2979 -0.0364
 2355SOL    HW118527   2.847   4.027  14.890  0.6480 -1.5214  0.4461
 2355SOL    HW218528   2.875   4.064  15.031  1.0374 -0.3839  0.2922
 2356SOL     OW18529   1.712   4.134   8.615  0.2942  0.1764 -0.2674
 2356SOL    HW118530   1.772   4.207   8.632  1.7649 -0.6022 -2.1469
 2356SOL    HW218531   1.638   4.177   8.571  1.3482  1.3654 -0.8841
 2357SOL     OW18532   1.841   3.005   2.927 -0.4022  0.1002  0.0444
 2357SOL    HW118533   1.901   2.954   2.982 -0.4852  0.3281  0.3491
 2357SOL    HW218534   1.759   2.970   2.962 -0.6193  0.5361 -0.0234
 2358SOL     OW18535   1.388   3.738  10.260  0.9764  0.0751 -0.7088
 2358SOL    HW118536   1.372   3.796  10.335 -1.9901 -1.5469 -0.0996
 2358SOL    HW218537   1.481   3.759  10.253  0.2959  2.5944 -2.1943
 2359SOL     OW18538   3.174   2.978   4.113 -0.1091 -0.2913 -0.6564
 2359SOL    HW118539   3.172   3.073   4.125  1.2797 -0.1816 -1.3931
 2359SOL    HW218540   3.269   2.969   4.111 -0.0603 -0.1320  1.3374
 2360SOL     OW18541   2.037   3.317  12.727  0.4090  0.1453 -0.0621
 2360SOL    HW118542   1.948   3.313  12.761  0.8309 -0.5988  0.9726
 2360SOL    HW218543   2.025   3.361  12.643 -0.6177 -0.7095 -0.3628
 2361SOL     OW18544   3.151   1.346   4.057  0.0500 -0.1112  0.1558
 2361SOL    HW118545   3.120   1.286   4.125 -3.6777  0.2757 -1.2413
 2361SOL    HW218546   3.125   1.432   4.091  0.2051  0.7608 -1.9832
 2362SOL     OW18547   0.373   0.556   1.813  0.0143  0.1074 -0.3050
 2362SOL    HW118548   0.326   0.614   1.873 -2.4295 -2.9931  0.7458
 2362SOL    HW218549   0.424   0.505   1.876 -2.1895 -0.2755  1.1663
 2363SOL     OW18550   1.014   2.653   4.729 -0.3857 -0.6046  0.4596
 2363SOL    HW118551   1.014   2.748   4.717  2.4998 -0.7078 -0.1324
 2363SOL    HW218552   1.104   2.644   4.759  0.0171  0.5896 -0.4187
 2364SOL     OW18553   2.044   3.328   1.021 -0.2602  0.1457  0.2066
 2364SOL    HW118554   2.011   3.395   0.961 -0.3386  1.5226  1.7840
 2364SOL    HW218555   2.136   3.357   1.015 -0.7079  1.3459 -0.8688
 2365SOL     OW18556   4.326   1.767   8.936  0.7750 -0.7723  0.2502
 2365SOL    HW118557   4.373   1.839   8.977 -0.0034 -1.4479  2.3120
 2365SOL    HW218558   4.237   1.772   8.972  1.3215 -1.4111  1.6759
 2366SOL     OW18559   4.327   0.760   4.408  0.6113  0.6645 -0.7337
 2366SOL    HW118560   4.311   0.666   4.412  0.8383  0.7657  1.9696
 2366SOL    HW218561   4.284   0.789   4.488  1.1641  0.7461 -0.4670
 2367SOL     OW18562   2.324   0.087  11.743 -0.2962  0.4370  0.1353
 2367SOL    HW118563   2.363   0.082  11.656  1.1773  0.1738  0.8127
 2367SOL    HW218564   2.335   0.180  11.766 -0.4827  0.9512 -1.7961
 2368SOL     OW18565   3.233   3.836   7.098  0.0400 -0.3090  1.2149
 2368SOL    HW118566   3.216   3.748   7.130 -1.4789 -0.6903 -0.7147
 2368SOL    HW218567   3.288   3.830   7.020  1.1656  0.8369  1.9084
 2369SOL     OW18568   4.109   1.866   9.867 -0.0995  0.1420  0.0240
 2369SOL    HW118569   4.145   1.930   9.928 -0.4100  0.2076  0.1377
 2369SOL    HW218570   4.191   1.839   9.825 -0.2642 -0.3915  0.0435
 2370SOL     OW18571   3.944   1.659   8.427  0.0832  0.0221 -0.8734
 2370SOL    HW118572   3.900   1.582   8.390 -1.4376 -0.0727  1.1886
 2370SOL    HW218573   3.946   1.705   8.343 -0.6785 -1.3352 -1.6509
 2371SOL     OW18574   4.526   0.839   6.645 -0.3225  0.0089  0.2946
 2371SOL    HW118575   4.462   0.892   6.693 -0.3692  2.2934 -2.3015
 2371SOL    HW218576   4.564   0.906   6.589  1.5121 -1.3450 -0.0682
 2372SOL     OW18577   0.186   1.829   5.516 -0.1280  0.0989 -0.5857
 2372SOL    HW118578   0.172   1.845   5.609  0.5471 -1.3167 -0.2426
 2372SOL    HW218579   0.213   1.738   5.527  0.5650  0.4095  0.2682
 2373SOL     OW18580   0.174   2.411   6.499 -0.0239 -0.0120 -0.4973
 2373SOL    HW118581   0.139   2.353   6.566  1.9317  1.6808  1.9871
 2373SOL    HW218582   0.110   2.397   6.429 -1.0230 -2.4509  0.9058
 2374SOL     OW18583   1.686   2.543  10.171 -0.4466 -0.3409  0.1196
 2374SOL    HW118584   1.745   2.484  10.124 -1.3215 -0.3695 -0.9487
 2374SOL    HW218585   1.629   2.573  10.101 -1.5323 -0.4422  0.9603
 2375SOL     OW18586   1.945   0.121   6.345 -0.3416  0.1808  0.2635
 2375SOL    HW118587   1.925   0.207   6.308  2.3113  1.6709  2.3376
 2375SOL    HW218588   1.945   0.134   6.440 -0.1234 -1.1301  0.4448
 2376SOL     OW18589   2.300   1.069  14.291  0.2759 -0.0417  0.6541
 2376SOL    HW118590   2.367   1.109  14.237 -2.3874 -0.5829 -3.0097
 2376SOL    HW218591   2.242   1.144  14.284  1.0202  0.2961 -1.6591
 2377SOL     OW18592   0.991   0.806   9.448 -0.2492 -0.1632 -0.1030
 2377SOL    HW118593   0.898   0.800   9.427  0.0300  0.9981 -1.6658
 2377SOL    HW218594   1.027   0.822   9.361 -2.2129  0.1476 -0.8533
 2378SOL     OW18595   0.954   3.683   7.888 -0.6461 -0.0733  0.0890
 2378SOL    HW118596   0.928   3.725   7.971 -2.9309 -0.1729 -0.5793
 2378SOL    HW218597   1.038   3.643   7.912 -1.1359 -1.2643 -0.1725
 2379SOL     OW18598   3.670   1.781  16.954 -0.3527 -0.1739  0.0474
 2379SOL    HW118599   3.611   1.795  16.880  0.6609  2.5280 -0.2628
 2379SOL    HW218600   3.753   1.769  16.908  0.6670  1.5684  1.4314
 2380SOL     OW18601   2.213   4.420  10.220  0.6811 -0.3836 -0.2410
 2380SOL    HW118602   2.270   4.406  10.296 -1.3745  1.1894  1.5786
 2380SOL    HW218603   2.237   4.510  10.199  1.3552 -0.3915  0.5250
 2381SOL     OW18604   3.497   2.479  17.541 -0.0268 -0.1003 -0.5098
 2381SOL    HW118605   3.568   2.537  17.569  0.2514 -1.9784  2.7224
 2381SOL    HW218606   3.472   2.453  17.630 -0.7275  2.3399  0.0210
 2382SOL     OW18607   4.587   1.877  13.984 -0.3880 -0.3582 -0.5669
 2382SOL    HW118608   4.610   1.785  13.971  1.1164 -0.0748  0.1118
 2382SOL    HW218609   4.603   1.917  13.899  0.8994  2.1790  0.8891
 2383SOL     OW18610   4.604   4.256  13.176  0.1317 -0.3710  0.0418
 2383SOL    HW118611   4.678   4.277  13.232 -1.3077  1.9366  1.0985
 2383SOL    HW218612   4.562   4.342  13.182  0.0741 -0.3970  0.0172
 2384SOL     OW18613   1.025   2.924   6.972  0.5645 -0.1775 -0.1306
 2384SOL    HW118614   1.095   2.962   7.025 -0.0250  0.1812  0.3836
 2384SOL    HW218615   0.953   2.977   7.006  1.7794  1.3332  0.0655
 2385SOL     OW18616   1.948   0.380   7.283 -0.2705 -0.2562 -0.4605
 2385SOL    HW118617   1.960   0.307   7.222  0.3978  1.7592 -2.7404
 2385SOL    HW218618   1.888   0.432   7.230  1.3348 -0.4001 -2.4322
 2386SOL     OW18619   1.370   2.644  14.785 -0.3359  0.0102  0.1841
 2386SOL    HW118620   1.395   2.721  14.734 -0.1532 -1.1159 -1.4496
 2386SOL    HW218621   1.381   2.575  14.720  1.0657  0.6241 -0.2277
 2387SOL     OW18622   1.344   2.838   3.424  0.0807  0.1217  0.2017
 2387SOL    HW118623   1.415   2.855   3.487  1.7780 -0.6615 -1.4998
 2387SOL    HW218624   1.325   2.932   3.418 -0.6177 -0.1316 -1.4508
 2388SOL     OW18625   3.736   0.841   3.907 -0.0787  0.3192 -0.6642
 2388SOL    HW118626   3.729   0.831   4.002  2.1232  0.4021 -0.4712
 2388SOL    HW218627   3.647   0.816   3.883 -0.4934  0.5036  0.6646
 2389SOL     OW18628   3.378   4.427   7.589 -0.6231 -0.3976 -0.4795
 2389SOL    HW118629   3.385   4.431   7.494 -2.5399  1.1759 -0.5488
 2389SOL    HW218630   3.436   4.502   7.600  1.0026 -1.5835 -1.0180
 2390SOL     OW18631   3.657   3.010   2.871  0.3629  0.5470  0.6423
 2390SOL    HW118632   3.649   2.915   2.882  1.5008  0.2039 -1.5976
 2390SOL    HW218633   3.752   3.007   2.874  0.3266  2.8022  4.2137
 2391SOL     OW18634   1.648   3.982   3.264 -0.1251 -0.0396 -0.2558
 2391SOL    HW118635   1.560   3.957   3.291 -0.5392  3.1274  1.3824
 2391SOL    HW218636   1.691   3.922   3.325  2.5854 -1.3268 -3.4569
 2392SOL     OW18637   1.139   1.146   4.072  0.6484  0.1926 -0.0085
 2392SOL    HW118638   1.099   1.176   4.154  0.1751  1.5176 -0.7220
 2392SOL    HW218639   1.065   1.146   4.011  1.6776 -1.7756 -1.2426
 2393SOL     OW18640   3.153   1.288   7.768  0.7306 -0.4276  0.0079
 2393SOL    HW118641   3.229   1.262   7.716 -0.0539 -0.1917 -1.2688
 2393SOL    HW218642   3.092   1.214   7.758  2.8441 -2.0531 -0.8450
 2394SOL     OW18643   0.367   2.633  14.590 -0.4848  0.3681  0.4527
 2394SOL    HW118644   0.456   2.626  14.554 -0.1677 -4.6000  2.2779
 2394SOL    HW218645   0.390   2.651  14.681  0.2906 -1.1408  0.5542
 2395SOL     OW18646   0.057   0.367   3.451  0.1108  0.5640 -0.4599
 2395SOL    HW118647   0.020   0.313   3.521  1.0966 -1.2885 -1.3815
 2395SOL    HW218648   0.103   0.430   3.507  0.9364  0.5603 -1.1448
 2396SOL     OW18649   3.023   1.048   7.753 -0.1122 -0.2123  0.1368
 2396SOL    HW118650   2.949   1.110   7.750 -1.2692 -1.6432 -1.0874
 2396SOL    HW218651   3.015   0.991   7.677 -0.9780 -0.0927  0.1334
 2397SOL     OW18652   2.594   3.777   3.270 -0.4201 -0.0223 -0.5584
 2397SOL    HW118653   2.687   3.799   3.265 -0.1157 -0.6372  2.3765
 2397SOL    HW218654   2.600   3.716   3.197  0.7892 -0.9712  0.3219
 2398SOL     OW18655   2.267   3.335   4.505 -0.0355  0.0373 -0.2526
 2398SOL    HW118656   2.226   3.411   4.464 -0.4234  0.1564  0.3523
 2398SOL    HW218657   2.281   3.374   4.591  0.2882  2.5072 -1.4278
 2399SOL     OW18658   2.370   1.514  11.538  0.1783 -0.3497 -0.5469
 2399SOL    HW118659   2.337   1.555  11.458 -1.6163 -2.4284 -0.8702
 2399SOL    HW218660   2.456   1.478  11.516 -0.7078 -1.3856 -2.2499
 2400SOL     OW18661   1.682   4.569   6.114  0.3300 -0.2710  0.0222
 2400SOL    HW118662   1.759   4.554   6.168 -0.3270  0.9401  1.2872
 2400SOL    HW218663   1.686   4.495   6.053 -2.2593  0.9895 -1.7232
 2401SOL     OW18664   2.058   2.611   8.077  0.0764  0.2628 -0.5089
 2401SOL    HW118665   2.021   2.633   7.992  1.1554  0.6473 -0.8808
 2401SOL    HW218666   2.042   2.695   8.119 -0.8963 -0.5130  0.6505
 2402SOL     OW18667   3.743   1.786   6.507  0.4879 -0.1738 -0.4297
 2402SOL    HW118668   3.686   1.836   6.565 -0.0607 -0.3180 -0.8433
 2402SOL    HW218669   3.831   1.797   6.543 -0.1679  1.0940  0.7814
 2403SOL     OW18670   2.942   2.386  16.969  0.9193 -0.1496 -0.0231
 2403SOL    HW118671   2.860   2.413  16.927  1.5631 -0.0895 -1.2402
 2403SOL    HW218672   2.905   2.356  17.052  1.0559  0.1200  0.1374
 2404SOL     OW18673   4.516   3.029   6.276  0.2592  0.1249 -0.7155
 2404SOL    HW118674   4.583   3.051   6.212  1.2931 -0.7718  0.0690
 2404SOL    HW218675   4.526   3.100   6.339 -1.2462  0.0854 -0.4194
 2405SOL     OW18676   2.618   2.538   1.726  0.1736  0.0394 -0.1760
 2405SOL    HW118677   2.583   2.506   1.643 -1.1166  1.7084 -0.2947
 2405SOL    HW218678   2.581   2.467   1.779 -1.1285  1.1799  0.4570
 2406SOL     OW18679   0.630   0.227  13.476  0.2714  0.1310  0.3973
 2406SOL    HW118680   0.706   0.263  13.522 -0.8196 -1.6405  3.5883
 2406SOL    HW218681   0.620   0.297  13.412 -0.3363  0.1309  0.4888
 2407SOL     OW18682   0.311   1.273  16.052  0.3549  0.2746 -0.0485
 2407SOL    HW118683   0.396   1.308  16.079 -0.6601  2.9181 -0.2647
 2407SOL    HW218684   0.322   1.291  15.959  2.2295  0.1693  0.1435
 2408SOL     OW18685   1.520   0.396   6.042  0.0118  0.2901  0.0086
 2408SOL    HW118686   1.490   0.399   6.133  0.1386 -3.5030  0.1767
 2408SOL    HW218687   1.615   0.398   6.049 -0.2251  0.3589  3.1283
 2409SOL     OW18688   1.166   3.454   7.582 -0.0293  0.0409  0.1506
 2409SOL    HW118689   1.260   3.436   7.587 -0.3148 -1.2218  0.9154
 2409SOL    HW218690   1.172   3.544   7.550 -1.1144  0.0803  0.0831
 2410SOL     OW18691   1.335   4.301   7.999 -0.2971  0.1709  0.2113
 2410SOL    HW118692   1.255   4.335   7.961 -0.9637 -1.1703  0.4224
 2410SOL    HW218693   1.383   4.382   8.018 -0.8731  1.0207 -2.0859
 2411SOL     OW18694   4.399   3.903   5.553 -0.3576 -0.1449 -0.1852
 2411SOL    HW118695   4.469   3.840   5.572 -0.4977 -0.4170 -0.5628
 2411SOL    HW218696   4.437   3.961   5.487  1.1676 -0.4693  0.4097
 2412SOL     OW18697   2.169   4.662   5.177  0.9622 -0.1014  0.1778
 2412SOL    HW118698   2.136   4.657   5.267 -0.3898 -1.8094 -0.3923
 2412SOL    HW218699   2.174   4.569   5.155 -1.7178 -0.0442 -0.6669
 2413SOL     OW18700   2.794   3.207   4.305  0.2471  0.0477  0.1217
 2413SOL    HW118701   2.822   3.115   4.300 -0.3475 -0.0870 -0.7650
 2413SOL    HW218702   2.848   3.235   4.378 -1.9843 -1.1910  2.2391
 2414SOL     OW18703   2.884   0.518   6.251 -0.3529 -0.0062 -0.1391
 2414SOL    HW118704   2.869   0.517   6.157  0.3222  1.2750 -0.2609
 2414SOL    HW218705   2.977   0.495   6.246 -1.0509 -3.1213  0.9912
 2415SOL     OW18706   3.412   0.830   2.635  0.0567  0.2070  0.0312
 2415SOL    HW118707   3.373   0.826   2.723 -1.4025 -1.4738 -0.6801
 2415SOL    HW218708   3.504   0.820   2.659  0.1886  2.5352  0.4115
 2416SOL     OW18709   1.899   3.184   0.708  0.2563  0.5205  0.0293
 2416SOL    HW118710   1.833   3.225   0.651  0.7135  2.4039  0.8314
 2416SOL    HW218711   1.892   3.244   0.783  1.8547 -0.2613  0.7893
 2417SOL     OW18712   1.303   0.573   8.591  0.2962 -0.3610  0.1170
 2417SOL    HW118713   1.311   0.641   8.524 -0.2967 -0.3291  0.0801
 2417SOL    HW218714   1.385   0.596   8.636 -1.3751  0.1781  2.9015
 2418SOL     OW18715   0.303   4.256   2.950  0.3283 -0.8741 -0.0203
 2418SOL    HW118716   0.392   4.281   2.923 -1.0358  0.5604 -3.2182
 2418SOL    HW218717   0.296   4.315   3.025  1.1694  1.1709 -1.5205
 2419SOL     OW18718   3.657   0.656  14.596 -0.5505 -0.2473 -0.4010
 2419SOL    HW118719   3.600   0.636  14.670 -3.0588 -1.2505 -2.6399
 2419SOL    HW218720   3.606   0.721  14.548  1.7216  0.4200 -1.9085
 2420SOL     OW18721   1.627   1.966  17.182 -0.4534  0.4107  0.1913
 2420SOL    HW118722   1.615   2.027  17.255  0.3347  0.9549 -0.1277
 2420SOL    HW218723   1.699   1.908  17.208 -2.1637 -1.6690  0.2590
 2421SOL     OW18724   1.204   2.446   7.646 -0.0644 -0.1570 -0.3272
 2421SOL    HW118725   1.157   2.370   7.614 -1.4389 -0.2495  1.8808
 2421SOL    HW218726   1.283   2.401   7.677 -0.9989 -0.7211  1.2522
 2422SOL     OW18727   3.216   3.040   6.566 -0.2612  0.3816 -0.0972
 2422SOL    HW118728   3.162   3.039   6.646 -0.7039  2.2598 -0.3652
 2422SOL    HW218729   3.157   3.011   6.496 -2.4782  1.8783  1.1387
 2423SOL     OW18730   0.311   1.235   8.332  0.0624  0.1706  0.2779
 2423SOL    HW118731   0.335   1.244   8.424 -1.4845 -0.1253  0.7134
 2423SOL    HW218732   0.216   1.245   8.335 -0.1596 -1.9258  0.3091
 2424SOL     OW18733   0.513   2.763   5.507 -0.0548  0.1512  0.2720
 2424SOL    HW118734   0.438   2.712   5.538 -1.0730  0.6030 -1.4409
 2424SOL    HW218735   0.559   2.763   5.591 -1.9051 -3.0672  1.2807
 2425SOL     OW18736   3.231   2.156  15.167  0.3609  0.1369  0.1947
 2425SOL    HW118737   3.228   2.080  15.109 -0.4763 -1.3511  2.1779
 2425SOL    HW218738   3.242   2.110  15.250  0.8993  0.0734  0.0889
 2426SOL     OW18739   3.889   1.824  11.464 -0.1470 -0.3126 -0.0545
 2426SOL    HW118740   3.876   1.862  11.377  0.3582 -1.8782 -0.8023
 2426SOL    HW218741   3.801   1.789  11.476  0.8395 -2.8180 -0.2901
 2427SOL     OW18742   1.736   3.076   3.758  0.0155  0.2264  0.0854
 2427SOL    HW118743   1.641   3.079   3.767 -0.0946 -0.1451 -0.8755
 2427SOL    HW218744   1.771   3.152   3.805 -0.8686 -0.3540  1.6787
 2428SOL     OW18745   3.183   2.431   4.968  0.4015 -0.5515  0.1557
 2428SOL    HW118746   3.195   2.525   4.960  2.7331 -1.0017 -1.9134
 2428SOL    HW218747   3.094   2.437   4.934 -0.1776  1.2857  1.9916
 2429SOL     OW18748   4.713   2.469   7.348 -0.1162 -0.0239  0.0123
 2429SOL    HW118749   0.039   2.551   7.334 -0.7301  0.2487 -0.5424
 2429SOL    HW218750   4.627   2.489   7.310 -0.9302 -0.4973  1.5723
 2430SOL     OW18751   1.619   4.568  11.282  0.1781 -0.1208 -0.1738
 2430SOL    HW118752   1.690   4.566  11.218  0.0174  0.7057 -0.3769
 2430SOL    HW218753   1.574   4.645  11.248 -1.6888 -0.1833  2.1804
 2431SOL     OW18754   4.373   1.862   7.040 -0.1515 -0.5168  0.5798
 2431SOL    HW118755   4.315   1.843   7.114  0.7702 -0.4646  1.3180
 2431SOL    HW218756   4.415   1.777   7.029 -2.2090 -1.4244 -0.3139
 2432SOL     OW18757   4.678   4.655   2.742  0.3343 -0.1897 -0.0199
 2432SOL    HW118758   4.632   4.722   2.691  2.2736  0.8593 -0.3588
 2432SOL    HW218759   4.680   4.591   2.671  0.0085  0.0410 -0.2393
 2433SOL     OW18760   3.835   2.558   6.283  0.1755  0.0757  0.2426
 2433SOL    HW118761   3.810   2.635   6.232 -0.2087 -0.0734  0.2036
 2433SOL    HW218762   3.916   2.584   6.326 -0.3034  1.6468  0.1695
 2434SOL     OW18763   2.011   4.170   2.110  0.0052 -0.5797  0.0103
 2434SOL    HW118764   2.088   4.192   2.057 -0.1076  0.9695  0.4850
 2434SOL    HW218765   1.976   4.091   2.068 -0.4898 -0.2614 -0.1777
 2435SOL     OW18766   0.873   2.951   3.469 -0.0717  0.6221  0.0746
 2435SOL    HW118767   0.840   3.028   3.422  2.5467  1.1211 -0.9829
 2435SOL    HW218768   0.943   2.933   3.405 -1.3182  0.1636 -1.1501
 2436SOL     OW18769   2.277   3.657   8.100  0.4435 -0.1884  0.7206
 2436SOL    HW118770   2.293   3.564   8.081  3.5471  0.6198 -0.4963
 2436SOL    HW218771   2.189   3.667   8.064  0.7059  0.1552  0.1886
 2437SOL     OW18772   1.143   1.431  10.376 -0.1626 -0.0565  0.0476
 2437SOL    HW118773   1.100   1.515  10.387 -0.3980 -0.1323 -0.2986
 2437SOL    HW218774   1.238   1.446  10.377 -0.4722  1.6762  2.6401
 2438SOL     OW18775   4.277   4.303   9.749  0.3652 -0.8840  0.8972
 2438SOL    HW118776   4.364   4.342   9.737 -0.1580  0.0977  0.3285
 2438SOL    HW218777   4.285   4.267   9.837 -0.2389 -2.2739  0.3848
 2439SOL     OW18778   0.396   2.669  14.878  0.1198 -0.0324  0.2372
 2439SOL    HW118779   0.459   2.656  14.949  2.4975 -0.1514 -1.8753
 2439SOL    HW218780   0.317   2.700  14.923  1.0260 -1.8063  3.0220
 2440SOL     OW18781   2.559   0.183   6.345 -0.2927  0.3661 -0.2450
 2440SOL    HW118782   2.539   0.099   6.387  0.8476 -0.0671 -0.5603
 2440SOL    HW218783   2.472   0.196   6.308 -1.4321  0.4885  2.4880
 2441SOL     OW18784   0.257   2.150   3.909  0.7283  0.4717  0.0461
 2441SOL    HW118785   0.253   2.082   3.842  0.9069 -0.6509  1.1882
 2441SOL    HW218786   0.314   2.204   3.854 -0.5542  1.2589 -0.5295
 2442SOL     OW18787   3.610   3.659   3.769  0.0963 -0.0738  0.1525
 2442SOL    HW118788   3.597   3.697   3.856 -1.1070  1.1026 -0.5381
 2442SOL    HW218789   3.626   3.565   3.780 -1.3524 -0.3983 -0.5471
 2443SOL     OW18790   3.544   0.371   8.547  0.5867 -0.3205 -0.6489
 2443SOL    HW118791   3.495   0.442   8.507  1.8136  1.4220  0.9289
 2443SOL    HW218792   3.519   0.394   8.637 -1.3845  0.6661 -1.4663
 2444SOL     OW18793   3.736   1.030   8.668  0.4555  0.1902  0.2101
 2444SOL    HW118794   3.726   0.937   8.686 -0.0541  0.4016  1.0232
 2444SOL    HW218795   3.655   1.060   8.628 -0.2730  2.1670  3.1734
 2445SOL     OW18796   0.784   4.402   2.284  0.3100  0.4572 -0.2228
 2445SOL    HW118797   0.832   4.450   2.351 -0.9276 -0.8364  1.5665
 2445SOL    HW218798   0.700   4.401   2.328 -0.5621  1.1418 -1.8403
 2446SOL     OW18799   4.526   0.587   9.174 -0.1436  0.1331  0.4199
 2446SOL    HW118800   4.530   0.674   9.214 -1.9655 -0.0661  1.0340
 2446SOL    HW218801   4.476   0.546   9.245  2.5869 -1.9223  1.1457
 2447SOL     OW18802   3.298   1.930   4.987 -0.6433 -0.8069  0.1164
 2447SOL    HW118803   3.338   1.867   5.048  0.6707  0.5632  0.6737
 2447SOL    HW218804   3.253   1.870   4.928 -4.1942  0.6539  1.3871
 2448SOL     OW18805   1.581   0.228   2.210  0.0378 -0.2059  0.2478
 2448SOL    HW118806   1.491   0.248   2.188  0.2046  1.2553  0.8830
 2448SOL    HW218807   1.600   0.166   2.140 -1.5081  0.1969 -0.5268
 2449SOL     OW18808   1.219   3.771   5.581 -0.0027 -0.1981 -0.1780
 2449SOL    HW118809   1.254   3.799   5.497  0.0253 -0.7552 -0.3529
 2449SOL    HW218810   1.126   3.769   5.559  0.3458 -0.6168 -1.5895
 2450SOL     OW18811   1.479   1.560   7.578  0.1201  0.2522 -0.1997
 2450SOL    HW118812   1.553   1.547   7.519 -0.3236  0.2545 -0.7529
 2450SOL    HW218813   1.456   1.648   7.548  0.9587 -0.0330 -1.6628
 2451SOL     OW18814   3.910   2.119   8.538  0.4794 -0.2628  0.2844
 2451SOL    HW118815   3.938   2.098   8.449 -0.6007  0.9757 -0.3641
 2451SOL    HW218816   3.886   2.211   8.526  3.0610  0.4112  0.3262
 2452SOL     OW18817   1.468   2.567   9.438 -1.0051 -0.0908  0.4611
 2452SOL    HW118818   1.519   2.579   9.358 -1.5038  2.3419  0.5004
 2452SOL    HW218819   1.432   2.480   9.419  0.3990 -0.4160 -0.6970
 2453SOL     OW18820   0.965   4.083   7.779 -0.1320  0.6434 -0.0231
 2453SOL    HW118821   0.895   4.083   7.843  0.2110 -2.5575  0.3683
 2453SOL    HW218822   1.046   4.087   7.831  1.4724 -0.0340 -2.4463
 2454SOL     OW18823   2.068   0.746   0.897  0.2715 -0.6590  0.9118
 2454SOL    HW118824   2.068   0.670   0.954  1.7220 -0.2143  1.5053
 2454SOL    HW218825   2.161   0.753   0.874  0.8591 -1.2658  3.1758
 2455SOL     OW18826   2.999   2.513   1.536 -0.1173 -0.1699  0.5624
 2455SOL    HW118827   3.067   2.446   1.541 -0.7681 -0.8154  0.7808
 2455SOL    HW218828   3.031   2.586   1.590 -0.4342 -0.4554  1.1348
 2456SOL     OW18829   0.483   0.439   5.154  0.2451 -0.3901 -0.3392
 2456SOL    HW118830   0.506   0.494   5.229 -0.5213 -0.5809  0.0317
 2456SOL    HW218831   0.566   0.452   5.108 -0.0747  1.2203 -0.4633
 2457SOL     OW18832   3.072   3.645   3.604  0.0600  0.2223  0.0425
 2457SOL    HW118833   3.009   3.714   3.583  0.1060  0.4890  0.8117
 2457SOL    HW218834   3.096   3.611   3.517 -0.4623 -1.0814  0.4121
 2458SOL     OW18835   2.691   1.679  12.404 -0.3196 -0.7487  0.1333
 2458SOL    HW118836   2.663   1.750  12.347  2.0028  0.4561  0.4665
 2458SOL    HW218837   2.764   1.713  12.456 -0.7574  0.1104  0.1822
 2459SOL     OW18838   4.467   1.484  15.364  0.0337  0.1524 -0.0152
 2459SOL    HW118839   4.423   1.405  15.393 -0.8157  0.5592 -0.2137
 2459SOL    HW218840   4.401   1.552  15.378  0.0657  0.1668  0.0646
 2460SOL     OW18841   1.893   0.892   0.734  0.1058  0.0945  0.1916
 2460SOL    HW118842   1.943   0.838   0.795  1.6785  1.7624  0.3831
 2460SOL    HW218843   1.833   0.931   0.799  1.4439  0.1463  1.4007
 2461SOL     OW18844   1.417   2.970   8.916 -0.1560  0.0591 -0.0215
 2461SOL    HW118845   1.365   2.925   8.983  1.1747 -1.3848  0.0461
 2461SOL    HW218846   1.348   2.984   8.851 -1.1243  0.3755  1.0626
 2462SOL     OW18847   3.029   2.757   3.848 -0.2130 -0.8239 -0.5250
 2462SOL    HW118848   2.933   2.758   3.853 -0.1712 -0.2687  0.0764
 2462SOL    HW218849   3.046   2.834   3.795  0.8022 -0.8148 -0.1776
 2463SOL     OW18850   2.018   0.058   1.913  0.1083  0.1876 -0.3458
 2463SOL    HW118851   1.997   4.690   1.891  3.0842 -0.7518  0.5947
 2463SOL    HW218852   1.936   0.071   1.960  0.3726 -1.2137  0.5011
 2464SOL     OW18853   0.766   1.596  16.294  0.0585  0.7374 -0.1430
 2464SOL    HW118854   0.736   1.681  16.326 -0.3694 -0.4760  2.6719
 2464SOL    HW218855   0.730   1.542  16.364 -0.8219 -0.2862 -1.3965
 2465SOL     OW18856   3.445   4.685   6.107  0.1799  0.8152  0.4596
 2465SOL    HW118857   3.351   4.688   6.119  0.2403  2.2819  0.5175
 2465SOL    HW218858   3.455   0.039   6.050  0.1707  1.4701  1.3386
 2466SOL     OW18859   1.720   3.120  12.258 -0.3036  0.1898 -0.5615
 2466SOL    HW118860   1.674   3.073  12.188 -0.1669 -2.3520  1.0509
 2466SOL    HW218861   1.809   3.088  12.240 -0.6246 -0.8742 -0.2564
 2467SOL     OW18862   1.606   3.793   9.752  0.5988 -0.2512 -0.1800
 2467SOL    HW118863   1.602   3.700   9.730 -0.8345  0.0818 -1.2901
 2467SOL    HW218864   1.514   3.813   9.769  1.0968  1.9819 -0.0237
 2468SOL     OW18865   4.386   3.455   8.195 -0.2777  0.3357  0.0008
 2468SOL    HW118866   4.416   3.440   8.105 -0.1745  1.3638 -0.1385
 2468SOL    HW218867   4.352   3.369   8.217 -1.3497  0.1204 -2.5146
 2469SOL     OW18868   0.282   0.698   7.224 -0.8848 -0.1495  0.1510
 2469SOL    HW118869   0.248   0.658   7.304 -0.2060  0.2936  0.6614
 2469SOL    HW218870   0.234   0.653   7.154  0.6472  0.6933 -1.4261
 2470SOL     OW18871   1.534   2.237   8.506 -0.2229  0.1863  0.3720
 2470SOL    HW118872   1.528   2.251   8.411 -0.5166  1.5472  0.5973
 2470SOL    HW218873   1.597   2.166   8.519 -1.8528 -1.1203  1.0717
 2471SOL     OW18874   4.652   2.535   6.677  0.1178  0.5031  0.0035
 2471SOL    HW118875   4.658   2.441   6.691  0.5037  0.5341  0.0345
 2471SOL    HW218876   4.626   2.541   6.585 -2.2250 -3.8794  0.4009
 2472SOL     OW18877   4.095   3.216   5.091  0.1953 -0.6543 -0.0904
 2472SOL    HW118878   4.011   3.197   5.049  1.2459  1.6147 -3.1746
 2472SOL    HW218879   4.076   3.284   5.155 -2.1010 -2.6908  1.3969
 2473SOL     OW18880   1.662   3.423   1.975  0.3237  0.5752 -0.1276
 2473SOL    HW118881   1.618   3.390   2.054  1.2658 -2.2025 -0.7508
 2473SOL    HW218882   1.647   3.516   1.994 -1.4506 -0.0369  1.4876
 2474SOL     OW18883   3.425   2.671   3.971 -0.0140 -0.1858 -0.8992
 2474SOL    HW118884   3.501   2.727   3.953  0.9728 -1.6990 -1.4351
 2474SOL    HW218885   3.452   2.594   3.922 -0.2923 -1.8181  1.4945
 2475SOL     OW18886   0.202   2.299   6.949  0.4772  0.1181 -0.4073
 2475SOL    HW118887   0.241   2.386   6.942  0.0383  0.1792 -2.0385
 2475SOL    HW218888   0.252   2.261   7.022  0.4931 -0.0423 -0.5005
 2476SOL     OW18889   3.568   0.435  16.953  0.3635 -0.3502 -0.4632
 2476SOL    HW118890   3.648   0.486  16.944 -1.3294  2.2677 -0.5367
 2476SOL    HW218891   3.532   0.433  16.865 -0.3750  0.7957 -0.1815
 2477SOL     OW18892   3.885   0.851   1.109 -0.0531  0.1301 -0.6735
 2477SOL    HW118893   3.929   0.779   1.154 -3.0614 -1.1143  0.2955
 2477SOL    HW218894   3.926   0.861   1.023 -1.5082  2.5930 -1.0868
 2478SOL     OW18895   1.910   1.307  17.321 -0.0353  0.2977 -0.9084
 2478SOL    HW118896   1.851   1.232  17.324 -0.2145  0.4943  0.7095
 2478SOL    HW218897   1.934   1.319  17.413 -0.4391  2.1305 -1.0305
 2479SOL     OW18898   3.927   2.276   6.475 -0.0780  0.2185 -0.4340
 2479SOL    HW118899   3.941   2.254   6.568  1.1816  0.5374 -0.5389
 2479SOL    HW218900   3.832   2.282   6.472 -0.1213 -1.1844 -1.7877
 2480SOL     OW18901   3.349   0.080   2.943  0.1503  0.1107  0.1404
 2480SOL    HW118902   3.338   4.722   2.994  1.3753 -0.8593 -1.1174
 2480SOL    HW218903   3.259   0.099   2.919  0.6732  2.9221  0.4187
 2481SOL     OW18904   4.400   0.397   3.210 -0.1819  0.8840 -0.3593
 2481SOL    HW118905   4.385   0.376   3.117  0.2621  2.1604 -0.7140
 2481SOL    HW218906   4.496   0.396   3.214 -0.2533  2.1288  1.1682
 2482SOL     OW18907   2.581   4.586   5.195  0.2155  0.3669 -0.4617
 2482SOL    HW118908   2.598   4.616   5.285 -3.0581  0.1614  0.2337
 2482SOL    HW218909   2.570   4.493   5.215  2.5921 -0.0681 -1.1724
 2483SOL     OW18910   2.419   1.999   3.602 -0.4341 -0.3550 -0.4779
 2483SOL    HW118911   2.326   2.012   3.621 -0.5308 -2.5286  0.4351
 2483SOL    HW218912   2.436   2.069   3.538 -0.3771  1.5348  1.6118
 2484SOL     OW18913   0.965   0.959   7.758 -0.9394  0.4234  0.2690
 2484SOL    HW118914   0.915   0.996   7.685 -0.9910  0.4666  0.3260
 2484SOL    HW218915   1.052   0.994   7.738 -0.9644  1.2492  1.5642
 2485SOL     OW18916   2.995   2.976   1.171  0.0120  0.4978 -0.3700
 2485SOL    HW118917   3.021   2.889   1.202  0.4945  1.5551  2.2004
 2485SOL    HW218918   3.033   2.988   1.084  0.4242 -1.9304 -0.5368
 2486SOL     OW18919   3.578   1.254   3.831 -0.3068  0.1474  0.1510
 2486SOL    HW118920   3.620   1.331   3.794  0.3559  0.0157  0.6223
 2486SOL    HW218921   3.658   1.206   3.855 -0.0130 -0.7426 -2.5819
 2487SOL     OW18922   3.094   4.344   6.471  0.2559 -0.2848  0.1094
 2487SOL    HW118923   3.052   4.390   6.543 -1.4139 -0.0744 -1.0078
 2487SOL    HW218924   3.069   4.403   6.400 -3.1183 -2.0849 -0.1751
 2488SOL     OW18925   2.478   0.841   6.301  0.4925  0.2640 -0.4919
 2488SOL    HW118926   2.574   0.843   6.295  0.3981  3.3876 -0.9936
 2488SOL    HW218927   2.468   0.922   6.251  0.6594  1.1087  0.8417
 2489SOL     OW18928   4.072   2.854   6.876 -0.1200  0.0594 -0.8335
 2489SOL    HW118929   4.070   2.829   6.784  0.2002 -1.2527 -0.4945
 2489SOL    HW218930   4.145   2.796   6.898 -1.0053  0.0168  1.9586
 2490SOL     OW18931   0.161   3.677   7.267  0.1283  0.9841 -0.4010
 2490SOL    HW118932   0.252   3.660   7.291  0.0617  0.6967 -0.3521
 2490SOL    HW218933   0.131   3.741   7.331 -1.1756  0.8982 -0.9282
 2491SOL     OW18934   0.403   3.566   8.652 -0.5429 -0.2016  0.7915
 2491SOL    HW118935   0.478   3.623   8.637 -0.6655 -0.5136 -1.1084
 2491SOL    HW218936   0.435   3.482   8.685  2.0416  0.0581 -1.0190
 2492SOL     OW18937   0.751   3.766  11.439 -0.4444 -0.0342  0.6933
 2492SOL    HW118938   0.777   3.773  11.531  2.9840  2.3829 -0.5130
 2492SOL    HW218939   0.658   3.783  11.454 -0.7576 -1.7475  0.7811
 2493SOL     OW18940   2.760   3.404   0.464  0.2589  0.6449  0.1566
 2493SOL    HW118941   2.796   3.465   0.399  0.9071 -0.0875 -0.1654
 2493SOL    HW218942   2.712   3.359   0.395  0.0796  2.1984 -0.7331
 2494SOL     OW18943   3.633   2.142   1.753  0.4321  0.9085 -0.1104
 2494SOL    HW118944   3.664   2.211   1.811 -3.1966  0.0004  2.9934
 2494SOL    HW218945   3.694   2.144   1.680  0.4185 -1.2854 -0.1988
 2495SOL     OW18946   3.625   2.965  12.386 -0.4035  0.0818 -0.3637
 2495SOL    HW118947   3.624   2.875  12.353 -2.6987  0.2084 -0.5823
 2495SOL    HW218948   3.548   3.003  12.346 -1.5679 -0.8999  0.9457
 2496SOL     OW18949   2.278   1.662   0.240 -0.3986  0.1435 -0.2938
 2496SOL    HW118950   2.359   1.626   0.276  0.1918  0.1231 -1.6722
 2496SOL    HW218951   2.281   1.606   0.163  2.6633  2.1243 -1.6157
 2497SOL     OW18952   1.969   4.063   9.788  0.0935 -0.3108 -0.3079
 2497SOL    HW118953   1.962   4.147   9.834 -0.7352 -0.4922 -0.0880
 2497SOL    HW218954   2.049   4.079   9.739 -0.1604 -0.8295 -0.9003
 2498SOL     OW18955   0.731   1.742   4.920 -0.4803 -0.2244  0.1745
 2498SOL    HW118956   0.653   1.797   4.914 -0.2532 -0.0504 -1.1885
 2498SOL    HW218957   0.802   1.806   4.911  0.8853 -1.7970 -0.3048
 2499SOL     OW18958   2.056   3.989   3.882  0.2749  0.4628  0.1743
 2499SOL    HW118959   2.067   3.898   3.854 -3.2333  0.0277  0.1456
 2499SOL    HW218960   1.960   3.985   3.886  0.2437 -0.7736 -1.9427
 2500SOL     OW18961   0.807   1.871   2.595  0.8851 -0.0159 -0.4799
 2500SOL    HW118962   0.820   1.937   2.527  1.6471 -0.1524 -0.4668
 2500SOL    HW218963   0.886   1.892   2.644 -0.1183  0.4080  0.9767
 2501SOL     OW18964   1.035   2.418   5.585  0.0401 -0.2360  0.4701
 2501SOL    HW118965   1.025   2.389   5.494  1.0468  0.5514  0.1078
 2501SOL    HW218966   1.057   2.335   5.626 -0.3241 -0.2949  0.5494
 2502SOL     OW18967   4.627   2.799   3.152 -0.1661 -0.0080 -0.4193
 2502SOL    HW118968   4.703   2.850   3.123  0.3954 -0.5557  0.1129
 2502SOL    HW218969   4.558   2.849   3.108  0.3318  1.0244 -0.0191
 2503SOL     OW18970   4.171   3.776  10.968  0.5113 -0.0622  0.1200
 2503SOL    HW118971   4.109   3.704  10.979 -1.3160  1.6112  0.9981
 2503SOL    HW218972   4.170   3.804  10.876  1.4642  1.5298  0.5932
 2504SOL     OW18973   0.606   3.910   7.631  1.1250  0.8982 -0.3331
 2504SOL    HW118974   0.549   3.847   7.587  0.3476  1.2615  0.1465
 2504SOL    HW218975   0.591   3.896   7.724  0.0395  0.9575 -0.5052
 2505SOL     OW18976   2.693   2.492  12.943 -0.2711 -0.3553  0.3186
 2505SOL    HW118977   2.600   2.472  12.949 -0.2138  0.3330  3.0847
 2505SOL    HW218978   2.716   2.482  12.850  0.4694  0.2457  0.4414
 2506SOL     OW18979   1.512   3.057   5.222 -0.2328 -0.3374  0.6331
 2506SOL    HW118980   1.548   3.002   5.291  0.2097 -1.3405 -0.4045
 2506SOL    HW218981   1.573   3.131   5.220  1.0777 -1.3169  4.1650
 2507SOL     OW18982   2.266   2.121  16.174 -0.6051 -0.2367 -0.2298
 2507SOL    HW118983   2.190   2.098  16.227 -0.4974  0.3176  0.1609
 2507SOL    HW218984   2.227   2.098  16.089 -1.0597  0.2608 -0.1585
 2508SOL     OW18985   1.567   3.445   3.835  0.2002  0.3327  0.3689
 2508SOL    HW118986   1.663   3.454   3.838  0.2534  0.6779 -2.3855
 2508SOL    HW218987   1.539   3.501   3.907  2.0130  0.6890  0.7988
 2509SOL     OW18988   2.196   3.299  14.820 -0.0007  0.7651  0.0285
 2509SOL    HW118989   2.186   3.388  14.854 -0.5778 -0.4557  3.1119
 2509SOL    HW218990   2.246   3.324  14.743  2.7678 -0.6353  1.3704
 2510SOL     OW18991   3.947   2.057  11.603 -0.1169 -0.2868 -0.5305
 2510SOL    HW118992   3.892   2.058  11.681  0.5867 -0.4008 -0.0344
 2510SOL    HW218993   3.921   1.981  11.550 -1.4991  0.8570 -1.4794
 2511SOL     OW18994   4.359   3.955   3.671 -0.2702 -0.0233  0.1629
 2511SOL    HW118995   4.413   3.876   3.680  3.3227  2.2642 -1.5980
 2511SOL    HW218996   4.294   3.931   3.605 -0.6164  0.4964  0.3146
 2512SOL     OW18997   2.622   3.141  10.812  0.1936  0.0311 -0.5358
 2512SOL    HW118998   2.592   3.218  10.763  0.2513  0.7343  0.5425
 2512SOL    HW218999   2.552   3.078  10.792  0.6327 -1.8990  3.8875
 2513SOL     OW19000   4.709   2.418   8.264 -0.2476  0.4303  0.1702
 2513SOL    HW119001   4.704   2.505   8.304 -0.2860  0.6516 -0.3039
 2513SOL    HW219002   4.623   2.388   8.295 -1.0739  2.3242 -0.2424
 2514SOL     OW19003   3.062   1.246   3.837 -0.1292  0.4229  0.0628
 2514SOL    HW119004   3.110   1.163   3.836  1.1136  1.1643 -1.4939
 2514SOL    HW219005   3.070   1.288   3.923 -4.0666  0.0574  0.6408
 2515SOL     OW19006   3.551   4.072   6.805  0.0545  0.5775 -0.4461
 2515SOL    HW119007   3.598   4.084   6.723 -1.0807  0.1859 -1.1546
 2515SOL    HW219008   3.616   4.069   6.875  1.8214  2.4788 -1.9986
 2516SOL     OW19009   0.507   1.048   9.176  0.0369 -0.1821  0.1066
 2516SOL    HW119010   0.455   0.971   9.201 -0.9065  0.2521 -0.5413
 2516SOL    HW219011   0.596   1.017   9.161 -0.3085 -1.2896  0.3744
 2517SOL     OW19012   0.150   0.841  17.640  0.1466 -0.1802  0.2435
 2517SOL    HW119013   0.075   0.794  17.603  0.6602 -2.1446  1.6695
 2517SOL    HW219014   0.133   0.829   0.042 -0.0927 -0.1062  0.2108
 2518SOL     OW19015   3.733   0.716   4.409 -0.2078 -0.0683  0.9737
 2518SOL    HW119016   3.757   0.642   4.465 -0.0712 -1.1607 -0.5390
 2518SOL    HW219017   3.713   0.791   4.464 -0.6087  0.1181  0.5678
 2519SOL     OW19018   2.328   0.536   1.252 -0.2098 -0.2250 -0.7761
 2519SOL    HW119019   2.398   0.479   1.221  0.8750  0.6136  0.1045
 2519SOL    HW219020   2.335   0.544   1.348 -1.0698 -1.8353 -0.5783
 2520SOL     OW19021   2.869   1.665   2.726  0.1202  0.6485 -0.0420
 2520SOL    HW119022   2.788   1.617   2.710  0.2216 -0.2533  2.1403
 2520SOL    HW219023   2.843   1.736   2.784  0.5584  0.7044  0.0874
 2521SOL     OW19024   0.614   0.959   6.929  0.1206  0.4594  0.2641
 2521SOL    HW119025   0.570   1.019   6.869 -0.8433 -1.2819 -0.7671
 2521SOL    HW219026   0.707   0.979   6.929  0.2385 -0.0702 -1.8540
 2522SOL     OW19027   2.221   0.301   7.763  0.8261  0.0221  0.3094
 2522SOL    HW119028   2.126   0.303   7.769  0.7722  1.1391 -0.7276
 2522SOL    HW219029   2.240   0.374   7.703 -0.0628 -0.0370 -0.0455
 2523SOL     OW19030   0.885   3.382   8.768 -0.8836 -0.3742  0.0224
 2523SOL    HW119031   0.868   3.457   8.712 -1.5573  1.5271  2.7528
 2523SOL    HW219032   0.963   3.399   8.821 -0.4454 -2.4732  0.0610
 2524SOL     OW19033   1.636   0.738   5.928 -0.6491 -0.1064  0.6307
 2524SOL    HW119034   1.544   0.725   5.909 -0.3895 -0.1892 -0.5764
 2524SOL    HW219035   1.631   0.821   5.976  0.3001  0.2066  0.1941
 2525SOL     OW19036   4.231   1.946   1.782  0.3077  0.4924 -0.2054
 2525SOL    HW119037   4.144   1.931   1.744  0.7234 -0.6949 -0.7025
 2525SOL    HW219038   4.222   1.925   1.875 -2.6047  0.7646 -0.4333
 2526SOL     OW19039   1.158   2.303  11.126  0.0456  0.0678  0.3990
 2526SOL    HW119040   1.123   2.215  11.139  1.3670 -0.3005  1.3689
 2526SOL    HW219041   1.220   2.300  11.198  0.7644  1.1117 -0.1675
 2527SOL     OW19042   4.339   1.950   3.089 -0.6021  0.3384 -0.1880
 2527SOL    HW119043   4.287   2.025   3.117 -1.9404  0.0202 -1.7752
 2527SOL    HW219044   4.425   1.991   3.089  1.2238 -3.4881  1.1043
 2528SOL     OW19045   0.337   2.532   6.683 -0.3509  0.0480 -0.0461
 2528SOL    HW119046   0.266   2.586   6.716  0.6935  0.4101  1.6095
 2528SOL    HW219047   0.297   2.505   6.600 -0.7984 -1.4374  0.6462
 2529SOL     OW19048   3.076   2.554  16.096  0.4244 -0.5433  0.4780
 2529SOL    HW119049   3.124   2.589  16.171 -0.2276  0.9686  0.1919
 2529SOL    HW219050   3.148   2.509  16.051  1.5732 -0.3823  2.1448
 2530SOL     OW19051   4.458   4.207   4.233  0.1702  0.3603 -0.1498
 2530SOL    HW119052   4.400   4.234   4.304  1.5220 -0.6828  1.3493
 2530SOL    HW219053   4.400   4.158   4.174  0.6148  2.1303 -2.0668
 2531SOL     OW19054   2.940   3.613  11.478  0.1636  0.0697  0.2399
 2531SOL    HW119055   2.906   3.532  11.515 -2.5309  1.6516  1.2133
 2531SOL    HW219056   2.861   3.664  11.494  0.1209 -0.4849  1.7888
 2532SOL     OW19057   4.436   2.748   3.878  0.3980  0.1217  0.2837
 2532SOL    HW119058   4.368   2.707   3.933 -0.0765 -0.1972 -0.5389
 2532SOL    HW219059   4.499   2.677   3.868 -1.9156 -1.7490 -0.9614
 2533SOL     OW19060   2.617   4.599   4.182 -0.2142 -0.4168  0.1650
 2533SOL    HW119061   2.657   4.685   4.170 -1.3602 -0.1427 -1.5831
 2533SOL    HW219062   2.530   4.621   4.152  0.0994  1.0969  0.3709
 2534SOL     OW19063   2.442   1.168   4.017 -0.1562  0.2868 -0.0370
 2534SOL    HW119064   2.351   1.172   4.046  0.0788  1.0570  0.5951
 2534SOL    HW219065   2.437   1.206   3.929 -0.4796  1.0186  0.2988
 2535SOL     OW19066   4.621   4.598   8.743  0.1450  0.4140 -0.7351
 2535SOL    HW119067   4.689   4.664   8.729  0.7283 -0.0722 -0.1867
 2535SOL    HW219068   4.577   4.597   8.658  2.0324  0.4293 -1.7097
 2536SOL     OW19069   2.802   2.071   6.135  0.4482  0.7690  0.5854
 2536SOL    HW119070   2.731   2.135   6.149 -2.5109 -2.5843  0.8403
 2536SOL    HW219071   2.873   2.133   6.119 -1.8553  3.1717 -0.3554
 2537SOL     OW19072   3.714   2.342  16.718  0.3476  0.5574  0.4519
 2537SOL    HW119073   3.619   2.354  16.721  0.1668 -0.5037 -1.4601
 2537SOL    HW219074   3.737   2.299  16.801  1.2807 -0.4296 -0.3258
 2538SOL     OW19075   0.081   3.440   6.091  0.0205  0.9930 -1.3038
 2538SOL    HW119076   0.070   3.477   6.003  0.7923  4.0518 -0.1022
 2538SOL    HW219077   4.714   3.413   6.112  1.2732 -0.3235  2.3655
 2539SOL     OW19078   2.527   0.694   3.383  0.2264  0.2471  0.7010
 2539SOL    HW119079   2.484   0.717   3.465  1.7796  2.5960  0.8531
 2539SOL    HW219080   2.607   0.742   3.404 -0.4961  1.3893  0.8202
 2540SOL     OW19081   3.529   0.369   5.346 -0.1669 -0.0088 -0.0871
 2540SOL    HW119082   3.507   0.295   5.405  0.3883 -0.2772 -0.2242
 2540SOL    HW219083   3.479   0.343   5.269  0.1233 -0.9517  0.0347
 2541SOL     OW19084   1.339   0.402  16.982 -0.0067 -0.5245 -0.1139
 2541SOL    HW119085   1.283   0.375  16.909  0.8881 -0.9907 -0.6162
 2541SOL    HW219086   1.318   0.496  16.977  1.2459 -0.2996 -1.3690
 2542SOL     OW19087   4.198   1.613   2.486  0.1611  0.5163 -0.6494
 2542SOL    HW119088   4.185   1.585   2.395  3.2931 -0.1457 -0.8974
 2542SOL    HW219089   4.119   1.666   2.494  1.2089  2.1411 -0.8991
 2543SOL     OW19090   4.257   4.641  15.146  0.0365  0.4956  0.2588
 2543SOL    HW119091   4.295   4.556  15.125 -0.6083  0.0228  1.0036
 2543SOL    HW219092   4.280   4.647  15.239  3.2320  1.6083 -0.5956
 2544SOL     OW19093   0.809   1.063  15.381 -0.5639  0.5700  0.0500
 2544SOL    HW119094   0.896   1.023  15.376 -1.3029 -1.1299  0.6772
 2544SOL    HW219095   0.759   1.004  15.325  1.3655 -0.1354 -0.9315
 2545SOL     OW19096   2.890   1.906  13.235 -0.3459  0.5891  0.0946
 2545SOL    HW119097   2.963   1.905  13.297  1.3694  0.2065 -1.9473
 2545SOL    HW219098   2.861   1.815  13.242 -3.3932  1.5188 -0.0543
 2546SOL     OW19099   0.640   2.050  15.059  0.0170  0.2342  0.5824
 2546SOL    HW119100   0.618   2.025  14.969 -1.2510  0.1521  0.9150
 2546SOL    HW219101   0.653   2.143  15.043 -0.1923 -0.0099 -1.0101
 2547SOL     OW19102   1.976   1.017   4.756  0.6408 -0.4138 -0.4202
 2547SOL    HW119103   1.954   0.983   4.669  0.7656 -0.8198 -0.2912
 2547SOL    HW219104   2.057   0.968   4.771  0.6484 -0.5583 -0.9320
 2548SOL     OW19105   3.953   3.287   6.710 -0.6991 -0.1281  0.2997
 2548SOL    HW119106   3.933   3.194   6.701 -0.5734 -0.0154 -1.1087
 2548SOL    HW219107   3.886   3.322   6.651 -0.9718 -1.0243  0.0687
 2549SOL     OW19108   4.063   1.354   6.311  0.7554 -0.8007  0.1128
 2549SOL    HW119109   4.032   1.407   6.385  1.8086 -0.4109  0.2721
 2549SOL    HW219110   4.097   1.279   6.359  0.1406 -0.6526  0.7854
 2550SOL     OW19111   3.433   0.365   1.326 -0.1804  0.3339  0.0489
 2550SOL    HW119112   3.467   0.278   1.306 -0.4613 -0.0326  1.1789
 2550SOL    HW219113   3.405   0.405   1.244  0.5791  2.6779  0.9277
 2551SOL     OW19114   4.711   4.687   2.151  0.4638  0.2280  0.1442
 2551SOL    HW119115   4.616   4.679   2.156  0.3241  3.9830  3.7809
 2551SOL    HW219116   0.018   4.660   2.064  2.3117  1.3040  0.4406
 2552SOL     OW19117   2.456   2.859  17.158 -0.1494  0.0232 -0.4168
 2552SOL    HW119118   2.510   2.864  17.237 -3.2177 -2.1294  1.8653
 2552SOL    HW219119   2.449   2.951  17.133  0.8424  0.5818  1.3556
 2553SOL     OW19120   3.636   3.985  16.982 -0.0432 -0.5367  0.0040
 2553SOL    HW119121   3.549   3.955  16.958  0.0176  0.4929 -1.5397
 2553SOL    HW219122   3.620   4.014  17.072 -1.3927  1.2141 -0.7759
 2554SOL     OW19123   0.987   1.508   2.767 -0.1549  0.4761 -0.0714
 2554SOL    HW119124   1.056   1.449   2.799 -1.2972 -0.1391  1.2657
 2554SOL    HW219125   1.024   1.523   2.680  0.8899 -2.5061 -0.1420
 2555SOL     OW19126   3.357   3.018  16.515  0.7565  0.1834  0.2331
 2555SOL    HW119127   3.312   3.097  16.485 -0.5417  0.1068  1.9552
 2555SOL    HW219128   3.432   3.046  16.567  1.0960 -0.2986  0.0031
 2556SOL     OW19129   0.404   1.927   7.045  0.1362  0.7393  0.0267
 2556SOL    HW119130   0.431   1.974   6.966  3.5612 -0.5163  0.4880
 2556SOL    HW219131   0.311   1.923   7.023  0.0945  1.0112  0.1524
 2557SOL     OW19132   3.820   3.569   5.266  0.6151 -0.1351  0.3069
 2557SOL    HW119133   3.757   3.529   5.326  0.1912  0.6865  0.4169
 2557SOL    HW219134   3.763   3.624   5.212 -0.7423 -0.0940  1.7867
 2558SOL     OW19135   4.484   0.403   5.347  0.3838 -0.4434  0.5398
 2558SOL    HW119136   4.565   0.453   5.359  1.6827 -3.2438  3.5310
 2558SOL    HW219137   4.411   0.462   5.332 -0.2285 -1.0862  0.9543
 2559SOL     OW19138   1.329   2.995  12.997 -0.6454 -0.4545 -0.0248
 2559SOL    HW119139   1.320   3.082  12.958  0.5482  0.8632  2.6358
 2559SOL    HW219140   1.370   2.960  12.918  1.7834 -0.7497  1.4015
 2560SOL     OW19141   2.107   1.409   8.849  0.1635 -0.3058  0.2844
 2560SOL    HW119142   2.137   1.466   8.778 -0.0605 -0.3310  0.1712
 2560SOL    HW219143   2.186   1.364   8.880  0.5107 -2.2186 -3.3972
 2561SOL     OW19144   0.877   0.817   8.857 -0.3809 -0.5293  0.3388
 2561SOL    HW119145   0.956   0.771   8.828  0.4803  0.3862  1.2087
 2561SOL    HW219146   0.811   0.808   8.789 -2.1577 -0.4238  2.0332
 2562SOL     OW19147   1.527   0.926   8.522 -0.1747 -0.0308  0.2377
 2562SOL    HW119148   1.493   1.001   8.571 -0.1186 -0.2691  0.6407
 2562SOL    HW219149   1.450   0.881   8.490 -1.1141  1.3651  0.5198
 2563SOL     OW19150   0.701   3.989   9.575 -0.0511 -0.2132  0.1013
 2563SOL    HW119151   0.740   3.906   9.604 -0.3680  0.0528  1.2819
 2563SOL    HW219152   0.765   4.015   9.509  0.6766  2.3127  1.7987
 2564SOL     OW19153   3.948   4.641   8.212  0.0200 -0.4512  0.4456
 2564SOL    HW119154   4.008   4.579   8.172  1.7934  1.9079 -0.5825
 2564SOL    HW219155   3.983   4.645   8.301  0.6523 -2.1585  0.2658
 2565SOL     OW19156   1.343   2.679   4.027  0.2850  0.5213 -0.2455
 2565SOL    HW119157   1.403   2.754   4.030 -0.1927  0.9132 -0.5082
 2565SOL    HW219158   1.259   2.726   4.026 -0.2783 -0.5310 -1.1259
 2566SOL     OW19159   3.054   3.136  14.440 -0.1450 -0.0695  0.9645
 2566SOL    HW119160   3.035   3.083  14.363  0.0511 -1.8395  2.1335
 2566SOL    HW219161   3.140   3.108  14.472  0.3685 -0.4272 -0.7486
 2567SOL     OW19162   3.338   0.046  13.522 -0.4475 -0.2074  0.0837
 2567SOL    HW119163   3.354   0.094  13.603 -0.6788  2.4909 -1.4536
 2567SOL    HW219164   3.270   0.104  13.487 -1.0091 -1.1208 -0.3316
 2568SOL     OW19165   1.324   2.140  13.266  0.1188  0.3808  0.6181
 2568SOL    HW119166   1.349   2.051  13.292 -0.7341  0.4485  1.6486
 2568SOL    HW219167   1.330   2.183  13.351  0.8213  2.9011 -0.7009
 2569SOL     OW19168   1.905   0.197   6.628  0.0652  0.3964 -0.5018
 2569SOL    HW119169   1.907   0.228   6.719  0.3314 -2.1776  0.3614
 2569SOL    HW219170   1.827   0.236   6.588 -0.4575  0.0214  0.1446
 2570SOL     OW19171   0.996   3.665   8.655 -0.0791 -0.1977 -0.1387
 2570SOL    HW119172   0.982   3.677   8.749 -1.2287 -1.8687 -0.0964
 2570SOL    HW219173   1.005   3.756   8.627 -0.5119  0.3750  1.5982
 2571SOL     OW19174   1.238   0.977  15.636 -0.0898 -0.3504 -0.0911
 2571SOL    HW119175   1.289   1.017  15.705  1.1200 -0.9958 -0.6073
 2571SOL    HW219176   1.303   0.965  15.566 -0.9970 -0.7264 -0.8820
 2572SOL     OW19177   2.340   1.490   8.270  0.3730  0.3686 -0.4201
 2572SOL    HW119178   2.360   1.547   8.344  0.4001 -0.8105  0.4900
 2572SOL    HW219179   2.351   1.548   8.195  4.2979 -0.1046 -0.1906
 2573SOL     OW19180   4.488   3.102   9.673 -0.0111 -0.1847 -0.3163
 2573SOL    HW119181   4.448   3.168   9.729 -1.0424 -0.0910 -1.1825
 2573SOL    HW219182   4.415   3.082   9.616 -2.0769  2.3268  1.4400
 2574SOL     OW19183   1.565   1.841   7.287  0.0174  0.0339 -0.0625
 2574SOL    HW119184   1.579   1.903   7.216  1.6713 -0.1850  0.0714
 2574SOL    HW219185   1.470   1.829   7.276 -0.2321  0.4416  1.6903
 2575SOL     OW19186   4.051   2.329   2.022  0.2299 -0.1002  0.0367
 2575SOL    HW119187   4.090   2.350   2.107 -0.8101 -1.7904  0.9226
 2575SOL    HW219188   4.135   2.311   1.979  0.9096  1.6277  0.6332
 2576SOL     OW19189   3.188   1.748  14.395 -0.0564  0.0686 -0.5109
 2576SOL    HW119190   3.260   1.786  14.446 -1.4887  4.0438 -1.4643
 2576SOL    HW219191   3.193   1.654  14.413  1.1296 -0.0213 -1.3286
 2577SOL     OW19192   0.627   1.923  14.771  0.5868 -0.1798 -0.4215
 2577SOL    HW119193   0.689   1.926  14.698  1.2596  0.3410  0.1627
 2577SOL    HW219194   0.544   1.915  14.725 -0.1602  2.0929  0.5348
 2578SOL     OW19195   2.754   0.003   0.436  0.4324 -0.0576  0.3301
 2578SOL    HW119196   2.727   4.657   0.374 -1.6656 -0.2835  1.4801
 2578SOL    HW219197   2.687   4.711   0.503 -0.6401 -0.9534 -0.9199
 2579SOL     OW19198   4.425   0.484  16.061 -0.0096 -0.3634  0.0213
 2579SOL    HW119199   4.488   0.554  16.078  1.7484 -1.3035 -2.6587
 2579SOL    HW219200   4.463   0.412  16.112 -1.4575 -1.6449 -0.7174
 2580SOL     OW19201   2.678   2.797   5.986  0.1109  0.0326 -0.9082
 2580SOL    HW119202   2.744   2.797   5.917 -0.3372  0.8939 -1.3243
 2580SOL    HW219203   2.624   2.870   5.956 -1.4961 -1.3522 -1.3720
 2581SOL     OW19204   1.237   3.648   8.954  0.0089  0.1410  0.0044
 2581SOL    HW119205   1.285   3.724   8.921 -0.6259  0.6275  0.2172
 2581SOL    HW219206   1.215   3.679   9.042  2.1997  0.6858  0.3518
 2582SOL     OW19207   3.709   0.409   8.313 -0.3578  0.5662 -0.2134
 2582SOL    HW119208   3.656   0.352   8.257  0.4314  1.8141 -2.2214
 2582SOL    HW219209   3.677   0.386   8.400 -3.1479  0.7920 -1.1774
 2583SOL     OW19210   0.416   3.645   0.301 -0.4093  0.1317 -0.2352
 2583SOL    HW119211   0.326   3.627   0.327 -0.0171 -1.3806  0.0602
 2583SOL    HW219212   0.440   3.576   0.239  0.9439  0.5409 -0.1740
 2584SOL     OW19213   2.338   2.359   6.800 -0.0313  0.1757 -0.2572
 2584SOL    HW119214   2.392   2.281   6.786  3.6442  2.2326  2.4558
 2584SOL    HW219215   2.354   2.413   6.722  1.2483 -0.2097 -0.2645
 2585SOL     OW19216   1.981   4.508   4.033  0.4126 -0.5702  0.0182
 2585SOL    HW119217   1.937   4.591   4.054  1.3700 -0.5119  1.8295
 2585SOL    HW219218   2.025   4.531   3.951 -0.6835  3.1827  0.4521
 2586SOL     OW19219   0.804   1.578   7.686  0.1711  0.0791 -0.0643
 2586SOL    HW119220   0.869   1.597   7.753 -1.3804 -3.4159  2.4623
 2586SOL    HW219221   0.742   1.519   7.729 -0.3338 -0.1642 -1.1153
 2587SOL     OW19222   3.763   0.746   6.436 -0.1725  0.0766 -0.5971
 2587SOL    HW119223   3.750   0.654   6.413  0.2751  0.4340 -2.2847
 2587SOL    HW219224   3.745   0.781   6.349 -0.1511 -0.2233 -0.7223
 2588SOL     OW19225   4.029   3.062   7.828  0.0076 -0.2212 -0.2086
 2588SOL    HW119226   4.117   3.025   7.828  0.1158  0.0411  1.6132
 2588SOL    HW219227   4.017   3.080   7.735  2.0678  1.2756 -0.1850
 2589SOL     OW19228   0.085   0.064   8.730 -0.5657 -0.3252 -0.1011
 2589SOL    HW119229   0.178   0.068   8.707 -0.6145  2.0885  0.0692
 2589SOL    HW219230   0.086   0.081   8.824 -1.5510  3.4805 -0.7472
 2590SOL     OW19231   2.726   2.381   4.156  0.2012  0.0742  0.3431
 2590SOL    HW119232   2.722   2.345   4.245  1.3117  0.0017  0.3749
 2590SOL    HW219233   2.722   2.301   4.104  0.2959  0.9056 -0.9145
 2591SOL     OW19234   2.796   4.265   5.175 -0.0803 -0.3758  0.0534
 2591SOL    HW119235   2.836   4.179   5.190  1.0892  0.2083  0.3053
 2591SOL    HW219236   2.867   4.304   5.124  0.1461  0.3441  0.9230
 2592SOL     OW19237   3.101   4.191  10.634 -0.0084 -0.1691 -0.0437
 2592SOL    HW119238   3.009   4.187  10.608  0.2632  2.4155 -1.3450
 2592SOL    HW219239   3.096   4.132  10.709 -0.9978 -1.3347 -1.0260
 2593SOL     OW19240   3.263   1.787   5.676  0.3896 -0.3582 -0.2983
 2593SOL    HW119241   3.245   1.734   5.599 -0.4172 -0.2183 -0.2023
 2593SOL    HW219242   3.349   1.826   5.659 -1.0030  1.1748 -3.7519
 2594SOL     OW19243   3.475   4.453   7.306  0.6581  0.2095 -0.0901
 2594SOL    HW119244   3.533   4.385   7.272  0.2172 -0.3631  0.3137
 2594SOL    HW219245   3.394   4.432   7.261 -0.4847 -0.5780  2.3532
 2595SOL     OW19246   3.231   1.887   6.801  0.1290 -0.1880 -0.2244
 2595SOL    HW119247   3.262   1.876   6.711  1.1586  1.6965 -0.0859
 2595SOL    HW219248   3.136   1.891   6.789  0.3461  3.5660 -0.5972
 2596SOL     OW19249   1.229   2.440  17.068 -0.2900 -0.5398 -0.8842
 2596SOL    HW119250   1.249   2.507  17.134 -0.9922  0.0742 -1.2887
 2596SOL    HW219251   1.302   2.379  17.077 -0.4469 -0.7627 -1.1234
 2597SOL     OW19252   1.465   1.703   4.887  0.3946 -0.5938  0.0322
 2597SOL    HW119253   1.385   1.667   4.849  0.2938 -0.9736  0.6042
 2597SOL    HW219254   1.501   1.736   4.804 -0.0311 -0.9016 -0.2746
 2598SOL     OW19255   2.929   4.604  15.546 -0.0460 -0.6474  0.2355
 2598SOL    HW119256   2.937   4.658  15.468  0.0756 -2.3484 -0.9211
 2598SOL    HW219257   2.885   4.668  15.602 -0.1631  0.3288 -0.9883
 2599SOL     OW19258   3.763   1.960  15.486  0.0831 -0.2293 -0.4466
 2599SOL    HW119259   3.684   1.906  15.487 -0.1371  0.2411  3.7153
 2599SOL    HW219260   3.768   1.971  15.580 -1.5402 -3.6663  0.0453
 2600SOL     OW19261   4.335   4.695   4.484 -0.6251 -0.3112  0.4221
 2600SOL    HW119262   4.427   4.671   4.469 -0.6966 -1.2099  1.3967
 2600SOL    HW219263   4.335   4.683   4.579 -1.0820  1.4722  0.6353
 2601SOL     OW19264   0.692   0.498   5.420 -0.6509 -0.3508  0.0574
 2601SOL    HW119265   0.642   0.573   5.452 -0.1763 -0.7916  1.8301
 2601SOL    HW219266   0.782   0.527   5.436 -0.3627 -1.6625  0.7597
 2602SOL     OW19267   0.563   2.039   6.256 -0.1446 -0.8192  0.2322
 2602SOL    HW119268   0.655   2.016   6.247 -0.6395 -1.4000 -3.4087
 2602SOL    HW219269   0.535   1.983   6.328 -3.1034 -0.5964 -0.7418
 2603SOL     OW19270   3.016   0.617   7.909  0.1770 -0.0058  0.0446
 2603SOL    HW119271   3.064   0.544   7.948 -1.1253 -0.7713  0.2059
 2603SOL    HW219272   3.074   0.649   7.840 -0.6691 -0.3709 -0.8354
 2604SOL     OW19273   2.497   2.061   0.107  0.4302 -0.0639 -0.0839
 2604SOL    HW119274   2.519   1.981   0.156 -0.4761  0.2302  0.8019
 2604SOL    HW219275   2.546   2.128   0.154 -0.1965 -0.1549  0.7115
 2605SOL     OW19276   2.632   2.267   1.313 -0.0901  0.7348 -0.4264
 2605SOL    HW119277   2.561   2.203   1.321  0.1464  0.3231 -1.5712
 2605SOL    HW219278   2.682   2.234   1.239  0.9352  0.4338  0.4067
 2606SOL     OW19279   4.010   4.068  14.552 -0.0554 -0.1221  0.1587
 2606SOL    HW119280   4.062   3.990  14.571 -0.4679 -0.6058 -0.6550
 2606SOL    HW219281   4.049   4.136  14.606  1.9137  0.3456 -1.8325
 2607SOL     OW19282   0.875   0.734   2.297  0.1884 -0.2974  0.8182
 2607SOL    HW119283   0.799   0.774   2.254  1.8480  1.2443 -0.6943
 2607SOL    HW219284   0.834   0.654   2.329 -0.6985 -0.0951  0.2076
 2608SOL     OW19285   2.432   2.312  16.309  0.2276  0.3095 -0.0023
 2608SOL    HW119286   2.493   2.265  16.252  2.2459  1.7907  0.9552
 2608SOL    HW219287   2.353   2.264  16.284  2.0524 -2.5350 -0.2881
 2609SOL     OW19288   1.530   1.570   1.709 -0.3373  0.3000 -0.7731
 2609SOL    HW119289   1.501   1.507   1.643  0.5349  0.2118 -1.0790
 2609SOL    HW219290   1.570   1.512   1.774 -0.3412 -0.1963 -1.2146
 2610SOL     OW19291   1.695   1.842  14.148  0.1912  0.5388 -0.2624
 2610SOL    HW119292   1.608   1.828  14.112 -0.1315  0.4229  0.5437
 2610SOL    HW219293   1.689   1.931  14.183 -1.4728  1.3567 -2.6709
 2611SOL     OW19294   2.475   2.306  16.571 -0.8307 -0.7130  0.3770
 2611SOL    HW119295   2.415   2.362  16.621 -1.2149  0.0104 -0.9008
 2611SOL    HW219296   2.438   2.310  16.483  1.5656 -1.8619 -0.6682
 2612SOL     OW19297   1.944   2.131   4.346 -0.0694 -0.0126 -0.0078
 2612SOL    HW119298   1.874   2.072   4.316  0.3485 -1.1369  1.2054
 2612SOL    HW219299   1.916   2.210   4.301 -1.9136 -0.0029  1.1705
 2613SOL     OW19300   0.047   1.652   7.801 -0.2961 -0.0464 -0.2939
 2613SOL    HW119301   0.014   1.723   7.747  0.7835 -0.0582 -0.9718
 2613SOL    HW219302   0.114   1.681   7.862  1.5515 -1.6507 -1.5437
 2614SOL     OW19303   3.408   4.355   3.043  0.2086 -0.0391  0.3400
 2614SOL    HW119304   3.391   4.412   3.118 -0.0192 -0.7793  0.8591
 2614SOL    HW219305   3.329   4.302   3.054  0.7305 -0.5224  1.7700
 2615SOL     OW19306   4.278   4.004   3.361 -0.3351  0.2791  0.2928
 2615SOL    HW119307   4.215   4.069   3.328 -2.6368 -1.9994  0.1549
 2615SOL    HW219308   4.228   3.942   3.415 -1.6949  0.6082 -0.5739
 2616SOL     OW19309   3.931   2.025   6.976 -0.0762  0.7175  0.5232
 2616SOL    HW119310   3.966   2.090   7.038  0.1657  0.3434  0.7850
 2616SOL    HW219311   4.006   2.018   6.916 -1.9155  2.0017 -1.8850
 2617SOL     OW19312   1.123   1.252  15.938  0.3434 -0.0510 -0.0417
 2617SOL    HW119313   1.084   1.167  15.958  2.8284 -1.0517  0.5756
 2617SOL    HW219314   1.155   1.283  16.023 -2.2237  3.9697 -0.5075
 2618SOL     OW19315   3.033   3.195   8.987  0.3314 -0.8311  0.2679
 2618SOL    HW119316   3.080   3.112   8.997 -0.2385 -1.2581 -0.4913
 2618SOL    HW219317   2.948   3.150   8.985 -0.2915  0.3915 -0.4235
 2619SOL     OW19318   1.012   4.118   9.722  0.4330 -0.6969 -0.3232
 2619SOL    HW119319   1.098   4.156   9.705  0.0894 -0.7428 -2.1999
 2619SOL    HW219320   0.961   4.193   9.693  1.4762 -0.2556 -1.0250
 2620SOL     OW19321   3.642   0.920   4.577  0.3586  0.0744  0.3639
 2620SOL    HW119322   3.680   0.930   4.665 -0.5879 -1.2007  0.9266
 2620SOL    HW219323   3.551   0.928   4.603  0.0859  0.1042 -0.6178
 2621SOL     OW19324   0.184   0.760   7.630 -0.6027 -0.7704 -0.1970
 2621SOL    HW119325   0.135   0.798   7.702  1.7894  0.9880  0.4862
 2621SOL    HW219326   0.250   0.826   7.608 -1.1957 -0.6204 -1.5051
 2622SOL     OW19327   2.984   1.076   7.289 -0.5685  0.1993 -0.7585
 2622SOL    HW119328   3.006   0.983   7.283 -2.0269 -0.1104 -1.3294
 2622SOL    HW219329   3.037   1.111   7.218  0.8350 -0.1326  0.1131
 2623SOL     OW19330   4.241   0.411   3.423 -0.3366  0.1000 -0.6390
 2623SOL    HW119331   4.316   0.397   3.481 -1.0574  0.2852  0.3461
 2623SOL    HW219332   4.285   0.404   3.338  0.4277  0.8069 -0.2958
 2624SOL     OW19333   4.188   1.570   6.574  0.2134  0.1384  0.0132
 2624SOL    HW119334   4.100   1.556   6.541  0.8297 -2.6286 -0.4485
 2624SOL    HW219335   4.213   1.479   6.590 -1.6518 -0.1467  1.3060
 2625SOL     OW19336   2.306   0.196  12.920  0.3563  0.0473  0.6706
 2625SOL    HW119337   2.339   0.171  12.833  2.9485 -1.7680  2.1746
 2625SOL    HW219338   2.385   0.245  12.942  1.3433 -0.4669 -1.7243
 2626SOL     OW19339   3.527   2.947   7.608  0.0055 -0.3468  0.3541
 2626SOL    HW119340   3.437   2.946   7.641  0.0143  0.5929  0.3927
 2626SOL    HW219341   3.531   2.882   7.538 -0.1419 -0.1136  0.1319
 2627SOL     OW19342   3.189   2.179   8.443 -0.1224 -0.4475 -0.0443
 2627SOL    HW119343   3.214   2.271   8.431 -1.7888  0.1920  1.3754
 2627SOL    HW219344   3.159   2.147   8.359  1.0195 -1.7704  0.0541
 2628SOL     OW19345   2.840   3.849   3.541 -0.1046 -0.5647  0.1443
 2628SOL    HW119346   2.759   3.799   3.533 -0.4671  0.0899 -0.2757
 2628SOL    HW219347   2.849   3.884   3.630 -1.1505  2.0027 -0.7306
 2629SOL     OW19348   1.915   1.629  13.462 -0.0036 -0.1690  0.4980
 2629SOL    HW119349   1.952   1.706  13.507 -1.3727 -0.1067  1.5206
 2629SOL    HW219350   1.923   1.558  13.526  0.6466 -0.8138 -0.3012
 2630SOL     OW19351   4.703   3.546   9.309  0.0497  0.0319  0.1499
 2630SOL    HW119352   0.024   3.622   9.349  1.3382 -1.1960  1.0613
 2630SOL    HW219353   4.696   3.494   9.389 -0.3462  1.0096  0.7526
 2631SOL     OW19354   2.781   4.002  17.352 -0.1282 -0.3245 -0.4815
 2631SOL    HW119355   2.874   3.979  17.344  0.0342  0.3118 -0.4870
 2631SOL    HW219356   2.761   3.987  17.260 -1.4899 -0.5949 -0.1370
 2632SOL     OW19357   0.061   2.511   5.623 -0.6292  0.3926  0.2724
 2632SOL    HW119358   0.030   2.586   5.673 -0.6824  1.2533 -1.0536
 2632SOL    HW219359   0.015   2.434   5.657 -0.9909 -0.0318 -1.1969
 2633SOL     OW19360   2.053   2.002   8.385 -0.1978  0.4274 -0.2188
 2633SOL    HW119361   1.978   2.031   8.333  0.0293  0.3312 -0.6006
 2633SOL    HW219362   2.023   1.912   8.398 -1.4968  0.9802  0.6627
 2634SOL     OW19363   1.800   1.420  10.868  0.4860  0.4018 -0.3799
 2634SOL    HW119364   1.782   1.331  10.896  1.6921  0.0412 -0.7616
 2634SOL    HW219365   1.893   1.425  10.891  0.4492 -1.8782  0.1763
 2635SOL     OW19366   2.947   1.404   3.643  0.2326  0.2568  0.2383
 2635SOL    HW119367   2.978   1.351   3.716 -4.6349 -0.6233  1.7009
 2635SOL    HW219368   2.870   1.358   3.607 -1.2718  1.4052  2.0084
 2636SOL     OW19369   2.297   2.101   8.067 -0.1352  0.1879 -0.3924
 2636SOL    HW119370   2.349   2.138   8.138  0.4994 -0.5846 -0.4570
 2636SOL    HW219371   2.354   2.030   8.036 -0.1084  0.8227 -1.8277
 2637SOL     OW19372   4.426   2.646   8.642  0.1746  0.4904  0.3291
 2637SOL    HW119373   4.498   2.588   8.617 -0.2183  0.1922 -0.1136
 2637SOL    HW219374   4.423   2.645   8.738 -2.2467 -1.0072  0.2357
 2638SOL     OW19375   4.088   1.237   5.562 -0.2548  0.2409  0.7757
 2638SOL    HW119376   4.081   1.285   5.644  1.2821 -0.8250  1.5271
 2638SOL    HW219377   4.183   1.241   5.551 -0.3738  2.8825  0.7033
 2639SOL     OW19378   3.116   4.052  10.386 -0.4363  0.4162 -0.0062
 2639SOL    HW119379   3.174   4.083  10.456 -0.1864 -0.1760  0.0472
 2639SOL    HW219380   3.043   4.113  10.389 -0.8540 -0.1106  0.5270
 2640SOL     OW19381   3.598   0.702   7.355 -0.2314 -0.0390  0.3364
 2640SOL    HW119382   3.691   0.679   7.350 -0.5130 -0.9340 -0.7675
 2640SOL    HW219383   3.561   0.624   7.397  0.2799 -1.1701 -1.2994
 2641SOL     OW19384   3.908   2.457  13.440 -0.1303 -0.4638  0.6647
 2641SOL    HW119385   3.847   2.386  13.460 -1.1422 -0.3114 -1.8825
 2641SOL    HW219386   3.948   2.464  13.527 -0.3657  0.5759  0.6881
 2642SOL     OW19387   0.560   0.502   4.010 -0.3071  0.1484  0.3351
 2642SOL    HW119388   0.476   0.482   4.051 -0.7773  0.5975 -0.3918
 2642SOL    HW219389   0.569   0.594   4.036  0.0729  1.0987 -3.1191
 2643SOL     OW19390   3.358   3.211  12.616  0.0564 -0.6763  0.1984
 2643SOL    HW119391   3.386   3.124  12.646  0.3167 -0.4797  0.5293
 2643SOL    HW219392   3.344   3.194  12.523  3.4136  0.0285 -0.4695
 2644SOL     OW19393   0.146   4.007  16.437 -0.2540 -0.2788 -0.6784
 2644SOL    HW119394   0.085   3.967  16.375  0.5537  1.7502 -2.7915
 2644SOL    HW219395   0.154   4.093  16.397 -1.8599 -0.3780 -1.1905
 2645SOL     OW19396   2.867   1.537   6.281  0.1760  0.4262 -0.0647
 2645SOL    HW119397   2.780   1.530   6.320 -0.1253 -2.6605 -1.3108
 2645SOL    HW219398   2.876   1.632   6.282 -0.2794  0.4631  0.4754
 2646SOL     OW19399   0.564   3.453   5.268  0.3164  0.4435 -0.2803
 2646SOL    HW119400   0.518   3.423   5.346  1.7648  0.3944  0.5403
 2646SOL    HW219401   0.506   3.442   5.193  0.3891  0.7179 -0.3786
 2647SOL     OW19402   0.191   4.260   2.508 -0.0420  0.4209  0.7095
 2647SOL    HW119403   0.242   4.313   2.447 -0.8926  0.0227 -0.3290
 2647SOL    HW219404   0.203   4.302   2.593 -0.1800 -1.3595  1.6278
 2648SOL     OW19405   0.541   3.762   0.632 -0.6251  0.0874 -0.2749
 2648SOL    HW119406   0.565   3.841   0.679 -3.6665  1.6926 -1.4241
 2648SOL    HW219407   0.485   3.728   0.701 -1.7500  1.8549 -0.3078
 2649SOL     OW19408   4.362   1.582   6.289 -0.3224 -0.4914  0.0432
 2649SOL    HW119409   4.381   1.676   6.290 -0.7899 -0.3720 -1.6236
 2649SOL    HW219410   4.292   1.577   6.354 -0.5877  1.4754 -0.0695
 2650SOL     OW19411   1.651   4.639   9.694 -0.2709  0.0543 -0.2655
 2650SOL    HW119412   1.667   4.623   9.787  0.6725  0.7503 -0.3120
 2650SOL    HW219413   1.720   4.695   9.658 -0.6920 -0.0872 -1.2777
 2651SOL     OW19414   3.218   1.648  16.044 -0.0808  0.1038 -0.2921
 2651SOL    HW119415   3.129   1.614  16.032  0.3487 -1.4883  1.0173
 2651SOL    HW219416   3.227   1.717  15.978  0.4224  0.1788 -0.1439
 2652SOL     OW19417   0.223   2.123  17.419 -0.1651  0.0659 -0.1280
 2652SOL    HW119418   0.132   2.137  17.444 -0.1380 -0.3350  0.1995
 2652SOL    HW219419   0.274   2.161  17.490 -0.9590  1.0201 -0.0770
 2653SOL     OW19420   0.698   2.523   5.707  0.2429  0.1821  0.2354
 2653SOL    HW119421   0.763   2.492   5.770 -0.4848  1.2212  1.5080
 2653SOL    HW219422   0.721   2.486   5.622 -2.7983  0.4665 -0.7031
 2654SOL     OW19423   4.690   0.629   4.210  0.0138  0.0369 -0.2287
 2654SOL    HW119424   4.691   0.619   4.115 -1.8735  0.7053 -0.3284
 2654SOL    HW219425   4.596   0.646   4.219  0.1943  0.6941  0.4991
 2655SOL     OW19426   3.225   2.406   5.265 -0.2761 -0.0927 -0.1873
 2655SOL    HW119427   3.243   2.400   5.172 -0.6350  0.3805 -0.2929
 2655SOL    HW219428   3.141   2.451   5.254 -0.4593 -0.2255  0.6223
 2656SOL     OW19429   3.083   4.317   5.395 -0.1730 -0.5061 -0.2311
 2656SOL    HW119430   3.124   4.363   5.468 -1.0783  3.4426 -2.2368
 2656SOL    HW219431   3.069   4.237   5.446 -1.9527 -0.1529 -0.1601
 2657SOL     OW19432   3.711   1.754   3.039 -0.0813  0.4465 -0.0032
 2657SOL    HW119433   3.772   1.754   2.965 -1.0665 -0.0030 -0.8173
 2657SOL    HW219434   3.628   1.752   2.992  0.3239  0.7190 -0.7369
 2658SOL     OW19435   0.830   3.939  17.442  0.1046  0.2553  0.5180
 2658SOL    HW119436   0.894   3.959  17.510 -0.7640  1.3783  1.0112
 2658SOL    HW219437   0.831   4.019  17.390  0.9334  1.1829  1.9636
 2659SOL     OW19438   0.343   0.954   7.557  0.0424 -0.2387 -0.5831
 2659SOL    HW119439   0.300   1.029   7.600  0.3229  0.8736 -2.2669
 2659SOL    HW219440   0.423   1.000   7.534 -0.2363  0.8787  0.6961
 2660SOL     OW19441   3.757   0.451   3.412 -0.2055  0.3905  0.0375
 2660SOL    HW119442   3.703   0.378   3.381  0.1883 -0.4809  1.4044
 2660SOL    HW219443   3.742   0.507   3.336  1.0891 -0.1620 -0.6271
 2661SOL     OW19444   2.848   3.748   8.728 -0.3154 -0.0572  0.2537
 2661SOL    HW119445   2.909   3.821   8.719  0.1435 -0.4903 -0.1352
 2661SOL    HW219446   2.889   3.699   8.799  0.5747 -1.1691 -1.0271
 2662SOL     OW19447   0.554   3.461   9.577 -0.5023 -0.2157  0.1896
 2662SOL    HW119448   0.621   3.437   9.640 -2.0041  0.9723  2.2722
 2662SOL    HW219449   0.583   3.542   9.534  0.8945 -2.0609 -2.3797
 2663SOL     OW19450   2.501   3.272   3.158  0.0090  0.0820 -0.2336
 2663SOL    HW119451   2.406   3.267   3.144 -0.0318  2.1722 -0.6250
 2663SOL    HW219452   2.494   3.272   3.253  0.0891  0.1805 -0.2283
 2664SOL     OW19453   0.329   2.998   7.044 -0.2095 -0.0429 -0.2523
 2664SOL    HW119454   0.272   3.014   6.969 -0.8657 -0.3673  0.1784
 2664SOL    HW219455   0.409   2.963   7.004  0.6887  0.1484  1.3729
 2665SOL     OW19456   2.217   2.173   5.939  0.3396  0.1055  0.4931
 2665SOL    HW119457   2.142   2.218   5.900  1.0178  0.1344 -0.7560
 2665SOL    HW219458   2.262   2.145   5.859  0.4407  1.7419 -0.0360
 2666SOL     OW19459   4.391   0.936   5.627 -0.2189 -0.2541 -0.1086
 2666SOL    HW119460   4.368   1.014   5.576 -0.1043 -1.7598 -2.5078
 2666SOL    HW219461   4.439   0.894   5.555  0.8073  0.8009 -0.0335
 2667SOL     OW19462   2.806   3.979  15.347  0.3668 -0.4589 -0.4067
 2667SOL    HW119463   2.723   3.981  15.394  0.1713  1.1184 -0.8133
 2667SOL    HW219464   2.827   3.887  15.331  1.4404  0.1140 -2.2209
 2668SOL     OW19465   3.232   2.172   0.738  0.4965 -0.1410 -0.2627
 2668SOL    HW119466   3.236   2.216   0.823 -0.8771 -0.1352 -0.1985
 2668SOL    HW219467   3.317   2.184   0.695  1.1917 -2.8729  0.3588
 2669SOL     OW19468   1.271   1.477   4.874 -0.2014 -0.6007 -0.0523
 2669SOL    HW119469   1.343   1.479   4.811 -1.6190 -2.4153 -1.7134
 2669SOL    HW219470   1.207   1.432   4.821  0.1960 -1.6569  0.3543
 2670SOL     OW19471   4.357   2.882   1.901  0.5521  0.4518 -0.2797
 2670SOL    HW119472   4.424   2.820   1.873  0.5390  0.6023 -0.6512
 2670SOL    HW219473   4.296   2.816   1.934  0.0327  1.5051  0.8798
 2671SOL     OW19474   0.861   1.007   0.684  0.0871 -0.0636 -0.3862
 2671SOL    HW119475   0.938   0.950   0.689  1.1290  1.4654  1.3015
 2671SOL    HW219476   0.809   0.981   0.760 -1.3722 -0.8455 -1.6748
 2672SOL     OW19477   1.077   4.125  14.705  0.4075  0.5995  0.1707
 2672SOL    HW119478   1.087   4.205  14.653  2.9948  0.7136  0.8035
 2672SOL    HW219479   1.166   4.091  14.716 -0.0970 -0.9472 -0.6306
 2673SOL     OW19480   2.827   2.717  12.718  0.5097 -0.0213 -0.3607
 2673SOL    HW119481   2.857   2.641  12.668  0.1074 -1.2451  1.2500
 2673SOL    HW219482   2.733   2.703  12.734  0.2572  1.6426 -0.3978
 2674SOL     OW19483   0.144   1.237  10.667 -0.3894 -0.1429  0.1374
 2674SOL    HW119484   0.073   1.232  10.602  0.4843 -1.3037 -0.7155
 2674SOL    HW219485   0.105   1.190  10.742  1.6700 -1.4434  0.3910
 2675SOL     OW19486   2.437   4.667   2.296  0.1231 -0.1830 -0.6091
 2675SOL    HW119487   2.516   4.695   2.251  0.7416 -0.1564  0.4930
 2675SOL    HW219488   2.450   4.576   2.320 -0.8129 -0.6628 -1.9566
 2676SOL     OW19489   1.569   1.414   4.721 -0.3328  0.5880 -0.9074
 2676SOL    HW119490   1.588   1.485   4.660  1.6066  1.6159  0.8788
 2676SOL    HW219491   1.513   1.354   4.671 -1.3910  0.5534  0.3049
 2677SOL     OW19492   0.190   3.171   7.251  0.4824 -0.0395 -0.3163
 2677SOL    HW119493   0.192   3.105   7.182 -1.2322  0.4628 -0.8393
 2677SOL    HW219494   0.253   3.130   7.310 -1.3624 -5.8604 -2.4566
 2678SOL     OW19495   0.332   3.113  10.463  0.3372 -1.0035  1.0651
 2678SOL    HW119496   0.248   3.075  10.440  1.0540 -1.8679 -0.1429
 2678SOL    HW219497   0.323   3.152  10.550 -0.0444  1.8165 -0.2203
 2679SOL     OW19498   3.280   3.964   7.328 -0.2820  0.2056 -0.1473
 2679SOL    HW119499   3.229   4.039   7.298  1.5711  1.0717 -1.1502
 2679SOL    HW219500   3.264   3.917   7.246 -1.4806 -0.0138  0.2193
 2680SOL     OW19501   0.380   1.291   2.275  0.1187 -0.0172 -0.6866
 2680SOL    HW119502   0.446   1.226   2.299  0.0794 -0.0606 -0.6965
 2680SOL    HW219503   0.398   1.358   2.340 -3.1929 -1.3529  1.5661
 2681SOL     OW19504   1.800   1.034   8.687  0.3912 -0.3033 -0.1592
 2681SOL    HW119505   1.793   1.088   8.609 -3.8474 -0.7984 -0.0819
 2681SOL    HW219506   1.862   1.088   8.736  1.3619  1.1239 -2.9309
 2682SOL     OW19507   2.633   1.066   2.866  0.2796  0.3221  0.3919
 2682SOL    HW119508   2.574   0.990   2.865 -0.1049  0.6332 -0.2617
 2682SOL    HW219509   2.591   1.122   2.801 -1.7750 -1.5353  0.1247
 2683SOL     OW19510   1.977   0.778   8.949  0.4427  0.0247 -0.3711
 2683SOL    HW119511   1.993   0.829   8.869  1.0450 -1.8481 -1.4403
 2683SOL    HW219512   1.979   0.687   8.922 -0.3400 -0.6150  1.7811
 2684SOL     OW19513   2.467   3.254   4.163  0.0720  0.1373 -0.1391
 2684SOL    HW119514   2.487   3.311   4.237 -1.2099 -0.5014  0.7121
 2684SOL    HW219515   2.379   3.223   4.185  0.4054 -0.7343 -0.0296
 2685SOL     OW19516   4.322   3.610   8.547  0.2722  0.1108 -0.1469
 2685SOL    HW119517   4.250   3.610   8.484 -0.1624  2.5353  0.3585
 2685SOL    HW219518   4.292   3.557   8.621 -3.2841  0.5282 -1.3229
 2686SOL     OW19519   4.388   2.138   7.012 -0.0045  0.1487 -0.7986
 2686SOL    HW119520   4.480   2.163   7.005  0.4172 -0.9306  0.8220
 2686SOL    HW219521   4.394   2.049   7.047  1.0503  1.4155  2.2121
 2687SOL     OW19522   4.515   0.145   9.342 -0.3819  0.1424  0.1711
 2687SOL    HW119523   4.610   0.157   9.337 -0.4601  0.8009  0.3264
 2687SOL    HW219524   4.475   0.231   9.327 -0.7349  0.0831  0.7887
 2688SOL     OW19525   3.868   1.426   8.348  0.2455  0.2559  0.2493
 2688SOL    HW119526   3.869   1.383   8.262 -1.6965  1.7141 -0.5174
 2688SOL    HW219527   3.779   1.400   8.375 -0.1708  1.6212  0.1827
 2689SOL     OW19528   2.219   1.160   5.350 -0.3014 -0.2273  0.3665
 2689SOL    HW119529   2.307   1.194   5.364  0.4105 -1.7778 -0.3430
 2689SOL    HW219530   2.204   1.104   5.426  1.9249  1.1756  1.8018
 2690SOL     OW19531   2.289   1.638   2.273 -0.1548  0.3560 -0.3078
 2690SOL    HW119532   2.330   1.696   2.209  0.3279  1.0018  0.6004
 2690SOL    HW219533   2.305   1.549   2.243 -0.7935  0.6234 -1.4572
 2691SOL     OW19534   1.606   1.688   8.607  0.4703 -0.1373  0.4790
 2691SOL    HW119535   1.672   1.638   8.559  0.9468  2.2038 -1.2772
 2691SOL    HW219536   1.561   1.733   8.536  0.9654 -0.6634 -0.1654
 2692SOL     OW19537   3.260   3.360  12.370 -0.3248  0.3115  0.5284
 2692SOL    HW119538   3.256   3.451  12.400 -1.4904 -0.4070  2.5911
 2692SOL    HW219539   3.167   3.338  12.372 -0.4186  0.6559 -0.4748
 2693SOL     OW19540   0.650   0.126  10.869  0.2942  0.1125 -0.3183
 2693SOL    HW119541   0.618   0.037  10.875 -2.5999  1.3319  2.1195
 2693SOL    HW219542   0.737   0.126  10.828  0.5315 -0.5243  0.1877
 2694SOL     OW19543   1.147   0.291   3.779  0.1511  0.3558 -0.1661
 2694SOL    HW119544   1.188   0.325   3.859 -3.8480 -0.6528  2.3003
 2694SOL    HW219545   1.212   0.306   3.711  1.5322 -0.3249  0.9892
 2695SOL     OW19546   4.017   3.220  17.173 -0.0581  0.3738  0.1724
 2695SOL    HW119547   4.087   3.189  17.231 -0.8618  0.4653  1.1900
 2695SOL    HW219548   4.046   3.177  17.093  1.1311 -0.4081  1.0258
 2696SOL     OW19549   1.169   4.044   7.581 -0.5399  0.0410  0.3409
 2696SOL    HW119550   1.233   4.102   7.621 -2.7016  4.3111 -2.3299
 2696SOL    HW219551   1.108   4.022   7.651 -0.0649  1.0996  1.0815
 2697SOL     OW19552   1.905   2.557  16.880  0.4817  0.5141  0.0732
 2697SOL    HW119553   1.867   2.615  16.814 -0.0017  0.6061  0.4305
 2697SOL    HW219554   1.959   2.621  16.926  1.2672 -0.3227  0.3037
 2698SOL     OW19555   1.978   0.543   8.649  0.4953  0.5771 -0.0335
 2698SOL    HW119556   2.045   0.540   8.717  2.4767 -0.2494 -2.0230
 2698SOL    HW219557   1.908   0.487   8.682 -1.2639  3.1341  0.6085
 2699SOL     OW19558   3.567   2.675   1.269  0.0151  0.0178 -0.0051
 2699SOL    HW119559   3.663   2.674   1.264 -0.1151 -3.4348 -1.2302
 2699SOL    HW219560   3.561   2.665   1.364  2.3363 -0.3788  0.0989
 2700SOL     OW19561   0.876   0.612   0.919 -0.0102 -0.0743  0.0445
 2700SOL    HW119562   0.838   0.524   0.919  1.2238 -0.6023 -0.5569
 2700SOL    HW219563   0.919   0.621   1.005 -2.0847  0.1996  1.0543
 2701SOL     OW19564   0.509   0.032  13.624 -0.2046  0.3762  0.4259
 2701SOL    HW119565   0.549   0.109  13.585  0.2949 -0.2494 -0.2974
 2701SOL    HW219566   0.549   4.685  13.570 -0.5412  1.0459 -0.6831
 2702SOL     OW19567   3.817   4.520   2.721  0.3218 -0.0445 -0.7807
 2702SOL    HW119568   3.847   4.442   2.767 -2.5082 -1.5349 -1.4553
 2702SOL    HW219569   3.722   4.515   2.729  0.0378 -0.3515 -4.2337
 2703SOL     OW19570   4.495   4.529  13.174 -0.2547 -0.3794 -0.7539
 2703SOL    HW119571   4.533   4.594  13.233 -0.3583 -0.8960 -0.1254
 2703SOL    HW219572   4.401   4.539  13.187 -0.1955  0.4454 -0.9739
 2704SOL     OW19573   3.831   2.659   7.632 -0.1357 -0.5280 -0.5311
 2704SOL    HW119574   3.917   2.677   7.593 -1.2283  2.3214 -1.5670
 2704SOL    HW219575   3.779   2.675   7.553 -0.9187  1.3448  0.3865
 2705SOL     OW19576   2.211   3.329   6.581 -0.0854 -0.5424 -0.0597
 2705SOL    HW119577   2.265   3.253   6.602  0.5127 -0.2039 -0.3837
 2705SOL    HW219578   2.128   3.304   6.622  1.2269 -1.9537  1.7444
 2706SOL     OW19579   2.041   1.835   6.810  0.0430  0.3891  0.4200
 2706SOL    HW119580   1.976   1.872   6.869  0.4902 -0.8249  1.6834
 2706SOL    HW219581   2.112   1.899   6.800 -0.0933  0.4706 -0.0066
 2707SOL     OW19582   2.841   0.762   3.788 -0.0642  0.0578 -0.1891
 2707SOL    HW119583   2.851   0.733   3.697  1.7428  2.4489 -0.7791
 2707SOL    HW219584   2.828   0.857   3.779 -0.4466  0.0055 -0.1883
 2708SOL     OW19585   0.729   2.334   2.806 -0.2557 -0.3869 -0.3503
 2708SOL    HW119586   0.750   2.248   2.843 -1.2437  1.1173  3.6864
 2708SOL    HW219587   0.656   2.363   2.861 -0.1979  1.0429 -1.0362
 2709SOL     OW19588   1.881   1.181   4.504 -0.1592  0.0742 -0.1033
 2709SOL    HW119589   1.836   1.264   4.524 -0.2536 -0.1419  0.5987
 2709SOL    HW219590   1.852   1.152   4.418  1.1339 -0.0880 -0.4849
 2710SOL     OW19591   1.785   1.298   3.777 -0.1075 -0.3210  0.1577
 2710SOL    HW119592   1.704   1.281   3.729 -0.2479  0.4909  0.0912
 2710SOL    HW219593   1.821   1.373   3.730  0.2510  0.3996  1.5563
 2711SOL     OW19594   2.722   3.668  11.833  0.6963 -0.8040  0.4666
 2711SOL    HW119595   2.717   3.584  11.879  0.9608 -1.2354 -0.2960
 2711SOL    HW219596   2.720   3.650  11.739  2.2654 -2.4181  0.7515
 2712SOL     OW19597   1.229   3.526   8.601 -0.8697 -0.1612 -0.9029
 2712SOL    HW119598   1.223   3.450   8.658  1.4361 -0.8908 -1.6371
 2712SOL    HW219599   1.138   3.554   8.604 -0.2837  1.4655  2.0984
 2713SOL     OW19600   2.287   3.057   6.826  0.1991 -0.0940  0.3752
 2713SOL    HW119601   2.305   3.015   6.910  1.4865  0.1891  0.2540
 2713SOL    HW219602   2.310   3.143   6.863  0.8670 -0.1508  0.1075
 2714SOL     OW19603   4.274   0.716   0.522  0.2290 -0.1582 -0.1280
 2714SOL    HW119604   4.255   0.684   0.434 -0.9309  0.9159 -0.2682
 2714SOL    HW219605   4.333   0.784   0.490  1.2119 -1.6112 -1.3740
 2715SOL     OW19606   4.081   1.556   9.354 -0.2622  0.0373  0.0975
 2715SOL    HW119607   4.142   1.527   9.286  1.6433  2.7072  0.6522
 2715SOL    HW219608   4.140   1.615   9.403 -0.0328  0.4587 -0.6860
 2716SOL     OW19609   3.494   1.980   2.880 -0.3853 -0.0600  0.3109
 2716SOL    HW119610   3.448   2.036   2.818 -0.2282  0.5864  0.7794
 2716SOL    HW219611   3.472   1.896   2.841 -1.1818 -0.4490  1.5971
 2717SOL     OW19612   0.841   0.089   1.113 -0.8104  0.3246 -0.2947
 2717SOL    HW119613   0.850   0.047   1.028  0.1925 -0.3265  0.1295
 2717SOL    HW219614   0.746   0.087   1.107 -0.8764  2.4168  0.0470
 2718SOL     OW19615   3.150   4.572  12.945 -0.1493  0.1227  0.3836
 2718SOL    HW119616   3.223   4.526  12.903 -0.3420 -0.6268  0.8690
 2718SOL    HW219617   3.087   4.501  12.933 -2.4845  2.5479 -1.5203
 2719SOL     OW19618   4.357   0.353   7.231 -0.5559 -0.4964 -0.0618
 2719SOL    HW119619   4.411   0.420   7.191 -0.8515  0.3331  0.9399
 2719SOL    HW219620   4.287   0.355   7.165 -1.1250 -2.4765  0.4851
 2720SOL     OW19621   4.416   1.971   2.376  0.1675 -0.0928  0.8688
 2720SOL    HW119622   4.437   2.035   2.308  1.5353 -1.6307 -0.1629
 2720SOL    HW219623   4.335   1.936   2.338  1.1320 -1.7305  0.2965
 2721SOL     OW19624   1.896   1.494   3.012 -0.2159 -0.4039 -0.0244
 2721SOL    HW119625   1.977   1.444   2.997  0.2399  0.4731 -0.4689
 2721SOL    HW219626   1.943   1.578   3.013 -1.8901  0.5002  2.9960
 2722SOL     OW19627   2.378   2.974   0.602 -0.0181 -0.5450  0.3295
 2722SOL    HW119628   2.288   2.984   0.633 -0.5445 -1.2221 -0.9818
 2722SOL    HW219629   2.413   3.063   0.609  0.3565 -0.7830  1.5907
 2723SOL     OW19630   3.456   1.741   4.405 -0.4595 -0.3230 -0.3953
 2723SOL    HW119631   3.501   1.658   4.421  1.6186  0.9125  0.1785
 2723SOL    HW219632   3.504   1.801   4.463  0.2505 -0.4570 -0.8419
 2724SOL     OW19633   0.737   2.994  12.336 -0.0675 -0.1802 -0.1961
 2724SOL    HW119634   0.688   3.075  12.354  0.1446 -0.2401  0.6584
 2724SOL    HW219635   0.709   2.951  12.417 -0.1617  1.0103  0.4113
 2725SOL     OW19636   4.460   3.513   3.233  0.2758 -0.7793 -0.0435
 2725SOL    HW119637   4.493   3.599   3.209 -1.5063 -0.3002 -0.8058
 2725SOL    HW219638   4.490   3.497   3.322  1.2390 -1.5764 -0.5147
 2726SOL     OW19639   2.808   0.505   7.611 -0.1946  0.8004 -0.2531
 2726SOL    HW119640   2.885   0.461   7.577 -0.4575 -0.4610  0.8140
 2726SOL    HW219641   2.824   0.500   7.705  1.4979  0.1768 -0.5753
 2727SOL     OW19642   1.338   3.846   7.295 -0.5123  0.8310 -0.0218
 2727SOL    HW119643   1.336   3.941   7.305 -0.8291  1.0838 -2.3237
 2727SOL    HW219644   1.354   3.823   7.386 -0.7046 -1.1694 -0.4927
 2728SOL     OW19645   3.697   2.133   2.978 -0.9578  0.0188  0.5749
 2728SOL    HW119646   3.618   2.085   2.952 -0.9795  1.8790 -2.7351
 2728SOL    HW219647   3.755   2.060   2.956 -1.4601 -0.7723  1.8814
 2729SOL     OW19648   3.501   4.134   7.306  0.4144  0.3737  0.0468
 2729SOL    HW119649   3.463   4.147   7.219  1.9859 -0.6016 -0.7895
 2729SOL    HW219650   3.450   4.059   7.335 -0.7348  1.1861  0.1070
 2730SOL     OW19651   3.290   2.746   0.202 -0.0227  0.1089  0.2398
 2730SOL    HW119652   3.226   2.751   0.274 -1.5426 -1.0322 -1.0257
 2730SOL    HW219653   3.369   2.729   0.252 -0.9584  1.1543  2.0832
 2731SOL     OW19654   1.936   2.357   3.156 -0.2034  0.1308  0.1311
 2731SOL    HW119655   1.925   2.264   3.175  1.2917  0.0958  0.8064
 2731SOL    HW219656   1.973   2.397   3.235 -1.0221 -2.8408  2.0071
 2732SOL     OW19657   3.217   3.023   7.633  0.7910 -0.2773 -0.1363
 2732SOL    HW119658   3.198   3.070   7.714 -0.8545 -1.0529 -0.0898
 2732SOL    HW219659   3.225   2.931   7.657 -0.9223  0.1023  1.9322
 2733SOL     OW19660   4.674   3.890   4.863  1.0603 -0.1585 -0.3292
 2733SOL    HW119661   4.720   3.818   4.819 -0.0918 -0.1333 -1.5593
 2733SOL    HW219662   4.600   3.847   4.905  1.0266  0.6409  0.4333
 2734SOL     OW19663   4.189   2.155   5.726 -0.2191  0.5246  0.2011
 2734SOL    HW119664   4.119   2.095   5.753  0.9229 -0.3606  1.1788
 2734SOL    HW219665   4.167   2.173   5.635 -0.5273  0.8658  0.3361
 2735SOL     OW19666   0.224   3.197   9.240  0.2514  0.0672 -0.0840
 2735SOL    HW119667   0.267   3.125   9.193  1.7884  0.2572  1.0080
 2735SOL    HW219668   0.240   3.274   9.185  0.3116 -0.1363 -0.3506
 2736SOL     OW19669   1.337   2.371   5.600 -0.1061  0.0254  0.2647
 2736SOL    HW119670   1.311   2.459   5.573  1.0880  0.4968  0.6005
 2736SOL    HW219671   1.342   2.325   5.517 -3.2617  1.8515 -0.9223
 2737SOL     OW19672   0.255   0.560  12.908 -0.1196 -0.3936 -0.4677
 2737SOL    HW119673   0.214   0.620  12.846 -0.6727 -0.5764 -0.2696
 2737SOL    HW219674   0.329   0.615  12.935  1.0162 -1.8160 -0.6378
 2738SOL     OW19675   3.976   4.516  14.597 -0.0806 -0.5928 -0.1745
 2738SOL    HW119676   3.895   4.475  14.569  0.1140 -1.5991  0.7495
 2738SOL    HW219677   3.984   4.585  14.531  0.0029  1.6786  2.2122
 2739SOL     OW19678   4.647   3.842   6.251  0.2520  0.5102  0.0407
 2739SOL    HW119679   4.595   3.766   6.275  0.3855 -0.4057 -2.6378
 2739SOL    HW219680   4.618   3.907   6.315  1.5738  0.9407  0.2076
 2740SOL     OW19681   0.289   2.181   1.377 -0.0691 -0.7232  0.5231
 2740SOL    HW119682   0.309   2.123   1.450  0.1253 -0.4882  0.6572
 2740SOL    HW219683   0.195   2.165   1.374 -0.3810  1.4422 -1.6147
 2741SOL     OW19684   2.857   2.067   1.581 -0.0779 -0.2796  0.8832
 2741SOL    HW119685   2.804   1.999   1.539  1.2446 -0.6189 -0.2650
 2741SOL    HW219686   2.907   2.102   1.507 -0.9294 -1.6896 -0.3826
 2742SOL     OW19687   3.710   3.228  16.724  0.0211 -0.5045 -0.1981
 2742SOL    HW119688   3.639   3.199  16.781  0.7732  0.1284  1.0618
 2742SOL    HW219689   3.695   3.322  16.731  0.2877 -0.5246  0.6468
 2743SOL     OW19690   3.522   2.529   2.099 -0.3621  0.4064 -0.1979
 2743SOL    HW119691   3.560   2.569   2.178 -2.9077  0.7098  0.8688
 2743SOL    HW219692   3.481   2.605   2.058 -0.0829  1.1029  0.8119
 2744SOL     OW19693   4.489   2.129   5.462  0.2872  0.0562  0.4659
 2744SOL    HW119694   4.550   2.203   5.454 -0.4802  0.5094 -1.2134
 2744SOL    HW219695   4.417   2.167   5.411  0.4152 -1.4544 -0.8482
 2745SOL     OW19696   0.358   2.873   6.675  0.1575 -0.6228 -0.1315
 2745SOL    HW119697   0.335   2.804   6.612  1.8111  0.4587 -1.9426
 2745SOL    HW219698   0.316   2.949   6.634 -2.4525 -1.1040  1.6262
 2746SOL     OW19699   3.117   2.741   6.044  0.3369 -0.6668 -0.1869
 2746SOL    HW119700   3.208   2.711   6.046  0.6364  0.2379 -0.3366
 2746SOL    HW219701   3.127   2.804   5.973 -0.2398 -0.6230 -0.2279
 2747SOL     OW19702   2.764   0.051   3.434  0.3273 -1.2147  0.4119
 2747SOL    HW119703   2.821   0.059   3.510  0.9934 -0.3437 -0.1790
 2747SOL    HW219704   2.819   0.080   3.361 -2.0976  0.3309 -0.8104
 2748SOL     OW19705   1.896   4.087   0.286  0.0482  0.4008  0.3473
 2748SOL    HW119706   1.875   4.047   0.371 -3.3137  0.3057 -0.5101
 2748SOL    HW219707   1.845   4.168   0.291 -1.6155 -0.6422  0.3541
 2749SOL     OW19708   3.016   0.926   6.361 -0.4781  0.0784 -0.3134
 2749SOL    HW119709   3.071   1.004   6.353 -0.7854  0.4222  0.9834
 2749SOL    HW219710   2.960   0.967   6.427 -0.6556 -3.1777  1.5591
 2750SOL     OW19711   2.457   2.860   4.387 -0.4789 -0.2306 -0.2707
 2750SOL    HW119712   2.533   2.822   4.343 -0.1184  0.2023 -0.0224
 2750SOL    HW219713   2.418   2.781   4.426 -2.9498  1.2457  0.3045
 2751SOL     OW19714   3.996   1.677   3.570  0.4921 -0.3187 -0.4563
 2751SOL    HW119715   3.984   1.738   3.498 -2.0653 -0.1864  0.1009
 2751SOL    HW219716   4.001   1.734   3.647 -1.0858 -0.5188 -0.2061
 2752SOL     OW19717   0.758   3.368   9.729  0.1254  0.0531 -0.3570
 2752SOL    HW119718   0.809   3.432   9.779  1.2963 -1.1056 -0.0640
 2752SOL    HW219719   0.739   3.301   9.794  2.4397 -0.6930 -0.4623
 2753SOL     OW19720   0.887   0.782  12.743 -0.1319 -0.0545 -0.2561
 2753SOL    HW119721   0.935   0.715  12.793  1.7485  2.3303  1.1045
 2753SOL    HW219722   0.843   0.827  12.815 -0.0983 -0.0338 -0.2484
 2754SOL     OW19723   0.779   2.237  16.792 -0.1791  0.3342 -0.2687
 2754SOL    HW119724   0.837   2.284  16.852 -0.2567 -0.5390  0.4764
 2754SOL    HW219725   0.695   2.238  16.837 -0.0190  3.4206 -0.0121
 2755SOL     OW19726   1.847   2.231  11.114  0.0988 -0.2790 -0.0533
 2755SOL    HW119727   1.932   2.276  11.120 -1.4957  2.7789 -0.8170
 2755SOL    HW219728   1.808   2.289  11.049  0.3213 -0.5862 -0.4632
 2756SOL     OW19729   3.784   3.900   5.147  0.4974  0.1755 -0.3586
 2756SOL    HW119730   3.846   3.963   5.184  1.4008 -0.6380 -0.4893
 2756SOL    HW219731   3.834   3.861   5.076 -0.5918  0.4178 -1.2693
 2757SOL     OW19732   1.389   1.773   7.847  0.5026 -0.4157 -0.0685
 2757SOL    HW119733   1.403   1.684   7.817  1.1068 -0.3374 -0.0109
 2757SOL    HW219734   1.298   1.758   7.876  0.9308  0.2013  1.6174
 2758SOL     OW19735   2.653   2.418   5.205 -0.0868  0.5508  0.8162
 2758SOL    HW119736   2.656   2.347   5.141  0.0627  1.0628  0.2539
 2758SOL    HW219737   2.577   2.472   5.183  0.1848 -0.4790 -2.5865
 2759SOL     OW19738   1.696   0.600  14.338  0.5370 -0.1639  0.1750
 2759SOL    HW119739   1.674   0.673  14.397  0.6872  0.4989 -0.5871
 2759SOL    HW219740   1.784   0.578  14.367  0.3676  0.6795  1.3525
 2760SOL     OW19741   0.824   4.677   8.026  0.2469  0.0498 -0.5418
 2760SOL    HW119742   0.877   0.023   8.067 -1.5995  1.3005 -0.2388
 2760SOL    HW219743   0.780   4.716   7.950  0.2523  0.4845 -0.3188
 2761SOL     OW19744   3.110   3.833   6.161 -0.2438  0.4626  0.0349
 2761SOL    HW119745   3.158   3.762   6.204  0.5984 -1.3434 -3.8661
 2761SOL    HW219746   3.054   3.793   6.095 -1.2884  0.2305  1.0509
 2762SOL     OW19747   0.094   3.302   4.987  0.0578 -0.3454 -0.0823
 2762SOL    HW119748   0.047   3.219   4.988 -0.8151  0.1312 -0.6447
 2762SOL    HW219749   0.061   3.331   4.902 -0.7365 -0.0201  0.3354
 2763SOL     OW19750   0.125   2.040   6.488  0.1997 -0.1916 -0.3215
 2763SOL    HW119751   0.106   2.101   6.560  0.6029 -1.4210  0.8220
 2763SOL    HW219752   0.043   1.992   6.484 -1.8452  3.1199  1.6386
 2764SOL     OW19753   0.349   3.144  15.635  0.5366 -0.5233  0.1554
 2764SOL    HW119754   0.335   3.089  15.558  0.1531  1.0353 -0.8909
 2764SOL    HW219755   0.438   3.178  15.624  0.5785 -1.2744 -1.7190
 2765SOL     OW19756   3.685   2.104  14.240 -0.7153  0.2210 -0.2902
 2765SOL    HW119757   3.645   2.090  14.326 -0.1042  0.2989  0.0069
 2765SOL    HW219758   3.767   2.131  14.281  1.0659 -2.1679 -2.2305
 2766SOL     OW19759   4.240   4.617   2.860  0.4274  0.4280  0.0629
 2766SOL    HW119760   4.194   4.696   2.831 -0.3866  0.0135  0.2324
 2766SOL    HW219761   4.172   4.565   2.903 -0.8632  1.5953 -0.5661
 2767SOL     OW19762   0.970   1.958  15.790 -0.0252 -0.1609 -0.1099
 2767SOL    HW119763   0.955   1.986  15.700  0.2347  0.5242  0.0584
 2767SOL    HW219764   0.899   1.896  15.807 -0.8372  0.4741 -1.2569
 2768SOL     OW19765   2.593   1.249   8.876 -0.3190  0.5786  0.1473
 2768SOL    HW119766   2.559   1.324   8.827  0.3545  0.2084 -0.8679
 2768SOL    HW219767   2.612   1.189   8.805  0.1686 -0.5078  1.1978
 2769SOL     OW19768   2.857   2.848   1.559  0.9445 -0.2419 -0.3399
 2769SOL    HW119769   2.800   2.865   1.483  0.3236  1.7670  0.5716
 2769SOL    HW219770   2.934   2.817   1.512  1.4966 -0.3480  0.6547
 2770SOL     OW19771   2.505   3.169   8.742 -0.2153  0.5472  0.7327
 2770SOL    HW119772   2.418   3.196   8.713 -0.0044  2.5318  1.9152
 2770SOL    HW219773   2.487   3.089   8.791 -0.6939 -0.2151 -0.6981
 2771SOL     OW19774   2.677   0.017   2.624 -0.4386 -0.0177 -0.3330
 2771SOL    HW119775   2.617   4.700   2.688 -0.0393  0.5663  0.3922
 2771SOL    HW219776   2.682   4.679   2.550  0.7486 -0.8085  0.3874
 2772SOL     OW19777   2.258   2.213  10.028  0.0737 -0.2747 -0.1169
 2772SOL    HW119778   2.336   2.263  10.052  0.3639 -1.5494  1.6310
 2772SOL    HW219779   2.298   2.130  10.000 -1.8151 -1.8323  1.7562
 2773SOL     OW19780   1.094   2.927   8.100 -0.1944 -0.4721 -0.5659
 2773SOL    HW119781   1.016   2.979   8.080 -0.6495 -0.4561  1.2338
 2773SOL    HW219782   1.055   2.891   8.180 -1.3199 -1.4269 -1.5442
 2774SOL     OW19783   3.398   0.993   3.366  0.0269  0.1939 -0.2553
 2774SOL    HW119784   3.343   1.028   3.435 -0.1055  0.3542 -0.4439
 2774SOL    HW219785   3.483   1.023   3.398 -0.8767  2.5853 -0.1444
 2775SOL     OW19786   0.401   0.269   7.584  0.6273 -0.6206  0.0588
 2775SOL    HW119787   0.462   0.195   7.589 -1.3492 -2.0766  2.8710
 2775SOL    HW219788   0.401   0.281   7.489  0.4344  1.4529  0.3213
 2776SOL     OW19789   1.948   1.979  10.695  0.2452 -0.2554  0.3829
 2776SOL    HW119790   1.857   1.951  10.688  1.1114 -3.2780  0.8055
 2776SOL    HW219791   1.944   2.064  10.739  0.0660  0.3488 -0.8105
 2777SOL     OW19792   2.779   3.243  16.073 -0.2246  0.2207 -0.6225
 2777SOL    HW119793   2.728   3.306  16.022  0.5816 -0.4925 -2.3356
 2777SOL    HW219794   2.863   3.286  16.087  0.3707 -0.5661 -1.7770
 2778SOL     OW19795   2.552   2.281  15.213 -0.4976 -0.3224  0.3236
 2778SOL    HW119796   2.612   2.355  15.208  1.4113 -1.9604 -0.7490
 2778SOL    HW219797   2.468   2.328  15.214 -0.5161 -0.3322 -0.7485
 2779SOL     OW19798   3.499   4.452  13.189  0.6447  0.0490  0.2492
 2779SOL    HW119799   3.591   4.439  13.166  0.6634  0.3515  0.1490
 2779SOL    HW219800   3.494   4.518  13.258 -1.2447 -0.4564  0.6006
 2780SOL     OW19801   1.362   2.316   9.097  0.1206 -0.0609  0.0992
 2780SOL    HW119802   1.381   2.298   9.189  0.6275 -0.7546 -0.1379
 2780SOL    HW219803   1.322   2.233   9.073  0.3473  0.0888 -0.8152
 2781SOL     OW19804   0.858   2.917   9.283  0.4153 -0.4188 -0.3121
 2781SOL    HW119805   0.856   2.829   9.320 -0.6730 -0.6694 -0.9479
 2781SOL    HW219806   0.773   2.961   9.288  0.2556 -0.7796  0.1473
 2782SOL     OW19807   0.382   1.456   4.917 -0.0112  0.2886 -0.2603
 2782SOL    HW119808   0.386   1.377   4.862  1.1229  1.9490 -2.5508
 2782SOL    HW219809   0.475   1.476   4.924 -0.2395  0.8183  1.1659
 2783SOL     OW19810   2.052   1.854  14.657 -0.2804  0.1320 -0.1648
 2783SOL    HW119811   2.098   1.924  14.703 -0.7378  1.1134 -1.2051
 2783SOL    HW219812   2.064   1.877  14.565 -2.0581  1.6996  0.0090
 2784SOL     OW19813   2.088   4.197   3.679  0.2526 -0.3427 -0.5122
 2784SOL    HW119814   2.031   4.177   3.604 -0.6433 -0.5701  0.2312
 2784SOL    HW219815   2.051   4.135   3.742  1.7049 -0.9986 -0.2989
 2785SOL     OW19816   3.181   4.084  12.184  0.0088  0.4607 -0.4773
 2785SOL    HW119817   3.248   4.017  12.194  0.7651  1.3730  0.5444
 2785SOL    HW219818   3.209   4.114  12.097  1.2164 -1.1149 -0.6300
 2786SOL     OW19819   1.324   2.303   5.122  0.2946 -0.0457 -0.0309
 2786SOL    HW119820   1.319   2.249   5.043  4.6361 -0.2444 -0.1656
 2786SOL    HW219821   1.291   2.389   5.098 -0.9251 -0.6437 -0.5304
 2787SOL     OW19822   3.482   4.433  13.578  0.2294  0.0785 -0.1503
 2787SOL    HW119823   3.429   4.477  13.644 -1.2906 -0.1061 -1.2478
 2787SOL    HW219824   3.502   4.507  13.520 -0.7623  2.9226  3.1283
 2788SOL     OW19825   3.261   2.478  15.916  0.6010 -0.0116 -0.1000
 2788SOL    HW119826   3.318   2.480  15.838 -0.1054  0.6473 -0.6051
 2788SOL    HW219827   3.270   2.385  15.937 -1.9590 -0.0018  0.9786
 2789SOL     OW19828   0.123   2.694   5.056  0.5281  0.2014 -0.5090
 2789SOL    HW119829   0.155   2.627   4.995 -2.5391 -1.4567 -0.2661
 2789SOL    HW219830   0.181   2.770   5.044  0.5695 -0.0853 -2.1855
 2790SOL     OW19831   4.291   0.886   7.885 -0.3890 -0.0832 -0.5678
 2790SOL    HW119832   4.200   0.876   7.914 -0.1015 -1.0397  0.0097
 2790SOL    HW219833   4.271   0.904   7.793  2.7479  2.5074 -0.7351
 2791SOL     OW19834   4.366   0.549   8.281  0.6685  0.1565  0.9796
 2791SOL    HW119835   4.441   0.583   8.234 -0.8555  0.5162 -1.1967
 2791SOL    HW219836   4.398   0.471   8.326  1.1813 -1.1301 -1.6201
 2792SOL     OW19837   4.651   4.288   7.770  0.4048 -0.1659 -0.2562
 2792SOL    HW119838   4.692   4.279   7.856 -1.1954 -0.4954  0.4618
 2792SOL    HW219839   4.704   4.217   7.733  1.2036 -0.9347  2.4016
 2793SOL     OW19840   3.016   2.453   1.122 -0.1048  0.1378 -0.5687
 2793SOL    HW119841   3.016   2.542   1.159 -1.6377  0.0510 -0.3504
 2793SOL    HW219842   3.109   2.436   1.139  0.0178  1.1205 -0.2392
 2794SOL     OW19843   1.626   1.537   9.017  0.0807  0.0570  0.1009
 2794SOL    HW119844   1.709   1.524   8.970  0.0045  0.9716 -0.3007
 2794SOL    HW219845   1.606   1.627   8.990 -0.4124 -0.6601 -1.9357
 2795SOL     OW19846   0.303   2.265   8.853  0.1601 -0.1047 -0.4002
 2795SOL    HW119847   0.311   2.340   8.795  1.0087 -0.1008 -0.2744
 2795SOL    HW219848   0.344   2.198   8.798 -2.5500 -1.4961 -0.7748
 2796SOL     OW19849   0.438   2.632   4.695  0.0872  0.5791 -0.4352
 2796SOL    HW119850   0.434   2.606   4.603  1.0690 -0.6904 -0.1277
 2796SOL    HW219851   0.533   2.645   4.704  0.3818  0.1480 -2.8923
 2797SOL     OW19852   3.458   0.306  12.593  0.4356 -0.3268 -0.1952
 2797SOL    HW119853   3.449   0.320  12.687  0.4818 -0.4016 -0.1795
 2797SOL    HW219854   3.513   0.377  12.562  1.6019 -1.2656 -0.2865
 2798SOL     OW19855   1.986   0.182   7.109  0.2857  0.1778 -0.1832
 2798SOL    HW119856   1.937   0.130   7.172 -0.4433  3.1552  1.6953
 2798SOL    HW219857   2.068   0.135   7.096  0.1108 -0.6099  1.6530
 2799SOL     OW19858   3.924   1.441   4.347  0.0775  0.3243  0.5924
 2799SOL    HW119859   3.953   1.450   4.256  0.9413 -0.3815  0.7997
 2799SOL    HW219860   4.007   1.448   4.393 -0.9214  1.1144  2.2455
 2800SOL     OW19861   3.493   2.754   7.398 -0.3220  0.2232  0.1213
 2800SOL    HW119862   3.571   2.701   7.382 -0.6259 -0.0922 -0.3123
 2800SOL    HW219863   3.467   2.783   7.311 -1.7500  0.9025  0.7708
 2801SOL     OW19864   2.498   1.099   7.756 -0.3936  0.2353 -0.0740
 2801SOL    HW119865   2.483   1.007   7.733  1.4826 -0.4749  1.4899
 2801SOL    HW219866   2.439   1.148   7.699 -1.0806 -1.9757 -1.2748
 2802SOL     OW19867   1.356   1.197   5.436  0.2320 -0.2284  0.1498
 2802SOL    HW119868   1.343   1.104   5.452  5.3422 -1.0330 -0.3500
 2802SOL    HW219869   1.449   1.196   5.412  0.5939 -0.1768  1.5587
 2803SOL     OW19870   1.307   2.791   8.732  0.7639 -0.3331 -0.4358
 2803SOL    HW119871   1.367   2.818   8.801 -2.0553  1.4013  1.3484
 2803SOL    HW219872   1.227   2.757   8.773  1.9555 -0.5820  1.7255
 2804SOL     OW19873   4.535   4.106   5.010 -0.3066  0.0263  0.5157
 2804SOL    HW119874   4.625   4.110   5.042  0.2072 -0.5960 -0.8544
 2804SOL    HW219875   4.547   4.073   4.921 -3.0411  0.4489 -0.0188
 2805SOL     OW19876   1.551   1.138   3.370  1.0461 -0.4983 -0.0536
 2805SOL    HW119877   1.495   1.063   3.348 -0.5652  0.4071  0.9803
 2805SOL    HW219878   1.519   1.147   3.460 -0.8547 -0.1523 -0.7888
 2806SOL     OW19879   3.040   3.756   2.282  0.4224 -0.2028 -0.1220
 2806SOL    HW119880   2.955   3.725   2.313 -0.4660  1.3666 -0.9506
 2806SOL    HW219881   3.018   3.842   2.245 -1.5373 -0.7610 -0.2244
 2807SOL     OW19882   0.057   0.983   5.446 -0.3850  0.2547  0.1875
 2807SOL    HW119883   0.110   0.975   5.524  0.0329 -1.1554 -0.2559
 2807SOL    HW219884   0.024   1.072   5.461 -1.0209 -0.2958  1.9556
 2808SOL     OW19885   2.952   1.809   0.927 -0.2819  0.1399  0.1308
 2808SOL    HW119886   3.029   1.810   0.870 -0.0975  1.5113  0.3940
 2808SOL    HW219887   2.918   1.896   0.904 -0.2437  0.4839  1.3599
 2809SOL     OW19888   4.579   2.059   3.132  0.4158 -0.2188  0.0043
 2809SOL    HW119889   4.575   2.099   3.219  1.0699  2.7375 -1.3092
 2809SOL    HW219890   4.659   2.092   3.091  0.4436 -1.7839 -1.2179
 2810SOL     OW19891   3.896   1.127   7.310 -0.4399 -0.4632 -0.3683
 2810SOL    HW119892   3.969   1.162   7.361 -1.3924 -0.9404  1.3521
 2810SOL    HW219893   3.925   1.037   7.300  0.8430 -0.2198  1.0733
 2811SOL     OW19894   3.549   2.261  12.844  0.7327 -1.1218  1.0873
 2811SOL    HW119895   3.596   2.211  12.911  1.7253  3.0228  3.4758
 2811SOL    HW219896   3.627   2.269  12.788 -0.8528 -0.7509 -1.0338
 2812SOL     OW19897   4.593   1.506   3.077  0.4142  0.5458 -0.3227
 2812SOL    HW119898   4.512   1.500   3.129  1.5696 -2.5767  1.1203
 2812SOL    HW219899   4.644   1.435   3.115  0.7780  0.5552 -0.7943
 2813SOL     OW19900   4.100   2.637   2.293  0.0668  0.2449  0.0716
 2813SOL    HW119901   4.111   2.732   2.291  0.4375  0.1962 -0.0505
 2813SOL    HW219902   4.096   2.615   2.386 -0.7353  3.5488  0.8337
 2814SOL     OW19903   0.858   1.871  17.687  0.3044 -0.4010  0.2917
 2814SOL    HW119904   0.794   1.861   0.067  0.6847  0.0678  0.6977
 2814SOL    HW219905   0.936   1.830   0.032  1.2568 -0.2498 -1.6098
 2815SOL     OW19906   1.395   1.865   0.225 -0.0578  0.4638 -0.8403
 2815SOL    HW119907   1.420   1.876   0.133  0.6756 -1.7005 -0.9089
 2815SOL    HW219908   1.388   1.960   0.233  0.1247  0.4333 -0.3008
 2816SOL     OW19909   0.992   3.717   3.440 -0.1999 -0.3975 -1.1084
 2816SOL    HW119910   0.990   3.728   3.535 -3.7547 -1.0547 -1.0846
 2816SOL    HW219911   1.087   3.720   3.428 -0.1235 -0.4675 -0.5171
 2817SOL     OW19912   2.889   3.921   1.852  0.1872  0.1194  1.0186
 2817SOL    HW119913   2.850   3.840   1.885 -2.2166  0.9477  0.2156
 2817SOL    HW219914   2.917   3.944   1.941 -1.0674  2.0561  0.8995
 2818SOL     OW19915   0.225   0.058  10.698  0.4196 -0.3125 -0.2511
 2818SOL    HW119916   0.153   4.721  10.677 -0.3270  0.0355  1.3650
 2818SOL    HW219917   0.231   0.117  10.623 -0.0288 -0.9713 -0.8065
 2819SOL     OW19918   1.792   4.259  11.339 -0.5409 -0.0562 -0.4068
 2819SOL    HW119919   1.736   4.296  11.270  0.2972  1.2043 -0.4193
 2819SOL    HW219920   1.823   4.184  11.289 -1.9713 -0.2995 -0.9204
 2820SOL     OW19921   3.431   1.897  14.538  0.1668  0.2652 -0.0149
 2820SOL    HW119922   3.514   1.938  14.561  0.0260  2.4133 -3.2513
 2820SOL    HW219923   3.384   1.926  14.616  3.0018  0.0682  1.7588
 2821SOL     OW19924   4.073   1.811  13.253 -0.2357 -0.6192  0.5918
 2821SOL    HW119925   4.035   1.766  13.177  1.5036  1.7216 -1.6894
 2821SOL    HW219926   4.164   1.808  13.223 -0.0155  0.5044  1.1843
 2822SOL     OW19927   1.119   3.972   8.868 -0.3776  0.3956  0.7289
 2822SOL    HW119928   1.129   4.066   8.857  1.1148  0.0704 -0.7984
 2822SOL    HW219929   1.052   3.954   8.933  0.6864  0.4599  1.8356
 2823SOL     OW19930   3.220   0.376   5.462  0.7296  0.2793  0.2971
 2823SOL    HW119931   3.212   0.420   5.377 -0.0030 -0.7439 -0.1521
 2823SOL    HW219932   3.128   0.358   5.478  0.4654  0.2142 -1.3146
 2824SOL     OW19933   1.947   0.406   0.877 -0.0422 -0.0018 -0.3399
 2824SOL    HW119934   1.941   0.380   0.969 -1.1255 -0.2632 -0.4852
 2824SOL    HW219935   2.031   0.452   0.880  0.4856 -0.9408 -0.6771
 2825SOL     OW19936   3.517   0.970   5.865 -0.1045  0.1390  0.1837
 2825SOL    HW119937   3.557   0.914   5.932 -0.2352  0.9054  0.8987
 2825SOL    HW219938   3.592   1.026   5.849  0.5865 -1.3364 -1.5953
 2826SOL     OW19939   3.426   4.229   0.455 -0.3916  0.0891 -0.0469
 2826SOL    HW119940   3.504   4.253   0.505  1.2090 -2.2120 -1.4624
 2826SOL    HW219941   3.350   4.270   0.497  0.1884  0.0215  1.0754
 2827SOL     OW19942   4.318   1.560   0.749 -0.3893 -0.0576  0.0015
 2827SOL    HW119943   4.327   1.560   0.844 -2.3432  1.1960  0.1744
 2827SOL    HW219944   4.411   1.557   0.726 -0.2970 -0.4455  0.4311
 2828SOL     OW19945   1.239   1.946   4.754  0.2556  0.2796 -0.0676
 2828SOL    HW119946   1.247   1.966   4.847 -0.4930  1.7107 -0.3207
 2828SOL    HW219947   1.245   2.032   4.713 -0.1493 -0.0925 -0.9088
 2829SOL     OW19948   0.853   0.046   7.313 -0.1620 -0.1424 -0.3735
 2829SOL    HW119949   0.860   0.137   7.284  0.4979  0.2244  0.9403
 2829SOL    HW219950   0.941   0.036   7.351 -0.0377 -1.2276 -0.9549
 2830SOL     OW19951   0.871   4.141   3.936 -0.6787 -0.0197  0.4736
 2830SOL    HW119952   0.835   4.214   3.885 -1.7529 -1.7128 -1.1713
 2830SOL    HW219953   0.909   4.193   4.007 -0.9588 -0.2022  0.7590
 2831SOL     OW19954   1.983   3.504   3.147  0.1477  0.3521 -0.6823
 2831SOL    HW119955   2.048   3.493   3.078 -0.8606 -1.4497 -1.3518
 2831SOL    HW219956   1.966   3.411   3.159 -0.6987  0.0748 -3.8350
 2832SOL     OW19957   4.299   2.952   4.953 -0.1232 -0.0499  0.0249
 2832SOL    HW119958   4.348   3.026   4.917  2.4856 -1.1962  1.1340
 2832SOL    HW219959   4.221   2.977   4.905  0.7111  3.3460  0.4635
 2833SOL     OW19960   2.402   4.052   1.797  0.3027 -0.2018 -0.2991
 2833SOL    HW119961   2.478   4.013   1.754  0.4098 -1.4694  1.0270
 2833SOL    HW219962   2.336   4.031   1.731 -0.5780 -1.3681  0.9532
 2834SOL     OW19963   2.631   0.145   5.002  0.2354  0.4023  0.2600
 2834SOL    HW119964   2.554   0.111   5.047 -0.6731 -0.2541 -1.7537
 2834SOL    HW219965   2.622   0.238   5.019  1.6113  1.0337 -2.3749
 2835SOL     OW19966   1.098   1.418   5.978 -0.4272  0.1834  0.4118
 2835SOL    HW119967   1.048   1.499   5.969  1.0577  1.0887  0.4176
 2835SOL    HW219968   1.032   1.360   5.939 -0.9394  0.2910  1.1116
 2836SOL     OW19969   0.405   4.092   6.943  0.3062  0.3342 -0.2241
 2836SOL    HW119970   0.453   4.149   6.883  0.2646  0.1923 -0.3951
 2836SOL    HW219971   0.443   4.009   6.912  0.0430 -0.2238  0.9635
 2837SOL     OW19972   0.907   1.995   6.581  0.2907  0.0754  0.5182
 2837SOL    HW119973   0.904   2.065   6.516 -2.4898  1.0438  1.6944
 2837SOL    HW219974   0.867   2.045   6.652  1.2039  0.5484  0.6876
 2838SOL     OW19975   1.370   0.616   5.979  0.6323 -0.3641 -0.8202
 2838SOL    HW119976   1.297   0.557   5.960 -0.3883 -0.2534  2.8722
 2838SOL    HW219977   1.434   0.550   6.004 -1.1550 -1.3434  1.1586
 2839SOL     OW19978   3.543   3.774   9.404  0.0807  0.2336 -0.2156
 2839SOL    HW119979   3.564   3.860   9.439 -1.3249  0.9662 -1.1983
 2839SOL    HW219980   3.500   3.794   9.321  0.9719  0.7734 -0.5453
 2840SOL     OW19981   2.173   2.441   1.280 -0.3606 -0.5645  0.0550
 2840SOL    HW119982   2.188   2.370   1.218  0.2871  2.0642 -2.7813
 2840SOL    HW219983   2.124   2.511   1.236 -1.9130  0.2449  3.0248
 2841SOL     OW19984   2.500   1.905   7.732  0.2570  0.5817  0.0180
 2841SOL    HW119985   2.464   1.821   7.702 -0.3697  1.2179 -0.9742
 2841SOL    HW219986   2.424   1.957   7.707  0.1948  1.0990  1.2668
 2842SOL     OW19987   0.722   3.232   2.581  0.1028  0.5155 -0.2258
 2842SOL    HW119988   0.635   3.230   2.541  0.7496  0.0436 -1.5776
 2842SOL    HW219989   0.741   3.326   2.588 -0.3380  0.4754  1.6050
 2843SOL     OW19990   4.047   4.189   8.544 -0.0898  0.0670  0.3420
 2843SOL    HW119991   4.069   4.272   8.502  0.9410  0.0536  0.8354
 2843SOL    HW219992   3.955   4.202   8.567  0.1631  1.2812  0.6517
 2844SOL     OW19993   0.217   1.159   6.344 -0.2248 -0.5043  0.0212
 2844SOL    HW119994   0.174   1.073   6.345  0.3138 -0.7747 -0.2011
 2844SOL    HW219995   0.150   1.217   6.381  0.5150 -0.5955  1.4635
 2845SOL     OW19996   2.906   1.787  17.395  0.1575  0.4264 -0.0290
 2845SOL    HW119997   2.874   1.707  17.353 -0.7204  1.0740 -0.6037
 2845SOL    HW219998   2.932   1.756  17.481 -0.6558 -0.2081 -0.0093
 2846SOL     OW19999   1.019   0.868   5.590 -0.3477 -0.4392 -0.4057
 2846SOL    HW120000   1.099   0.817   5.581  1.1328  1.3793  2.5419
 2846SOL    HW220001   1.038   0.910   5.674 -0.7325  1.8321 -1.4579
 2847SOL     OW20002   2.806   1.717   4.083  0.6628  0.1526  0.2906
 2847SOL    HW120003   2.847   1.796   4.051  2.6735 -0.3665  1.6027
 2847SOL    HW220004   2.882   1.670   4.118  2.2308  2.4312 -0.0641
 2848SOL     OW20005   3.796   1.524  15.146 -0.2908  0.1813 -0.5003
 2848SOL    HW120006   3.718   1.575  15.166 -1.0465 -1.5505  0.9613
 2848SOL    HW220007   3.755   1.446  15.109  3.0516 -1.4995 -0.6853
 2849SOL     OW20008   0.282   1.439  12.059  0.4805  0.4985 -0.7715
 2849SOL    HW120009   0.278   1.529  12.028 -1.3586  0.5915 -0.2762
 2849SOL    HW220010   0.345   1.391  12.005 -0.0718 -1.2276  0.0931
 2850SOL     OW20011   3.087   1.787   1.164 -0.5285  0.3681  0.0219
 2850SOL    HW120012   3.029   1.798   1.088  0.1193 -0.8680 -0.6423
 2850SOL    HW220013   3.072   1.864   1.219 -1.2735 -1.2697  2.1219
 2851SOL     OW20014   4.192   0.212   9.641 -0.3625  0.5551  0.2881
 2851SOL    HW120015   4.282   0.236   9.621 -0.4776  0.3691 -0.4349
 2851SOL    HW220016   4.167   0.186   9.553 -1.0521 -0.2271  0.7168
 2852SOL     OW20017   4.314   3.741  13.539 -0.3061  0.6149  0.4829
 2852SOL    HW120018   4.241   3.770  13.594  0.1463  0.3636  1.2166
 2852SOL    HW220019   4.346   3.822  13.500 -0.2217 -0.1452 -0.9994
 2853SOL     OW20020   3.209   1.578   3.108  0.1511  0.4139  0.1742
 2853SOL    HW120021   3.236   1.657   3.155  0.9706 -0.1144  0.5991
 2853SOL    HW220022   3.184   1.613   3.023 -1.0379  0.2397  0.4551
 2854SOL     OW20023   4.220   1.201   7.606  0.2405  0.2610  0.6371
 2854SOL    HW120024   4.127   1.222   7.604 -0.2316 -2.1661 -1.7379
 2854SOL    HW220025   4.214   1.106   7.609 -0.2525  0.3473  2.4513
 2855SOL     OW20026   0.340   4.308  11.858  0.9470 -0.3963 -0.1682
 2855SOL    HW120027   0.356   4.393  11.899  0.0892  0.3887 -1.4478
 2855SOL    HW220028   0.257   4.318  11.811  0.5854  0.0653  0.5849
 2856SOL     OW20029   1.028   4.594   2.761 -0.4138 -0.2944 -0.2521
 2856SOL    HW120030   1.066   4.665   2.813 -1.4119 -0.4328  0.6746
 2856SOL    HW220031   1.088   4.524   2.787  1.7255  1.6005 -0.0825
 2857SOL     OW20032   3.814   0.093   5.249  0.5943  0.0936 -0.1583
 2857SOL    HW120033   3.826   0.050   5.165  1.9139 -1.3351  0.7473
 2857SOL    HW220034   3.773   0.172   5.216  2.9008  0.9137 -1.1024
 2858SOL     OW20035   3.349   1.154   4.349  0.0036 -0.0386 -0.0629
 2858SOL    HW120036   3.387   1.130   4.434 -1.9457  0.0050  0.8272
 2858SOL    HW220037   3.386   1.088   4.291  1.8280 -0.2887  1.4141
 2859SOL     OW20038   0.521   4.518   5.828 -0.0349  0.0949 -0.1731
 2859SOL    HW120039   0.485   4.447   5.881 -1.0372  2.1726  1.9763
 2859SOL    HW220040   0.580   4.562   5.890  1.2839  0.9017 -2.0118
 2860SOL     OW20041   2.429   4.367  17.630 -0.0713 -0.1707 -0.7839
 2860SOL    HW120042   2.499   4.395  17.572  0.5548  1.2642  0.6687
 2860SOL    HW220043   2.478   4.296  17.672 -0.2354  0.0466 -0.2170
 2861SOL     OW20044   1.573   2.189   0.071 -0.2198  0.3460  0.8413
 2861SOL    HW120045   1.596   2.269   0.023 -1.3830  0.1057 -0.1124
 2861SOL    HW220046   1.652   2.136   0.063 -1.2177 -1.4507  2.9744
 2862SOL     OW20047   4.570   0.584  13.848  0.2168 -0.4848 -0.4923
 2862SOL    HW120048   4.656   0.597  13.889  0.1512  1.6651 -1.0075
 2862SOL    HW220049   4.540   0.505  13.892  1.9640  0.0704  1.7248
 2863SOL     OW20050   3.386   3.466   8.926  0.7043 -0.1441  0.3656
 2863SOL    HW120051   3.361   3.554   8.899 -2.0899 -1.4869 -1.3510
 2863SOL    HW220052   3.438   3.476   9.006  0.8683 -3.8625  0.7183
 2864SOL     OW20053   3.877   2.297   7.201 -0.1742  0.1096 -0.0007
 2864SOL    HW120054   3.922   2.335   7.126 -1.7869  0.4270 -0.8135
 2864SOL    HW220055   3.947   2.240   7.231 -0.8785 -0.6502  0.2125
 2865SOL     OW20056   1.795   0.996   6.966 -0.5093  0.5996  0.5496
 2865SOL    HW120057   1.778   1.079   6.922 -1.4267  1.0267  1.7091
 2865SOL    HW220058   1.784   1.025   7.057 -0.6499 -0.3417  0.8332
 2866SOL     OW20059   0.946   0.987   8.032  0.1417  0.3535  0.0351
 2866SOL    HW120060   0.921   1.071   8.070  0.6709 -0.3377  1.9208
 2866SOL    HW220061   0.907   0.997   7.945  3.9805 -1.9291 -1.9340
 2867SOL     OW20062   2.952   3.693   4.994 -0.2092  0.0963 -0.4757
 2867SOL    HW120063   2.869   3.656   5.026  0.4390 -0.5432  0.4432
 2867SOL    HW220064   2.927   3.786   4.995 -2.3372 -0.4853  1.3592
 2868SOL     OW20065   2.345   4.689   4.104  0.7635  0.5333  0.1648
 2868SOL    HW120066   2.256   4.683   4.137  0.8848 -2.0402  0.0092
 2868SOL    HW220067   2.324   4.692   4.011  2.1176 -0.8852 -0.1922
 2869SOL     OW20068   4.186   2.618   7.915 -0.3803  0.6343  0.3782
 2869SOL    HW120069   4.095   2.593   7.900  0.6334 -1.0638 -2.8674
 2869SOL    HW220070   4.198   2.666   7.833  0.2830  0.8889  0.6193
 2870SOL     OW20071   0.074   2.536   6.036 -0.3769 -0.5722 -0.0255
 2870SOL    HW120072   0.091   2.630   6.044  0.6097 -0.7225 -0.4603
 2870SOL    HW220073   0.018   2.542   5.959  0.6368  1.4133 -0.6094
 2871SOL     OW20074   0.916   4.328   7.574 -0.9284  0.1075 -0.0801
 2871SOL    HW120075   0.933   4.287   7.659 -1.3658  0.3774  0.1418
 2871SOL    HW220076   0.977   4.274   7.525  1.0899  2.7481 -0.5143
 2872SOL     OW20077   3.286   0.411   3.047  0.1725 -0.5307  0.3143
 2872SOL    HW120078   3.321   0.354   2.978  2.2197  0.9560  0.1168
 2872SOL    HW220079   3.359   0.406   3.109 -0.5357 -0.3703  1.1660
 2873SOL     OW20080   1.852   1.817  17.207 -0.1159  0.1430 -0.4067
 2873SOL    HW120081   1.904   1.742  17.237  1.3575  1.1354 -0.5135
 2873SOL    HW220082   1.915   1.887  17.223  1.0284 -0.1356 -3.8081
 2874SOL     OW20083   0.794   2.739   5.060  0.5077 -0.0915 -0.1017
 2874SOL    HW120084   0.874   2.790   5.050 -1.3342  2.0051 -4.5652
 2874SOL    HW220085   0.767   2.759   5.150 -0.2755  0.4454 -0.4494
 2875SOL     OW20086   1.618   2.536   2.420  0.1684  0.1239  0.4541
 2875SOL    HW120087   1.698   2.587   2.431  1.5809 -2.1397  0.5295
 2875SOL    HW220088   1.583   2.602   2.360 -1.2959  0.5297  1.7777
 2876SOL     OW20089   3.929   4.332  10.556  0.1132  0.0267 -0.8220
 2876SOL    HW120090   3.986   4.373  10.491  1.2865  1.7184  1.2620
 2876SOL    HW220091   3.953   4.400  10.620  0.6070  0.0348 -1.0150
 2877SOL     OW20092   1.888   2.667   7.795 -0.2984  0.2601 -0.1426
 2877SOL    HW120093   1.912   2.755   7.766  4.1088 -1.4090 -1.5462
 2877SOL    HW220094   1.924   2.618   7.721 -0.4276 -0.0438 -0.0053
 2878SOL     OW20095   2.199   1.351   4.197 -0.0182 -0.1524  0.7124
 2878SOL    HW120096   2.188   1.269   4.149  0.3090 -0.0992  0.5391
 2878SOL    HW220097   2.230   1.402   4.121  0.3656 -0.4033  0.6986
 2879SOL     OW20098   2.970   0.055   7.412 -0.1578 -0.0294  0.0804
 2879SOL    HW120099   3.034   0.065   7.481 -1.7508  2.0670  1.2739
 2879SOL    HW220100   3.032   0.003   7.362  0.2115 -1.7952  2.4029
 2880SOL     OW20101   4.164   4.103   6.904 -0.0319 -0.3614  0.0520
 2880SOL    HW120102   4.117   4.180   6.937  1.9451  1.3940 -1.2176
 2880SOL    HW220103   4.186   4.067   6.990 -0.7037  1.4278  0.9847
 2881SOL     OW20104   1.586   4.657   1.406  0.3876  0.1941 -0.1396
 2881SOL    HW120105   1.506   4.686   1.362 -0.2045  0.6913  1.2757
 2881SOL    HW220106   1.553   4.579   1.451 -0.1865 -0.5107 -1.7955
 2882SOL     OW20107   4.699   1.609   7.190  0.3630  0.0830  0.1662
 2882SOL    HW120108   4.690   1.610   7.285 -2.1698 -1.2060 -0.0578
 2882SOL    HW220109   4.659   1.526   7.164 -0.2374  0.7829 -1.2004
 2883SOL     OW20110   4.234   4.002   7.165 -0.2062  0.0957 -0.2701
 2883SOL    HW120111   4.251   4.069   7.232  0.4711 -2.1770  1.8621
 2883SOL    HW220112   4.308   3.945   7.185 -1.0568 -2.1505 -3.6779
 2884SOL     OW20113   4.631   1.349   6.278 -0.1091  0.2497 -0.4694
 2884SOL    HW120114   4.590   1.431   6.305 -0.8305  0.4829 -2.2522
 2884SOL    HW220115   4.574   1.320   6.206 -1.7626  0.3855  0.8043
 2885SOL     OW20116   0.728   0.773   3.002 -0.0600 -0.1229 -0.0118
 2885SOL    HW120117   0.788   0.807   3.069 -2.1487  1.9042  0.8283
 2885SOL    HW220118   0.777   0.790   2.922  0.4797 -1.0801  0.1137
 2886SOL     OW20119   3.298   3.477  12.680  0.1464 -0.0410 -0.1105
 2886SOL    HW120120   3.360   3.495  12.609 -1.2928  0.6175 -1.1963
 2886SOL    HW220121   3.299   3.382  12.689 -1.5546  0.1180  1.8581
 2887SOL     OW20122   4.530   2.524   7.865  0.5706 -0.2131 -0.5024
 2887SOL    HW120123   4.450   2.477   7.890  0.4821  1.3765  2.0847
 2887SOL    HW220124   4.589   2.504   7.937 -0.0525 -2.5317 -0.6269
 2888SOL     OW20125   2.334   0.356   3.307 -0.4808 -0.6280 -0.6151
 2888SOL    HW120126   2.425   0.352   3.277 -0.2305 -0.1060  0.0635
 2888SOL    HW220127   2.286   0.313   3.236  0.8002  0.5274 -2.1843
 2889SOL     OW20128   1.085   1.753   6.978 -0.8671  0.4554 -0.2127
 2889SOL    HW120129   1.012   1.813   6.960  1.7621  3.5318 -0.5627
 2889SOL    HW220130   1.041   1.667   6.975  1.0928 -0.5488  0.0167
 2890SOL     OW20131   3.799   0.951   7.920 -0.3872  0.0627  0.0748
 2890SOL    HW120132   3.724   1.002   7.952  0.3956  0.3140  1.5053
 2890SOL    HW220133   3.761   0.914   7.840  0.5062  0.1598 -0.3923
 2891SOL     OW20134   2.082   0.549   7.451 -0.4037 -0.0819  0.6961
 2891SOL    HW120135   2.164   0.509   7.478  0.3026  0.7951 -0.1406
 2891SOL    HW220136   2.048   0.480   7.393  0.2763  0.9252 -0.8955
 2892SOL     OW20137   1.315   0.294   3.361  0.3620  0.4802  0.0340
 2892SOL    HW120138   1.332   0.213   3.410 -2.1699 -1.4865 -2.3223
 2892SOL    HW220139   1.329   0.359   3.429  1.3911 -1.8774  2.0796
 2893SOL     OW20140   2.828   0.653   6.490  0.5848  0.1761 -0.0582
 2893SOL    HW120141   2.828   0.591   6.418 -1.8647  1.8125 -1.4829
 2893SOL    HW220142   2.793   0.728   6.441  0.6353  1.6999  2.2186
 2894SOL     OW20143   1.509   0.130  12.654  0.2434  0.4476  0.4255
 2894SOL    HW120144   1.597   0.139  12.617 -0.0476  1.6594  0.0231
 2894SOL    HW220145   1.523   0.145  12.747 -1.2585 -0.4194  0.7920
 2895SOL     OW20146   0.960   2.277   1.412  0.0125  0.3910  0.0871
 2895SOL    HW120147   0.870   2.283   1.444  0.4900 -0.6298  1.6062
 2895SOL    HW220148   0.979   2.183   1.414  1.5224  0.6980  0.7535
 2896SOL     OW20149   3.535   4.692   4.873  0.0350  0.4516  0.0292
 2896SOL    HW120150   3.527   0.064   4.865 -0.4576  0.2936 -1.2520
 2896SOL    HW220151   3.462   4.672   4.814  0.9106 -1.2991 -0.4636
 2897SOL     OW20152   0.280   3.147   8.746  0.8736  0.1663  0.0250
 2897SOL    HW120153   0.359   3.106   8.711  1.7397  0.8854  1.1462
 2897SOL    HW220154   0.270   3.206   8.672  3.9408 -0.4517 -0.8754
 2898SOL     OW20155   4.332   4.114  17.684  0.2272  0.0983 -0.2254
 2898SOL    HW120156   4.424   4.089  17.683 -0.2434 -1.6446  0.9773
 2898SOL    HW220157   4.332   4.204   0.025  0.0469 -0.5828  1.6560
 2899SOL     OW20158   0.525   0.213  10.616  0.1069  0.0987 -0.0722
 2899SOL    HW120159   0.442   0.249  10.645  0.0717 -0.4392  0.4908
 2899SOL    HW220160   0.560   0.181  10.700 -1.1243  1.1730  0.8392
 2900SOL     OW20161   4.119   3.668  15.378  0.2571 -0.2958 -0.5189
 2900SOL    HW120162   4.073   3.750  15.359 -0.2514 -1.5091 -4.4018
 2900SOL    HW220163   4.178   3.659  15.304  1.3687 -0.4440  0.3780
 2901SOL     OW20164   3.562   2.130   6.556 -0.1531  0.2671  0.1966
 2901SOL    HW120165   3.530   2.059   6.612  0.2694 -0.1717 -0.1108
 2901SOL    HW220166   3.491   2.142   6.494 -0.1522  0.6712  0.2768
 2902SOL     OW20167   2.086   4.508   3.045 -0.3497 -0.0297 -0.0894
 2902SOL    HW120168   2.087   4.603   3.040  0.2543  0.0043  0.6980
 2902SOL    HW220169   2.041   4.481   3.125 -0.5221 -1.4862 -0.6642
 2903SOL     OW20170   3.785   4.684  11.068  0.5999 -0.5610 -0.0843
 2903SOL    HW120171   3.858   0.023  11.070  1.3020 -1.3995 -0.2145
 2903SOL    HW220172   3.821   4.599  11.044 -0.7862 -1.3168  0.5376
 2904SOL     OW20173   0.935   0.744  16.580  0.1180 -0.1102  0.4739
 2904SOL    HW120174   0.880   0.798  16.636 -0.4305  1.3553 -1.4614
 2904SOL    HW220175   0.887   0.744  16.498  1.7755 -1.6805 -0.5032
 2905SOL     OW20176   0.918   0.450   3.692 -0.1891  0.2321  0.2132
 2905SOL    HW120177   0.850   0.442   3.759  0.8527  2.5235  1.5479
 2905SOL    HW220178   0.974   0.380   3.726 -2.3289 -1.5149  0.1608
 2906SOL     OW20179   2.471   2.081   6.726  0.1557 -0.2155  0.0471
 2906SOL    HW120180   2.557   2.114   6.749  0.1736  0.0395 -0.3931
 2906SOL    HW220181   2.481   1.986   6.738 -0.5406 -0.3711 -0.5930
 2907SOL     OW20182   0.572   2.188   7.900  0.0084 -0.2936 -0.6943
 2907SOL    HW120183   0.595   2.131   7.827 -0.3026  1.9814 -2.5837
 2907SOL    HW220184   0.511   2.132   7.948  0.9058 -1.3185 -0.7518
 2908SOL     OW20185   1.401   3.530   8.385  0.1845  0.4726 -0.2729
 2908SOL    HW120186   1.326   3.529   8.445  1.7710 -0.2221  1.6802
 2908SOL    HW220187   1.477   3.552   8.439  1.7582  1.0678 -2.7030
 2909SOL     OW20188   0.343   4.159  16.717 -0.2496 -0.0637  0.3830
 2909SOL    HW120189   0.398   4.221  16.766 -0.9050  0.3215  0.6358
 2909SOL    HW220190   0.392   4.155  16.635  1.0080 -0.9911  1.1780
 2910SOL     OW20191   2.699   1.661   8.353  0.6541  0.4667  0.0055
 2910SOL    HW120192   2.654   1.599   8.410 -0.6626 -0.8192 -2.4598
 2910SOL    HW220193   2.749   1.602   8.297 -2.1111 -1.1264 -0.7536
 2911SOL     OW20194   2.218   1.871   3.921  0.0876 -0.1773  0.0647
 2911SOL    HW120195   2.176   1.857   3.835 -1.1528 -1.2180  0.8396
 2911SOL    HW220196   2.145   1.909   3.971 -1.0423  0.0951 -1.7676
 2912SOL     OW20197   3.512   3.279  13.584 -0.5843  0.8575  0.5240
 2912SOL    HW120198   3.543   3.202  13.535  0.0763  0.1449  2.0432
 2912SOL    HW220199   3.439   3.296  13.524 -1.1712 -0.0403  0.9857
 2913SOL     OW20200   4.214   1.147   5.796 -0.4829 -0.3866  0.2977
 2913SOL    HW120201   4.197   1.218   5.859  0.2342 -0.7069  0.8415
 2913SOL    HW220202   4.306   1.131   5.813 -0.4449 -0.2676  0.2059
 2914SOL     OW20203   3.167   3.630   6.334  0.3498  0.3593 -0.3020
 2914SOL    HW120204   3.082   3.622   6.376 -0.6946  0.7226 -2.3197
 2914SOL    HW220205   3.215   3.693   6.388  1.1794 -0.6448  0.1249
 2915SOL     OW20206   0.808   2.317   0.807  0.5472 -0.1211 -0.3356
 2915SOL    HW120207   0.790   2.394   0.753 -1.0180  0.6769  1.3634
 2915SOL    HW220208   0.737   2.325   0.871  1.4004  1.2533  0.4373
 2916SOL     OW20209   3.353   1.894   7.443  0.3610  0.5348 -0.0251
 2916SOL    HW120210   3.293   1.881   7.369 -0.6318 -0.7154  1.0130
 2916SOL    HW220211   3.312   1.972   7.481 -2.4473 -1.1973  0.5184
 2917SOL     OW20212   4.551   4.666   7.300 -0.1895  0.2431 -0.0198
 2917SOL    HW120213   4.566   0.028   7.343  0.2313  0.2085 -0.1041
 2917SOL    HW220214   4.641   4.642   7.280 -0.1804 -0.5027  0.9221
 2918SOL     OW20215   1.828   3.403   3.826 -0.2934  0.5238 -0.2929
 2918SOL    HW120216   1.858   3.345   3.896  0.4654  0.2660 -0.8284
 2918SOL    HW220217   1.911   3.447   3.809 -0.6552  1.2393 -0.2221
 2919SOL     OW20218   1.326   4.216   3.351  0.4783  0.0483  0.0544
 2919SOL    HW120219   1.255   4.188   3.293 -0.5450  1.0369  0.8169
 2919SOL    HW220220   1.365   4.132   3.374 -0.6844 -0.1504  1.2758
 2920SOL     OW20221   3.682   3.890  14.407 -0.0108 -0.8056  0.0022
 2920SOL    HW120222   3.627   3.822  14.368 -0.0134  0.5919 -2.3925
 2920SOL    HW220223   3.756   3.836  14.435  2.0597  2.4531  0.8152
 2921SOL     OW20224   1.115   0.611   6.976  0.3248  0.4210 -0.0833
 2921SOL    HW120225   1.052   0.546   7.005  0.2712  1.2403  1.6449
 2921SOL    HW220226   1.135   0.572   6.890  2.1112  0.4893  0.3021
 2922SOL     OW20227   1.400   3.331  13.658 -0.0064 -0.8223 -1.1195
 2922SOL    HW120228   1.316   3.319  13.702  0.9907  0.8243  1.2315
 2922SOL    HW220229   1.446   3.247  13.665 -0.9139 -1.2548 -0.4185
 2923SOL     OW20230   2.965   0.068  14.360 -0.3724 -0.0517 -0.0274
 2923SOL    HW120231   3.006   0.097  14.278  0.0955 -1.8700 -0.4608
 2923SOL    HW220232   2.939   4.699  14.342 -1.7963  0.6431 -1.5140
 2924SOL     OW20233   4.081   0.138   3.300 -0.0557 -0.8038  0.1469
 2924SOL    HW120234   4.056   0.225   3.269  0.3557 -0.8274 -0.2475
 2924SOL    HW220235   4.082   0.157   3.394  0.0652 -1.0320  0.1915
 2925SOL     OW20236   0.075   1.256   8.768 -0.5295  0.1354 -0.1793
 2925SOL    HW120237   4.712   1.236   8.805 -1.4462  0.0014 -2.3870
 2925SOL    HW220238   0.055   1.329   8.710 -2.2897 -0.7536 -0.6507
 2926SOL     OW20239   3.454   1.501   1.189 -0.1294  0.1905  0.5081
 2926SOL    HW120240   3.421   1.440   1.122  0.9730  0.8110 -0.6101
 2926SOL    HW220241   3.412   1.459   1.264  0.3162 -0.9611  0.1083
 2927SOL     OW20242   0.379   2.413   7.807 -0.1812  0.1544  0.0432
 2927SOL    HW120243   0.363   2.319   7.798  0.3147  0.2559 -1.8752
 2927SOL    HW220244   0.454   2.409   7.866  0.1707  1.1059 -0.3274
 2928SOL     OW20245   2.516   3.271  17.687 -0.5321 -0.0208  0.3196
 2928SOL    HW120246   2.427   3.234  17.684  0.0189 -1.2123 -1.3265
 2928SOL    HW220247   2.496   3.363   0.012  1.7098  0.4486  0.3640
 2929SOL     OW20248   0.877   3.125   7.102  0.0337  0.1557  0.1730
 2929SOL    HW120249   0.917   3.209   7.124 -0.4190  0.4560 -0.1701
 2929SOL    HW220250   0.858   3.088   7.189 -0.3898  2.8166  1.2216
 2930SOL     OW20251   1.906   1.583   8.865  0.1445 -0.0954  0.6352
 2930SOL    HW120252   1.946   1.632   8.938  1.7588 -0.1464 -0.2327
 2930SOL    HW220253   1.971   1.515   8.853  0.8386  1.1655 -2.5750
 2931SOL     OW20254   0.391   1.266  11.173 -0.5719  0.2660 -0.0477
 2931SOL    HW120255   0.409   1.335  11.109  1.6090  0.1283  0.4281
 2931SOL    HW220256   0.328   1.212  11.125 -1.1347 -0.2345  1.2698
 2932SOL     OW20257   3.380   0.525   4.059  0.0204  0.1633  0.2654
 2932SOL    HW120258   3.462   0.543   4.014  0.8740  0.0847  1.7939
 2932SOL    HW220259   3.333   0.475   3.993  0.9710  4.1807 -3.4789
 2933SOL     OW20260   0.356   0.156   8.500 -0.6033  0.2970  0.3561
 2933SOL    HW120261   0.394   0.172   8.414 -1.1033  1.2512  0.3087
 2933SOL    HW220262   0.386   0.242   8.530 -0.8786  1.3012 -2.2251
 2934SOL     OW20263   2.262   0.349  11.009  0.2974  0.6574  0.2041
 2934SOL    HW120264   2.342   0.337  11.061  0.1782 -0.4858  0.1407
 2934SOL    HW220265   2.212   0.396  11.076  1.6969  0.6551  1.2546
 2935SOL     OW20266   4.585   1.069   6.510  0.1050 -0.1093 -0.6381
 2935SOL    HW120267   4.561   1.087   6.419 -0.0007 -2.0486 -0.9970
 2935SOL    HW220268   4.678   1.052   6.498  0.0680 -1.1597  0.4861
 2936SOL     OW20269   0.244   1.109   3.456  0.2186 -0.3882  0.2664
 2936SOL    HW120270   0.239   1.033   3.398 -1.6511  0.9078 -1.2578
 2936SOL    HW220271   0.195   1.071   3.528  0.3949 -2.2903 -0.6147
 2937SOL     OW20272   2.094   0.080   3.374 -0.3769  0.1058  0.5450
 2937SOL    HW120273   2.132   0.005   3.419  0.2148  0.2845  0.3482
 2937SOL    HW220274   2.128   0.063   3.286 -2.7651 -2.9152  0.2209
 2938SOL     OW20275   0.638   0.728   5.794  0.3004  0.2335 -0.3994
 2938SOL    HW120276   0.719   0.764   5.828  0.7139 -0.7433 -0.3549
 2938SOL    HW220277   0.665   0.636   5.785  0.9345  0.4632 -0.7933
 2939SOL     OW20278   1.450   1.901   5.269  1.0458  0.4302 -0.0802
 2939SOL    HW120279   1.386   1.942   5.326  0.5865  0.9110 -0.9471
 2939SOL    HW220280   1.527   1.952   5.296  0.2877  1.4913  0.0640
 2940SOL     OW20281   0.438   1.991   2.052 -0.6083 -0.4317 -0.5274
 2940SOL    HW120282   0.458   1.934   1.978  0.4939  0.4789 -0.9348
 2940SOL    HW220283   0.516   1.978   2.106 -0.4193  0.3994 -0.5951
 2941SOL     OW20284   2.567   2.598   3.464  0.9631 -0.4658  0.4349
 2941SOL    HW120285   2.622   2.634   3.394  0.0440  1.0997  0.5087
 2941SOL    HW220286   2.647   2.591   3.517  1.4523  1.0117 -0.0965
 2942SOL     OW20287   4.447   0.397  14.840  0.7883 -0.1037 -0.6955
 2942SOL    HW120288   4.416   0.392  14.750 -0.8093 -1.6238 -0.0617
 2942SOL    HW220289   4.537   0.369  14.829  0.6928 -0.4841 -0.5021
 2943SOL     OW20290   1.382   1.018   9.418 -0.5144  0.4559  0.2369
 2943SOL    HW120291   1.298   1.062   9.404  0.6939  2.5871 -0.3437
 2943SOL    HW220292   1.357   0.935   9.457  0.5181 -0.3815 -0.8690
 2944SOL     OW20293   4.001   1.066   4.478 -0.2698 -0.4067  0.3632
 2944SOL    HW120294   4.063   1.030   4.414  0.5951  0.3434  0.7782
 2944SOL    HW220295   3.920   1.078   4.427 -0.8685  1.0053  1.6297
 2945SOL     OW20296   3.049   4.703   4.711 -0.0525  0.5271 -0.0942
 2945SOL    HW120297   3.033   0.004   4.619 -0.7534 -0.3265 -0.1926
 2945SOL    HW220298   2.983   4.634   4.718 -0.0504  0.7892  2.2648
 2946SOL     OW20299   1.342   3.945   4.066 -0.0284 -0.4345  0.5182
 2946SOL    HW120300   1.284   3.971   3.994  1.7796  0.7696 -0.5138
 2946SOL    HW220301   1.312   3.859   4.094 -1.9439  0.0958  0.1601
 2947SOL     OW20302   3.053   0.097   2.273 -0.1907  0.3603  0.4385
 2947SOL    HW120303   3.088   0.089   2.362  0.9957  0.7040  0.0021
 2947SOL    HW220304   3.131   0.077   2.222 -0.0776  0.0654  0.7311
 2948SOL     OW20305   2.728   2.349  13.270  0.0728  0.3413  0.3129
 2948SOL    HW120306   2.781   2.395  13.205 -2.1062  1.3482 -0.7806
 2948SOL    HW220307   2.801   2.326  13.326 -1.2429  2.2369  2.8146
 2949SOL     OW20308   4.454   0.383   3.614 -0.1148  0.2029 -0.0287
 2949SOL    HW120309   4.531   0.327   3.605 -0.3798  0.0770 -1.5105
 2949SOL    HW220310   4.504   0.464   3.629  0.6348 -0.4205  0.8678
 2950SOL     OW20311   2.640   2.476   6.464 -0.4894 -0.1521 -0.1027
 2950SOL    HW120312   2.629   2.544   6.398 -1.1693  0.7921  0.9811
 2950SOL    HW220313   2.550   2.460   6.493  0.4269 -3.8323  0.7677
 2951SOL     OW20314   2.139   0.225  10.197  0.1036 -0.5063  0.6922
 2951SOL    HW120315   2.060   0.209  10.250  0.2033 -1.2910  0.6097
 2951SOL    HW220316   2.120   0.194  10.109  1.2709 -1.5549  0.8115
 2952SOL     OW20317   3.280   0.167  12.846 -0.1527  0.1715  0.0001
 2952SOL    HW120318   3.296   0.259  12.866  2.3870 -0.9076  2.8950
 2952SOL    HW220319   3.315   0.117  12.919 -3.3904 -0.6263  1.0094
 2953SOL     OW20320   2.218   3.550  12.687 -1.0804  0.4096  0.6412
 2953SOL    HW120321   2.255   3.621  12.739  0.2919  0.3614 -0.2498
 2953SOL    HW220322   2.210   3.490  12.761  0.9803  0.5167  0.9724
 2954SOL     OW20323   2.614   2.765   5.407 -0.0036  0.0953  0.0457
 2954SOL    HW120324   2.598   2.834   5.471  0.9559  1.0525 -0.7646
 2954SOL    HW220325   2.576   2.794   5.324 -3.6885 -1.2827  1.2327
 2955SOL     OW20326   3.077   1.969   0.504 -0.3610  0.5321 -0.3921
 2955SOL    HW120327   3.119   1.911   0.442 -0.1663  0.0533  0.1914
 2955SOL    HW220328   3.108   1.933   0.587  0.3755  3.5618  0.6592
 2956SOL     OW20329   0.540   3.582   8.958  0.0650 -0.2198 -0.9007
 2956SOL    HW120330   0.496   3.654   8.913 -0.6691 -0.2356 -0.2014
 2956SOL    HW220331   0.573   3.620   9.040 -0.5593 -1.0441 -0.2701
 2957SOL     OW20332   4.597   0.624   8.139  0.2838 -0.4715 -0.3085
 2957SOL    HW120333   4.609   0.535   8.107  1.9978 -0.4860  0.3778
 2957SOL    HW220334   4.602   0.677   8.059  1.7713  1.0025  0.7642
 2958SOL     OW20335   0.046   4.460   5.533  0.2920 -0.6315 -0.0703
 2958SOL    HW120336   0.108   4.525   5.499  0.9877 -1.1980  0.1216
 2958SOL    HW220337   4.692   4.477   5.477  0.1915  1.6537  0.7443
 2959SOL     OW20338   2.511   1.288   5.950 -0.5476  0.5087 -0.4565
 2959SOL    HW120339   2.572   1.341   5.899  1.7972 -0.9534  0.8592
 2959SOL    HW220340   2.455   1.250   5.883 -3.7904  0.3880  2.3206
 2960SOL     OW20341   4.470   0.857  14.731 -0.1588  0.0468  0.4841
 2960SOL    HW120342   4.445   0.798  14.802 -0.4460 -1.1853 -0.6545
 2960SOL    HW220343   4.398   0.919  14.740  0.2020  0.5530 -0.0979
 2961SOL     OW20344   2.406   1.178   5.729 -0.4566  0.1910 -0.0995
 2961SOL    HW120345   2.365   1.253   5.687  0.9977  1.2427  0.3722
 2961SOL    HW220346   2.431   1.126   5.652 -1.2252  0.9893 -0.8815
 2962SOL     OW20347   3.020   4.618   3.484 -0.6501  0.1875 -0.0308
 2962SOL    HW120348   2.928   4.612   3.460 -1.3069  1.1262  2.3048
 2962SOL    HW220349   3.021   4.580   3.572  1.7223  0.9643  0.2909
 2963SOL     OW20350   1.153   2.251   8.403  0.4220 -0.6408 -0.3971
 2963SOL    HW120351   1.158   2.342   8.376 -1.2189 -1.1707 -2.5367
 2963SOL    HW220352   1.179   2.256   8.495  0.9732 -0.2037 -0.5836
 2964SOL     OW20353   3.161   2.361   9.492  0.1912  0.5781  0.6873
 2964SOL    HW120354   3.113   2.300   9.547  0.9621 -0.1667  0.5462
 2964SOL    HW220355   3.170   2.445   9.537  2.5794  0.6530  0.1221
 2965SOL     OW20356   0.167   0.244   6.137  0.2669  0.2797 -0.4662
 2965SOL    HW120357   0.173   0.170   6.078  1.1240  0.0658 -0.1167
 2965SOL    HW220358   0.128   0.306   6.076 -0.8286 -0.1311 -0.1736
 2966SOL     OW20359   3.448   0.955  17.384  0.0210 -0.3034  0.2978
 2966SOL    HW120360   3.464   0.992  17.297  0.2064  0.5223  0.6733
 2966SOL    HW220361   3.444   0.863  17.359 -1.0219  0.2590 -1.6202
 2967SOL     OW20362   0.541   4.154   2.351  0.2708 -0.3132  0.1594
 2967SOL    HW120363   0.582   4.193   2.428  0.0215 -0.9099  0.5971
 2967SOL    HW220364   0.625   4.135   2.308 -0.5119  1.2202 -2.0425
 2968SOL     OW20365   4.267   4.169   9.525 -0.5255  0.0278 -0.3834
 2968SOL    HW120366   4.275   4.222   9.605 -2.5595  1.9456 -1.4539
 2968SOL    HW220367   4.250   4.242   9.465  0.3291 -0.7839 -1.5938
 2969SOL     OW20368   4.331   0.883  17.672 -0.8968  0.1778  0.1179
 2969SOL    HW120369   4.357   0.836  17.593 -3.0792 -0.4899 -0.1938
 2969SOL    HW220370   4.412   0.865   0.030 -0.5453  0.7735 -0.2466
 2970SOL     OW20371   3.847   0.056  16.161  1.0932 -1.3351 -0.6141
 2970SOL    HW120372   3.811   0.115  16.228 -1.3249 -3.5946  0.0775
 2970SOL    HW220373   3.937   0.084  16.149  0.3324  0.5173 -1.9083
 2971SOL     OW20374   0.899   4.341   4.190  0.3025 -0.2807 -0.1008
 2971SOL    HW120375   0.905   4.349   4.285  0.6239  1.5748 -0.2588
 2971SOL    HW220376   0.937   4.424   4.159  0.4626  0.0557  0.9896
 2972SOL     OW20377   4.632   1.283  12.239  0.1038 -0.0095  0.2685
 2972SOL    HW120378   4.637   1.357  12.300 -0.6372  0.1691  0.1217
 2972SOL    HW220379   4.600   1.320  12.157  0.1437 -0.5690  0.0011
 2973SOL     OW20380   1.479   3.799   7.006 -0.4275 -0.5259  0.0394
 2973SOL    HW120381   1.462   3.706   6.991  2.3115 -0.8211 -1.1721
 2973SOL    HW220382   1.451   3.809   7.098  3.6852  0.9293  1.1097
 2974SOL     OW20383   3.214   4.058  13.121 -0.4152  0.7098 -0.2768
 2974SOL    HW120384   3.240   4.126  13.059 -0.4513 -0.6609 -1.7785
 2974SOL    HW220385   3.179   3.997  13.057 -1.6680 -0.2914  1.3559
 2975SOL     OW20386   2.968   4.118   5.894  0.1996 -0.4751 -0.8762
 2975SOL    HW120387   3.009   4.053   5.837  2.0372 -0.3156  0.2473
 2975SOL    HW220388   3.046   4.162   5.930 -0.9304  1.2438 -0.5341
 2976SOL     OW20389   4.631   1.403  17.458 -0.1934 -0.1391 -0.0520
 2976SOL    HW120390   0.004   1.411  17.460  0.1158 -3.5335 -0.3630
 2976SOL    HW220391   4.625   1.311  17.430  1.5218 -1.0830  2.6591
 2977SOL     OW20392   4.230   1.828   5.752  0.2185  0.1787  0.4985
 2977SOL    HW120393   4.148   1.859   5.791 -0.0179  0.3124 -0.1079
 2977SOL    HW220394   4.203   1.834   5.660  4.0626  2.9127 -0.4716
 2978SOL     OW20395   0.796   3.195  11.270 -0.8613 -0.3369 -0.3747
 2978SOL    HW120396   0.746   3.268  11.233  1.0183  0.6816 -0.8892
 2978SOL    HW220397   0.887   3.223  11.277 -0.9027 -0.3917  0.3772
 2979SOL     OW20398   4.042   4.007   2.245 -0.5081  0.6109  0.3701
 2979SOL    HW120399   3.969   3.962   2.287  0.2929 -0.3771  0.6987
 2979SOL    HW220400   3.998   4.076   2.195 -0.6797  1.2147  1.3634
 2980SOL     OW20401   0.796   2.133  14.351 -0.1508  0.0182 -0.1108
 2980SOL    HW120402   0.825   2.190  14.421 -0.3147 -0.7377  0.5678
 2980SOL    HW220403   0.829   2.165  14.267 -0.0274 -0.2125 -0.1512
 2981SOL     OW20404   3.709   1.289   4.508 -0.4947  0.4114 -0.5379
 2981SOL    HW120405   3.778   1.328   4.454 -0.1897 -1.7157 -1.6742
 2981SOL    HW220406   3.714   1.199   4.475 -2.9104 -0.4623  1.5423
 2982SOL     OW20407   4.609   1.194   0.662  0.2800  0.0224 -0.9314
 2982SOL    HW120408   4.603   1.162   0.752 -1.1062 -0.5309 -1.2252
 2982SOL    HW220409   4.704   1.209   0.664 -0.0689  2.2467 -1.1172
 2983SOL     OW20410   1.030   4.444  12.104 -0.1293  0.6230  0.3735
 2983SOL    HW120411   1.024   4.536  12.130 -0.1216  0.1823  1.9570
 2983SOL    HW220412   0.944   4.414  12.133 -0.7155  1.2421 -0.7335
 2984SOL     OW20413   1.450   4.666   0.057 -0.0860  0.4564 -0.2389
 2984SOL    HW120414   1.412   0.003   0.122 -0.8586  1.0141 -1.1990
 2984SOL    HW220415   1.506   0.005   0.009  0.8270 -0.1995  0.0018
 2985SOL     OW20416   1.952   4.658   2.482  0.2416  0.6652  0.4469
 2985SOL    HW120417   1.945   4.628   2.391  0.3095 -2.6792  1.5436
 2985SOL    HW220418   1.878   4.718   2.480 -1.2890 -1.2370 -0.8032
 2986SOL     OW20419   3.687   4.335   7.111  0.1708 -0.8611  0.0581
 2986SOL    HW120420   3.726   4.254   7.144  1.0000 -0.7668 -0.6840
 2986SOL    HW220421   3.763   4.393   7.102  1.4982 -2.0359  3.5005
 2987SOL     OW20422   2.287   0.680   6.202 -0.2156  0.4856  0.0619
 2987SOL    HW120423   2.359   0.731   6.240 -1.1143  1.4035  0.5702
 2987SOL    HW220424   2.222   0.690   6.272 -0.7759 -3.1721  0.0575
 2988SOL     OW20425   2.960   2.466   4.826 -0.3547 -0.4293  0.2006
 2988SOL    HW120426   2.977   2.409   4.751  0.3979 -0.3258  0.2882
 2988SOL    HW220427   2.868   2.493   4.820  0.8114  3.2107 -1.1215
 2989SOL     OW20428   2.823   2.554   3.515 -0.3599 -0.0030  0.2018
 2989SOL    HW120429   2.840   2.461   3.499 -2.2950 -0.5960  1.6184
 2989SOL    HW220430   2.844   2.590   3.429 -1.1544  0.2964  0.1328
 2990SOL     OW20431   3.114   3.979  14.692  0.4165  0.2249 -0.5723
 2990SOL    HW120432   3.137   3.895  14.731 -0.8414 -0.1662 -0.6687
 2990SOL    HW220433   3.030   3.994  14.736  1.1076 -0.2760  0.9080
 2991SOL     OW20434   4.161   3.171   6.860  0.6178 -0.4801  0.3871
 2991SOL    HW120435   4.095   3.140   6.921  0.6540 -3.7506 -1.2551
 2991SOL    HW220436   4.112   3.235   6.808 -1.6447 -1.3698  1.4665
 2992SOL     OW20437   1.481   3.407  16.327 -0.4934  0.2043  0.0874
 2992SOL    HW120438   1.458   3.357  16.405  0.0526 -0.4559 -0.1721
 2992SOL    HW220439   1.529   3.340  16.277  0.9383  0.4391  1.1580
 2993SOL     OW20440   3.799   3.179  12.458  0.2998  0.6765  0.0994
 2993SOL    HW120441   3.777   3.172  12.551 -2.1380 -1.0938 -0.5886
 2993SOL    HW220442   3.754   3.099  12.428 -0.1611  1.5196 -1.4477
 2994SOL     OW20443   2.638   1.583   4.446  0.1435  0.4161  0.4798
 2994SOL    HW120444   2.708   1.533   4.405 -0.9657 -0.1108 -0.8024
 2994SOL    HW220445   2.604   1.520   4.510  0.6645 -1.4203 -1.0373
 2995SOL     OW20446   3.782   4.461   0.845  0.0272  0.2032  0.2428
 2995SOL    HW120447   3.797   4.368   0.829  1.9773  0.6676 -0.7164
 2995SOL    HW220448   3.821   4.497   0.765 -0.3756 -1.9813 -0.9333
 2996SOL     OW20449   4.237   3.413   4.121 -0.0888 -0.3362 -0.1959
 2996SOL    HW120450   4.144   3.391   4.116  0.2938 -2.2599  0.9943
 2996SOL    HW220451   4.234   3.505   4.146  1.3987 -0.4100  0.2772
 2997SOL     OW20452   1.332   1.611   6.267 -1.0173  0.2315  0.7660
 2997SOL    HW120453   1.407   1.668   6.286  1.2874 -2.4190 -0.3671
 2997SOL    HW220454   1.376   1.557   6.201 -1.9516 -2.0761  2.0088
 2998SOL     OW20455   1.881   3.668   6.463  0.7268 -0.1206 -0.3090
 2998SOL    HW120456   1.971   3.692   6.485  1.6073 -1.6658 -2.2285
 2998SOL    HW220457   1.886   3.654   6.369  2.9045  0.2245 -0.2381
 2999SOL     OW20458   4.202   2.057  10.060  0.4213 -0.0926  0.0491
 2999SOL    HW120459   4.169   2.140  10.026  0.3595  0.1260  0.6351
 2999SOL    HW220460   4.151   2.036  10.138  1.3541  0.3798  0.7923
 3000SOL     OW20461   0.565   1.719  16.728  0.1506 -0.1514  0.5006
 3000SOL    HW120462   0.512   1.785  16.772  0.1899 -0.0731  0.4304
 3000SOL    HW220463   0.623   1.774  16.675 -0.3435 -2.6008 -2.5944
 3001SOL     OW20464   2.909   4.455   8.348  0.2472  0.5708 -0.3944
 3001SOL    HW120465   2.912   4.385   8.282  3.3826 -0.0110  0.3561
 3001SOL    HW220466   2.820   4.447   8.381  1.3134 -0.5851  2.1936
 3002SOL     OW20467   2.296   1.762   3.317 -0.3843 -0.1664  0.3183
 3002SOL    HW120468   2.392   1.767   3.314 -0.3693  0.8002  2.3441
 3002SOL    HW220469   2.274   1.714   3.238  0.1370 -1.3294  0.8816
 3003SOL     OW20470   4.009   0.431   3.197 -0.0449 -0.3625  0.8626
 3003SOL    HW120471   3.958   0.510   3.178 -0.7561 -1.2365 -0.8022
 3003SOL    HW220472   4.085   0.455   3.144 -0.6436 -1.6644 -0.5607
 3004SOL     OW20473   0.481   0.113   3.857 -0.1602  0.2901  0.1472
 3004SOL    HW120474   0.569   0.108   3.819 -0.7663 -0.3561 -1.1376
 3004SOL    HW220475   0.431   0.074   3.786  1.0996 -2.9380  1.0486
 3005SOL     OW20476   0.388   1.381   4.486  0.4125 -0.3840  0.2273
 3005SOL    HW120477   0.349   1.319   4.424 -2.7429 -1.4068  3.1899
 3005SOL    HW220478   0.307   1.420   4.519  1.2800  2.9765 -1.6738
 3006SOL     OW20479   2.875   0.060  15.344 -0.4703 -0.6849 -0.4308
 3006SOL    HW120480   2.892   0.095  15.256 -1.3336  0.5918 -0.0959
 3006SOL    HW220481   2.836   0.138  15.384  0.0142 -0.0999 -1.0974
 3007SOL     OW20482   3.659   4.656   2.380  0.7598  0.6455  0.0508
 3007SOL    HW120483   3.630   4.630   2.467  0.3155  1.2275  0.0748
 3007SOL    HW220484   3.719   0.004   2.406  1.0147  0.4543 -0.0174
 3008SOL     OW20485   1.475   2.988   4.255  0.1384 -0.3700  0.0627
 3008SOL    HW120486   1.487   2.942   4.172 -1.6050 -0.1702 -0.3091
 3008SOL    HW220487   1.478   2.909   4.309  1.0612 -2.1179 -2.5576
 3009SOL     OW20488   4.074   2.540   7.456  0.5713  0.0835  0.1598
 3009SOL    HW120489   4.111   2.603   7.517  0.4054  1.8191 -1.5383
 3009SOL    HW220490   4.032   2.476   7.514  1.0904 -2.6011 -2.4251
 3010SOL     OW20491   2.670   1.572   9.161  0.1152  0.4836  0.3926
 3010SOL    HW120492   2.660   1.554   9.255 -0.6225 -0.0227  0.2133
 3010SOL    HW220493   2.740   1.638   9.163  0.5687  0.0066  0.4185
 3011SOL     OW20494   3.933   2.626   4.298 -0.0883  0.5402 -0.0517
 3011SOL    HW120495   3.890   2.613   4.213  0.8910 -2.2253 -0.1207
 3011SOL    HW220496   3.897   2.710   4.323  1.3946  0.7375  1.4414
 3012SOL     OW20497   3.940   3.662   1.271 -0.6042 -0.7717 -0.2142
 3012SOL    HW120498   3.964   3.730   1.334 -2.2317 -0.9795  0.6193
 3012SOL    HW220499   3.961   3.584   1.323  0.6174  0.8206  1.6664
 3013SOL     OW20500   3.672   2.102  17.454  0.3073 -0.2151 -0.0113
 3013SOL    HW120501   3.763   2.119  17.429 -0.4889  0.3321 -2.4913
 3013SOL    HW220502   3.666   2.007  17.465  0.7613 -0.1731  0.6139
 3014SOL     OW20503   2.232   1.526   5.851 -0.0822 -0.4269  0.0811
 3014SOL    HW120504   2.248   1.620   5.836  1.4390 -1.0773 -2.3308
 3014SOL    HW220505   2.271   1.488   5.773 -0.4631  1.0668 -0.8345
 3015SOL     OW20506   3.075   1.248  13.438  0.1683 -0.6031 -0.8877
 3015SOL    HW120507   3.026   1.315  13.485 -0.3590 -0.1387 -2.1045
 3015SOL    HW220508   3.073   1.284  13.349 -0.4535 -1.7174 -1.3262
 3016SOL     OW20509   2.802   0.091   3.798 -0.5558 -0.0522 -0.1197
 3016SOL    HW120510   2.790   0.005   3.838 -1.5186 -0.5872 -1.5349
 3016SOL    HW220511   2.740   0.140   3.852 -1.2791 -1.8585  0.6933
 3017SOL     OW20512   4.039   1.584   8.945 -0.6642 -0.0616 -0.0677
 3017SOL    HW120513   3.994   1.626   8.872  0.7942  2.7394  0.6659
 3017SOL    HW220514   4.044   1.652   9.011 -0.7644 -0.4770  0.3688
 3018SOL     OW20515   2.984   0.590  14.904 -0.1300  0.5898  0.1101
 3018SOL    HW120516   2.997   0.495  14.893 -2.0317  0.2939  0.3931
 3018SOL    HW220517   2.978   0.626  14.816 -0.9895 -0.2677 -0.1883
 3019SOL     OW20518   3.051   2.976   7.398  0.1849 -0.2080  0.2912
 3019SOL    HW120519   3.036   2.904   7.459  1.6904 -0.2890  0.5546
 3019SOL    HW220520   3.104   3.035   7.450 -2.1097  1.3128  0.9076
 3020SOL     OW20521   3.413   3.611  16.966  0.5644  0.1620  0.8392
 3020SOL    HW120522   3.339   3.590  17.022  0.0488  0.7952  0.3949
 3020SOL    HW220523   3.376   3.582  16.883  0.8414  0.5225  0.5908
 3021SOL     OW20524   2.786   3.123   2.906  0.1898  0.3723  0.3356
 3021SOL    HW120525   2.880   3.134   2.919  0.0952 -1.7114  2.6055
 3021SOL    HW220526   2.776   3.111   2.811 -2.6038  1.0912  0.5454
 3022SOL     OW20527   2.128   4.218   9.188  0.1188  0.2952 -0.1575
 3022SOL    HW120528   2.073   4.153   9.145  0.8231 -0.4344  0.0401
 3022SOL    HW220529   2.193   4.160   9.228 -1.7646 -2.5534 -1.1870
 3023SOL     OW20530   3.180   4.472  12.391  0.7076  0.2065 -0.2930
 3023SOL    HW120531   3.183   4.436  12.479 -1.3744  0.5232 -0.0818
 3023SOL    HW220532   3.182   4.566  12.409 -3.1953  0.2015  0.3010
 3024SOL     OW20533   3.178   0.960   7.953 -0.0082 -0.0999 -0.3513
 3024SOL    HW120534   3.203   1.031   8.012  1.6179 -1.0538  0.1045
 3024SOL    HW220535   3.103   0.998   7.907  0.6193 -0.1199 -1.4086
 3025SOL     OW20536   0.854   2.798   5.565 -0.5007  0.6385  0.1183
 3025SOL    HW120537   0.872   2.872   5.623 -0.2751  1.5686 -1.1443
 3025SOL    HW220538   0.846   2.728   5.630  0.8395  3.3579  3.2307
 3026SOL     OW20539   0.114   2.310   3.331 -0.0843 -0.3126  0.1641
 3026SOL    HW120540   0.206   2.314   3.304  0.4144 -0.5917  1.8034
 3026SOL    HW220541   0.067   2.314   3.248 -0.9034  0.7243  0.6725
 3027SOL     OW20542   2.680   2.244  16.749 -0.0375 -1.1300 -0.1551
 3027SOL    HW120543   2.628   2.200  16.815  0.1321 -0.6879  0.2745
 3027SOL    HW220544   2.624   2.255  16.673  0.0303 -0.1957 -0.0730
 3028SOL     OW20545   2.116   4.455   0.643 -0.4683 -0.1489 -0.2182
 3028SOL    HW120546   2.158   4.530   0.685 -0.3112 -0.1328 -0.4082
 3028SOL    HW220547   2.175   4.439   0.570  0.1650  0.1032  0.2448
 3029SOL     OW20548   4.055   4.457   8.512 -0.6193  1.0394 -0.2947
 3029SOL    HW120549   4.146   4.465   8.484 -0.4205  0.8637  0.3047
 3029SOL    HW220550   4.065   4.537   8.564  2.5029 -1.6457  3.2246
 3030SOL     OW20551   3.727   1.453   1.647  0.4779  0.1637 -0.0610
 3030SOL    HW120552   3.725   1.357   1.641 -1.7195  0.0921  1.9609
 3030SOL    HW220553   3.633   1.462   1.662  0.6406  0.9990  0.4239
 3031SOL     OW20554   1.572   3.154   8.185  0.0354  0.3675 -0.2525
 3031SOL    HW120555   1.510   3.113   8.125 -1.3521  2.2631 -0.1343
 3031SOL    HW220556   1.516   3.160   8.262 -2.2054  0.4960 -1.9028
 3032SOL     OW20557   2.975   0.226  17.282 -0.5833 -0.3009 -0.0049
 3032SOL    HW120558   2.947   0.225  17.374 -1.8721  2.1185 -0.3728
 3032SOL    HW220559   2.964   0.318  17.258 -0.9618  0.2154  2.1305
 3033SOL     OW20560   4.051   1.924  10.782  0.1597 -0.4279 -0.1836
 3033SOL    HW120561   4.002   1.905  10.702 -4.1885  0.0043  2.3821
 3033SOL    HW220562   4.073   2.013  10.757 -0.9177  0.0899  0.7227
 3034SOL     OW20563   4.035   0.381   9.812 -0.4125 -0.5694 -0.2732
 3034SOL    HW120564   4.093   0.329   9.757 -1.5996 -1.3718 -0.7671
 3034SOL    HW220565   3.976   0.420   9.748 -2.0863  0.0360  1.6482
 3035SOL     OW20566   1.470   1.212   3.602 -0.1405  0.0610  0.6047
 3035SOL    HW120567   1.448   1.152   3.673  0.0365 -1.6144 -0.7566
 3035SOL    HW220568   1.430   1.290   3.640  0.7762  0.8933 -0.1318
 3036SOL     OW20569   2.667   4.273   6.140  0.2732  0.8160 -0.5191
 3036SOL    HW120570   2.759   4.293   6.122  1.1431 -2.8720 -0.2228
 3036SOL    HW220571   2.672   4.199   6.200  2.2693  1.5164  0.1732
 3037SOL     OW20572   2.827   0.573   0.113  0.5640  0.3889  0.3724
 3037SOL    HW120573   2.903   0.515   0.121 -1.1127 -1.8596 -0.2210
 3037SOL    HW220574   2.771   0.532   0.178 -0.5019 -1.0511 -1.4778
 3038SOL     OW20575   1.076   4.614   5.339 -0.3450 -0.4036 -0.0958
 3038SOL    HW120576   0.993   4.638   5.380  0.2914  0.2929  0.7866
 3038SOL    HW220577   1.051   4.527   5.309  2.4336 -1.1137 -0.3037
 3039SOL     OW20578   3.600   0.800   8.375 -0.2569  0.3013  0.2343
 3039SOL    HW120579   3.638   0.773   8.292  0.9359  0.5496  0.7051
 3039SOL    HW220580   3.577   0.713   8.408 -2.8264  0.8924  0.0139
 3040SOL     OW20581   2.971   1.954   7.463 -0.4548 -0.5370 -0.4683
 3040SOL    HW120582   2.920   1.914   7.392 -2.3851 -2.0262  1.7381
 3040SOL    HW220583   3.040   1.888   7.471  0.1088 -0.0947 -1.7708
 3041SOL     OW20584   2.295   0.329  13.550  1.0531  0.1023  0.3781
 3041SOL    HW120585   2.340   0.301  13.631 -1.0276 -0.5274  1.3261
 3041SOL    HW220586   2.278   0.250  13.499 -1.5233  0.3070  0.9199
 3042SOL     OW20587   4.026   0.510   7.165 -0.0906  1.2697  0.0783
 3042SOL    HW120588   4.103   0.559   7.196  1.6611 -2.7691  2.2108
 3042SOL    HW220589   4.056   0.433   7.117  0.5586  0.7942  1.2291
 3043SOL     OW20590   1.805   2.592   4.156 -0.1766  0.2934  0.4044
 3043SOL    HW120591   1.764   2.612   4.071  1.0599  2.4369  0.3142
 3043SOL    HW220592   1.883   2.646   4.152  0.1277 -0.1040  0.9887
 3044SOL     OW20593   3.330   0.350   3.407 -0.5403 -0.0918  0.4032
 3044SOL    HW120594   3.351   0.401   3.485 -4.1295  0.8573  0.7336
 3044SOL    HW220595   3.406   0.384   3.359 -0.2513  1.7822  2.1785
 3045SOL     OW20596   1.864   2.049   7.203  0.5036  0.4491  0.5464
 3045SOL    HW120597   1.884   2.084   7.290 -1.4001  1.1613  0.7017
 3045SOL    HW220598   1.769   2.058   7.202  0.5398  0.6508 -2.2945
 3046SOL     OW20599   3.688   4.376   8.410  0.2893  0.3406 -0.4454
 3046SOL    HW120600   3.682   4.471   8.415  0.6297  0.3942 -0.9898
 3046SOL    HW220601   3.668   4.372   8.316  0.4249 -1.4659 -0.4067
 3047SOL     OW20602   1.568   1.286   4.054  0.1043 -0.3325  0.4455
 3047SOL    HW120603   1.549   1.332   3.972 -1.0374 -2.0512 -0.2529
 3047SOL    HW220604   1.647   1.233   4.040  0.0957 -0.0598 -0.6840
 3048SOL     OW20605   2.957   3.860   3.313 -0.0130  0.5050 -0.3490
 3048SOL    HW120606   2.912   3.851   3.397  2.3444 -1.0667  0.7455
 3048SOL    HW220607   3.047   3.839   3.338 -0.3023  0.9935  1.0919
 3049SOL     OW20608   3.798   0.824   5.107 -0.4455  0.1718  0.4318
 3049SOL    HW120609   3.849   0.846   5.186 -0.4452  1.3919  0.1020
 3049SOL    HW220610   3.713   0.811   5.148  0.4249 -3.1139  1.2062
 3050SOL     OW20611   2.741   4.193   4.365  0.0156 -0.1855  0.2669
 3050SOL    HW120612   2.741   4.189   4.269  0.5098  1.0411  0.2250
 3050SOL    HW220613   2.741   4.284   4.392 -1.8530  0.1517 -0.9298
 3051SOL     OW20614   4.191   2.162   4.237 -0.2585 -0.1539  0.0804
 3051SOL    HW120615   4.246   2.202   4.169 -0.5217  0.2104  0.0818
 3051SOL    HW220616   4.169   2.240   4.288 -2.8787 -0.7534 -0.1602
 3052SOL     OW20617   4.451   3.824   8.111  0.8844  0.1287  0.0947
 3052SOL    HW120618   4.365   3.855   8.140  0.8595 -0.1645  0.3322
 3052SOL    HW220619   4.483   3.779   8.189  2.0152 -0.3535 -0.6415
 3053SOL     OW20620   2.681   1.921   3.698 -0.0139  0.3268  0.2909
 3053SOL    HW120621   2.594   1.945   3.665  0.2860 -1.6350 -1.9438
 3053SOL    HW220622   2.660   1.851   3.760 -0.9118 -0.6527 -1.1046
 3054SOL     OW20623   2.422   2.650  17.521 -0.4114 -0.1934  0.0873
 3054SOL    HW120624   2.330   2.677  17.514 -0.1536  1.2097  2.1009
 3054SOL    HW220625   2.469   2.723  17.482 -0.3723 -0.3500 -0.1618
 3055SOL     OW20626   0.142   1.274   7.448 -0.0200 -0.1580  0.1190
 3055SOL    HW120627   0.141   1.349   7.508 -0.8451  0.4233 -0.6288
 3055SOL    HW220628   0.171   1.199   7.501  1.3900  1.0514  1.0721
 3056SOL     OW20629   3.440   2.083   8.894  0.1511  0.3175 -0.3314
 3056SOL    HW120630   3.463   1.996   8.928  0.3895  0.6814  0.4316
 3056SOL    HW220631   3.429   2.128   8.977 -1.0708 -0.8378  0.1401
 3057SOL     OW20632   2.981   3.016   5.887  0.3100 -0.0815 -0.0258
 3057SOL    HW120633   3.023   2.949   5.832  0.0070  0.7373 -1.2623
 3057SOL    HW220634   3.062   3.053   5.921  2.2055 -1.7077 -2.7167
 3058SOL     OW20635   4.500   3.689  14.474 -0.8094 -0.4432  0.4496
 3058SOL    HW120636   4.510   3.656  14.385 -1.2773  2.4917 -0.6902
 3058SOL    HW220637   4.456   3.773  14.462 -1.9159 -0.9728  0.8568
 3059SOL     OW20638   3.413   4.583   9.075  0.1481 -0.3334 -0.1107
 3059SOL    HW120639   3.440   4.645   9.007 -1.5421 -0.4984 -0.9145
 3059SOL    HW220640   3.396   4.640   9.150 -2.9752 -0.5210 -0.6976
 3060SOL     OW20641   2.311   3.085   5.133  0.0185 -0.8769  0.2950
 3060SOL    HW120642   2.323   3.151   5.202  0.5583 -0.6329 -0.0279
 3060SOL    HW220643   2.297   3.146   5.060 -2.4930 -2.3096 -0.4063
 3061SOL     OW20644   2.060   2.696   3.803 -0.1723 -0.2000 -0.1197
 3061SOL    HW120645   2.048   2.608   3.840 -0.0802 -0.4478 -0.6726
 3061SOL    HW220646   2.152   2.701   3.780  0.0165 -3.5080 -0.0640
 3062SOL     OW20647   2.223   3.753  16.328 -0.1173  0.0329 -0.3159
 3062SOL    HW120648   2.162   3.826  16.324  3.0491  2.7114  0.7428
 3062SOL    HW220649   2.218   3.714  16.240 -0.1396 -0.4614 -0.0987
 3063SOL     OW20650   0.982   4.369   0.913 -0.1377  0.7005  0.0836
 3063SOL    HW120651   0.981   4.318   0.994 -0.6146  0.1496 -0.2665
 3063SOL    HW220652   0.888   4.385   0.898 -0.5916 -0.2550  1.9435
 3064SOL     OW20653   1.396   0.506   5.014 -0.6790  0.0334  0.4542
 3064SOL    HW120654   1.380   0.494   5.108  0.1148  0.4474  0.6397
 3064SOL    HW220655   1.308   0.516   4.977  0.7611 -0.1597 -2.9269
 3065SOL     OW20656   2.131   0.450   6.584  0.4118 -0.3776  0.3082
 3065SOL    HW120657   2.068   0.468   6.654 -1.0453  0.9277 -1.3341
 3065SOL    HW220658   2.177   0.378   6.627 -1.9375 -0.4096  2.7808
 3066SOL     OW20659   1.947   1.212   5.407 -0.4797 -0.0392 -0.9454
 3066SOL    HW120660   2.020   1.162   5.370 -0.6785 -0.5993 -0.5739
 3066SOL    HW220661   1.908   1.256   5.332 -0.9457  0.1665 -0.5812
 3067SOL     OW20662   2.838   2.414   6.862  0.9036  0.0426  0.5926
 3067SOL    HW120663   2.925   2.404   6.901  1.5426  1.1568 -0.5463
 3067SOL    HW220664   2.791   2.424   6.944  0.1290  1.0535  0.0189
 3068SOL     OW20665   1.742   2.392   4.748 -0.4751  0.2580  0.0164
 3068SOL    HW120666   1.755   2.310   4.701  0.3205 -0.4651  1.5094
 3068SOL    HW220667   1.697   2.367   4.829  0.8060 -0.7737  0.4178
 3069SOL     OW20668   0.971   1.940  16.157 -0.4443  0.1359  0.0764
 3069SOL    HW120669   0.962   1.996  16.080 -2.0362  0.1174  0.2453
 3069SOL    HW220670   0.968   1.998  16.233 -1.9932 -1.8244  1.5231
 3070SOL     OW20671   3.795   3.371   6.221  0.5809 -0.5178  0.6676
 3070SOL    HW120672   3.704   3.385   6.194  0.6134 -1.2361  0.1807
 3070SOL    HW220673   3.788   3.387   6.315  0.2207  0.6240  0.4442
 3071SOL     OW20674   2.500   1.540   6.772  0.2895 -0.0171  0.2788
 3071SOL    HW120675   2.556   1.557   6.848 -0.1336  1.5553  0.2303
 3071SOL    HW220676   2.514   1.445   6.765 -0.7470 -0.1422 -0.0586
 3072SOL     OW20677   2.990   3.531   5.774  0.5328  0.3219 -0.2053
 3072SOL    HW120678   3.003   3.621   5.806 -0.1700  0.8499 -1.3894
 3072SOL    HW220679   3.045   3.486   5.837  0.3378 -0.7001 -0.7721
 3073SOL     OW20680   0.691   1.284   8.009  0.7812 -0.3044  0.1299
 3073SOL    HW120681   0.770   1.267   8.060 -0.5746 -0.8696  2.0375
 3073SOL    HW220682   0.627   1.236   8.061  0.6189 -0.0455  0.1697
 3074SOL     OW20683   0.384   3.392   4.753  0.1092  0.4235  0.0980
 3074SOL    HW120684   0.461   3.431   4.711 -0.9202  1.0211 -1.2306
 3074SOL    HW220685   0.403   3.299   4.736  0.3770  0.5586 -0.3641
 3075SOL     OW20686   1.118   4.542   9.725 -0.7864  0.2720 -0.3434
 3075SOL    HW120687   1.176   4.614   9.700 -1.5750  1.0739  0.1192
 3075SOL    HW220688   1.041   4.599   9.719 -0.6523  0.6256  1.3916
 3076SOL     OW20689   3.581   3.816   3.434  0.0461  0.2234  0.3399
 3076SOL    HW120690   3.578   3.723   3.457  0.7855 -0.3544 -1.8340
 3076SOL    HW220691   3.649   3.809   3.367  0.7535  0.0260  1.0867
 3077SOL     OW20692   2.412   4.064   5.180 -0.2282  0.0401 -0.3883
 3077SOL    HW120693   2.489   4.007   5.169 -1.5578 -1.8496  0.0911
 3077SOL    HW220694   2.345   4.007   5.219 -1.8241  2.8383  0.9689
 3078SOL     OW20695   2.787   0.227   5.790 -0.0458  0.4181 -0.2556
 3078SOL    HW120696   2.702   0.250   5.826  0.5748  0.5579  1.1206
 3078SOL    HW220697   2.771   0.155   5.728  1.1219 -2.2183  2.4824
 3079SOL     OW20698   4.106   0.403   5.158  0.0273 -0.1715  0.0641
 3079SOL    HW120699   4.158   0.473   5.198 -1.5773  0.8255  0.4295
 3079SOL    HW220700   4.018   0.425   5.189 -0.5404  0.1859 -1.8034
 3080SOL     OW20701   3.762   2.673   5.486 -0.0545 -0.4094  0.3613
 3080SOL    HW120702   3.830   2.726   5.445 -0.8276 -0.5192 -1.0555
 3080SOL    HW220703   3.775   2.696   5.578  1.6848 -0.4052  0.1136
 3081SOL     OW20704   1.933   1.958  12.560 -0.4896  0.1821  0.0483
 3081SOL    HW120705   2.006   2.021  12.560 -1.0409  0.8280 -1.1611
 3081SOL    HW220706   1.961   1.920  12.643  1.5224  0.7662 -0.3575
 3082SOL     OW20707   2.843   1.148   1.030 -0.2539  0.0912  0.6362
 3082SOL    HW120708   2.752   1.141   1.058 -0.5952 -2.3667 -1.0649
 3082SOL    HW220709   2.890   1.102   1.100 -0.0766 -1.3940 -0.4570
 3083SOL     OW20710   4.671   3.806   5.581 -0.0292  0.5270  0.4304
 3083SOL    HW120711   0.005   3.883   5.591  1.0488 -0.0010 -1.4509
 3083SOL    HW220712   0.002   3.741   5.535 -0.6204 -2.2715  3.7045
 3084SOL     OW20713   1.592   0.124  15.920 -0.2813  0.3307 -0.9465
 3084SOL    HW120714   1.553   0.189  15.861  1.0805 -1.0032 -3.2851
 3084SOL    HW220715   1.684   0.149  15.916 -0.2913  0.9555  2.3058
 3085SOL     OW20716   3.323   4.542  13.760 -0.2916  0.5667  0.2296
 3085SOL    HW120717   3.329   4.519  13.853  0.5839  3.0260  0.7933
 3085SOL    HW220718   3.272   4.623  13.768  2.2880  2.2840 -0.6246
 3086SOL     OW20719   1.901   2.290   8.921 -0.1131  0.6231  0.1096
 3086SOL    HW120720   1.896   2.289   8.826  0.0041  0.3149  0.1079
 3086SOL    HW220721   1.812   2.304   8.953 -0.3882 -0.2812 -0.2806
 3087SOL     OW20722   3.035   3.021   6.817  0.7361  0.2402 -0.4005
 3087SOL    HW120723   3.000   2.957   6.879  1.0374  1.2109  0.7648
 3087SOL    HW220724   2.987   3.093   6.858  0.7709  1.1760 -1.9896
 3088SOL     OW20725   2.513   3.954   3.994 -0.0969 -0.1047  0.1593
 3088SOL    HW120726   2.559   3.896   3.933  0.0562  2.3220 -2.0305
 3088SOL    HW220727   2.435   3.907   4.022 -0.9582 -0.0231 -2.0818
 3089SOL     OW20728   3.184   0.141  17.040  0.1817  0.3745 -0.2130
 3089SOL    HW120729   3.178   0.198  16.964  0.0457 -0.0666 -0.5330
 3089SOL    HW220730   3.275   0.110  17.032  0.8784  1.7874  2.3578
 3090SOL     OW20731   3.315   3.971  15.772  0.6558 -0.3877  0.3446
 3090SOL    HW120732   3.327   3.978  15.867 -1.1344  0.0740  0.5272
 3090SOL    HW220733   3.275   4.056  15.752 -0.7997 -1.2758 -0.4799
 3091SOL     OW20734   2.067   1.657   6.039 -0.4709  0.2787 -0.4288
 3091SOL    HW120735   2.129   1.722   6.073 -0.4216 -0.9812  1.8652
 3091SOL    HW220736   2.118   1.610   5.973 -0.9728  0.8981 -1.2626
 3092SOL     OW20737   0.243   0.062   7.790 -0.1930  0.2610  0.6254
 3092SOL    HW120738   0.317   0.008   7.819  0.5496  1.3772  0.7817
 3092SOL    HW220739   0.169   0.003   7.803  1.6624 -2.3915 -0.6634
 3093SOL     OW20740   0.534   4.290   4.642  0.1287  0.0676  0.0656
 3093SOL    HW120741   0.554   4.268   4.733  3.0898 -0.0474 -0.6396
 3093SOL    HW220742   0.465   4.357   4.648 -1.3265 -1.4303  0.1511
 3094SOL     OW20743   3.059   4.180   7.327 -0.0865  0.0115  0.0669
 3094SOL    HW120744   3.111   4.192   7.406  0.9866 -2.5463 -0.2651
 3094SOL    HW220745   3.013   4.263   7.340 -0.6083 -0.2191 -0.3156
 3095SOL     OW20746   2.030   1.157   2.459 -0.2260  0.2260  0.1260
 3095SOL    HW120747   2.041   1.241   2.504  1.0878  0.2759 -0.2728
 3095SOL    HW220748   1.994   1.097   2.525 -1.0522  2.3968  1.6389
 3096SOL     OW20749   1.501   0.557   6.617  0.6620 -0.1944  0.1252
 3096SOL    HW120750   1.516   0.542   6.710 -0.3811 -1.2709  0.1337
 3096SOL    HW220751   1.444   0.634   6.623 -1.2086 -1.6577  1.1019
 3097SOL     OW20752   4.595   2.255  12.529  0.3263 -0.1376  0.8044
 3097SOL    HW120753   4.597   2.247  12.433  1.9112  2.8749  0.6128
 3097SOL    HW220754   4.635   2.170  12.548  1.3565  0.1690  0.0015
 3098SOL     OW20755   3.940   1.055  12.382 -0.2274  1.1924  0.2287
 3098SOL    HW120756   3.969   1.115  12.451  0.2989  0.2154  0.8397
 3098SOL    HW220757   3.948   1.115  12.307  1.7767 -0.1507 -0.6222
 3099SOL     OW20758   4.641   0.155   3.605 -0.1201  0.0618  0.2446
 3099SOL    HW120759   4.598   0.076   3.637  1.9956 -2.1126 -2.2775
 3099SOL    HW220760   4.657   0.136   3.512  2.4113 -1.9281  1.0719
 3100SOL     OW20761   3.115   0.339   0.550 -0.2131  0.2271 -0.3996
 3100SOL    HW120762   3.167   0.315   0.627  2.2946  1.8058 -1.6185
 3100SOL    HW220763   3.092   0.429   0.574  0.3839  0.4853 -0.8091
 3101SOL     OW20764   2.115   2.883   8.606 -0.3069 -0.0462  0.1132
 3101SOL    HW120765   2.112   2.793   8.574 -0.4018 -0.1613  0.4525
 3101SOL    HW220766   2.207   2.907   8.595 -0.2187  0.0476  1.0886
 3102SOL     OW20767   0.413   0.412   8.880 -0.3396  0.1273 -0.3266
 3102SOL    HW120768   0.422   0.501   8.912  4.3065  0.2769 -1.9984
 3102SOL    HW220769   0.366   0.362   8.947  0.7599 -1.4712 -0.7235
 3103SOL     OW20770   3.912   2.678  13.640 -0.1636  0.3929 -0.0186
 3103SOL    HW120771   4.006   2.670  13.624  0.0730  1.2457  0.9997
 3103SOL    HW220772   3.894   2.620  13.714 -0.1072 -1.1440 -1.2042
 3104SOL     OW20773   0.324   4.516   6.817  0.5841 -0.1357  0.1799
 3104SOL    HW120774   0.285   4.537   6.732  1.0666 -2.1026 -0.5176
 3104SOL    HW220775   0.248   4.519   6.875 -1.0877 -1.5377 -1.9484
 3105SOL     OW20776   3.061   1.931  14.141  0.3428  0.0360 -0.3865
 3105SOL    HW120777   3.045   2.011  14.092 -0.2762  0.4889  0.5575
 3105SOL    HW220778   3.079   1.867  14.072 -0.0331 -0.3198 -0.1565
 3106SOL     OW20779   0.523   1.917   9.156 -0.1788  0.2762  0.0473
 3106SOL    HW120780   0.544   1.878   9.240  0.1298 -1.5065 -0.8630
 3106SOL    HW220781   0.562   2.005   9.154  2.5778 -0.9174  2.3424
 3107SOL     OW20782   3.783   1.284   8.746  0.2486  0.0892  0.0614
 3107SOL    HW120783   3.874   1.277   8.773  0.3443 -1.6840 -0.7506
 3107SOL    HW220784   3.773   1.197   8.708  0.3933  0.7119 -1.4015
 3108SOL     OW20785   2.937   3.392  15.788 -0.5225 -0.2383 -0.1991
 3108SOL    HW120786   2.874   3.346  15.734  0.2031 -2.2464  0.6530
 3108SOL    HW220787   2.906   3.473  15.748 -0.9326 -0.7457 -0.8999
 3109SOL     OW20788   4.013   1.180  13.083 -0.7890 -0.7790 -0.4186
 3109SOL    HW120789   4.031   1.160  13.175  1.3944  0.1937 -0.6391
 3109SOL    HW220790   3.917   1.176  13.082 -0.7276 -2.8513  0.9777
 3110SOL     OW20791   4.325   0.742   1.327  0.0935  0.0395 -0.1555
 3110SOL    HW120792   4.375   0.703   1.254  2.2111 -1.1752  1.9488
 3110SOL    HW220793   4.281   0.824   1.304  1.5243  1.0494  0.7772
 3111SOL     OW20794   0.438   3.991   4.662 -0.1263  0.4055  0.2724
 3111SOL    HW120795   0.412   3.905   4.627 -0.3046  0.6542 -0.2086
 3111SOL    HW220796   0.414   3.979   4.754  0.4421  1.2760  0.5329
 3112SOL     OW20797   3.561   2.285  17.125  0.4987  0.3874 -0.1970
 3112SOL    HW120798   3.597   2.329  17.202 -0.3782 -1.2197  1.1325
 3112SOL    HW220799   3.638   2.286  17.067  0.9545 -3.4059  0.3623
 3113SOL     OW20800   2.574   1.176   1.799 -0.6611  0.5611 -0.2699
 3113SOL    HW120801   2.556   1.228   1.721  1.9884 -2.1095 -2.6705
 3113SOL    HW220802   2.514   1.103   1.784 -1.8968  1.9712 -2.1232
 3114SOL     OW20803   2.004   3.662   2.225  0.4866  0.0027 -0.1923
 3114SOL    HW120804   2.033   3.652   2.135  2.1701  0.6951  0.2750
 3114SOL    HW220805   1.912   3.688   2.214  0.0678 -1.1219  0.6556
 3115SOL     OW20806   1.372   0.421   0.168 -0.1430 -0.3917 -0.0395
 3115SOL    HW120807   1.279   0.408   0.185  0.0669  1.7773  2.7357
 3115SOL    HW220808   1.387   0.511   0.140 -0.7066 -0.0367  0.7877
 3116SOL     OW20809   2.239   1.685  13.653 -0.2305  0.2540 -0.1573
 3116SOL    HW120810   2.175   1.663  13.720  1.9632  0.2658  1.9446
 3116SOL    HW220811   2.299   1.611  13.661 -2.8749 -1.8553  0.3754
 3117SOL     OW20812   3.914   2.104   1.946  0.8516 -0.1126 -0.0553
 3117SOL    HW120813   3.924   2.104   1.851 -0.9682 -1.3746 -0.2272
 3117SOL    HW220814   3.915   2.199   1.962  2.8101 -0.1642  0.2111
 3118SOL     OW20815   0.123   2.877   9.526  0.6042 -0.0943  0.1175
 3118SOL    HW120816   0.169   2.814   9.582  0.2428  0.8010  1.4291
 3118SOL    HW220817   0.184   2.949   9.507  1.2527 -0.5321  0.5682
 3119SOL     OW20818   3.895   0.963   2.940 -0.1796  0.1363 -0.4415
 3119SOL    HW120819   3.856   0.891   2.891  2.4018 -0.2206 -1.9214
 3119SOL    HW220820   3.976   0.979   2.892  0.2193 -1.6850 -0.3736
 3120SOL     OW20821   0.159   0.573   8.279 -0.3774  0.1846  0.5455
 3120SOL    HW120822   0.082   0.630   8.277  0.6017  1.4179 -2.2919
 3120SOL    HW220823   0.141   0.534   8.365 -1.7952 -1.7871 -0.6576
 3121SOL     OW20824   0.269   1.522  16.927 -0.5763  0.3049 -0.1541
 3121SOL    HW120825   0.345   1.465  16.932  0.9464  2.5227  1.7412
 3121SOL    HW220826   0.210   1.466  16.876  0.7216  0.7496 -2.1458
 3122SOL     OW20827   1.158   0.061  13.395 -0.1513  0.1265 -0.2329
 3122SOL    HW120828   1.193   0.150  13.389  1.9055 -0.7605 -1.5201
 3122SOL    HW220829   1.102   0.061  13.317 -0.8565 -2.8352  0.2901
 3123SOL     OW20830   2.213   2.650   5.760 -0.7508  0.0278  0.4602
 3123SOL    HW120831   2.230   2.742   5.740 -1.2335 -0.1592 -0.8384
 3123SOL    HW220832   2.118   2.642   5.756 -0.7365  1.3261 -2.3813
 3124SOL     OW20833   4.115   1.091  16.238 -0.1245 -0.2216  0.5558
 3124SOL    HW120834   4.110   1.003  16.198  2.3402 -1.0303  2.0489
 3124SOL    HW220835   4.033   1.094  16.287 -0.4540  2.1732 -0.1426
 3125SOL     OW20836   2.610   2.717  14.037 -0.4358  0.1829  0.2441
 3125SOL    HW120837   2.674   2.654  14.006 -0.5582 -0.8381  2.0991
 3125SOL    HW220838   2.535   2.671  14.000  0.8701 -1.6629 -0.0718
 3126SOL     OW20839   1.839   0.742  16.326 -0.0830  0.7401 -0.2579
 3126SOL    HW120840   1.745   0.758  16.323 -0.5869 -2.0519  0.4102
 3126SOL    HW220841   1.836   0.662  16.377  0.6571  0.3784 -0.7731
 3127SOL     OW20842   0.718   3.578   1.991  0.1807 -0.2719 -0.5174
 3127SOL    HW120843   0.665   3.540   1.921  0.6579 -2.5223  0.3327
 3127SOL    HW220844   0.800   3.601   1.948  0.4699  0.1991  0.2763
 3128SOL     OW20845   4.055   3.285   2.050 -0.2726  0.3776  0.3603
 3128SOL    HW120846   3.974   3.282   1.998 -0.5733  0.8282  0.8069
 3128SOL    HW220847   4.057   3.380   2.065 -2.1820  0.2594  1.3499
 3129SOL     OW20848   2.321   0.777   6.983 -0.3363 -0.2027  0.6718
 3129SOL    HW120849   2.392   0.764   7.045 -0.9919 -0.4417  1.3724
 3129SOL    HW220850   2.355   0.737   6.903  1.0426 -0.3039  1.3135
 3130SOL     OW20851   2.072   1.717  10.650 -0.0618  0.0472 -0.5458
 3130SOL    HW120852   1.996   1.674  10.611  0.1171 -1.9650  1.3510
 3130SOL    HW220853   2.038   1.806  10.662  2.6688  0.8621  1.0850
 3131SOL     OW20854   2.138   3.796   6.476 -0.0893  0.5078  0.2888
 3131SOL    HW120855   2.113   3.860   6.543 -0.9257  1.1570 -0.6448
 3131SOL    HW220856   2.195   3.843   6.415  1.4178 -1.4881  0.1493
 3132SOL     OW20857   0.124   2.777   7.645 -0.8090 -0.5510 -0.5106
 3132SOL    HW120858   0.160   2.845   7.703 -1.1564 -0.4569 -0.4051
 3132SOL    HW220859   0.136   2.703   7.704  1.2297  0.1994  0.0041
 3133SOL     OW20860   4.116   3.263   9.803 -0.2725 -0.6800 -0.3775
 3133SOL    HW120861   4.073   3.347   9.816 -0.6558 -1.2065  1.6468
 3133SOL    HW220862   4.043   3.203   9.815 -2.0715  2.0819  2.4215
 3134SOL     OW20863   2.935   2.276   1.371  0.1659 -0.2991 -0.0240
 3134SOL    HW120864   2.960   2.323   1.292  0.7462 -1.7183 -0.6715
 3134SOL    HW220865   2.841   2.287   1.383  0.0428 -1.1016 -0.2752
 3135SOL     OW20866   0.636   1.732   8.289 -0.5073 -0.7061 -0.1776
 3135SOL    HW120867   0.673   1.675   8.357  2.3190  0.3725 -0.8394
 3135SOL    HW220868   0.575   1.787   8.339  0.0743 -2.1551  2.1336
 3136SOL     OW20869   3.612   1.714  11.484 -0.0849  0.4559 -0.1630
 3136SOL    HW120870   3.561   1.788  11.451  1.3491  1.8629  0.7860
 3136SOL    HW220871   3.563   1.687  11.562  1.8946 -2.9074 -0.0524
 3137SOL     OW20872   2.560   0.153   2.047  0.2801  0.1127  0.3495
 3137SOL    HW120873   2.558   0.060   2.022  3.6767 -0.3896  1.8893
 3137SOL    HW220874   2.470   0.185   2.046  0.1539 -0.2738 -0.1208
 3138SOL     OW20875   2.064   3.482   3.692  0.3559  0.1952 -0.0552
 3138SOL    HW120876   2.080   3.513   3.603 -0.3675  3.9885  1.1305
 3138SOL    HW220877   2.136   3.420   3.701  2.0969  1.9370 -1.8746
 3139SOL     OW20878   1.844   2.635   8.728 -0.3154 -0.6627 -0.2121
 3139SOL    HW120879   1.799   2.593   8.655 -0.5758 -2.5243  1.0030
 3139SOL    HW220880   1.769   2.668   8.778 -0.4825 -2.8333  0.9653
 3140SOL     OW20881   1.850   0.034   4.089 -0.0130  0.7652  0.5283
 3140SOL    HW120882   1.902   0.097   4.039  1.5876 -0.7335  0.3087
 3140SOL    HW220883   1.793   0.102   4.125 -2.2543 -1.5937  1.4531
 3141SOL     OW20884   1.529   2.334   3.874 -0.2891 -0.6644 -0.5624
 3141SOL    HW120885   1.461   2.375   3.928  0.8184 -0.7560  0.9128
 3141SOL    HW220886   1.505   2.366   3.787 -2.0472  0.3834  0.3116
 3142SOL     OW20887   1.665   4.464  11.564 -0.5005  0.3932 -0.2532
 3142SOL    HW120888   1.760   4.460  11.573 -0.4718 -0.6395 -0.9864
 3142SOL    HW220889   1.650   4.461  11.470 -1.8345  0.3907 -0.0508
 3143SOL     OW20890   3.117   3.786  10.418  0.1613 -1.1326 -0.3712
 3143SOL    HW120891   3.113   3.881  10.409  1.9392 -0.9378  1.0041
 3143SOL    HW220892   3.102   3.774  10.512  0.3908  1.2263 -0.0397
 3144SOL     OW20893   2.316   2.841   1.041 -0.0380  0.2582  0.3531
 3144SOL    HW120894   2.334   2.766   0.985 -0.0998 -2.3909  3.8276
 3144SOL    HW220895   2.220   2.843   1.047 -0.0473  2.3795 -0.6728
 3145SOL     OW20896   0.076   4.454   0.941 -0.0699 -0.1963 -0.0926
 3145SOL    HW120897   4.704   4.456   0.926 -0.2611  0.1825  1.2003
 3145SOL    HW220898   0.079   4.531   0.997 -0.1735  0.5675 -1.1322
 3146SOL     OW20899   3.709   3.313   9.217  0.0494 -0.6865 -0.0441
 3146SOL    HW120900   3.702   3.389   9.276 -2.7492 -0.5466 -0.5920
 3146SOL    HW220901   3.797   3.277   9.231  0.3544 -1.0670 -3.0982
 3147SOL     OW20902   3.709   2.163   0.762 -0.3305 -0.0912 -0.2728
 3147SOL    HW120903   3.625   2.145   0.720 -1.4907  0.7411  1.6817
 3147SOL    HW220904   3.775   2.097   0.740  0.1996  0.2206  0.3451
 3148SOL     OW20905   3.189   3.653   5.167 -0.3151 -0.8428  0.1469
 3148SOL    HW120906   3.128   3.697   5.109 -0.2214 -0.9212 -0.0111
 3148SOL    HW220907   3.139   3.571   5.174  0.7897 -1.5772 -0.5704
 3149SOL     OW20908   3.547   0.903   6.727 -0.3463  0.4799  0.5572
 3149SOL    HW120909   3.514   0.986   6.762 -0.4553 -0.1370  1.9170
 3149SOL    HW220910   3.538   0.928   6.635  4.1160 -2.0795 -0.5684
 3150SOL     OW20911   0.558   1.675   0.662 -0.1273  0.6208  0.1620
 3150SOL    HW120912   0.577   1.613   0.732  0.0369  0.2251 -0.2280
 3150SOL    HW220913   0.573   1.627   0.580  2.7484  0.6017  0.7010
 3151SOL     OW20914   1.486   2.428   2.686  0.9752 -0.4157 -0.7051
 3151SOL    HW120915   1.476   2.463   2.598 -1.4583 -2.6660 -1.2992
 3151SOL    HW220916   1.527   2.346   2.658  1.2310  0.5688 -3.2383
 3152SOL     OW20917   2.621   0.416   5.003 -0.0342  0.0649 -0.1789
 3152SOL    HW120918   2.596   0.443   5.091 -0.8062  0.0422 -0.3943
 3152SOL    HW220919   2.588   0.488   4.949  1.9052  0.6101 -0.6317
 3153SOL     OW20920   3.330   2.125   6.841 -0.1726  0.2223 -0.0193
 3153SOL    HW120921   3.419   2.102   6.812 -1.2683 -3.0215 -0.7595
 3153SOL    HW220922   3.295   2.039   6.861 -2.1630  0.8770 -0.6842
 3154SOL     OW20923   4.050   3.865   1.410 -0.2166  0.3035 -0.5226
 3154SOL    HW120924   4.118   3.827   1.466  0.7468  1.2311 -1.0708
 3154SOL    HW220925   4.082   3.952   1.387  2.8264 -0.8027 -0.4742
 3155SOL     OW20926   4.295   4.536   1.156 -0.3621 -0.2895  0.2551
 3155SOL    HW120927   4.366   4.537   1.220 -0.6152  0.3262  0.5274
 3155SOL    HW220928   4.297   4.442   1.138  2.0890  0.1530 -1.9248
 3156SOL     OW20929   4.369   2.086   7.418  0.0197  0.7578 -0.4208
 3156SOL    HW120930   4.348   2.124   7.503  1.5295 -1.4158  0.9213
 3156SOL    HW220931   4.357   2.159   7.358  2.0652  1.0560 -0.4605
 3157SOL     OW20932   4.678   2.464   9.930 -0.2974 -0.2428  0.2244
 3157SOL    HW120933   4.667   2.508  10.015  2.7149  0.6192  0.1885
 3157SOL    HW220934   4.677   2.375   9.963  0.1557 -0.4161 -0.2325
 3158SOL     OW20935   3.139   1.313   3.156  0.3438  0.5469 -0.2148
 3158SOL    HW120936   3.217   1.314   3.211  0.0716  0.3507  0.1723
 3158SOL    HW220937   3.127   1.407   3.158 -1.1954  0.4171 -3.3449
 3159SOL     OW20938   0.664   2.411   3.195  0.6507 -0.4743 -0.1242
 3159SOL    HW120939   0.737   2.456   3.152  0.8712 -0.4359  0.2832
 3159SOL    HW220940   0.591   2.473   3.194  0.9249 -0.1608 -0.7646
 3160SOL     OW20941   0.551   2.660   3.968 -0.1450  0.0972 -0.5101
 3160SOL    HW120942   0.479   2.704   3.923  2.0480  3.9795 -0.1995
 3160SOL    HW220943   0.511   2.622   4.046 -1.0087 -2.7076 -2.3100
 3161SOL     OW20944   4.542   3.688   8.849 -0.0589  0.1819 -0.0427
 3161SOL    HW120945   4.471   3.752   8.846 -0.8523 -0.6308  1.5289
 3161SOL    HW220946   4.506   3.605   8.882 -0.0149  0.0623 -0.2984
 3162SOL     OW20947   1.722   4.712  16.889 -0.1969 -0.1858 -0.1242
 3162SOL    HW120948   1.634   0.012  16.858 -0.4361 -0.3830  0.4118
 3162SOL    HW220949   1.749   0.057  16.951 -0.0431 -0.5700  0.2230
 3163SOL     OW20950   3.187   1.699   3.933  0.6266 -0.1319 -0.1342
 3163SOL    HW120951   3.271   1.665   3.964  0.8849  2.2681  1.8137
 3163SOL    HW220952   3.143   1.710   4.017 -1.0413 -0.4074 -0.9681
 3164SOL     OW20953   2.243   1.136   1.511  0.1394  0.0572  0.3539
 3164SOL    HW120954   2.336   1.154   1.526  0.5819 -0.8589 -1.4002
 3164SOL    HW220955   2.236   1.145   1.416  3.8212  1.4626  0.2258
 3165SOL     OW20956   3.009   1.033   2.265 -0.1133 -0.0673 -0.2706
 3165SOL    HW120957   2.915   1.052   2.262  0.3213  2.1727  0.1632
 3165SOL    HW220958   3.023   0.967   2.333 -0.5432 -1.0136 -1.0925
 3166SOL     OW20959   4.480   1.265   6.045 -0.0542 -0.1832 -0.2450
 3166SOL    HW120960   4.493   1.199   5.977  3.0184 -0.5670  0.7302
 3166SOL    HW220961   4.406   1.228   6.092 -0.0985 -0.3587 -0.4548
 3167SOL     OW20962   3.177   2.271   3.259  0.0711  0.7567  0.0997
 3167SOL    HW120963   3.112   2.238   3.320  1.3342 -1.4546  0.2369
 3167SOL    HW220964   3.254   2.263   3.315  1.2204  2.3277 -1.2425
 3168SOL     OW20965   1.921   3.241   2.095 -0.3193 -0.6127 -0.1698
 3168SOL    HW120966   1.847   3.297   2.074 -0.8002 -1.3223 -0.3850
 3168SOL    HW220967   1.892   3.207   2.180 -0.6286  0.7639  0.2793
 3169SOL     OW20968   1.467   0.652   2.849  0.1689  0.2789 -0.2659
 3169SOL    HW120969   1.528   0.590   2.811  0.4205 -0.0875  0.7314
 3169SOL    HW220970   1.522   0.693   2.916  2.2466  0.8259 -2.3343
 3170SOL     OW20971   0.949   4.488   9.427 -0.0594  0.0379 -0.1447
 3170SOL    HW120972   0.935   4.492   9.332 -0.8284  1.2978  0.0181
 3170SOL    HW220973   0.939   4.581   9.447  1.1100  0.0395  0.4159
 3171SOL     OW20974   3.324   2.007  14.767  0.1093  0.1757 -0.4149
 3171SOL    HW120975   3.278   2.004  14.683  0.3952  0.6684 -0.5891
 3171SOL    HW220976   3.318   2.100  14.788  0.6660  0.1427 -0.0975
 3172SOL     OW20977   4.546   2.266   6.700  0.1223 -0.4135 -0.9213
 3172SOL    HW120978   4.490   2.286   6.774  0.5467  1.1685 -1.0179
 3172SOL    HW220979   4.489   2.294   6.628  0.1470 -3.5755 -2.2034
 3173SOL     OW20980   2.955   0.966  13.018  0.0315  0.1867 -0.2339
 3173SOL    HW120981   2.899   1.034  12.982  1.2530  0.2960 -1.9313
 3173SOL    HW220982   2.913   0.891  12.976 -3.5105 -1.1602  5.6388
 3174SOL     OW20983   1.422   1.596  13.908 -0.3831 -0.0173  0.2618
 3174SOL    HW120984   1.345   1.605  13.852  0.0429 -0.8792 -0.4704
 3174SOL    HW220985   1.431   1.500  13.904 -1.6943 -0.0991 -0.8740
 3175SOL     OW20986   3.714   3.718   4.306 -1.1127  0.1015  0.2539
 3175SOL    HW120987   3.771   3.758   4.372 -0.0666  0.4103 -0.8541
 3175SOL    HW220988   3.659   3.663   4.362  1.1996 -1.9112  0.5553
 3176SOL     OW20989   3.005   1.406   5.705 -0.3374 -0.2106  0.5542
 3176SOL    HW120990   3.040   1.493   5.722  0.9793 -0.6223  0.0059
 3176SOL    HW220991   2.978   1.369   5.789 -2.1694 -1.7193 -0.7116
 3177SOL     OW20992   1.817   1.582  10.620 -0.0495  0.3039 -0.1137
 3177SOL    HW120993   1.728   1.616  10.616 -0.1785  0.0604  0.6552
 3177SOL    HW220994   1.814   1.545  10.709 -2.2260  1.9568  0.4987
 3178SOL     OW20995   4.168   0.543  13.489  0.1961  0.0303 -0.0109
 3178SOL    HW120996   4.131   0.456  13.505  0.7474 -0.0539  0.7741
 3178SOL    HW220997   4.262   0.522  13.491  0.1574  0.1217  2.5322
 3179SOL     OW20998   2.104   2.191   1.392  0.6810 -0.1692  0.8258
 3179SOL    HW120999   2.106   2.287   1.386  0.9306 -0.2568 -0.4041
 3179SOL    HW221000   2.195   2.167   1.411  0.6113 -0.5960  0.6075
 3180SOL     OW21001   3.973   4.040   4.212  0.9117 -0.4251  0.2183
 3180SOL    HW121002   4.040   4.102   4.242  1.3928 -0.3387 -1.0571
 3180SOL    HW221003   4.033   3.970   4.185  0.7606 -0.1581 -0.8070
 3181SOL     OW21004   3.702   3.997   7.025  0.0726 -0.1599  0.2552
 3181SOL    HW121005   3.711   3.903   7.041 -0.1442 -0.5672 -1.9918
 3181SOL    HW221006   3.723   4.036   7.110 -1.3836 -0.5172  0.7827
 3182SOL     OW21007   0.871   3.930   0.712 -0.4861 -0.5122  0.4182
 3182SOL    HW121008   0.787   3.974   0.699 -1.2585 -1.3242  2.6013
 3182SOL    HW221009   0.839   3.853   0.760 -1.9164  1.4915  2.6635
 3183SOL     OW21010   0.716   1.721  11.803 -0.1133 -0.1595  0.4214
 3183SOL    HW121011   0.660   1.799  11.809 -2.2337 -1.5336 -1.5823
 3183SOL    HW221012   0.663   1.644  11.826 -0.4032  0.1986  0.9647
 3184SOL     OW21013   1.059   0.332   7.033  0.1595 -0.3678 -0.0103
 3184SOL    HW121014   1.006   0.262   6.993  1.5451 -1.7239  0.5418
 3184SOL    HW221015   1.119   0.349   6.961 -2.4737  0.5484 -2.0168
 3185SOL     OW21016   1.920   4.252   4.021  0.0554 -0.1090 -0.0638
 3185SOL    HW121017   1.831   4.228   3.996 -0.0653  2.3580 -1.9071
 3185SOL    HW221018   1.910   4.344   4.047 -0.6634 -0.0192 -0.6899
 3186SOL     OW21019   0.520   3.972   5.972 -0.2385 -0.1358  0.3254
 3186SOL    HW121020   0.500   4.030   6.045  1.5989  0.5190  0.2920
 3186SOL    HW221021   0.573   4.037   5.927  0.5513 -1.8805 -1.3004
 3187SOL     OW21022   2.172   1.315   6.061  0.0607 -0.1904 -0.4131
 3187SOL    HW121023   2.204   1.248   6.000  1.7339 -1.0604  1.4236
 3187SOL    HW221024   2.107   1.354   6.003 -0.0530  3.1234  2.0053
 3188SOL     OW21025   4.164   2.302   9.854 -1.1144  0.0305 -0.1901
 3188SOL    HW121026   4.253   2.334   9.867 -2.3796  3.2336  0.5455
 3188SOL    HW221027   4.119   2.370   9.804  0.8533  0.8279 -0.9019
 3189SOL     OW21028   0.153   2.066   0.292  0.4150  0.0700 -0.5331
 3189SOL    HW121029   0.199   2.132   0.344 -0.1819 -2.0893  2.7296
 3189SOL    HW221030   0.212   1.991   0.291 -0.9715 -1.0344  1.6869
 3190SOL     OW21031   1.995   1.153   8.860  0.7937  0.3750  0.4427
 3190SOL    HW121032   2.072   1.204   8.835  0.8586  0.2247  0.3391
 3190SOL    HW221033   2.047   1.096   8.918 -0.9430 -0.6084  1.0296
 3191SOL     OW21034   0.637   4.704   6.659 -0.5822  0.5205 -0.2649
 3191SOL    HW121035   0.685   4.637   6.707  1.3990  1.2839 -1.1839
 3191SOL    HW221036   0.594   0.034   6.727  0.0281  0.0300  0.4978
 3192SOL     OW21037   3.659   0.113   9.331  0.0579  0.2429 -0.4710
 3192SOL    HW121038   3.738   0.090   9.379  0.7640  1.5230 -1.0020
 3192SOL    HW221039   3.691   0.192   9.287 -1.0264  1.8209  1.5560
 3193SOL     OW21040   1.837   2.565   2.174 -0.2821  0.3291  0.6180
 3193SOL    HW121041   1.754   2.521   2.191  0.2318 -0.6053  0.7021
 3193SOL    HW221042   1.829   2.626   2.247 -2.7267 -0.6492  1.1637
 3194SOL     OW21043   1.636   1.760   8.864 -0.1354  0.2723  0.0616
 3194SOL    HW121044   1.731   1.751   8.876 -0.1224 -2.1661 -2.0081
 3194SOL    HW221045   1.627   1.735   8.772  4.1940  0.0153 -0.2950
 3195SOL     OW21046   1.017   3.362   2.795 -0.5066  0.0504 -0.3584
 3195SOL    HW121047   1.031   3.293   2.731 -1.9106 -0.4959 -0.0774
 3195SOL    HW221048   0.998   3.309   2.872 -1.2698 -2.0240 -1.9821
 3196SOL     OW21049   1.595   3.521   7.399 -0.0296  0.1441 -0.4666
 3196SOL    HW121050   1.686   3.493   7.406  0.2712  1.1046 -0.5989
 3196SOL    HW221051   1.614   3.608   7.434  1.1125  0.4886 -1.9480
 3197SOL     OW21052   2.951   3.962   4.972 -0.1857 -0.0653  0.8961
 3197SOL    HW121053   3.004   4.035   4.940  0.5384 -1.8282 -2.0040
 3197SOL    HW221054   2.956   3.976   5.066  2.4984  2.0764  0.4299
 3198SOL     OW21055   3.455   3.538   0.854 -0.0610  0.0476  0.1920
 3198SOL    HW121056   3.383   3.559   0.794  0.3531  1.3197  0.1359
 3198SOL    HW221057   3.427   3.562   0.943 -0.3646 -0.1575  0.1521
 3199SOL     OW21058   2.775   1.202   7.420  0.0346 -0.1379  0.2559
 3199SOL    HW121059   2.846   1.156   7.377  0.0776  0.2443 -0.0851
 3199SOL    HW221060   2.709   1.171   7.358 -0.1954 -0.9902  0.9290
 3200SOL     OW21061   3.452   1.526   6.132  0.5272 -0.1826  0.2545
 3200SOL    HW121062   3.497   1.510   6.216  0.8778 -0.4022  0.0242
 3200SOL    HW221063   3.525   1.560   6.081  0.3217 -1.8009 -1.1111
 3201SOL     OW21064   1.613   0.968   6.054 -0.1433  0.3724 -0.0675
 3201SOL    HW121065   1.563   1.013   5.985  0.3683 -0.6728 -1.1227
 3201SOL    HW221066   1.669   1.037   6.091 -0.9957  1.8148 -1.4168
 3202SOL     OW21067   2.281   1.951   2.841  0.5802 -0.3750 -0.4817
 3202SOL    HW121068   2.291   1.859   2.863  0.4720  0.0758  1.4035
 3202SOL    HW221069   2.332   1.989   2.912  0.1935 -0.1577 -0.3251
 3203SOL     OW21070   1.330   2.137   4.575 -0.5952  0.0398  0.2731
 3203SOL    HW121071   1.418   2.116   4.546 -2.4839 -3.7695 -2.7753
 3203SOL    HW221072   1.282   2.149   4.492 -1.0952  1.4000  0.7610
 3204SOL     OW21073   1.319   4.416  11.218 -0.2503  0.1474  0.2183
 3204SOL    HW121074   1.305   4.322  11.215  2.5651 -0.2729 -0.0911
 3204SOL    HW221075   1.394   4.425  11.159 -0.3917  1.4544  0.2236
 3205SOL     OW21076   0.144   1.960   8.781 -0.0694  0.1332  0.2281
 3205SOL    HW121077   0.096   1.946   8.863 -1.0949 -0.1105 -0.4128
 3205SOL    HW221078   0.235   1.944   8.807  0.2053 -1.6384 -1.7593
 3206SOL     OW21079   3.963   0.248   4.938  0.0968  0.2082  0.0997
 3206SOL    HW121080   4.006   0.257   5.023  0.6192  0.3265 -0.1756
 3206SOL    HW221081   3.921   0.162   4.944  0.8587 -0.0987  1.0130
 3207SOL     OW21082   2.226   0.139   2.274 -0.0289  0.2341  0.4191
 3207SOL    HW121083   2.266   0.052   2.273 -2.7956 -1.0282 -0.0143
 3207SOL    HW221084   2.256   0.176   2.357  0.3469  0.5461  0.1464
 3208SOL     OW21085   0.683   3.436  10.044  0.1127 -0.4654  0.3795
 3208SOL    HW121086   0.763   3.477  10.012 -1.8599  2.0882 -1.2167
 3208SOL    HW221087   0.699   3.343  10.025 -0.8528 -0.9846  2.0837
 3209SOL     OW21088   0.054   2.954   6.726 -0.1934 -0.7616 -0.0739
 3209SOL    HW121089   0.082   3.034   6.772 -1.0012 -1.8064  2.2059
 3209SOL    HW221090   0.089   2.971   6.638  0.1029  1.9738  0.5450
 3210SOL     OW21091   3.268   2.406   5.545  0.4787 -0.0799 -0.7780
 3210SOL    HW121092   3.179   2.371   5.539  1.2177 -1.9739 -0.6755
 3210SOL    HW221093   3.282   2.390   5.452  0.8500  0.7961 -0.8771
 3211SOL     OW21094   1.994   0.267   9.550 -0.0915 -0.3909  0.5539
 3211SOL    HW121095   1.961   0.348   9.588  2.0688  1.1665 -0.9043
 3211SOL    HW221096   1.999   0.215   9.630 -1.7014 -2.6804 -0.8236
 3212SOL     OW21097   2.398   3.162   3.731  0.5879  0.2367  0.2578
 3212SOL    HW121098   2.467   3.100   3.754  0.3714  0.4795  1.5822
 3212SOL    HW221099   2.446   3.244   3.729 -0.0858  0.6255  0.0125
 3213SOL     OW21100   2.381   3.706   4.026 -0.5386  0.0010 -0.3858
 3213SOL    HW121101   2.333   3.627   4.000 -1.1624 -0.2992  1.6074
 3213SOL    HW221102   2.450   3.706   3.961  0.6717 -0.1549  0.9078
 3214SOL     OW21103   2.453   3.606   0.276  0.3992 -0.3641  0.7032
 3214SOL    HW121104   2.379   3.554   0.244  1.2108 -1.4287  0.5569
 3214SOL    HW221105   2.454   3.588   0.370 -0.3764 -1.7150  0.4522
 3215SOL     OW21106   3.834   1.712  15.809 -0.0145  0.6110 -0.5805
 3215SOL    HW121107   3.846   1.807  15.810 -2.5980  0.9043  0.8400
 3215SOL    HW221108   3.865   1.694  15.897 -1.5479  0.6621 -0.0338
 3216SOL     OW21109   1.321   0.665   7.456 -0.0362  0.1137  0.0492
 3216SOL    HW121110   1.304   0.604   7.384  0.6046  0.6638 -0.5687
 3216SOL    HW221111   1.416   0.652   7.454  0.0016  0.4101  0.0241
 3217SOL     OW21112   4.225   0.384   5.668 -0.4678 -0.0296  0.0375
 3217SOL    HW121113   4.164   0.325   5.625 -2.3370  0.8141  1.5566
 3217SOL    HW221114   4.237   0.455   5.604  3.0697  0.0645  0.7875
 3218SOL     OW21115   1.360   0.344   2.418 -0.1238  0.7409 -0.4555
 3218SOL    HW121116   1.330   0.339   2.327  0.1770 -2.7141 -0.3812
 3218SOL    HW221117   1.327   0.259   2.447  0.0419 -0.0407 -2.5153
 3219SOL     OW21118   3.836   1.639   5.303 -0.8927 -0.2472  0.1199
 3219SOL    HW121119   3.881   1.723   5.308 -2.4343  0.5893 -0.0338
 3219SOL    HW221120   3.903   1.575   5.327 -0.1203 -0.2763 -2.0561
 3220SOL     OW21121   4.061   4.335   7.037  1.0354 -0.8769  0.2809
 3220SOL    HW121122   3.990   4.351   7.100  1.2494 -1.0572  0.5687
 3220SOL    HW221123   4.111   4.416   7.045  0.2806 -0.4058  0.2553
 3221SOL     OW21124   4.535   2.981   2.581  0.3883  0.4811  0.5813
 3221SOL    HW121125   4.608   2.929   2.613 -1.5104 -1.9227  0.9993
 3221SOL    HW221126   4.575   3.068   2.581  0.0425  0.6414  0.6521
 3222SOL     OW21127   3.098   0.691   8.811 -0.3881 -0.6723 -0.6433
 3222SOL    HW121128   3.168   0.719   8.870 -1.3527  4.4522 -1.8912
 3222SOL    HW221129   3.044   0.770   8.809  0.3997 -0.1296 -0.7530
 3223SOL     OW21130   3.247   4.629   6.907  0.4002 -0.6264  0.0964
 3223SOL    HW121131   3.212   4.660   6.824 -0.8236 -0.2159  0.7690
 3223SOL    HW221132   3.324   4.686   6.909 -1.3031  1.6787 -1.4925
 3224SOL     OW21133   1.358   3.486   1.078  0.6063 -0.4694  0.0669
 3224SOL    HW121134   1.336   3.518   1.166  1.8775  0.8334 -0.0974
 3224SOL    HW221135   1.338   3.393   1.064  0.7839 -0.3049 -1.3074
 3225SOL     OW21136   3.482   2.939   6.638  0.1725  0.3693 -0.6052
 3225SOL    HW121137   3.470   2.863   6.581 -2.1095 -0.5611  1.1319
 3225SOL    HW221138   3.415   3.002   6.614 -0.5086 -0.1605 -0.0813
 3226SOL     OW21139   3.718   0.384   6.950 -0.2031  0.1669 -0.0224
 3226SOL    HW121140   3.745   0.294   6.932  0.7026  0.2728  0.7822
 3226SOL    HW221141   3.669   0.404   6.871  0.4047 -0.0545 -0.4554
 3227SOL     OW21142   3.132   2.529  16.637  0.3679 -0.2567  0.7776
 3227SOL    HW121143   3.152   2.442  16.671  0.0138 -1.1058 -1.2059
 3227SOL    HW221144   3.040   2.542  16.658  0.1767  0.5326 -0.5198
 3228SOL     OW21145   1.862   4.111   9.369  0.0024  0.5563  0.2159
 3228SOL    HW121146   1.937   4.161   9.399 -0.4048  1.5344 -0.3954
 3228SOL    HW221147   1.828   4.070   9.449 -0.0269  0.6758  0.2645
 3229SOL     OW21148   3.838   1.148  16.721  0.3672 -0.1639 -0.0194
 3229SOL    HW121149   3.764   1.142  16.661  0.3020  0.3043  0.0187
 3229SOL    HW221150   3.872   1.059  16.706 -0.7383 -0.4831 -0.5631
 3230SOL     OW21151   0.917   3.131   6.320  0.2077 -0.3258  0.4920
 3230SOL    HW121152   0.945   3.042   6.299  0.2288  0.3288 -2.2204
 3230SOL    HW221153   0.922   3.171   6.234  3.1070 -1.9762 -0.0992
 3231SOL     OW21154   1.918   1.913   2.882 -0.1002  0.9662  0.0800
 3231SOL    HW121155   1.924   1.949   2.793 -0.1109  1.1657  0.1593
 3231SOL    HW221156   1.850   1.846   2.880  1.7643 -0.9345 -0.4839
 3232SOL     OW21157   4.472   2.864   9.968 -0.1063  0.4364  0.5741
 3232SOL    HW121158   4.508   2.872   9.880 -1.9416  0.7055 -0.1489
 3232SOL    HW221159   4.384   2.897   9.951 -0.4416 -0.1236  1.2276
 3233SOL     OW21160   4.688   2.693   8.098 -0.1645 -0.0913 -1.0046
 3233SOL    HW121161   4.595   2.715   8.110 -0.1614 -0.4832 -0.2926
 3233SOL    HW221162   4.721   2.671   8.185  0.1072 -0.5673 -1.2290
 3234SOL     OW21163   3.454   1.081   8.562 -0.0838  0.3783  0.0595
 3234SOL    HW121164   3.412   1.065   8.647 -1.7819 -1.6022 -1.1675
 3234SOL    HW221165   3.377   1.089   8.506  0.1766  0.7363 -0.2486
 3235SOL     OW21166   0.659   2.780   2.166 -0.1842  0.6387 -0.2644
 3235SOL    HW121167   0.691   2.822   2.245  0.7901 -1.1173  0.2652
 3235SOL    HW221168   0.635   2.854   2.109  0.4313  0.5598 -0.6220
 3236SOL     OW21169   2.264   0.595   4.800  1.3069  0.2764 -0.1652
 3236SOL    HW121170   2.239   0.629   4.886  1.5627  1.7118 -0.6619
 3236SOL    HW221171   2.186   0.542   4.786  0.7886  0.8644  0.4510
 3237SOL     OW21172   2.961   3.511  12.150  0.0770 -0.0285 -0.6825
 3237SOL    HW121173   2.953   3.434  12.207  1.8820 -0.9845 -1.7117
 3237SOL    HW221174   3.055   3.509  12.133 -0.2093 -1.2171 -2.1964
 3238SOL     OW21175   3.435   3.402   7.289 -0.2049  0.1864 -0.0448
 3238SOL    HW121176   3.382   3.322   7.280  2.0532 -1.6695  3.0895
 3238SOL    HW221177   3.432   3.420   7.383 -1.1709  1.4329 -0.3161
 3239SOL     OW21178   4.516   3.650   8.328 -0.3397 -0.6563  0.1272
 3239SOL    HW121179   4.457   3.628   8.400 -0.0744  1.0200  0.8458
 3239SOL    HW221180   4.490   3.579   8.268 -1.9472 -1.0199  1.2577
 3240SOL     OW21181   2.546   4.040   7.614  0.1914  0.2945  0.6769
 3240SOL    HW121182   2.606   3.987   7.667  0.3183  1.1188  1.3577
 3240SOL    HW221183   2.463   4.007   7.648  0.3700 -1.5313 -0.6830
 3241SOL     OW21184   1.210   4.522   5.995 -0.3981 -0.4624 -0.4140
 3241SOL    HW121185   1.258   4.456   6.044  2.4033  1.3408 -0.7105
 3241SOL    HW221186   1.165   4.581   6.056 -0.0571 -2.8979  2.1880
 3242SOL     OW21187   2.469   1.390   8.669 -0.1672 -0.6985 -0.0715
 3242SOL    HW121188   2.522   1.409   8.592 -0.8305  0.1094 -0.3288
 3242SOL    HW221189   2.396   1.452   8.662  0.5872  0.1693 -0.2926
 3243SOL     OW21190   1.980   0.040   3.122  0.9454  0.1956 -0.0199
 3243SOL    HW121191   1.989   0.130   3.090  0.1609  0.4913  0.5829
 3243SOL    HW221192   1.888   0.022   3.102  1.6388  1.0040 -3.9282
 3244SOL     OW21193   2.812   1.484   3.291 -0.4046  0.1560 -0.3911
 3244SOL    HW121194   2.876   1.555   3.301 -0.8154  0.2065  1.8170
 3244SOL    HW221195   2.818   1.458   3.199  0.3108 -2.1608  0.3252
 3245SOL     OW21196   1.520   1.214   6.918  0.1502  0.0247  0.3783
 3245SOL    HW121197   1.528   1.309   6.920 -1.3879  0.1523  0.1786
 3245SOL    HW221198   1.595   1.204   6.976  0.8179  1.6311 -0.2126
 3246SOL     OW21199   3.580   2.197  16.381 -0.4011  0.2261  0.5700
 3246SOL    HW121200   3.554   2.134  16.313 -0.6431 -1.1571  1.9354
 3246SOL    HW221201   3.655   2.156  16.424 -1.0600 -1.9737 -0.3452
 3247SOL     OW21202   3.600   3.284   7.962 -0.0540 -0.1050  0.7615
 3247SOL    HW121203   3.648   3.317   8.037  0.9300  1.3483 -0.4986
 3247SOL    HW221204   3.662   3.254   7.896 -2.0341  0.8757 -1.5615
 3248SOL     OW21205   2.154   4.239  13.868 -0.0579 -0.0750 -0.2989
 3248SOL    HW121206   2.223   4.195  13.918 -0.4474 -0.8893 -0.4635
 3248SOL    HW221207   2.080   4.217  13.925  0.0047 -1.3211 -0.6887
 3249SOL     OW21208   2.508   1.007   0.243  0.1328 -0.1423  0.3771
 3249SOL    HW121209   2.579   0.943   0.244  1.1570  1.0004  0.2949
 3249SOL    HW221210   2.501   1.042   0.332 -1.2614 -3.6438  1.6358
 3250SOL     OW21211   2.762   0.784   3.513 -0.0607  0.5259 -0.3061
 3250SOL    HW121212   2.815   0.751   3.441  0.9282 -0.2830  0.7890
 3250SOL    HW221213   2.796   0.874   3.510  1.6409 -0.0868  0.2179
 3251SOL     OW21214   2.841   0.542   7.021  0.1196 -0.2419  0.1607
 3251SOL    HW121215   2.826   0.518   6.930 -0.5069  2.4684 -0.4569
 3251SOL    HW221216   2.793   0.471   7.064 -1.7781  2.2935  2.2420
 3252SOL     OW21217   4.343   4.214  10.008  0.9670 -0.2472  0.0237
 3252SOL    HW121218   4.385   4.130  10.026 -0.6584 -1.1114 -0.1643
 3252SOL    HW221219   4.421   4.258  10.041  2.4118 -2.6551 -0.1967
 3253SOL     OW21220   2.900   2.018   2.487  0.3094  0.5737 -0.0237
 3253SOL    HW121221   2.910   1.959   2.413  0.2280  0.9554 -0.3396
 3253SOL    HW221222   2.960   2.092   2.473 -0.6986  0.9653 -2.2379
 3254SOL     OW21223   4.414   4.039   2.702  0.0194 -0.1472  0.2581
 3254SOL    HW121224   4.447   3.957   2.664 -0.8468  0.6351 -2.1832
 3254SOL    HW221225   4.484   4.062   2.763 -0.2245  0.4455  0.3056
 3255SOL     OW21226   0.049   2.552  14.795 -0.3047 -0.0047  0.3465
 3255SOL    HW121227   0.062   2.499  14.873 -0.6227 -2.5067 -1.2807
 3255SOL    HW221228   4.719   2.620  14.837 -1.5240 -2.4863  2.8219
 3256SOL     OW21229   0.685   2.726   1.010 -0.7241  0.2617  0.2101
 3256SOL    HW121230   0.730   2.754   0.930  0.9785 -2.7818  0.1425
 3256SOL    HW221231   0.756   2.723   1.074 -0.0282  0.2761 -0.5538
 3257SOL     OW21232   2.403   3.973  17.358  0.3379 -0.1286  0.7336
 3257SOL    HW121233   2.479   3.918  17.376  0.5286  0.6418  2.2945
 3257SOL    HW221234   2.337   3.918  17.400  1.5592  0.1408  2.9917
 3258SOL     OW21235   0.954   3.154   4.578  0.0255 -0.0765  0.4649
 3258SOL    HW121236   0.989   3.066   4.590  0.2134 -0.0104  0.4104
 3258SOL    HW221237   0.975   3.189   4.665 -0.6659  0.5377  0.3878
 3259SOL     OW21238   2.889   0.744  17.583 -0.2307  0.3435 -0.4237
 3259SOL    HW121239   2.892   0.649  17.590  1.3219  0.4881  0.6905
 3259SOL    HW221240   2.794   0.759  17.579 -0.1222  0.8005 -1.3805
 3260SOL     OW21241   4.414   0.430   2.916 -0.3524  1.0867 -0.0263
 3260SOL    HW121242   4.497   0.477   2.926  2.3255 -4.0188  2.0695
 3260SOL    HW221243   4.436   0.382   2.836  0.9789 -0.4663  1.2733
 3261SOL     OW21244   3.180   3.771   5.488  0.0679  0.4442  0.1134
 3261SOL    HW121245   3.099   3.776   5.438 -0.1405  0.7249  0.4896
 3261SOL    HW221246   3.216   3.690   5.451 -1.2050  0.8718 -2.0432
 3262SOL     OW21247   3.482   2.645  14.416 -0.1104 -0.2833  0.5391
 3262SOL    HW121248   3.455   2.634  14.325 -2.3166  3.7502  0.7013
 3262SOL    HW221249   3.472   2.740  14.427  0.3961 -0.1263 -0.3926
 3263SOL     OW21250   2.484   0.438   1.857 -0.0866  0.2068 -0.2513
 3263SOL    HW121251   2.512   0.500   1.790  0.1012  0.3978  0.0032
 3263SOL    HW221252   2.572   0.426   1.895  0.5741  3.5259 -0.7661
 3264SOL     OW21253   1.874   0.970   5.678  0.5751 -0.1046 -0.0899
 3264SOL    HW121254   1.900   1.007   5.763  0.4265  2.0917 -1.0197
 3264SOL    HW221255   1.781   0.991   5.683  0.6122  0.5966 -2.8883
 3265SOL     OW21256   0.939   4.682  15.057 -0.1190  0.1861  0.2631
 3265SOL    HW121257   0.891   4.622  15.001 -0.1854  1.9930 -1.5819
 3265SOL    HW221258   0.866   4.699  15.117 -0.1601 -0.0640  0.2835
 3266SOL     OW21259   2.071   3.611  12.080 -0.0543  0.0665 -0.2520
 3266SOL    HW121260   2.123   3.665  12.140 -0.4496 -2.4368  2.3753
 3266SOL    HW221261   2.050   3.675  12.013 -0.1833  0.1141 -0.1661
 3267SOL     OW21262   1.344   0.249  11.255  0.1348  0.0350 -1.0315
 3267SOL    HW121263   1.304   0.305  11.188 -1.3431 -1.3605 -1.3092
 3267SOL    HW221264   1.414   0.212  11.201  2.8296  0.8782  1.8559
 3268SOL     OW21265   1.151   0.519   4.335 -0.3650  1.3916  0.2020
 3268SOL    HW121266   1.153   0.456   4.407 -0.3143  0.9287 -0.2122
 3268SOL    HW221267   1.074   0.567   4.367 -0.6787 -0.3165  2.0373
 3269SOL     OW21268   4.561   4.190   3.913  0.0112  0.2401 -0.4738
 3269SOL    HW121269   4.471   4.182   3.881  0.7687  0.3011 -2.5873
 3269SOL    HW221270   4.566   4.285   3.920 -1.5575  0.4352 -1.9407
 3270SOL     OW21271   1.607   1.359   3.207 -0.5304  1.1816 -0.3403
 3270SOL    HW121272   1.591   1.272   3.244 -0.2639  1.9433  1.5944
 3270SOL    HW221273   1.656   1.332   3.129  0.9559 -0.4960  1.1438
 3271SOL     OW21274   3.729   3.377   6.587  0.8895 -0.2870  0.2920
 3271SOL    HW121275   3.721   3.452   6.646  0.8733 -0.5695  0.6521
 3271SOL    HW221276   3.635   3.359   6.587  0.5977  1.2383  0.0073
 3272SOL     OW21277   0.873   1.054   7.009  0.1402  0.0884  0.4895
 3272SOL    HW121278   0.920   0.972   7.025  0.9535  0.0091 -2.2527
 3272SOL    HW221279   0.940   1.101   6.960  0.4850 -1.2901 -0.3630
 3273SOL     OW21280   1.674   2.277   2.533  0.5928 -0.5245 -0.0778
 3273SOL    HW121281   1.765   2.308   2.542 -0.3483  1.5410  2.3655
 3273SOL    HW221282   1.653   2.333   2.458 -0.8093  0.9510  1.4032
 3274SOL     OW21283   3.387   3.287   2.198  0.6483  0.0251  0.4276
 3274SOL    HW121284   3.427   3.369   2.171  0.2830 -0.1503 -0.6356
 3274SOL    HW221285   3.311   3.319   2.247  1.4040  0.1531  1.5275
 3275SOL     OW21286   0.270   4.662   8.035 -0.3495  0.6154 -0.3013
 3275SOL    HW121287   0.302   4.575   8.057  3.2978  2.0093 -0.1006
 3275SOL    HW221288   0.350   4.714   8.026 -0.1079  0.6659  2.0708
 3276SOL     OW21289   0.668   0.981   2.166 -0.0420  0.0199  0.0300
 3276SOL    HW121290   0.706   1.062   2.201  1.2139 -0.0479 -1.1560
 3276SOL    HW221291   0.734   0.959   2.100 -0.2475  2.2081 -0.9077
 3277SOL     OW21292   0.133   0.013   2.381 -0.8199 -0.4825 -0.1836
 3277SOL    HW121293   0.162   0.104   2.386  0.2691 -0.9058  1.0664
 3277SOL    HW221294   0.107   0.019   2.289 -0.1008  0.7963 -0.3144
 3278SOL     OW21295   3.085   0.838   2.425  0.2293  0.6397 -0.3513
 3278SOL    HW121296   3.061   0.843   2.517  1.8883 -0.5598  0.1418
 3278SOL    HW221297   3.152   0.770   2.428 -0.6539 -0.1974  0.4161
 3279SOL     OW21298   2.450   2.289   0.786 -0.0212  0.1091 -0.0068
 3279SOL    HW121299   2.523   2.335   0.828 -0.0420  1.2133 -1.1629
 3279SOL    HW221300   2.427   2.339   0.707 -2.0924  0.6822  0.9447
 3280SOL     OW21301   4.639   4.070  13.515  0.0261  0.4308  0.3315
 3280SOL    HW121302   4.678   4.099  13.598 -1.6105 -0.9838  1.5986
 3280SOL    HW221303   4.548   4.044  13.531  0.3900 -2.1541 -1.8995
 3281SOL     OW21304   1.410   2.108   6.848  0.1198 -0.0351 -0.2311
 3281SOL    HW121305   1.338   2.055   6.814  0.5906 -0.3932 -0.6791
 3281SOL    HW221306   1.481   2.070   6.796 -1.4165 -2.7754 -0.3237
 3282SOL     OW21307   2.951   2.671  14.086  0.3827  0.0693 -0.1335
 3282SOL    HW121308   3.043   2.670  14.113  0.2512  2.4599  0.4612
 3282SOL    HW221309   2.938   2.612  14.012 -0.2656 -1.5030  1.2528
 3283SOL     OW21310   1.150   2.397   4.505 -0.5488  0.2188  0.4061
 3283SOL    HW121311   1.206   2.454   4.557 -1.4553  1.3221  0.1691
 3283SOL    HW221312   1.098   2.357   4.575  1.2789 -1.0285  1.0699
 3284SOL     OW21313   4.324   1.815  13.184  0.5871 -0.4244  0.0483
 3284SOL    HW121314   4.383   1.741  13.201  0.2799 -0.7651 -0.3737
 3284SOL    HW221315   4.379   1.885  13.220 -1.4353  1.2683 -0.1460
 3285SOL     OW21316   3.418   3.691  15.176  0.2890 -0.3845 -0.2043
 3285SOL    HW121317   3.382   3.602  15.171  4.9507 -2.3100  0.3172
 3285SOL    HW221318   3.504   3.671  15.214  0.1436  0.1074  0.3862
 3286SOL     OW21319   1.950   2.056   3.100  0.2692 -0.2943 -0.2999
 3286SOL    HW121320   2.044   2.072   3.108  0.0433  0.4896  0.7618
 3286SOL    HW221321   1.938   2.028   3.009  0.9702 -0.4137 -0.3508
 3287SOL     OW21322   3.183   3.195   1.930 -0.4387 -0.1024 -0.0186
 3287SOL    HW121323   3.161   3.124   1.992  2.2925  1.2947  2.5419
 3287SOL    HW221324   3.178   3.274   1.983  2.0106 -0.5581  0.8587
 3288SOL     OW21325   1.884   1.781  16.022 -0.0854 -0.2261 -0.0901
 3288SOL    HW121326   1.826   1.856  16.026  0.3041  0.1723 -2.2706
 3288SOL    HW221327   1.937   1.814  16.095 -1.7069 -1.5952  1.6948
 3289SOL     OW21328   4.383   1.557   7.142 -0.1401 -0.6724  0.0062
 3289SOL    HW121329   4.426   1.490   7.090  1.4580  1.5895 -1.6009
 3289SOL    HW221330   4.431   1.544   7.223  0.2480 -0.4155 -0.1804
 3290SOL     OW21331   0.680   3.816   6.180  0.4878 -0.6258  0.2139
 3290SOL    HW121332   0.590   3.846   6.173  0.9712  0.4023 -1.7255
 3290SOL    HW221333   0.720   3.874   6.245  0.6772  1.8888 -2.1469
 3291SOL     OW21334   0.402   3.758   6.075  0.3989 -0.3061  0.1697
 3291SOL    HW121335   0.376   3.800   6.156 -1.4450 -1.8306  0.3715
 3291SOL    HW221336   0.418   3.839   6.027 -0.3560 -0.0468  0.3477
 3292SOL     OW21337   4.163   2.660   3.921 -0.0628 -0.2149 -0.1229
 3292SOL    HW121338   4.146   2.748   3.953 -0.1098 -1.3874  3.0876
 3292SOL    HW221339   4.113   2.610   3.986  0.1059  0.7346  0.7279
 3293SOL     OW21340   1.576   3.344   1.317  0.3386  0.2825 -0.1236
 3293SOL    HW121341   1.655   3.304   1.280  0.2700 -1.3656  1.4882
 3293SOL    HW221342   1.513   3.272   1.326 -1.1208  1.6171  0.2616
 3294SOL     OW21343   2.892   1.502  16.603  0.0601 -0.3168  0.2969
 3294SOL    HW121344   2.864   1.521  16.693 -0.8744 -0.7092  0.0909
 3294SOL    HW221345   2.937   1.418  16.610  1.7809  0.6412  0.6864
 3295SOL     OW21346   3.220   2.094   3.054  0.0021  0.1199 -0.1861
 3295SOL    HW121347   3.219   2.148   2.974  0.0949  0.4476  0.0327
 3295SOL    HW221348   3.214   2.157   3.125  1.4986  0.0283  0.0085
 3296SOL     OW21349   3.926   3.456   9.809 -0.0236  0.1231 -0.0456
 3296SOL    HW121350   3.838   3.465   9.771  1.7749  0.6317 -4.0604
 3296SOL    HW221351   3.909   3.500   9.892  0.6435 -0.0872  0.2020
 3297SOL     OW21352   3.243   1.152   1.555 -0.2100 -0.3535  0.2763
 3297SOL    HW121353   3.333   1.141   1.586 -0.0914  0.8632  0.3557
 3297SOL    HW221354   3.193   1.123   1.631  2.9117 -0.8858  2.1148
 3298SOL     OW21355   3.687   3.948   8.613  0.0703 -0.0793  0.2611
 3298SOL    HW121356   3.658   3.942   8.522 -1.2143  1.5170  0.5609
 3298SOL    HW221357   3.678   4.039   8.642 -1.6617 -0.2446  0.2085
 3299SOL     OW21358   1.693   0.515   6.234 -0.1621  0.3968  0.0222
 3299SOL    HW121359   1.701   0.610   6.226 -0.8631  0.4173 -0.4652
 3299SOL    HW221360   1.749   0.492   6.308  0.1211 -3.0966 -1.3154
 3300SOL     OW21361   4.441   2.741   2.175 -0.5648  0.2115  0.4343
 3300SOL    HW121362   4.359   2.736   2.127  1.8561 -1.7548 -3.5229
 3300SOL    HW221363   4.482   2.655   2.168 -4.4699 -1.3789 -2.5882
 3301SOL     OW21364   1.718   4.280   4.503 -0.3738  0.4047 -0.3939
 3301SOL    HW121365   1.658   4.274   4.429  0.3354  1.5512 -1.0596
 3301SOL    HW221366   1.734   4.373   4.489 -0.7345  0.9175  2.5104
 3302SOL     OW21367   2.911   2.178  13.415  0.1613  0.0056 -0.2682
 3302SOL    HW121368   2.882   2.149  13.502 -0.7606  0.5813 -0.3736
 3302SOL    HW221369   3.004   2.194  13.426  0.2148 -0.8048  0.4324
 3303SOL     OW21370   0.038   1.254   1.717  0.0316 -0.3256 -0.4831
 3303SOL    HW121371   0.013   1.269   1.808 -1.1493  0.8312 -1.0002
 3303SOL    HW221372   0.072   1.165   1.729 -2.1340 -0.9378  1.2462
 3304SOL     OW21373   4.425   0.211   5.150  0.3191  0.2172  0.6714
 3304SOL    HW121374   4.338   0.248   5.165 -0.5438 -2.4797  2.3350
 3304SOL    HW221375   4.473   0.217   5.233 -0.8386  0.3151  1.3342
 3305SOL     OW21376   0.503   3.821   7.872 -0.3759  0.0251 -0.4105
 3305SOL    HW121377   0.442   3.866   7.929 -2.6320 -2.9451 -0.4977
 3305SOL    HW221378   0.527   3.760   7.941  0.0762 -1.3471 -1.7747
 3306SOL     OW21379   4.203   0.840   4.628  0.1378  0.2930  0.5926
 3306SOL    HW121380   4.160   0.925   4.619  0.0640  0.2196  0.2795
 3306SOL    HW221381   4.129   0.781   4.642 -1.3631  1.8774 -0.7401
 3307SOL     OW21382   3.784   3.170  13.767 -0.6153  0.1992 -0.0595
 3307SOL    HW121383   3.791   3.080  13.733 -1.2188  0.1484 -0.0527
 3307SOL    HW221384   3.773   3.232  13.695 -1.9269  1.0708  0.9021
 3308SOL     OW21385   3.706   3.410   1.211 -0.2100  0.3858 -0.3990
 3308SOL    HW121386   3.787   3.452   1.182  0.9903 -1.7108 -0.1317
 3308SOL    HW221387   3.653   3.407   1.131 -2.5565 -1.6959  1.2244
 3309SOL     OW21388   3.117   1.181  17.641 -0.0152 -0.3064 -0.1366
 3309SOL    HW121389   3.096   1.123  17.568  0.0571  0.9591 -1.1577
 3309SOL    HW221390   3.211   1.176  17.657 -0.4114 -0.3874  2.2865
 3310SOL     OW21391   2.960   0.693  13.301 -0.2456  0.1970  0.3107
 3310SOL    HW121392   2.893   0.724  13.362 -1.6328 -3.2089  0.5567
 3310SOL    HW221393   2.923   0.606  13.284 -0.2946 -0.1564  2.1655
 3311SOL     OW21394   0.274   2.061   5.079 -0.0329 -0.6059 -0.1576
 3311SOL    HW121395   0.227   2.035   5.158 -0.1413  3.9380  1.2867
 3311SOL    HW221396   0.201   2.094   5.026 -0.6661 -1.1798  0.3633
 3312SOL     OW21397   2.860   2.881  11.048  0.3442 -0.4496  0.7927
 3312SOL    HW121398   2.942   2.889  11.097  0.2628 -0.7252  0.9749
 3312SOL    HW221399   2.811   2.828  11.111 -1.5832 -1.8828 -1.9576
 3313SOL     OW21400   3.006   2.956   8.279 -0.0314 -0.0516 -0.2780
 3313SOL    HW121401   2.928   2.944   8.334  0.7857  2.8035  1.5124
 3313SOL    HW221402   3.056   3.024   8.323  1.7975 -1.4890 -0.1506
 3314SOL     OW21403   1.806   2.980   1.296  0.2991 -0.0804 -0.9721
 3314SOL    HW121404   1.807   3.047   1.227  2.7296  1.3368  0.4498
 3314SOL    HW221405   1.858   3.022   1.364 -2.0250 -2.4932  2.2552
 3315SOL     OW21406   1.288   1.229   9.583  0.4363  0.0075 -0.1744
 3315SOL    HW121407   1.229   1.172   9.534  1.0819 -1.2613  0.5308
 3315SOL    HW221408   1.305   1.300   9.520  0.8407  2.4226  2.6604
 3316SOL     OW21409   4.678   3.975   7.860 -0.3364  0.0276 -0.4412
 3316SOL    HW121410   4.677   3.879   7.861 -1.3947  0.0362 -0.4489
 3316SOL    HW221411   4.714   3.993   7.773  1.0630 -0.2996  0.0745
 3317SOL     OW21412   2.630   1.697   4.918 -0.3321 -0.0052 -0.1461
 3317SOL    HW121413   2.712   1.702   4.966 -0.5061 -1.6776  0.3074
 3317SOL    HW221414   2.638   1.764   4.850  2.3101  1.9279  2.0421
 3318SOL     OW21415   4.045   3.717   5.320  0.6712  0.0887  0.2849
 3318SOL    HW121416   3.965   3.669   5.302  1.8131 -1.3922 -0.8657
 3318SOL    HW221417   4.005   3.792   5.363 -1.0658 -0.9679  0.4903
 3319SOL     OW21418   0.372   3.075   7.499  0.8647 -0.4301  0.4006
 3319SOL    HW121419   0.398   3.046   7.587 -0.6321  4.0433  2.3105
 3319SOL    HW221420   0.455   3.076   7.451  0.8285  2.0830  0.4040
 3320SOL     OW21421   2.575   0.278   7.562 -0.2891  0.2345 -0.3118
 3320SOL    HW121422   2.585   0.364   7.523  0.8108 -0.0884 -0.7268
 3320SOL    HW221423   2.608   0.220   7.494 -0.4595 -0.2492  0.0162
 3321SOL     OW21424   2.560   1.921   8.361 -0.2028  0.0981  0.0659
 3321SOL    HW121425   2.536   1.947   8.272  0.1614 -0.5091 -0.2075
 3321SOL    HW221426   2.626   1.852   8.354 -0.8215 -0.8377  3.3153
 3322SOL     OW21427   2.594   2.657   6.204 -0.6805 -0.5139  0.1051
 3322SOL    HW121428   2.613   2.693   6.117  1.9757  0.3598  1.0428
 3322SOL    HW221429   2.529   2.721   6.232  0.7103  1.0922 -0.3204
 3323SOL     OW21430   1.247   3.807   4.433  0.2041 -0.2883  0.2495
 3323SOL    HW121431   1.219   3.766   4.516  1.3780 -1.7352 -0.0715
 3323SOL    HW221432   1.235   3.898   4.459 -1.2314 -0.4142  0.0289
 3324SOL     OW21433   1.581   3.939  16.833  0.3209 -0.2559 -0.1806
 3324SOL    HW121434   1.642   3.977  16.770  0.0560  2.1645  1.0610
 3324SOL    HW221435   1.570   3.855  16.788 -1.5229 -1.5062  2.6076
 3325SOL     OW21436   1.976   4.252   6.985  0.6367 -0.2205  0.3204
 3325SOL    HW121437   2.001   4.195   7.059 -1.3678  1.3664  2.2029
 3325SOL    HW221438   1.995   4.333   7.031 -0.1065 -0.9275  1.8787
 3326SOL     OW21439   4.462   3.102   5.557 -0.7028 -0.6325 -0.4815
 3326SOL    HW121440   4.371   3.121   5.578 -1.4647  0.1764 -4.4926
 3326SOL    HW221441   4.470   3.096   5.462  1.8011 -1.2545 -0.2428
 3327SOL     OW21442   3.881   3.805   9.872 -0.9157 -0.4025 -0.2654
 3327SOL    HW121443   3.826   3.852   9.934  1.1395 -0.2232  1.4466
 3327SOL    HW221444   3.901   3.728   9.926  1.0795  1.4379  1.6049
 3328SOL     OW21445   3.333   2.770  14.997  0.3213 -0.9364  0.1938
 3328SOL    HW121446   3.272   2.760  14.925 -0.5347 -0.7605  0.8942
 3328SOL    HW221447   3.283   2.831  15.052  0.1705 -0.1933 -0.7792
 3329SOL     OW21448   0.165   2.783   8.624 -0.7719  0.0553  0.4085
 3329SOL    HW121449   0.177   2.702   8.673 -0.1158  1.1622  2.0696
 3329SOL    HW221450   0.074   2.801   8.649 -1.8311 -3.6744 -0.8607
 3330SOL     OW21451   0.005   2.466  12.610 -0.1520 -0.0726 -0.3912
 3330SOL    HW121452   4.673   2.389  12.599  1.5775 -1.5774  1.7555
 3330SOL    HW221453   4.666   2.540  12.614 -1.1292 -0.8768 -0.5970
 3331SOL     OW21454   3.211   1.480   0.278 -0.3841  0.1949 -0.3236
 3331SOL    HW121455   3.169   1.416   0.221  0.2360 -1.5962  1.2390
 3331SOL    HW221456   3.285   1.430   0.312 -2.7043 -2.0759  1.3655
 3332SOL     OW21457   3.743   0.622  11.229  0.3081  0.4644 -0.0233
 3332SOL    HW121458   3.752   0.613  11.134 -1.3832 -0.2163 -0.1039
 3332SOL    HW221459   3.730   0.532  11.260 -0.0451 -0.0561 -1.7009
 3333SOL     OW21460   3.826   2.546   9.038  0.0071  0.3417 -0.3240
 3333SOL    HW121461   3.777   2.475   9.081 -1.6331 -0.2364 -3.1174
 3333SOL    HW221462   3.913   2.527   9.072  0.1084  1.0019 -0.2336
 3334SOL     OW21463   3.937   0.890   7.593  0.0693 -0.4939  0.1688
 3334SOL    HW121464   3.934   0.872   7.499  0.8046  0.4470 -0.0325
 3334SOL    HW221465   3.848   0.878   7.626  0.7395 -2.4138  1.2926
 3335SOL     OW21466   2.338   3.288   7.012 -0.1454  0.2130 -0.0716
 3335SOL    HW121467   2.382   3.327   7.087 -2.0719  1.8893  0.1649
 3335SOL    HW221468   2.373   3.350   6.948 -0.4704 -1.5625 -2.0025
 3336SOL     OW21469   2.729   0.625  10.941 -0.1270  0.0165  1.2821
 3336SOL    HW121470   2.801   0.613  11.004  1.2822  3.0839  0.2839
 3336SOL    HW221471   2.666   0.559  10.969  0.6762 -1.6306 -0.8392
 3337SOL     OW21472   4.230   1.563   8.240  0.1972 -0.0883  0.1941
 3337SOL    HW121473   4.154   1.617   8.217  0.6880  1.2296  1.6237
 3337SOL    HW221474   4.305   1.619   8.217  1.1282 -1.2309  0.4799
 3338SOL     OW21475   0.128   4.471  12.462  0.3750  0.2187 -0.0461
 3338SOL    HW121476   0.147   4.492  12.553 -2.0621 -0.3883  0.6026
 3338SOL    HW221477   0.188   4.532  12.418  0.5353  0.9695  1.2046
 3339SOL     OW21478   4.307   4.195   7.344 -0.7767 -0.0023 -0.0448
 3339SOL    HW121479   4.344   4.178   7.431 -2.5033 -2.8010  0.1223
 3339SOL    HW221480   4.378   4.250   7.309 -0.7366 -0.1157 -0.1413
 3340SOL     OW21481   2.338   4.447   7.712 -0.0905  0.2415  0.2479
 3340SOL    HW121482   2.370   4.409   7.630 -1.1321 -0.9935  0.4121
 3340SOL    HW221483   2.289   4.375   7.750  0.0182  1.2926  2.3701
 3341SOL     OW21484   0.698   4.374  14.193  0.3273 -0.0552  0.5560
 3341SOL    HW121485   0.615   4.421  14.187  1.6715  2.1707 -0.3865
 3341SOL    HW221486   0.741   4.410  14.271 -0.0705  1.0324  0.2713
 3342SOL     OW21487   4.356   0.198  11.149  0.3493 -0.1013 -0.1335
 3342SOL    HW121488   4.309   0.274  11.184  1.6369 -0.0593  1.4981
 3342SOL    HW221489   4.387   0.241  11.070 -1.6461  0.6502 -0.4993
 3343SOL     OW21490   2.620   3.035   5.416  0.1258 -0.3312  0.3830
 3343SOL    HW121491   2.573   3.057   5.496  1.0544 -0.0858  0.8670
 3343SOL    HW221492   2.616   3.111   5.357  0.4586  0.0433  0.8432
 3344SOL     OW21493   2.534   2.896   2.604 -0.3497 -0.1396 -0.0269
 3344SOL    HW121494   2.532   2.842   2.525 -1.2067 -2.0599  1.3042
 3344SOL    HW221495   2.442   2.924   2.602 -0.5438 -0.8151 -0.6711
 3345SOL     OW21496   3.496   0.469   3.246 -0.0774  0.0027  0.2268
 3345SOL    HW121497   3.472   0.558   3.271 -0.9559 -0.7546  2.1131
 3345SOL    HW221498   3.588   0.483   3.224  0.0383 -0.1323  0.6148
 3346SOL     OW21499   3.835   1.521   2.461 -0.9377 -0.1838 -0.2167
 3346SOL    HW121500   3.783   1.487   2.388 -1.1835 -1.0040  0.3483
 3346SOL    HW221501   3.846   1.438   2.506  1.5168  0.6224  0.6517
 3347SOL     OW21502   4.572   1.117   8.974 -0.3422 -0.5417  0.1601
 3347SOL    HW121503   4.508   1.078   8.914 -0.0198  0.0915 -0.5913
 3347SOL    HW221504   4.517   1.183   9.015 -1.2863 -0.2374 -1.6307
 3348SOL     OW21505   1.735   0.012   9.187 -0.3824  0.2436 -0.0378
 3348SOL    HW121506   1.688   0.020   9.104 -2.8144  0.4768  1.3482
 3348SOL    HW221507   1.766   0.102   9.202 -0.5066  0.3674 -0.5102
 3349SOL     OW21508   2.344   0.087   0.098  1.1687  0.0175 -0.1083
 3349SOL    HW121509   2.331   0.155   0.032  0.6108  3.4821  3.5601
 3349SOL    HW221510   2.345   0.013   0.039 -1.1215  0.2468 -0.4347
 3350SOL     OW21511   1.407   4.446   3.147  0.3535  0.0862  0.6282
 3350SOL    HW121512   1.475   4.445   3.079 -0.8971  0.7878 -0.6199
 3350SOL    HW221513   1.435   4.370   3.199 -0.4729 -1.0898 -0.6383
 3351SOL     OW21514   3.063   2.333  15.358  0.1013  1.3512  0.7590
 3351SOL    HW121515   3.041   2.281  15.280 -0.9122  0.9906  1.2859
 3351SOL    HW221516   3.129   2.277  15.397 -0.6819 -0.4544 -0.5086
 3352SOL     OW21517   2.990   2.963   8.725 -0.5133 -0.5162 -0.4529
 3352SOL    HW121518   3.035   3.034   8.681 -0.5283 -0.4104 -0.2985
 3352SOL    HW221519   2.904   3.002   8.708 -0.7226 -0.6681  0.2307
 3353SOL     OW21520   1.865   3.270  15.924  0.3940 -0.0046 -0.1335
 3353SOL    HW121521   1.825   3.256  16.009  2.3492 -0.7170  0.6832
 3353SOL    HW221522   1.954   3.290  15.952  0.2094  0.4549  0.1085
 3354SOL     OW21523   0.722   1.258   8.415 -0.0045  0.6283 -0.2380
 3354SOL    HW121524   0.784   1.201   8.461 -0.3208  1.8213  1.6904
 3354SOL    HW221525   0.777   1.326   8.377  1.2664 -0.3767 -0.2032
 3355SOL     OW21526   4.582   2.188   7.867 -0.2558  0.3792 -0.1070
 3355SOL    HW121527   4.596   2.179   7.773 -1.6876  0.7905 -0.3580
 3355SOL    HW221528   4.667   2.216   7.900 -0.3256  0.2885  0.1550
 3356SOL     OW21529   1.640   3.714  13.581 -0.2361  0.4521  0.3211
 3356SOL    HW121530   1.718   3.730  13.634 -0.1020  1.4093 -0.1611
 3356SOL    HW221531   1.592   3.658  13.641  1.0905 -1.8785 -0.7789
 3357SOL     OW21532   0.245   1.209  15.377 -0.4799 -0.1940 -0.1598
 3357SOL    HW121533   0.329   1.254  15.374 -0.1718 -0.7127  0.5950
 3357SOL    HW221534   0.184   1.271  15.416 -0.7556 -1.7609  1.8730
 3358SOL     OW21535   1.130   2.486   7.235 -0.8618  0.4050  0.1665
 3358SOL    HW121536   1.210   2.476   7.183 -2.3987  1.5226 -2.3710
 3358SOL    HW221537   1.115   2.581   7.236  0.4877  0.6474 -2.4914
 3359SOL     OW21538   4.434   0.538   9.437 -0.6121 -0.0725 -0.1085
 3359SOL    HW121539   4.372   0.468   9.421  1.1926 -1.1243 -2.4777
 3359SOL    HW221540   4.380   0.614   9.460 -1.8547 -0.5634 -1.4157
 3360SOL     OW21541   4.459   4.616  11.016  0.6538 -0.4757  0.0898
 3360SOL    HW121542   4.453   4.682  11.085 -0.4402 -0.5717  0.0883
 3360SOL    HW221543   4.367   4.591  11.022  0.4932  0.5001  1.7579
 3361SOL     OW21544   2.775   3.266   9.878 -0.9333 -0.7142 -0.2995
 3361SOL    HW121545   2.819   3.250   9.795 -0.7609  1.1381 -0.5629
 3361SOL    HW221546   2.745   3.356   9.866 -2.6380 -1.4084 -1.2128
 3362SOL     OW21547   3.323   0.433  10.501  0.0924 -0.2889  0.0091
 3362SOL    HW121548   3.372   0.512  10.476 -0.8459  0.5488  0.8023
 3362SOL    HW221549   3.354   0.372  10.435 -0.7186  0.3109 -0.9151
 3363SOL     OW21550   4.391   4.683   9.536  0.0357 -0.0433  0.1343
 3363SOL    HW121551   4.417   0.002   9.454  0.0515 -0.0160  0.1533
 3363SOL    HW221552   4.428   0.023   9.598  1.7794 -0.6751 -0.2966
 3364SOL     OW21553   0.147   4.302   7.962 -0.1354  0.6453 -0.1257
 3364SOL    HW121554   0.234   4.318   7.925 -0.2483 -1.9527 -1.5391
 3364SOL    HW221555   0.167   4.270   8.050  0.5877  1.3216 -0.0418
 3365SOL     OW21556   3.111   4.696   8.000  0.2283 -0.1889  0.1245
 3365SOL    HW121557   3.018   4.692   7.976 -0.0038  1.5655  0.7153
 3365SOL    HW221558   3.100   4.717   8.093 -2.7455 -0.6375 -0.1356
 3366SOL     OW21559   0.796   1.694   2.790  0.4485 -0.1173  0.3123
 3366SOL    HW121560   0.830   1.759   2.728  0.4451 -2.0399 -1.7161
 3366SOL    HW221561   0.864   1.627   2.789  1.1983  0.6749 -2.6580
 3367SOL     OW21562   4.351   0.126   5.709 -0.2765  0.0744  0.9390
 3367SOL    HW121563   4.360   0.221   5.708  0.4964 -0.0182 -0.8965
 3367SOL    HW221564   4.393   0.102   5.626 -0.4057  1.2674  0.5330
 3368SOL     OW21565   2.824   1.716   2.372 -0.0679  0.0305  0.1171
 3368SOL    HW121566   2.864   1.735   2.457  1.5687 -0.6168 -0.5073
 3368SOL    HW221567   2.743   1.676   2.405  0.3913 -1.9445 -1.1261
 3369SOL     OW21568   2.035   0.952   7.501  0.0003  0.3643  0.4006
 3369SOL    HW121569   1.957   0.917   7.457  0.4937  0.7761 -0.7994
 3369SOL    HW221570   2.035   1.045   7.482 -0.0744  0.7045  2.0647
 3370SOL     OW21571   2.471   2.419   1.501  0.0896 -0.0408  0.1172
 3370SOL    HW121572   2.551   2.406   1.450  0.5255  3.5011 -0.1192
 3370SOL    HW221573   2.418   2.362   1.445  0.4133 -2.7630  2.5683
 3371SOL     OW21574   2.525   1.227   7.250  0.3420 -0.1027 -0.5455
 3371SOL    HW121575   2.478   1.160   7.300  0.2046  0.0418 -0.4817
 3371SOL    HW221576   2.572   1.165   7.195  1.9281  0.4732  0.1657
 3372SOL     OW21577   1.082   3.410   5.654 -0.0589  0.0321 -0.1291
 3372SOL    HW121578   1.126   3.474   5.711 -1.0732  0.6688 -0.0717
 3372SOL    HW221579   1.007   3.463   5.626 -0.6560 -0.4183  0.6195
 3373SOL     OW21580   3.901   0.156  12.930 -0.8742 -0.4797  0.2210
 3373SOL    HW121581   3.930   0.074  12.890 -0.8090 -1.8144  3.0336
 3373SOL    HW221582   3.897   0.208  12.849 -3.5320 -2.6605 -1.0466
 3374SOL     OW21583   3.344   1.843  17.058 -0.3590 -0.5002 -0.9925
 3374SOL    HW121584   3.405   1.865  16.987  0.3415 -2.6714 -1.0609
 3374SOL    HW221585   3.377   1.904  17.124  1.4856 -0.4324 -1.9745
 3375SOL     OW21586   0.186   2.830  14.014  0.2908  0.0596  0.0705
 3375SOL    HW121587   0.277   2.859  14.015 -0.3569  2.0438  1.1003
 3375SOL    HW221588   0.180   2.760  13.949 -0.6258 -0.2138  0.4525
 3376SOL     OW21589   3.015   2.817   7.631  0.1318 -0.2006 -0.2352
 3376SOL    HW121590   2.950   2.881   7.662 -0.9226 -1.4661  0.1600
 3376SOL    HW221591   3.028   2.762   7.708 -0.3748  0.8967  0.6404
 3377SOL     OW21592   0.938   2.134   3.108  0.3254  1.1287 -0.2497
 3377SOL    HW121593   1.019   2.084   3.102  0.0245  0.4792  0.9626
 3377SOL    HW221594   0.972   2.220   3.083  0.7835  1.0241  0.0238
 3378SOL     OW21595   1.606   3.843   1.252  0.3020  0.2109 -0.0188
 3378SOL    HW121596   1.657   3.769   1.288  0.4912 -0.6003 -1.9668
 3378SOL    HW221597   1.519   3.804   1.251  0.6184 -0.4537 -1.0726
 3379SOL     OW21598   2.502   0.469   7.751 -0.0123 -0.3912 -0.0241
 3379SOL    HW121599   2.528   0.459   7.842  0.3028 -1.9509 -0.2780
 3379SOL    HW221600   2.582   0.450   7.702  0.7545  1.2591  0.6015
 3380SOL     OW21601   0.950   0.071  10.418 -0.3291  0.2933  0.0672
 3380SOL    HW121602   0.879   0.007  10.417 -1.2910  1.3567  1.1090
 3380SOL    HW221603   0.933   0.119  10.338  0.1437  2.6388  1.3646
 3381SOL     OW21604   4.122   4.717   7.970  0.1874 -0.4086 -0.3486
 3381SOL    HW121605   4.167   4.654   7.915 -0.0521 -1.0344  0.1765
 3381SOL    HW221606   4.140   4.692   8.061  0.6966 -1.1834 -0.6671
 3382SOL     OW21607   0.775   3.298   4.177  0.4175  0.1891 -0.2246
 3382SOL    HW121608   0.792   3.208   4.147 -2.1616 -0.3936  0.0077
 3382SOL    HW221609   0.758   3.344   4.095 -0.9866 -0.3635 -0.2587
 3383SOL     OW21610   1.099   0.657   6.440 -0.2860  0.2018 -0.1132
 3383SOL    HW121611   1.046   0.659   6.519  1.6961 -0.3399  1.2511
 3383SOL    HW221612   1.066   0.579   6.395 -0.7854  0.4422 -0.1535
 3384SOL     OW21613   4.524   1.125  17.663 -0.0197  0.8037  0.2305
 3384SOL    HW121614   4.458   1.087   0.029 -0.0381 -0.8978 -0.9186
 3384SOL    HW221615   4.512   1.068  17.587 -0.0952  0.8877  0.1790
 3385SOL     OW21616   4.234   3.135  16.194  0.0910  0.1616 -0.5681
 3385SOL    HW121617   4.195   3.112  16.110 -0.3826 -0.2053 -0.2495
 3385SOL    HW221618   4.314   3.181  16.170 -0.6334 -0.4555 -4.1331
 3386SOL     OW21619   4.244   0.988   3.944  0.2796 -0.0889 -0.2337
 3386SOL    HW121620   4.225   0.951   3.858 -1.9838 -0.1606  0.3160
 3386SOL    HW221621   4.338   1.005   3.931 -0.0956  0.6776 -1.8559
 3387SOL     OW21622   4.484   3.607   6.381  0.4571 -0.5457  0.3763
 3387SOL    HW121623   4.418   3.627   6.447  0.7669 -2.7422  1.3462
 3387SOL    HW221624   4.552   3.557   6.427  1.0194  0.2933  0.4580
 3388SOL     OW21625   0.934   0.803   2.806  0.3545 -0.6160  0.4696
 3388SOL    HW121626   0.913   0.777   2.716 -1.2705 -0.5484  0.8246
 3388SOL    HW221627   1.024   0.772   2.820  1.0792  0.2985 -2.1252
 3389SOL     OW21628   0.374   2.733  10.602  0.3650 -0.7462 -0.0647
 3389SOL    HW121629   0.435   2.709  10.671  0.5097 -1.7526 -0.5358
 3389SOL    HW221630   0.395   2.826  10.598  1.9928 -1.1609 -1.0920
 3390SOL     OW21631   2.876   1.817   0.249 -0.0859 -0.0666 -0.0217
 3390SOL    HW121632   2.851   1.906   0.274 -0.0212 -0.6966  2.3362
 3390SOL    HW221633   2.790   1.776   0.249 -2.0158  4.0474  0.8133
 3391SOL     OW21634   2.528   0.976   1.509  0.7087 -0.5902  0.1727
 3391SOL    HW121635   2.462   0.933   1.455  0.7089  1.1401 -1.2185
 3391SOL    HW221636   2.494   0.943   1.592 -1.0591  0.2508 -0.2028
 3392SOL     OW21637   0.785   1.606   4.074 -0.0748  0.1894 -0.5716
 3392SOL    HW121638   0.709   1.585   4.021  1.7878 -0.2512 -3.0934
 3392SOL    HW221639   0.861   1.565   4.033 -0.6290 -0.5275 -0.8812
 3393SOL     OW21640   0.563   1.600   4.389 -0.0545 -0.5640  0.2282
 3393SOL    HW121641   0.505   1.524   4.388 -0.3197 -0.3472 -0.4556
 3393SOL    HW221642   0.513   1.666   4.437  0.8739  0.2577  0.0700
 3394SOL     OW21643   1.730   1.570   3.395  0.0063 -0.0270  0.1700
 3394SOL    HW121644   1.700   1.498   3.339  0.1815  0.7520 -0.9274
 3394SOL    HW221645   1.785   1.616   3.332 -1.3674  0.3873 -0.7216
 3395SOL     OW21646   1.938   1.911  17.646 -0.4088 -0.0648  0.4072
 3395SOL    HW121647   1.956   1.927  17.554  1.3449 -0.1769  0.7328
 3395SOL    HW221648   2.019   1.937  17.691 -1.0390 -0.9519  2.0746
 3396SOL     OW21649   0.586   3.504   4.570  0.0337 -0.3594 -0.4845
 3396SOL    HW121650   0.644   3.505   4.646 -3.0771 -0.3754  1.9051
 3396SOL    HW221651   0.638   3.505   4.490  1.5710 -1.2163  0.5043
 3397SOL     OW21652   3.036   3.178   5.491 -0.2796 -0.1576 -0.1137
 3397SOL    HW121653   3.043   3.085   5.468  0.5339  0.6284 -3.0089
 3397SOL    HW221654   3.012   3.214   5.405  0.6426  1.5523  0.3545
 3398SOL     OW21655   3.097   2.713  13.051 -0.3354  0.5083  0.3490
 3398SOL    HW121656   3.047   2.781  13.008 -0.6332  0.2794  0.3332
 3398SOL    HW221657   3.189   2.733  13.031 -0.4114 -0.9203 -1.4017
 3399SOL     OW21658   4.293   0.431   3.928  0.4410  0.3718 -0.3839
 3399SOL    HW121659   4.342   0.463   3.852 -2.7989 -1.7572 -3.3783
 3399SOL    HW221660   4.222   0.388   3.881  0.8637  0.8546 -1.4742
 3400SOL     OW21661   2.132   2.693  13.669 -0.9115  0.3239  0.0974
 3400SOL    HW121662   2.182   2.720  13.746 -2.5399  0.4450  1.1278
 3400SOL    HW221663   2.058   2.754  13.674 -1.6470 -0.5211 -0.4676
 3401SOL     OW21664   0.888   0.970   2.010  0.8908  0.1875 -0.5095
 3401SOL    HW121665   0.910   1.060   1.986 -0.5643  0.9566  1.0481
 3401SOL    HW221666   0.890   0.934   1.922  0.4067  1.5144 -1.0587
 3402SOL     OW21667   3.644   0.396  14.491  0.2942 -0.0425 -0.3246
 3402SOL    HW121668   3.703   0.344  14.545 -0.9739 -0.6135  0.5102
 3402SOL    HW221669   3.678   0.483  14.515  1.3071 -0.8342  1.1178
 3403SOL     OW21670   0.361   3.963  14.324 -0.2386 -0.5545  0.0587
 3403SOL    HW121671   0.338   4.017  14.399 -0.8010 -0.1017 -0.4375
 3403SOL    HW221672   0.388   4.040  14.274  0.7002 -1.2788 -0.5607
 3404SOL     OW21673   2.906   2.495   8.918 -0.0919 -0.5378  0.0871
 3404SOL    HW121674   2.905   2.400   8.907  2.3629 -0.5197 -0.2323
 3404SOL    HW221675   2.982   2.524   8.867 -0.3663 -0.6332 -0.3773
 3405SOL     OW21676   4.148   3.857   8.002 -0.3106 -0.4236  0.3911
 3405SOL    HW121677   4.071   3.893   7.957  0.2873  2.9215  2.0018
 3405SOL    HW221678   4.222   3.909   7.969 -0.3164 -1.3235 -1.0833
 3406SOL     OW21679   3.477   3.290   5.826 -0.0314 -0.0356  0.5899
 3406SOL    HW121680   3.408   3.285   5.760  0.2748  2.3278  0.0886
 3406SOL    HW221681   3.471   3.203   5.865  1.8899 -2.0592 -3.5724
 3407SOL     OW21682   1.278   1.188   6.268 -0.2205  0.2118  0.2426
 3407SOL    HW121683   1.223   1.266   6.258 -0.0557  0.3156  0.1323
 3407SOL    HW221684   1.361   1.237   6.269 -1.2714  2.0431 -1.9307
 3408SOL     OW21685   1.249   3.836   2.762 -0.2956  0.7976  0.2333
 3408SOL    HW121686   1.261   3.741   2.763 -1.4544  0.6700  1.4168
 3408SOL    HW221687   1.319   3.861   2.702 -0.2725  0.4921  0.1316
 3409SOL     OW21688   0.055   3.186   3.526 -0.4782 -0.3274 -0.1067
 3409SOL    HW121689   0.090   3.273   3.544  0.1397  0.0692 -3.1801
 3409SOL    HW221690   0.120   3.161   3.459 -1.0398 -3.4202  0.5195
 3410SOL     OW21691   2.901   3.013   7.780  0.1128 -0.0469 -0.4533
 3410SOL    HW121692   2.940   2.972   7.857  1.9423  0.0831 -1.3222
 3410SOL    HW221693   2.903   3.102   7.815  1.0682  0.5426 -2.0463
 3411SOL     OW21694   1.398   0.384   7.741 -0.0632  0.3478 -0.1225
 3411SOL    HW121695   1.451   0.368   7.663  0.0754 -2.1324  0.4812
 3411SOL    HW221696   1.459   0.366   7.813  0.3580  1.8473 -0.0849
 3412SOL     OW21697   0.728   1.970  10.967 -0.1101  0.2370  0.1255
 3412SOL    HW121698   0.764   1.917  11.038 -1.1463  0.2604  0.6743
 3412SOL    HW221699   0.675   1.910  10.914 -1.7093 -1.0653  3.1779
 3413SOL     OW21700   1.510   0.606   8.760 -0.0832  0.0245 -0.6822
 3413SOL    HW121701   1.582   0.635   8.815 -0.5968  0.1304 -0.0651
 3413SOL    HW221702   1.510   0.514   8.784 -2.3180 -0.1448 -1.3210
 3414SOL     OW21703   0.997   4.121   6.032  0.4450  0.4712  0.4647
 3414SOL    HW121704   1.076   4.166   6.063  0.6762  0.4517 -0.0957
 3414SOL    HW221705   1.022   4.030   6.012  1.2666  0.7567  0.1907
 3415SOL     OW21706   0.761   4.459   6.132 -0.2059  0.1205 -0.0619
 3415SOL    HW121707   0.676   4.427   6.102  0.3709  2.0220 -3.7516
 3415SOL    HW221708   0.817   4.447   6.056 -2.1874 -1.8740 -1.2065
 3416SOL     OW21709   3.530   0.128   2.178 -0.0368  0.4641  0.4710
 3416SOL    HW121710   3.535   0.120   2.083 -1.6631  0.4421  0.3941
 3416SOL    HW221711   3.442   0.093   2.189 -0.6673  1.3043 -1.8578
 3417SOL     OW21712   3.501   1.729  16.081  0.0034  0.0652 -0.0765
 3417SOL    HW121713   3.420   1.699  16.122  1.1088 -0.5454  1.6400
 3417SOL    HW221714   3.519   1.646  16.037  0.2163 -0.0829  0.2921
 3418SOL     OW21715   1.260   4.387   3.922 -0.1416  0.7627 -0.2432
 3418SOL    HW121716   1.228   4.412   4.009  1.5068 -1.1775  0.9098
 3418SOL    HW221717   1.251   4.292   3.918 -1.1614  0.7690  1.6280
 3419SOL     OW21718   2.701   3.908   9.171  0.1607  0.5927 -0.6430
 3419SOL    HW121719   2.747   3.827   9.147 -2.2437 -0.8234 -0.5234
 3419SOL    HW221720   2.656   3.922   9.087  2.2136 -0.5701 -1.9532
 3420SOL     OW21721   3.064   0.329  11.287 -0.2979 -0.5534 -0.1949
 3420SOL    HW121722   3.150   0.365  11.265 -0.1003 -1.2345 -0.5465
 3420SOL    HW221723   3.082   0.247  11.333  0.0353 -0.0667  0.5377
 3421SOL     OW21724   3.894   2.455  13.088  0.0057  0.0168  0.0307
 3421SOL    HW121725   3.972   2.400  13.079  0.8892  1.1029  1.1834
 3421SOL    HW221726   3.842   2.415  13.018 -2.0525 -1.3139  2.3181
 3422SOL     OW21727   0.357   4.240  10.036 -0.0881  0.0869 -0.4009
 3422SOL    HW121728   0.428   4.254  10.099  1.0314  1.3698 -1.9478
 3422SOL    HW221729   0.403   4.181   9.976  2.2675  0.4784  1.0144
 3423SOL     OW21730   3.453   0.536  14.115 -0.4399 -0.5804 -0.1194
 3423SOL    HW121731   3.399   0.597  14.165  1.4022  0.9323  0.0300
 3423SOL    HW221732   3.397   0.524  14.039 -0.6776  1.5865 -0.3056
 3424SOL     OW21733   2.707   2.912   7.637 -0.3196 -0.4733  0.3930
 3424SOL    HW121734   2.758   2.989   7.662 -1.4661  0.0196  1.2110
 3424SOL    HW221735   2.629   2.926   7.690 -1.6144  1.0303 -1.8968
 3425SOL     OW21736   0.320   3.734  17.315 -0.2199 -0.1741 -0.0741
 3425SOL    HW121737   0.291   3.814  17.359  0.5642 -0.1463  0.3990
 3425SOL    HW221738   0.300   3.748  17.222  1.5902  0.0484 -0.4269
 3426SOL     OW21739   4.388   3.295   9.825  0.4893 -0.4146  0.1466
 3426SOL    HW121740   4.294   3.281   9.816  0.3785  1.5742 -1.9075
 3426SOL    HW221741   4.393   3.391   9.823 -2.0210 -0.3248 -1.3226
 3427SOL     OW21742   3.678   2.145  12.122 -0.4614 -0.1015  0.6236
 3427SOL    HW121743   3.634   2.159  12.038 -1.3060  0.8380  1.2098
 3427SOL    HW221744   3.767   2.156  12.089 -0.7098  0.1644  0.0387
 3428SOL     OW21745   2.668   0.103   8.048  0.1190  0.3256  0.4988
 3428SOL    HW121746   2.628   0.018   8.061 -4.3673  2.2323 -0.9641
 3428SOL    HW221747   2.610   0.142   7.984  1.1659 -0.2422 -0.7954
 3429SOL     OW21748   2.204   3.456   2.943 -0.0095 -0.3746 -0.2337
 3429SOL    HW121749   2.290   3.453   2.903 -0.8758 -1.5047 -2.0219
 3429SOL    HW221750   2.182   3.362   2.943  1.1625 -0.6402 -1.1831
 3430SOL     OW21751   4.176   4.015   5.178  0.1056 -0.5180 -0.7218
 3430SOL    HW121752   4.097   4.035   5.229  0.6305 -1.6133  0.5047
 3430SOL    HW221753   4.210   4.104   5.171  0.6115 -0.7091 -0.6366
 3431SOL     OW21754   0.837   4.536   5.732  0.3684 -0.1839 -0.3517
 3431SOL    HW121755   0.751   4.494   5.731  0.2633 -0.0086  1.4165
 3431SOL    HW221756   0.894   4.471   5.772 -0.3941 -0.9208 -0.4702
 3432SOL     OW21757   2.183   1.687   9.020 -0.1898  0.3123 -0.4480
 3432SOL    HW121758   2.133   1.766   9.000  1.0858  0.9797 -0.9945
 3432SOL    HW221759   2.237   1.671   8.942  0.2147 -1.0768  0.1025
 3433SOL     OW21760   1.436   2.059  17.037 -0.2663 -0.2353 -0.2314
 3433SOL    HW121761   1.471   2.024  16.955 -1.6544 -0.8442 -0.5561
 3433SOL    HW221762   1.516   2.046  17.087  0.6385 -1.1386 -1.8977
 3434SOL     OW21763   2.442   1.359   2.214  0.1628 -0.1783  0.0742
 3434SOL    HW121764   2.506   1.320   2.154 -0.1888  1.6620 -1.4928
 3434SOL    HW221765   2.366   1.304   2.193  1.1492 -0.1318 -3.6270
 3435SOL     OW21766   3.998   0.811   4.206  0.4432 -0.0155  0.0581
 3435SOL    HW121767   4.026   0.723   4.227 -1.3213 -0.4921  0.4670
 3435SOL    HW221768   4.074   0.863   4.231 -0.7458  1.0218  1.5370
 3436SOL     OW21769   0.641   1.175   9.921  0.1276  0.1043  0.1134
 3436SOL    HW121770   0.655   1.227  10.000  0.6167 -0.8489  0.6533
 3436SOL    HW221771   0.559   1.213   9.889  0.3658  0.4157 -0.1339
 3437SOL     OW21772   0.316   2.508   7.546 -0.5724  0.1570 -0.7205
 3437SOL    HW121773   0.224   2.533   7.540 -0.7612 -0.4777 -0.5579
 3437SOL    HW221774   0.319   2.462   7.630  1.3553 -1.1273 -1.4706
 3438SOL     OW21775   2.950   2.287   4.590 -0.5560  0.3868  0.5985
 3438SOL    HW121776   2.878   2.262   4.532 -0.5586 -0.8588  1.1505
 3438SOL    HW221777   3.003   2.342   4.532  1.0669 -1.0849  0.7006
 3439SOL     OW21778   1.332   0.994   6.924 -0.3437  0.4232 -0.3381
 3439SOL    HW121779   1.343   1.009   7.018 -1.1286  0.1515 -0.2013
 3439SOL    HW221780   1.386   1.063   6.886  1.9089 -0.2425  1.6669
 3440SOL     OW21781   3.406   0.494   9.539 -0.2396 -0.4755  0.5382
 3440SOL    HW121782   3.461   0.527   9.609  1.1179  0.0486 -0.7690
 3440SOL    HW221783   3.411   0.565   9.475  0.7407 -0.1801  0.9451
 3441SOL     OW21784   3.822   3.210   5.017  0.2921 -0.0008  0.4942
 3441SOL    HW121785   3.802   3.303   5.002 -1.7214 -0.8988 -2.3996
 3441SOL    HW221786   3.756   3.187   5.083 -0.3965  1.4058  0.3006
 3442SOL     OW21787   0.704   1.653  15.486  0.1829 -0.2222 -0.0589
 3442SOL    HW121788   0.620   1.688  15.456  1.3017  2.8211  0.3631
 3442SOL    HW221789   0.706   1.575  15.431 -0.7901  1.1988 -2.0894
 3443SOL     OW21790   2.491   0.248   4.717 -0.1757 -0.0995 -0.8875
 3443SOL    HW121791   2.518   0.157   4.709  1.3780  0.0748  2.4971
 3443SOL    HW221792   2.557   0.307   4.680 -0.2266  0.9711  0.7143
 3444SOL     OW21793   0.165   1.753  12.326 -0.3798 -0.6560  0.1135
 3444SOL    HW121794   0.118   1.671  12.310  0.8613 -1.2537 -0.4629
 3444SOL    HW221795   0.121   1.783  12.405 -0.1953 -0.4851  0.1500
 3445SOL     OW21796   1.507   4.272   4.335 -0.1593  0.3500  0.3191
 3445SOL    HW121797   1.514   4.178   4.321  0.7713  0.6714 -1.4213
 3445SOL    HW221798   1.415   4.280   4.361 -0.9447 -0.2986 -2.2220
 3446SOL     OW21799   4.337   3.593   7.439 -0.1204  0.2036  0.2791
 3446SOL    HW121800   4.373   3.677   7.410 -0.4341 -0.3269 -1.6761
 3446SOL    HW221801   4.244   3.615   7.434 -0.3049 -0.2266  1.8357
 3447SOL     OW21802   2.581   3.916  11.617  0.6120  0.0492  0.1602
 3447SOL    HW121803   2.528   3.900  11.695  0.1494 -2.9829 -0.7817
 3447SOL    HW221804   2.545   3.998  11.583 -0.0778 -0.5083 -0.4774
 3448SOL     OW21805   3.479   2.247   2.277  0.2241 -0.1173  0.5640
 3448SOL    HW121806   3.432   2.310   2.223 -0.1065 -1.3281 -0.5696
 3448SOL    HW221807   3.558   2.294   2.303  0.8471  0.7954 -2.9094
 3449SOL     OW21808   3.737   3.164  12.728  0.3256  0.0706 -0.0102
 3449SOL    HW121809   3.664   3.102  12.719 -1.6765  2.1482  1.8417
 3449SOL    HW221810   3.688   3.246  12.723  2.2564  1.2943  1.2986
 3450SOL     OW21811   3.776   3.163   3.109 -0.4894 -0.1447  0.0437
 3450SOL    HW121812   3.798   3.247   3.069  0.7490  0.2775  1.6331
 3450SOL    HW221813   3.685   3.173   3.137 -0.6639  0.5685 -0.7847
 3451SOL     OW21814   0.108   3.740   5.117 -0.0700 -0.7506 -0.4409
 3451SOL    HW121815   0.021   3.775   5.095  1.4147  1.3520 -2.9180
 3451SOL    HW221816   0.156   3.821   5.129 -1.1696 -0.3052  0.9386
 3452SOL     OW21817   3.338   1.788  13.847  0.4208 -0.0653  0.6361
 3452SOL    HW121818   3.253   1.761  13.883 -2.2342  2.5049 -3.6799
 3452SOL    HW221819   3.373   1.841  13.919 -0.4807 -0.6820  1.5318
 3453SOL     OW21820   4.170   4.439   3.166  0.6732  0.5267 -0.4518
 3453SOL    HW121821   4.228   4.514   3.175  0.4028  0.4600  1.7580
 3453SOL    HW221822   4.089   4.483   3.193 -0.5041 -0.7509 -1.8176
 3454SOL     OW21823   1.928   2.598   5.763  0.0965  0.3322 -0.0092
 3454SOL    HW121824   1.886   2.515   5.741 -0.6836  1.2382 -1.9155
 3454SOL    HW221825   1.924   2.589   5.858  1.2406  0.1690  0.0279
 3455SOL     OW21826   2.964   3.656  15.662  0.3429 -0.2175 -0.3262
 3455SOL    HW121827   3.023   3.701  15.602  0.5029  0.7948  0.5833
 3455SOL    HW221828   2.922   3.607  15.591  0.3198 -0.6432 -0.0170
 3456SOL     OW21829   4.122   1.792  13.522  0.2934 -0.3876  0.4147
 3456SOL    HW121830   4.202   1.844  13.524 -0.5903  1.0305 -0.5274
 3456SOL    HW221831   4.097   1.797  13.429  0.9302 -0.2064  0.2502
 3457SOL     OW21832   2.993   2.854  15.370 -0.2719 -0.0568  0.2922
 3457SOL    HW121833   2.969   2.854  15.277 -3.5708  0.5279  1.1401
 3457SOL    HW221834   3.027   2.767  15.389 -0.2719  0.0889  0.9606
 3458SOL     OW21835   0.913   3.000   5.733 -0.1883  0.3375  0.1592
 3458SOL    HW121836   0.989   3.057   5.743  0.5073 -0.8021  1.4077
 3458SOL    HW221837   0.856   3.069   5.769  1.3691  1.5848  0.2257
 3459SOL     OW21838   1.988   1.128  15.705  0.1878 -0.0038  0.4101
 3459SOL    HW121839   2.028   1.063  15.762  1.2130 -1.5057 -2.0170
 3459SOL    HW221840   2.044   1.126  15.627 -1.5217 -1.1041 -0.8047
 3460SOL     OW21841   2.023   3.171   0.063 -0.0266  0.0005 -0.1498
 3460SOL    HW121842   1.983   3.180   0.150  1.9688 -1.2633  0.8942
 3460SOL    HW221843   1.968   3.213  17.689  0.9283 -1.8185 -2.1161
 3461SOL     OW21844   4.449   1.330  11.149 -0.2496  0.1986  0.2887
 3461SOL    HW121845   4.452   1.415  11.105  2.4807 -0.0630 -0.0666
 3461SOL    HW221846   4.485   1.272  11.081  1.0932  1.7132 -0.2992
 3462SOL     OW21847   3.740   1.789   4.188  0.0536  0.3108  0.3946
 3462SOL    HW121848   3.801   1.862   4.175 -1.1742  1.2066 -0.2963
 3462SOL    HW221849   3.734   1.772   4.282 -1.1084  0.4317  0.3395
 3463SOL     OW21850   1.049   1.617   3.506  0.0056  0.4074 -0.5089
 3463SOL    HW121851   1.110   1.595   3.576 -0.3535  1.6861  0.2068
 3463SOL    HW221852   0.966   1.600   3.551  0.8037 -1.7183  0.1806
 3464SOL     OW21853   0.047   1.493   2.742  0.0786  0.2771 -0.1758
 3464SOL    HW121854   0.117   1.552   2.770  0.3185  0.2603 -0.7473
 3464SOL    HW221855   4.694   1.507   2.799  1.3128 -0.1924  1.5953
 3465SOL     OW21856   0.612   3.151   7.329 -0.0778 -0.0216  0.1830
 3465SOL    HW121857   0.613   3.235   7.283  1.0186  0.3288  0.8455
 3465SOL    HW221858   0.576   3.101   7.255  0.2230  2.1657 -1.4543
 3466SOL     OW21859   4.008   3.007   9.781 -0.1391 -0.2158  1.0020
 3466SOL    HW121860   4.047   2.919   9.781 -0.4476 -0.3501  0.4373
 3466SOL    HW221861   3.914   2.998   9.767  0.3236 -0.0732 -2.1153
 3467SOL     OW21862   2.806   0.378   8.274 -0.4262  0.3520 -0.0241
 3467SOL    HW121863   2.841   0.428   8.347 -2.3354  0.0055  1.1263
 3467SOL    HW221864   2.713   0.400   8.284 -1.0773 -1.6930 -1.6367
 3468SOL     OW21865   0.921   0.570   8.668 -0.5689 -0.6924  0.1129
 3468SOL    HW121866   0.827   0.583   8.682 -0.6747 -0.7485 -0.5519
 3468SOL    HW221867   0.934   0.598   8.577  3.3957 -0.2623  0.8382
 3469SOL     OW21868   3.624   0.057  12.883  0.2605 -0.5197  0.3786
 3469SOL    HW121869   3.687   0.074  12.953  1.2927  2.2771 -1.1987
 3469SOL    HW221870   3.688   0.081  12.816 -1.5866  1.2886 -0.7268
 3470SOL     OW21871   2.563   2.659  15.161  0.0855 -0.0119 -0.1901
 3470SOL    HW121872   2.529   2.616  15.082 -1.9459 -0.2153  0.7741
 3470SOL    HW221873   2.556   2.751  15.136 -1.2552 -0.2734 -0.7936
 3471SOL     OW21874   4.346   4.287  10.784  0.2237  0.2689 -0.4380
 3471SOL    HW121875   4.268   4.309  10.836 -0.6833  1.9155 -2.4881
 3471SOL    HW221876   4.329   4.332  10.701  4.2994  1.8671 -0.3782
 3472SOL     OW21877   3.023   1.513   8.254  0.0726  0.5146 -0.3899
 3472SOL    HW121878   3.035   1.483   8.164  1.7304  0.0918 -0.0245
 3472SOL    HW221879   2.931   1.485   8.257  1.2538 -3.3363  0.5324
 3473SOL     OW21880   3.265   4.065   2.741 -0.3348 -0.4240 -0.2579
 3473SOL    HW121881   3.207   4.140   2.751 -1.0165 -0.8937 -0.6620
 3473SOL    HW221882   3.324   4.090   2.670 -2.1680  0.9838 -1.2904
 3474SOL     OW21883   1.299   2.393   4.055 -0.4522  0.1157  0.3483
 3474SOL    HW121884   1.206   2.390   4.032 -0.0150  0.9733 -1.5145
 3474SOL    HW221885   1.324   2.486   4.055  0.6428 -0.1714  0.6560
 3475SOL     OW21886   2.870   1.706   3.067  0.3125  0.4822 -0.0356
 3475SOL    HW121887   2.962   1.687   3.086  0.6922  2.1194 -0.2599
 3475SOL    HW221888   2.855   1.780   3.126 -1.7681 -1.5878  2.0655
 3476SOL     OW21889   2.658   4.686   5.736 -0.5641  0.0564 -0.3085
 3476SOL    HW121890   2.703   4.602   5.731  3.6700  2.4333 -2.5746
 3476SOL    HW221891   2.595   4.668   5.805 -0.6970 -0.5935 -0.5984
 3477SOL     OW21892   1.785   2.799  13.931  0.6733  0.0054  0.1835
 3477SOL    HW121893   1.790   2.705  13.948 -0.0653  0.4129  2.7049
 3477SOL    HW221894   1.875   2.820  13.956  0.7798 -0.2076 -0.0203
 3478SOL     OW21895   2.268   1.432   3.167  0.1608 -0.5737  0.0927
 3478SOL    HW121896   2.354   1.433   3.208  0.2537  0.2645 -0.1232
 3478SOL    HW221897   2.213   1.406   3.241  0.9069 -0.2821  0.7605
 3479SOL     OW21898   1.428   3.553   1.392  0.4050 -0.3572 -0.2606
 3479SOL    HW121899   1.511   3.523   1.355  1.7618  1.8000  1.0103
 3479SOL    HW221900   1.391   3.467   1.410  0.3527 -0.4022 -0.5850
 3480SOL     OW21901   3.943   3.607   6.182 -0.6748  0.3091  0.1358
 3480SOL    HW121902   3.881   3.537   6.203  1.3867 -1.1507  1.3746
 3480SOL    HW221903   4.011   3.599   6.249  0.3643  0.3479 -0.8980
 3481SOL     OW21904   2.097   2.430   2.939  0.3674  0.3320  0.2924
 3481SOL    HW121905   2.179   2.383   2.920  0.1186  0.6378 -1.5171
 3481SOL    HW221906   2.068   2.383   3.017  0.5055  2.3661  1.5489
 3482SOL     OW21907   0.064   3.702  11.693 -0.0241  1.1149 -0.0775
 3482SOL    HW121908   0.098   3.734  11.777  0.8109  0.6274 -0.2319
 3482SOL    HW221909   0.103   3.615  11.699  1.2832  1.5927 -1.8294
 3483SOL     OW21910   1.638   2.832   8.759  0.3075  0.0426 -0.2099
 3483SOL    HW121911   1.650   2.838   8.664 -0.7906  0.2723 -0.3387
 3483SOL    HW221912   1.653   2.922   8.786  0.4396 -0.5431  1.7159
 3484SOL     OW21913   2.906   0.096   2.031 -0.0767  0.4785  0.3638
 3484SOL    HW121914   2.812   0.116   2.029 -0.0369  0.7032  0.6934
 3484SOL    HW221915   2.936   0.124   2.117 -0.5954  4.4255 -0.7330
 3485SOL     OW21916   2.497   1.153  14.157  0.0763 -0.2031 -0.0255
 3485SOL    HW121917   2.537   1.229  14.116 -1.7845  0.5703 -0.3908
 3485SOL    HW221918   2.487   1.088  14.086 -2.0054  1.9715 -1.7234
 3486SOL     OW21919   4.620   3.663  13.201  0.1262 -0.0241  0.0910
 3486SOL    HW121920   4.568   3.663  13.120  3.6882 -0.3712 -2.2148
 3486SOL    HW221921   4.635   3.755  13.223  2.3414 -0.3041 -0.2278
 3487SOL     OW21922   3.883   0.054  15.481  0.2784  0.2035  0.0504
 3487SOL    HW121923   3.836   4.697  15.457  0.4672  0.8354 -2.4022
 3487SOL    HW221924   3.845   0.077  15.566 -2.6668 -3.2684 -0.3368
 3488SOL     OW21925   2.901   0.987   4.321  0.2741 -0.0613 -0.0057
 3488SOL    HW121926   2.807   0.982   4.339  0.1563 -0.9318 -0.8409
 3488SOL    HW221927   2.921   0.902   4.283  1.2577 -0.0974  0.6041
 3489SOL     OW21928   1.661   0.208   1.635  0.1653 -0.4101 -0.6223
 3489SOL    HW121929   1.694   0.255   1.712 -1.4522 -3.3858  1.8856
 3489SOL    HW221930   1.586   0.154   1.659  0.3944 -0.7974 -0.7669
 3490SOL     OW21931   3.299   3.121  11.364  0.9324 -0.0934 -0.2769
 3490SOL    HW121932   3.232   3.106  11.430  0.6790  1.3522 -0.1984
 3490SOL    HW221933   3.233   3.103  11.297 -1.4721 -1.1919  2.3896
 3491SOL     OW21934   4.401   1.747   6.618 -0.7838  0.2322  0.5715
 3491SOL    HW121935   4.338   1.678   6.597  1.7884 -2.1301  0.6649
 3491SOL    HW221936   4.361   1.824   6.577  1.4571  0.4252 -1.2449
 3492SOL     OW21937   0.732   0.015  13.334  0.0474 -0.3749  0.2701
 3492SOL    HW121938   0.792   0.048  13.267 -0.3117 -2.4193 -1.0427
 3492SOL    HW221939   0.695   0.095  13.372 -0.1918 -0.5822  0.4700
 3493SOL     OW21940   1.139   1.661   1.997  0.0889 -0.0582 -0.9510
 3493SOL    HW121941   1.182   1.741   1.964  0.7897 -0.3140 -0.6486
 3493SOL    HW221942   1.216   1.606   2.007  0.8355  1.0320 -0.6379
 3494SOL     OW21943   4.005   0.274  12.492  0.2877  0.1869  0.2693
 3494SOL    HW121944   3.968   0.298  12.577  0.9724 -3.1904  1.5489
 3494SOL    HW221945   3.987   0.180  12.484  2.3189 -0.3133  1.4158
 3495SOL     OW21946   1.811   2.150   7.483  0.9535  0.3366 -0.1134
 3495SOL    HW121947   1.842   2.157   7.573  1.5150 -0.6994 -0.2363
 3495SOL    HW221948   1.804   2.238   7.447 -1.9908 -0.7764 -2.2038
 3496SOL     OW21949   4.075   2.445   9.411  0.3332 -0.1055 -0.2320
 3496SOL    HW121950   4.166   2.449   9.380 -0.0731 -1.4350 -1.5716
 3496SOL    HW221951   4.032   2.410   9.333  0.3325 -0.9120  0.1362
 3497SOL     OW21952   1.308   1.728   1.634 -0.0888  0.4796  0.0273
 3497SOL    HW121953   1.256   1.652   1.661  0.3113  1.2591  2.9483
 3497SOL    HW221954   1.392   1.681   1.634  0.0458  0.7346 -2.2918
 3498SOL     OW21955   0.688   3.726   5.912 -0.2300 -0.5331 -0.1472
 3498SOL    HW121956   0.616   3.782   5.885  0.0716  0.8831  2.0545
 3498SOL    HW221957   0.706   3.768   5.996 -0.7863  3.5360 -2.0812
 3499SOL     OW21958   1.791   3.793   0.269 -0.5246  0.0582 -0.4581
 3499SOL    HW121959   1.881   3.764   0.253 -0.2466  0.3301  0.6354
 3499SOL    HW221960   1.749   3.764   0.188 -0.1906 -3.9901  0.8146
 3500SOL     OW21961   3.769   2.079  13.232 -0.4894 -0.3002 -0.1874
 3500SOL    HW121962   3.865   2.071  13.233 -0.5031 -0.3036  1.9958
 3500SOL    HW221963   3.745   2.083  13.325  1.4111  0.1485  0.2981
 3501SOL     OW21964   0.131   1.515  11.209  0.5550  0.0090 -0.8566
 3501SOL    HW121965   0.175   1.443  11.255  1.6903 -0.9328 -3.3906
 3501SOL    HW221966   0.171   1.593  11.247 -0.1918 -1.2008  2.4004
 3502SOL     OW21967   4.553   1.420   3.670  0.0509 -0.5910 -0.9604
 3502SOL    HW121968   4.635   1.429   3.621  2.5970 -0.9384  3.2231
 3502SOL    HW221969   4.506   1.501   3.652 -0.5534 -0.5945  0.6024
 3503SOL     OW21970   4.325   4.518  10.612 -0.0952  0.0426  0.4031
 3503SOL    HW121971   4.249   4.576  10.602  1.8328  3.1769  3.7142
 3503SOL    HW221972   4.377   4.560  10.543 -0.3237  0.7963  0.6822
 3504SOL     OW21973   1.568   3.148   8.610  0.3765 -0.1171 -0.0983
 3504SOL    HW121974   1.613   3.149   8.695 -0.3378 -2.8292  0.3027
 3504SOL    HW221975   1.604   3.074   8.562 -0.9868 -0.5212 -0.5006
 3505SOL     OW21976   0.556   1.119  11.325  0.2756  0.5349 -0.1916
 3505SOL    HW121977   0.497   1.174  11.274 -1.3128 -0.5062  0.5484
 3505SOL    HW221978   0.518   1.032  11.329 -0.4540  0.8232 -0.8646
 3506SOL     OW21979   1.830   2.255   1.148 -0.6602 -0.1681  0.1013
 3506SOL    HW121980   1.791   2.219   1.227 -0.4392  1.4580  0.9505
 3506SOL    HW221981   1.918   2.275   1.181 -0.2311 -1.4112 -0.2603
 3507SOL     OW21982   2.217   2.949   7.078  0.0129 -0.3337 -0.1418
 3507SOL    HW121983   2.284   2.931   7.144 -1.2795 -0.8084  1.0571
 3507SOL    HW221984   2.219   2.866   7.030  0.9893  1.1106 -2.6047
 3508SOL     OW21985   3.977   3.337   4.057  0.6193 -0.3092 -0.2380
 3508SOL    HW121986   3.933   3.253   4.040 -0.2591  0.3648 -1.2666
 3508SOL    HW221987   3.904   3.397   4.068  2.2783  1.2627  2.2074
 3509SOL     OW21988   0.588   3.235   9.449  0.1886  0.0747 -0.0830
 3509SOL    HW121989   0.683   3.238   9.460  0.4913 -1.4058 -2.2085
 3509SOL    HW221990   0.552   3.308   9.499 -1.3419  0.0312 -1.1259
 3510SOL     OW21991   0.541   2.006   5.325  0.5726 -0.2281  0.3859
 3510SOL    HW121992   0.595   2.062   5.381  0.2830 -1.3107  1.7390
 3510SOL    HW221993   0.448   2.023   5.345  0.7268  0.0915  0.8391
 3511SOL     OW21994   2.484   0.464   6.076 -0.1707 -0.2034  0.2183
 3511SOL    HW121995   2.538   0.449   6.155  2.0776 -1.8764 -1.6244
 3511SOL    HW221996   2.533   0.539   6.043  1.8716 -2.6640 -2.4125
 3512SOL     OW21997   0.558   1.648  11.560 -0.3356  0.1215  0.2850
 3512SOL    HW121998   0.485   1.633  11.620 -0.5516 -1.8858 -0.4522
 3512SOL    HW221999   0.568   1.572  11.502  0.7810 -0.2323  0.9280
 3513SOL     OW22000   0.795   0.832  11.363  1.0137  0.0759  0.0134
 3513SOL    HW122001   0.800   0.834  11.267  1.6427 -2.5311  0.0006
 3513SOL    HW222002   0.871   0.882  11.394  0.2015  0.4487  1.3860
 3514SOL     OW22003   0.602   1.461   7.827  0.1566  0.5767 -0.6140
 3514SOL    HW122004   0.568   1.531   7.882 -1.5958  0.5686 -1.6831
 3514SOL    HW222005   0.620   1.386   7.884 -1.2757  0.5482 -0.1968
 3515SOL     OW22006   3.277   2.704   3.527 -0.1967 -0.3233 -0.1414
 3515SOL    HW122007   3.368   2.673   3.525 -0.0817 -0.0395  1.1150
 3515SOL    HW222008   3.235   2.659   3.599 -0.8420 -1.0964 -0.9965
 3516SOL     OW22009   0.536   4.315   6.777 -0.2884 -0.3313 -0.4542
 3516SOL    HW122010   0.461   4.373   6.791 -0.6511 -0.0989 -3.3895
 3516SOL    HW222011   0.607   4.369   6.812  0.0230 -0.9927 -0.0531
 3517SOL     OW22012   1.984   4.536   8.849  0.3325 -0.5038 -0.2041
 3517SOL    HW122013   1.889   4.530   8.853  0.3331  0.0037  0.5557
 3517SOL    HW222014   2.009   4.535   8.941  1.3017 -1.4793 -0.4797
 3518SOL     OW22015   0.208   0.938   0.579  0.7049 -0.4022  0.0794
 3518SOL    HW122016   0.296   0.969   0.558  0.4205  0.9715  0.9067
 3518SOL    HW222017   0.173   0.998   0.645  1.1909 -1.4284  1.2812
 3519SOL     OW22018   0.294   0.289   4.783  0.2587 -0.2242 -0.2038
 3519SOL    HW122019   0.256   0.338   4.855 -1.1555 -0.3960 -0.8228
 3519SOL    HW222020   0.355   0.240   4.837 -0.1401 -0.7529 -0.2255
 3520SOL     OW22021   3.006   2.534   5.239 -0.0964  0.1107 -0.5062
 3520SOL    HW122022   3.046   2.616   5.269 -0.3850  0.3005 -0.6388
 3520SOL    HW222023   2.929   2.525   5.296 -0.6042 -0.4262 -1.2772
 3521SOL     OW22024   3.623   4.075  13.059 -0.2217 -0.1975 -0.2817
 3521SOL    HW122025   3.682   4.003  13.037  3.0506  2.0474  1.2148
 3521SOL    HW222026   3.562   4.035  13.121 -0.5708 -0.2298 -0.6495
 3522SOL     OW22027   0.967   1.323   6.934  0.5760 -0.2552 -0.2915
 3522SOL    HW122028   1.047   1.370   6.957  1.8964 -2.1296 -1.0502
 3522SOL    HW222029   0.916   1.326   7.015  0.0618  1.3342 -0.6780
 3523SOL     OW22030   2.044   3.454  11.262 -0.4395  0.3104  0.0560
 3523SOL    HW122031   2.024   3.361  11.263 -0.1799  0.2894  1.8119
 3523SOL    HW222032   1.992   3.480  11.338  0.7013  1.5307  0.4134
 3524SOL     OW22033   1.053   1.232  15.051  0.7127 -0.4579 -0.2554
 3524SOL    HW122034   0.958   1.238  15.060  0.7708  0.7935 -0.5562
 3524SOL    HW222035   1.075   1.317  15.087  0.5729 -1.1525  1.4936
 3525SOL     OW22036   1.260   1.946   5.066 -0.2231  0.4988  0.2391
 3525SOL    HW122037   1.223   1.860   5.083  0.8751 -0.2112 -0.9609
 3525SOL    HW222038   1.349   1.930   5.099 -0.0688  0.6314 -0.1064
 3526SOL     OW22039   0.265   1.440   7.291 -0.7458 -0.2714 -0.1458
 3526SOL    HW122040   0.209   1.477   7.222  0.6686  0.3197 -0.9738
 3526SOL    HW222041   0.226   1.361   7.327  0.0987  0.4626  2.3461
 3527SOL     OW22042   3.172   2.659   4.103 -0.0452  0.2489 -0.3696
 3527SOL    HW122043   3.143   2.736   4.054  0.9881 -0.1769 -1.6484
 3527SOL    HW222044   3.264   2.684   4.107 -0.0611  0.3275 -0.4869
 3528SOL     OW22045   2.198   0.603  16.838  0.1919  0.3230 -0.3049
 3528SOL    HW122046   2.268   0.620  16.901 -0.0089 -0.7609  0.2283
 3528SOL    HW222047   2.231   0.655  16.765  0.5107 -1.3661 -1.3733
 3529SOL     OW22048   3.775   2.672   3.590  0.0062 -0.0536 -0.9596
 3529SOL    HW122049   3.848   2.730   3.611  0.4327 -1.0619  0.3941
 3529SOL    HW222050   3.820   2.587   3.591 -1.5147 -0.8496  1.5779
 3530SOL     OW22051   2.955   3.745   8.357 -0.0587  0.4054  0.3230
 3530SOL    HW122052   2.893   3.682   8.395  1.6507 -0.9111  0.9183
 3530SOL    HW222053   3.041   3.711   8.381  0.5240  1.2879 -0.5413
 3531SOL     OW22054   4.033   2.080  13.225 -0.1939  0.4212 -0.2967
 3531SOL    HW122055   4.123   2.105  13.205  0.1333 -1.1923 -0.7883
 3531SOL    HW222056   4.045   1.987  13.241  1.4625  0.3775 -1.8485
 3532SOL     OW22057   2.364   3.882  16.533 -0.1385 -0.2926  0.5010
 3532SOL    HW122058   2.316   3.817  16.482  1.4823 -0.7584 -0.4167
 3532SOL    HW222059   2.279   3.923  16.554  1.1163  2.4123  0.2736
 3533SOL     OW22060   3.021   3.601   8.876  0.4599 -0.1271  0.7016
 3533SOL    HW122061   3.006   3.520   8.925  0.9192 -0.1587  0.7862
 3533SOL    HW222062   3.097   3.633   8.924  0.0287 -1.0234  1.9856
 3534SOL     OW22063   0.453   2.040   8.750 -0.2749  0.4424 -0.1563
 3534SOL    HW122064   0.496   1.960   8.720  0.4498  0.0272  2.0369
 3534SOL    HW222065   0.454   2.023   8.844 -2.1220  1.2158  0.0106
 3535SOL     OW22066   2.710   2.644   4.073  0.1018  0.2200  0.2387
 3535SOL    HW122067   2.743   2.556   4.090  0.5922  0.4378  0.4022
 3535SOL    HW222068   2.676   2.677   4.156  0.0153 -0.2154  0.3745
 3536SOL     OW22069   1.164   3.653   6.802 -0.0883 -0.1342  0.3032
 3536SOL    HW122070   1.123   3.733   6.836  1.2080  1.5316 -2.0729
 3536SOL    HW222071   1.220   3.692   6.735  1.0552 -3.2033 -0.5151
 3537SOL     OW22072   2.751   4.246   2.526  0.3934 -0.4164 -0.0520
 3537SOL    HW122073   2.819   4.193   2.568  1.9475  1.0594 -0.6599
 3537SOL    HW222074   2.744   4.319   2.588  1.2051  1.2182 -1.8770
 3538SOL     OW22075   1.152   2.262   8.068  0.7906 -0.0507  0.1464
 3538SOL    HW122076   1.101   2.208   8.128  1.9131 -2.9484 -1.4920
 3538SOL    HW222077   1.139   2.353   8.094 -0.6262 -0.7775  1.9865
 3539SOL     OW22078   1.041   2.919   2.972  0.2673 -0.6130 -0.0798
 3539SOL    HW122079   1.072   2.858   3.039 -1.3233 -1.0115  0.3073
 3539SOL    HW222080   1.126   2.947   2.940  0.1713  1.1087  1.1397
 3540SOL     OW22081   4.291   3.688  15.590 -0.5402 -0.0313 -0.2729
 3540SOL    HW122082   4.214   3.688  15.533 -0.9489  1.3770  0.2808
 3540SOL    HW222083   4.344   3.748  15.538 -2.5969  0.2345 -2.0550
 3541SOL     OW22084   0.583   2.978   4.390 -0.0732  0.8442 -0.8900
 3541SOL    HW122085   0.665   2.949   4.349  0.5428 -0.5819  1.3942
 3541SOL    HW222086   0.621   3.055   4.433 -0.2172  1.1288 -1.2621
 3542SOL     OW22087   1.875   3.964   2.677  0.3975 -0.0140 -0.6216
 3542SOL    HW122088   1.870   4.022   2.601 -0.3127 -0.1463 -0.6750
 3542SOL    HW222089   1.884   4.012   2.760  1.1509  0.6147 -1.0721
 3543SOL     OW22090   4.721   4.402   3.310 -0.3761 -0.1614  0.3369
 3543SOL    HW122091   4.720   4.431   3.219  0.0268  0.2190  0.4563
 3543SOL    HW222092   4.631   4.371   3.305  0.2495 -1.9452 -0.1780
 3544SOL     OW22093   0.750   4.669   2.033  0.2222 -0.7912 -0.3228
 3544SOL    HW122094   0.724   0.032   1.999  1.4400 -0.3392 -0.1201
 3544SOL    HW222095   0.664   4.626   2.032 -0.0996 -0.1469 -0.2575
 3545SOL     OW22096   1.888   2.205  10.812  0.3322  0.0530 -0.2207
 3545SOL    HW122097   1.827   2.270  10.846 -0.5047 -0.0647 -1.4852
 3545SOL    HW222098   1.926   2.262  10.745  3.1401 -2.1635 -0.5517
 3546SOL     OW22099   4.149   0.884   8.339  0.1089 -0.0799  0.5250
 3546SOL    HW122100   4.202   0.827   8.394 -1.6214 -1.0190  1.2379
 3546SOL    HW222101   4.109   0.816   8.284 -0.6439 -0.2850  1.3320
 3547SOL     OW22102   0.524   2.883   6.856 -0.0793 -0.1317 -0.3542
 3547SOL    HW122103   0.590   2.889   6.787 -1.3196 -0.1805 -1.5365
 3547SOL    HW222104   0.445   2.878   6.802  0.3925 -1.9842 -0.8769
 3548SOL     OW22105   1.926   2.599   6.109  0.1867  0.0593  0.3961
 3548SOL    HW122106   1.844   2.561   6.142 -0.1410  2.4795  2.4006
 3548SOL    HW222107   1.968   2.591   6.195  0.0449  0.3323  0.4923
 3549SOL     OW22108   1.930   3.779   3.277 -0.6112  0.0598  0.0130
 3549SOL    HW122109   1.976   3.702   3.243 -4.1315 -0.6777 -3.0581
 3549SOL    HW222110   1.994   3.849   3.281 -0.8798  0.1561  2.5702
 3550SOL     OW22111   1.245   3.094   6.264 -0.4851  0.6442 -0.4775
 3550SOL    HW122112   1.202   3.179   6.258 -0.7857  0.5367  0.1227
 3550SOL    HW222113   1.304   3.102   6.339 -1.3178 -1.4816  0.4183
 3551SOL     OW22114   3.401   4.222   7.958  0.6005  0.2078 -0.2869
 3551SOL    HW122115   3.419   4.315   7.970  0.3328 -0.1596  2.9477
 3551SOL    HW222116   3.307   4.213   7.941  1.1763  0.0328 -3.4182
 3552SOL     OW22117   4.108   0.407   2.778 -0.3725 -0.3892 -0.2676
 3552SOL    HW122118   4.013   0.412   2.768 -0.3538 -1.0899 -0.7786
 3552SOL    HW222119   4.128   0.495   2.810  1.1316 -1.1126  0.7996
 3553SOL     OW22120   0.229   0.096  12.109  0.1428  0.3396  0.2843
 3553SOL    HW122121   0.235   0.151  12.031  0.3066  0.7505  0.5847
 3553SOL    HW222122   0.240   0.163  12.176 -1.2391 -0.8894  1.7643
 3554SOL     OW22123   3.296   3.450   6.168 -0.0472 -0.4226 -0.4951
 3554SOL    HW122124   3.250   3.522   6.211 -0.9165 -1.0907 -0.2790
 3554SOL    HW222125   3.379   3.496   6.159  0.8417 -1.1826  3.8233
 3555SOL     OW22126   1.373   2.377   2.133  0.5425  0.4877 -0.4925
 3555SOL    HW122127   1.423   2.429   2.071  1.3996 -2.1674 -2.0269
 3555SOL    HW222128   1.288   2.414   2.111 -1.1819 -1.9331  2.1831
 3556SOL     OW22129   3.191   2.882   8.896  0.0911  0.2859 -0.6932
 3556SOL    HW122130   3.255   2.934   8.849  0.4813  0.6940  0.2890
 3556SOL    HW222131   3.115   2.898   8.839 -1.8152  0.6144  1.9054
 3557SOL     OW22132   4.332   3.302   7.054  0.4831  0.6488  0.1504
 3557SOL    HW122133   4.267   3.252   7.103  0.0031 -2.1398 -3.2758
 3557SOL    HW222134   4.315   3.276   6.963  1.3823 -2.7289  0.9395
 3558SOL     OW22135   2.523   1.489   0.855 -0.0132  0.1504 -0.5216
 3558SOL    HW122136   2.533   1.435   0.776 -1.5486  0.9542 -1.2717
 3558SOL    HW222137   2.475   1.565   0.824 -1.5258 -0.0237  1.3717
 3559SOL     OW22138   1.287   3.921  13.136  0.6900 -0.0829 -0.4970
 3559SOL    HW122139   1.252   3.897  13.051  0.4931 -2.1112  0.1498
 3559SOL    HW222140   1.292   3.837  13.182  0.9911  0.4359  0.4207
 3560SOL     OW22141   2.390   1.588   4.956  0.3502 -0.5456  1.0007
 3560SOL    HW122142   2.333   1.629   4.891  0.9205  1.6865  1.9161
 3560SOL    HW222143   2.478   1.611   4.925  1.4699 -1.7762  3.2293
 3561SOL     OW22144   0.780   4.064   7.991  0.0649  0.0811  0.1820
 3561SOL    HW122145   0.723   4.125   8.037 -0.4862 -0.0574 -0.3102
 3561SOL    HW222146   0.736   4.070   7.906  2.1700  0.2845 -0.8945
 3562SOL     OW22147   3.632   1.853   8.916  0.0155  0.3547  0.1906
 3562SOL    HW122148   3.674   1.785   8.863 -1.9781  0.2321 -1.2140
 3562SOL    HW222149   3.556   1.800   8.941  2.0976 -2.4000  0.7559
 3563SOL     OW22150   1.639   3.187   7.730  0.1762  0.3495 -0.2033
 3563SOL    HW122151   1.726   3.180   7.768 -0.0873  0.1923  0.3681
 3563SOL    HW222152   1.662   3.178   7.638 -0.5208  3.9444 -0.7652
 3564SOL     OW22153   0.879   0.127  10.696 -0.3708 -0.0749  0.0540
 3564SOL    HW122154   0.967   0.135  10.660 -0.5793  0.6025 -0.3215
 3564SOL    HW222155   0.829   0.119  10.614 -0.6995  0.4412  0.2034
 3565SOL     OW22156   1.608   3.204   3.234 -0.0703 -0.7448 -0.4580
 3565SOL    HW122157   1.615   3.115   3.270 -0.2743 -0.3789  0.4827
 3565SOL    HW222158   1.621   3.186   3.141  0.9641 -1.5105 -0.1650
 3566SOL     OW22159   3.693   2.394   2.922  0.0224  0.7395 -0.0847
 3566SOL    HW122160   3.626   2.369   2.859  0.5243  1.1275 -0.7764
 3566SOL    HW222161   3.716   2.304   2.942  0.0531  1.0910  1.4705
 3567SOL     OW22162   2.261   2.001   4.732  0.0583  0.2417 -0.0699
 3567SOL    HW122163   2.180   1.956   4.756 -0.9863  0.7536 -2.5778
 3567SOL    HW222164   2.270   2.000   4.637 -0.6266  1.7237 -0.1510
 3568SOL     OW22165   1.870   2.625   3.153  0.2423 -0.2418  0.3053
 3568SOL    HW122166   1.926   2.675   3.094 -4.2716  1.3321 -2.5744
 3568SOL    HW222167   1.911   2.539   3.141 -0.2280 -0.5746  1.0741
 3569SOL     OW22168   4.061   4.593   6.339  0.0746 -0.4198 -0.1297
 3569SOL    HW122169   4.052   4.631   6.252 -0.6005  1.0568  0.5768
 3569SOL    HW222170   3.974   4.567   6.370 -0.7584  0.4799 -1.7390
 3570SOL     OW22171   2.708   2.281   0.604  0.2269 -0.4750  0.2269
 3570SOL    HW122172   2.673   2.370   0.598  3.1702  0.8121  1.9564
 3570SOL    HW222173   2.803   2.290   0.589  0.2642 -1.7035 -0.3259
 3571SOL     OW22174   2.073   3.360   0.307  0.2229  0.0059  0.8248
 3571SOL    HW122175   2.131   3.302   0.356  0.8720  2.6842  3.1955
 3571SOL    HW222176   1.987   3.317   0.300  0.8707 -0.7830 -2.3758
 3572SOL     OW22177   0.463   1.207  11.961  0.1258  0.1490 -0.0806
 3572SOL    HW122178   0.374   1.175  11.975 -1.0531  3.2128 -0.5044
 3572SOL    HW222179   0.501   1.214  12.048 -2.2446 -1.4355  1.0644
 3573SOL     OW22180   4.361   2.598   9.902  0.3982 -0.1113  0.3152
 3573SOL    HW122181   4.372   2.678   9.953  0.8606  1.4090 -2.1837
 3573SOL    HW222182   4.425   2.534   9.935  0.0956 -0.9099 -0.6590
 3574SOL     OW22183   3.293   3.061   1.395  0.1332  0.1406 -0.0404
 3574SOL    HW122184   3.332   3.148   1.392 -0.6346  0.5342  1.1040
 3574SOL    HW222185   3.200   3.079   1.382  0.4144  2.4502  1.0777
 3575SOL     OW22186   4.220   3.189   4.360 -0.3794  0.7253  0.2578
 3575SOL    HW122187   4.187   3.239   4.435 -0.3970 -0.2690  0.9019
 3575SOL    HW222188   4.289   3.247   4.327 -1.2527  1.8175  0.3332
 3576SOL     OW22189   3.297   0.001   0.411 -0.4518  0.1882  0.5414
 3576SOL    HW122190   3.335   0.074   0.460  2.3048 -1.4437  0.8385
 3576SOL    HW222191   3.239   0.063   0.368 -0.3926  1.1956  1.9133
 3577SOL     OW22192   4.150   1.110   6.463  0.2536  0.4674  0.2315
 3577SOL    HW122193   4.198   1.171   6.519 -0.2701  1.8297 -0.7980
 3577SOL    HW222194   4.122   1.040   6.521  0.9030 -0.1471 -0.1870
 3578SOL     OW22195   2.618   0.135  17.500 -0.7792  0.2500  0.1857
 3578SOL    HW122196   2.597   0.065  17.438 -2.0985  0.9172 -0.1230
 3578SOL    HW222197   2.713   0.126  17.495 -0.9265  0.0279 -2.1935
 3579SOL     OW22198   3.681   3.613   4.752  0.2053 -0.6045 -0.0130
 3579SOL    HW122199   3.617   3.658   4.696 -1.6223 -0.6745  2.0171
 3579SOL    HW222200   3.745   3.592   4.684 -0.4814 -1.0474 -0.5121
 3580SOL     OW22201   0.375   0.331   6.478  0.5708  0.0054 -0.1758
 3580SOL    HW122202   0.436   0.355   6.547  1.9738 -1.5544 -0.8639
 3580SOL    HW222203   0.431   0.357   6.405 -0.8285  0.3558 -1.1422
 3581SOL     OW22204   3.138   0.374   2.731 -0.9073  0.4470 -0.8456
 3581SOL    HW122205   3.219   0.344   2.772 -0.3624  3.9258  0.7038
 3581SOL    HW222206   3.177   0.391   2.646 -0.8696  1.8452 -0.5651
 3582SOL     OW22207   2.101   2.026   2.653  0.2564 -0.2647 -0.2303
 3582SOL    HW122208   2.066   1.961   2.592  1.0314 -1.5949  0.7533
 3582SOL    HW222209   2.148   1.977   2.721  1.8115  0.0027 -1.1165
 3583SOL     OW22210   3.253   3.711   4.506  0.3215  0.4856  0.7182
 3583SOL    HW122211   3.189   3.779   4.527 -0.2748  0.7004 -1.7037
 3583SOL    HW222212   3.195   3.639   4.527  1.0987  0.5708  3.1056
 3584SOL     OW22213   2.299   2.390   7.992 -0.1537 -0.1515  0.2637
 3584SOL    HW122214   2.375   2.342   8.026 -0.3808 -0.0622  0.9103
 3584SOL    HW222215   2.232   2.364   8.056 -0.7759  1.5789  0.3204
 3585SOL     OW22216   0.387   2.859  10.274  0.2931 -0.5460 -0.5754
 3585SOL    HW122217   0.415   2.770  10.294 -2.6992 -1.0574  1.3547
 3585SOL    HW222218   0.470   2.906  10.262 -0.5597  1.5611  1.7325
 3586SOL     OW22219   1.135   0.017   7.596  0.5199  0.6671 -0.2837
 3586SOL    HW122220   1.187   0.079   7.648 -0.5890  0.6694  0.8132
 3586SOL    HW222221   1.208   0.008   7.535  1.0139  1.7731  0.1369
 3587SOL     OW22222   3.156   4.398  14.147  0.3415 -0.1510  0.4428
 3587SOL    HW122223   3.176   4.305  14.140  0.9976 -0.0479  0.9009
 3587SOL    HW222224   3.230   4.432  14.096 -0.1726  0.5756  0.1866
 3588SOL     OW22225   1.064   1.033   6.812  0.0718 -0.0984 -0.2396
 3588SOL    HW122226   1.160   1.030   6.814  0.1526  2.6104 -0.8603
 3588SOL    HW222227   1.055   1.119   6.773 -0.5456 -0.3266 -0.6029
 3589SOL     OW22228   2.543   4.662   2.884 -0.8884 -0.8353  0.1124
 3589SOL    HW122229   2.516   4.714   2.960 -1.7093 -3.5982  1.7221
 3589SOL    HW222230   2.462   4.611   2.877 -1.4569  0.4734 -2.5364
 3590SOL     OW22231   3.078   2.552  15.686  0.3745 -0.2234  0.6488
 3590SOL    HW122232   2.995   2.555  15.733 -0.1788  0.4733 -0.3695
 3590SOL    HW222233   3.143   2.536  15.754  1.0099  0.3729  0.1881
 3591SOL     OW22234   2.194   0.965   8.961 -0.1839 -0.6725 -0.5017
 3591SOL    HW122235   2.238   0.923   8.887 -1.6405 -0.6212 -1.3956
 3591SOL    HW222236   2.141   0.890   8.990  0.0646  0.0083  1.7055
 3592SOL     OW22237   1.653   1.449  15.323 -0.0287  0.7265  0.9771
 3592SOL    HW122238   1.688   1.364  15.350  0.5470  0.2402 -1.2740
 3592SOL    HW222239   1.623   1.435  15.233  2.5369  0.6174  0.1595
 3593SOL     OW22240   3.519   3.344   8.731  0.2251 -0.1493 -0.1695
 3593SOL    HW122241   3.494   3.379   8.816 -0.5869 -0.4191 -0.3022
 3593SOL    HW222242   3.610   3.319   8.747  0.7555  1.5760 -0.4408
 3594SOL     OW22243   0.783   3.557   6.205  0.0352 -0.1529 -0.9360
 3594SOL    HW122244   0.767   3.540   6.298  0.1744 -0.0428 -0.8918
 3594SOL    HW222245   0.730   3.637   6.204  0.0062 -0.1378  0.9481
 3595SOL     OW22246   1.400   3.817   7.874  0.5812 -0.2312  0.3972
 3595SOL    HW122247   1.375   3.725   7.862  1.1090 -0.3419  0.1621
 3595SOL    HW222248   1.387   3.852   7.786  1.3866  0.2561  0.4787
 3596SOL     OW22249   0.349   4.034   4.124 -0.2312 -0.3872  0.6421
 3596SOL    HW122250   0.280   4.083   4.079 -1.4901 -1.7995  1.0456
 3596SOL    HW222251   0.414   4.013   4.057 -0.7258 -2.1922  0.7281
 3597SOL     OW22252   0.246   3.594   2.689 -0.0150 -0.1383 -0.1437
 3597SOL    HW122253   0.310   3.523   2.680  1.2511  0.7244  1.8712
 3597SOL    HW222254   0.277   3.626   2.774 -0.6751 -2.0673  0.8374
 3598SOL     OW22255   0.989   0.635   8.412 -0.4878 -0.5080  0.0926
 3598SOL    HW122256   0.956   0.656   8.325 -1.2823  0.7069  0.6818
 3598SOL    HW222257   1.082   0.651   8.395 -0.4015 -0.9626  0.1202
 3599SOL     OW22258   3.139   0.255  13.487  0.1142  0.5198  0.2529
 3599SOL    HW122259   3.134   0.345  13.454 -0.0929  0.9941  1.6014
 3599SOL    HW222260   3.096   0.271  13.570  0.8037  1.6435  0.4072
 3600SOL     OW22261   3.992   0.692   8.195 -0.1828 -0.1750  0.5605
 3600SOL    HW122262   3.910   0.719   8.235 -0.0703  0.5578  0.3034
 3600SOL    HW222263   3.988   0.597   8.188  0.7589 -0.0428 -1.9594
 3601SOL     OW22264   2.918   0.166   6.153  0.5165 -0.0004 -0.1660
 3601SOL    HW122265   2.885   0.230   6.216 -2.0898 -0.4840 -1.0439
 3601SOL    HW222266   2.946   0.227   6.085  0.1690 -0.5136 -0.7733
 3602SOL     OW22267   4.260   4.030   2.414 -0.4014  0.3413  0.1312
 3602SOL    HW122268   4.176   4.021   2.370 -0.1616 -1.6697  0.1174
 3602SOL    HW222269   4.266   3.947   2.461  1.0411  1.5869  2.2008
 3603SOL     OW22270   3.061   1.359   6.283  0.2847 -0.4184  0.3138
 3603SOL    HW122271   3.109   1.386   6.204  1.1782 -2.7663  0.0490
 3603SOL    HW222272   2.990   1.422   6.293 -2.2999 -3.6816  2.4527
 3604SOL     OW22273   1.629   3.204   6.362 -0.4221 -0.6514 -0.3966
 3604SOL    HW122274   1.703   3.154   6.395  1.1961  0.5859 -2.1813
 3604SOL    HW222275   1.663   3.240   6.280  2.1800  0.5358  1.2520
 3605SOL     OW22276   2.076   0.698   8.044  0.5504 -0.7635  0.4401
 3605SOL    HW122277   2.109   0.730   8.127 -0.4845  2.0371 -0.2253
 3605SOL    HW222278   2.151   0.650   8.009  0.4070  0.2642 -1.2830
 3606SOL     OW22279   0.609   4.518   4.922  0.0657  0.0346  0.6556
 3606SOL    HW122280   0.638   4.548   5.009 -1.1463 -0.2750  1.1710
 3606SOL    HW222281   0.621   4.424   4.934  0.8005 -0.0488 -0.8189
 3607SOL     OW22282   1.001   3.966   2.648 -0.1823  0.1432 -0.0386
 3607SOL    HW122283   1.061   3.911   2.698  0.4190  1.8220  1.0688
 3607SOL    HW222284   0.921   3.917   2.627 -1.5938  2.2564  0.4603
 3608SOL     OW22285   2.327   3.927   8.814 -0.0412  0.3859  0.0025
 3608SOL    HW122286   2.263   3.910   8.884  0.2290 -2.0064 -0.3232
 3608SOL    HW222287   2.277   3.977   8.749 -0.7086  0.1723  0.3438
 3609SOL     OW22288   4.538   0.523   2.548  0.0942 -0.5498  0.0232
 3609SOL    HW122289   4.444   0.520   2.528 -0.2390  1.6982  1.1719
 3609SOL    HW222290   4.531   0.619   2.552  2.8576 -0.4455  1.7339
 3610SOL     OW22291   4.467   2.487   5.153 -0.3995  0.4416  0.5767
 3610SOL    HW122292   4.510   2.425   5.094 -1.6005 -0.9801  1.2177
 3610SOL    HW222293   4.546   2.530   5.187  1.6398 -2.5707 -0.4516
 3611SOL     OW22294   3.550   3.830   2.082 -0.1558  0.3288 -0.5206
 3611SOL    HW122295   3.460   3.861   2.083  0.5862  2.3981  1.1562
 3611SOL    HW222296   3.534   3.760   2.018 -0.2218  1.7734 -2.0658
 3612SOL     OW22297   2.171   3.420   2.510 -0.0186 -0.1424  0.2856
 3612SOL    HW122298   2.140   3.505   2.542  0.4225  1.2705 -3.0699
 3612SOL    HW222299   2.242   3.445   2.450 -2.3459  0.6713 -2.0962
 3613SOL     OW22300   4.676   0.350   1.712  0.0587 -0.2202  0.6052
 3613SOL    HW122301   0.010   0.306   1.776  0.3630 -0.6679  0.0212
 3613SOL    HW222302   0.014   0.403   1.660 -0.7730 -1.6730 -1.8420
 3614SOL     OW22303   2.880   3.311   8.716  0.3258 -0.4808 -0.3882
 3614SOL    HW122304   2.947   3.377   8.734  0.7487 -1.2802  1.0085
 3614SOL    HW222305   2.803   3.367   8.725  1.3174  0.7250  0.5050
 3615SOL     OW22306   3.152   0.099   5.614  0.3702  0.2116  0.1386
 3615SOL    HW122307   3.204   0.069   5.540 -0.3500  2.8451 -1.4503
 3615SOL    HW222308   3.082   0.150   5.572 -0.3292 -0.4452  0.4951
 3616SOL     OW22309   2.606   3.618   7.097 -0.8242 -0.6801  0.1549
 3616SOL    HW122310   2.629   3.675   7.023 -1.2364  1.2807  1.5563
 3616SOL    HW222311   2.684   3.611   7.153 -1.1756 -0.8432  0.6230
 3617SOL     OW22312   0.138   3.225   3.833 -0.0651 -0.6986  0.6267
 3617SOL    HW122313   0.132   3.278   3.913  1.0102  0.1312  0.1523
 3617SOL    HW222314   0.233   3.214   3.830  0.2962  1.3358  3.6060
 3618SOL     OW22315   3.020   3.805  10.156  0.1493 -0.3020  0.1986
 3618SOL    HW122316   2.944   3.811  10.213  0.1595  0.6201  0.1180
 3618SOL    HW222317   3.081   3.795  10.230 -0.7543 -0.5872  0.8943
 3619SOL     OW22318   2.481   2.916  15.050  0.3525  0.2099  0.0225
 3619SOL    HW122319   2.473   2.863  14.971  0.2607  0.0924  0.1104
 3619SOL    HW222320   2.426   2.988  15.021  1.1582  0.4736 -0.8583
 3620SOL     OW22321   3.657   2.330   8.010 -0.8818 -0.3989 -0.2337
 3620SOL    HW122322   3.581   2.323   7.952  0.2386 -1.1979 -1.6124
 3620SOL    HW222323   3.653   2.243   8.050  1.0319 -0.6551 -0.5756
 3621SOL     OW22324   2.835   0.554   6.738 -0.5557 -0.4006  0.1108
 3621SOL    HW122325   2.821   0.578   6.646  0.4222 -2.1742 -0.5037
 3621SOL    HW222326   2.917   0.599   6.758 -1.4531  2.6797 -3.1554
 3622SOL     OW22327   4.325   1.858   5.059 -0.5189  0.1683 -0.2677
 3622SOL    HW122328   4.320   1.794   4.988 -1.6940 -0.0091 -0.0329
 3622SOL    HW222329   4.262   1.817   5.119 -0.9662  3.9793  1.8953
 3623SOL     OW22330   3.646   0.292   8.053  0.6466  0.4780 -0.1219
 3623SOL    HW122331   3.567   0.258   8.011  1.1474  1.1702 -1.6205
 3623SOL    HW222332   3.699   0.216   8.027  0.4155  0.7507 -1.3925
 3624SOL     OW22333   4.713   4.672   6.059  0.3401 -0.3354 -0.5987
 3624SOL    HW122334   4.648   4.665   5.988 -0.0676  1.8832 -0.4188
 3624SOL    HW222335   0.050   0.019   6.030 -0.7626  0.0438 -1.9778
 3625SOL     OW22336   3.220   2.363   0.070 -0.2404 -0.5768  0.5692
 3625SOL    HW122337   3.183   2.291   0.121  1.4166 -0.1007  2.4419
 3625SOL    HW222338   3.150   2.391   0.011  1.3483  0.0916 -0.9801
 3626SOL     OW22339   3.622   3.611  10.162 -0.3384 -0.0651 -0.3303
 3626SOL    HW122340   3.568   3.532  10.170 -0.4943  0.3980  3.1965
 3626SOL    HW222341   3.656   3.613  10.252 -0.8867  2.3931 -0.1770
 3627SOL     OW22342   2.581   1.258  13.765 -0.5201 -0.2934 -0.2634
 3627SOL    HW122343   2.648   1.192  13.744 -0.2220 -1.4954  4.3226
 3627SOL    HW222344   2.601   1.272  13.858  0.5858  1.1276 -0.7102
 3628SOL     OW22345   0.546   2.540   0.288  0.3419 -0.4330  0.0669
 3628SOL    HW122346   0.521   2.631   0.309 -0.9726 -0.6329 -0.6286
 3628SOL    HW222347   0.641   2.552   0.296  0.0733  0.7753  1.4645
 3629SOL     OW22348   1.004   4.287   2.937  0.4027 -0.2725  0.2536
 3629SOL    HW122349   1.080   4.345   2.937 -0.1684  0.5191 -2.8743
 3629SOL    HW222350   1.044   4.215   2.887  1.6683  0.5366  0.1019
 3630SOL     OW22351   4.126   4.283  14.969  0.1186  0.1029  0.2259
 3630SOL    HW122352   4.093   4.262  14.881 -2.1641 -0.4076  1.2118
 3630SOL    HW222353   4.050   4.331  15.002  0.0546 -1.2331  1.9838
 3631SOL     OW22354   3.813   4.173  12.019  0.4141 -0.0889 -0.6658
 3631SOL    HW122355   3.812   4.247  12.079  1.6908  0.2173 -1.0207
 3631SOL    HW222356   3.866   4.109  12.067 -1.3125  0.8544  2.4890
 3632SOL     OW22357   0.885   4.139   8.274  0.0554  0.3559 -0.6698
 3632SOL    HW122358   0.884   4.233   8.262 -1.4708  0.6172  1.5105
 3632SOL    HW222359   0.818   4.127   8.341  0.2883 -0.2929 -0.5522
 3633SOL     OW22360   1.515   2.847  14.683 -0.4649 -0.2777  0.1317
 3633SOL    HW122361   1.596   2.799  14.699 -0.1523  0.5104  0.9192
 3633SOL    HW222362   1.556   2.906  14.620 -2.0936 -0.8039 -1.4385
 3634SOL     OW22363   3.445   2.597   4.393 -0.3137 -0.1304 -0.3944
 3634SOL    HW122364   3.376   2.637   4.446 -1.0578 -0.0839 -1.3888
 3634SOL    HW222365   3.395   2.515   4.382 -0.9358  0.3162 -0.8718
 3635SOL     OW22366   0.108   2.153   4.712  0.1591 -0.0776 -0.2286
 3635SOL    HW122367   0.130   2.213   4.783  0.2648  1.4376 -1.5600
 3635SOL    HW222368   0.185   2.160   4.655  0.3745 -0.6684 -0.0105
 3636SOL     OW22369   1.713   1.202   7.131  0.4002 -0.1925 -0.6054
 3636SOL    HW122370   1.766   1.281   7.123  0.0858  0.1585  0.6695
 3636SOL    HW222371   1.690   1.202   7.224  1.7905  3.2622 -0.2379
 3637SOL     OW22372   0.040   3.111   7.597 -0.0674  0.3429 -0.4589
 3637SOL    HW122373   0.112   3.158   7.555 -0.7475  1.5614 -0.2422
 3637SOL    HW222374   0.095   3.081   7.670 -1.4696 -0.0345  0.4243
 3638SOL     OW22375   4.263   2.596   4.655 -0.2274 -0.2157  0.1690
 3638SOL    HW122376   4.232   2.506   4.671  1.5316 -1.1220 -1.5245
 3638SOL    HW222377   4.290   2.620   4.744  1.4415 -1.3913 -0.0067
 3639SOL     OW22378   0.779   0.991  14.546 -0.5415  0.2720 -0.2510
 3639SOL    HW122379   0.870   0.982  14.575 -0.1475 -0.0175 -1.5662
 3639SOL    HW222380   0.778   0.925  14.477 -0.1751 -0.6223  0.6015
 3640SOL     OW22381   2.337   1.584   1.380  0.4009  0.5145  0.1819
 3640SOL    HW122382   2.290   1.641   1.441 -1.9785  0.4297 -1.5877
 3640SOL    HW222383   2.354   1.637   1.302  2.3744  0.5350  0.6285
 3641SOL     OW22384   0.767   0.118   3.821  0.5445 -0.5037  0.6591
 3641SOL    HW122385   0.804   0.193   3.867 -0.4226  0.5258 -0.2357
 3641SOL    HW222386   0.846   0.064   3.820  0.4845 -0.5371 -1.7812
 3642SOL     OW22387   1.176   1.771  15.705 -0.2377 -0.3236  0.0823
 3642SOL    HW122388   1.140   1.857  15.723  1.6931  0.5590 -0.2935
 3642SOL    HW222389   1.118   1.722  15.763  1.0747 -0.6868  1.0801
 3643SOL     OW22390   3.135   2.893   5.101  0.6197  0.5849  0.1651
 3643SOL    HW122391   3.137   2.809   5.055  2.2473  1.3692 -1.1777
 3643SOL    HW222392   3.212   2.875   5.155 -0.1573  1.6825  1.6276
 3644SOL     OW22393   2.937   3.477   4.091  0.1232 -0.1820  0.1551
 3644SOL    HW122394   2.923   3.510   4.002  0.9485  3.3035  1.3066
 3644SOL    HW222395   2.887   3.544   4.139  2.2183 -0.1195  2.2247
 3645SOL     OW22396   4.425   1.216   4.914 -0.3023  0.1184 -0.1531
 3645SOL    HW122397   4.441   1.287   4.975 -3.8340 -0.0354  0.9499
 3645SOL    HW222398   4.506   1.165   4.918 -0.9006 -0.8755 -0.5328
 3646SOL     OW22399   2.035   1.600   7.725 -0.4676 -0.7916  0.1330
 3646SOL    HW122400   2.013   1.565   7.811 -2.3446  1.3048  0.5120
 3646SOL    HW222401   1.945   1.627   7.703  0.2326  2.1653  0.9472
 3647SOL     OW22402   0.126   3.934   2.056  0.3454 -0.1259  0.4282
 3647SOL    HW122403   0.083   3.935   2.142  3.7094  1.6594  2.0427
 3647SOL    HW222404   0.185   4.008   2.047  0.5241 -0.3335 -0.1353
 3648SOL     OW22405   3.967   3.661   1.732 -0.0534  0.6683  0.1290
 3648SOL    HW122406   4.037   3.596   1.742 -0.4890 -0.3444 -3.5469
 3648SOL    HW222407   3.891   3.603   1.735 -0.1940  0.8459  0.0373
 3649SOL     OW22408   3.555   4.608   7.700 -0.0052 -0.3978  0.2998
 3649SOL    HW122409   3.496   4.632   7.771 -0.2349 -0.4500  0.1291
 3649SOL    HW222410   3.553   4.681   7.638  0.2011 -0.9034 -0.3094
 3650SOL     OW22411   3.317   4.551   0.186  0.0035  0.0055 -0.0038
 3650SOL    HW122412   3.349   4.572   0.274  2.0461 -1.4777 -0.3698
 3650SOL    HW222413   3.224   4.539   0.205  0.1421 -0.3448  0.4494
 3651SOL     OW22414   3.609   3.397  12.752  0.9659  0.0143  0.4929
 3651SOL    HW122415   3.567   3.424  12.670 -0.5903  0.4606  1.4348
 3651SOL    HW222416   3.531   3.349  12.781  2.0630 -2.0364  0.0697
 3652SOL     OW22417   2.499   2.599   5.061 -0.2481  0.0666  0.0459
 3652SOL    HW122418   2.416   2.586   5.015  0.8844 -0.4134 -1.8899
 3652SOL    HW222419   2.478   2.677   5.111 -2.7380  0.2131 -1.1980
 3653SOL     OW22420   2.189   4.534   4.410  0.2401  0.4389  0.2408
 3653SOL    HW122421   2.197   4.484   4.329  2.5562  1.2439 -0.0211
 3653SOL    HW222422   2.097   4.561   4.413 -0.1786 -1.1096  1.5050
 3654SOL     OW22423   0.912   2.384  15.808  0.1965 -0.1543 -0.5564
 3654SOL    HW122424   0.979   2.387  15.740 -0.8658  0.0720 -1.5912
 3654SOL    HW222425   0.857   2.315  15.772 -1.2095  1.1023 -0.7956
 3655SOL     OW22426   1.531   1.658  15.444  0.6108  0.8641  0.5237
 3655SOL    HW122427   1.547   1.573  15.403  0.1036 -0.0746  2.2522
 3655SOL    HW222428   1.602   1.661  15.509  1.3543 -0.3059 -0.2362
 3656SOL     OW22429   3.937   1.707   8.690 -0.2223  0.4369  0.1430
 3656SOL    HW122430   4.012   1.767   8.689  1.2349 -1.3612  0.2559
 3656SOL    HW222431   3.944   1.671   8.601  1.3294  0.1251  0.3790
 3657SOL     OW22432   3.286   0.041   8.706 -0.1546 -0.5641 -0.3984
 3657SOL    HW122433   3.350   0.036   8.635  0.6424  1.3919  0.1646
 3657SOL    HW222434   3.220   4.703   8.673 -0.5348 -0.8969  0.9875
 3658SOL     OW22435   2.792   1.762  14.212 -0.1984  0.0367  0.7885
 3658SOL    HW122436   2.772   1.750  14.119  1.7536  0.7939  0.2749
 3658SOL    HW222437   2.706   1.787  14.246 -0.8502 -2.0858  0.7075
 3659SOL     OW22438   4.296   4.440   8.399 -0.0935 -0.5554 -0.3731
 3659SOL    HW122439   4.359   4.385   8.446  1.5777  0.0045 -1.9887
 3659SOL    HW222440   4.288   4.393   8.316  0.6671 -0.9633 -0.2134
 3660SOL     OW22441   2.025   3.595   0.915 -0.2806  0.2120 -0.0917
 3660SOL    HW122442   2.086   3.638   0.976  0.2517 -0.8098  0.0944
 3660SOL    HW222443   1.968   3.666   0.887 -1.5991 -0.8721 -0.1334
 3661SOL     OW22444   3.124   3.698   7.876 -0.3884 -0.1654  0.2195
 3661SOL    HW122445   3.088   3.658   7.955  0.5978 -0.3657  0.5690
 3661SOL    HW222446   3.220   3.703   7.883 -0.6375  0.8658  2.9799
 3662SOL     OW22447   4.645   2.276   5.707  0.1447  0.7429  0.4143
 3662SOL    HW122448   4.664   2.218   5.781 -0.0317 -1.5887 -1.4123
 3662SOL    HW222449   4.556   2.302   5.732 -0.0316  0.0296  0.5110
 3663SOL     OW22450   2.406   3.127  17.073 -0.7656  0.0417  0.5925
 3663SOL    HW122451   2.317   3.156  17.054 -0.2658  1.3039  0.2051
 3663SOL    HW222452   2.450   3.142  16.990 -0.9012  0.6732  0.6341
 3664SOL     OW22453   4.554   4.039   6.442  0.1228 -0.2086  1.1423
 3664SOL    HW122454   4.578   4.132   6.444 -0.9953  0.1194 -0.8796
 3664SOL    HW222455   4.459   4.038   6.440  0.1873 -1.5619 -0.8216
 3665SOL     OW22456   1.613   4.681   6.503  0.1795 -0.1564  0.3041
 3665SOL    HW122457   1.569   4.641   6.428 -0.5618 -1.5505  1.5057
 3665SOL    HW222458   1.640   0.045   6.469 -0.1972 -0.4657 -0.7959
 3666SOL     OW22459   2.097   4.658   6.825  0.2062 -0.3001  0.4364
 3666SOL    HW122460   2.189   4.671   6.847 -0.0072 -3.0102  2.7942
 3666SOL    HW222461   2.099   4.628   6.734 -0.0585  0.0585  0.3115
 3667SOL     OW22462   2.825   2.933   5.592  0.3842 -0.1748 -0.2773
 3667SOL    HW122463   2.903   2.914   5.540  0.3555 -0.2144 -0.3061
 3667SOL    HW222464   2.773   2.967   5.519  1.3805  1.3965 -0.2590
 3668SOL     OW22465   1.064   1.035  11.087 -0.0033  0.1097  0.5314
 3668SOL    HW122466   1.070   0.972  11.159 -1.0728  0.5117  0.9806
 3668SOL    HW222467   0.976   1.014  11.056 -0.5944 -1.2450  3.1085
 3669SOL     OW22468   0.286   3.389   6.739 -0.4835  0.0429  0.4884
 3669SOL    HW122469   0.370   3.425   6.712 -0.8819  1.1149  0.6846
 3669SOL    HW222470   0.238   3.460   6.782 -1.3935  0.9759 -2.1107
 3670SOL     OW22471   1.341   0.267   4.207  0.1361  0.6602  0.5688
 3670SOL    HW122472   1.397   0.267   4.129 -2.8793  1.9056 -1.6277
 3670SOL    HW222473   1.269   0.328   4.188  0.5592  1.6091  2.0648
 3671SOL     OW22474   1.637   4.176   7.107  0.1079 -0.6653 -0.2738
 3671SOL    HW122475   1.692   4.098   7.105  0.4055 -0.5015  1.3495
 3671SOL    HW222476   1.606   4.176   7.017  1.1369  1.7228 -0.6208
 3672SOL     OW22477   1.724   1.254   4.898 -0.1912 -0.4297 -0.4656
 3672SOL    HW122478   1.814   1.248   4.864  0.5128  0.0789  1.2894
 3672SOL    HW222479   1.684   1.315   4.837 -2.2331 -0.5910  0.7346
 3673SOL     OW22480   0.705   2.877   1.585 -0.6733  0.1985 -0.1971
 3673SOL    HW122481   0.735   2.799   1.538 -0.6775 -1.2897  2.2743
 3673SOL    HW222482   0.611   2.869   1.569 -1.1501  0.8985  2.2512
 3674SOL     OW22483   3.477   2.769  15.552 -0.2037 -0.1798 -0.1936
 3674SOL    HW122484   3.441   2.856  15.539 -0.5582 -0.1787  0.8146
 3674SOL    HW222485   3.568   2.788  15.576  0.2216 -1.5501 -0.7372
 3675SOL     OW22486   2.121   4.245   4.537 -0.1866 -0.3774 -0.2206
 3675SOL    HW122487   2.083   4.324   4.574 -0.6019 -0.7074  0.0561
 3675SOL    HW222488   2.042   4.194   4.520 -0.3288 -0.5243  0.8860
 3676SOL     OW22489   1.864   1.427   7.158  0.4226 -0.2780  0.1976
 3676SOL    HW122490   1.944   1.375   7.150  1.2909  1.2347 -0.8702
 3676SOL    HW222491   1.884   1.517   7.131 -0.4387 -0.1196  0.0883
 3677SOL     OW22492   4.286   2.458   6.228 -0.0095  0.2498 -0.3497
 3677SOL    HW122493   4.363   2.500   6.190 -0.3969  1.0947 -0.1965
 3677SOL    HW222494   4.267   2.401   6.154  1.8675 -1.1156  0.2224
 3678SOL     OW22495   2.535   1.995  15.002 -0.6097  0.1802  0.5360
 3678SOL    HW122496   2.540   1.990  14.906  1.6752  2.2174  0.5629
 3678SOL    HW222497   2.457   1.941  15.015 -0.3355 -0.0590  1.1742
 3679SOL     OW22498   4.555   3.299   5.729 -0.0823 -0.3034 -0.0695
 3679SOL    HW122499   4.525   3.247   5.655  3.3913 -1.3174 -0.7760
 3679SOL    HW222500   4.639   3.256   5.745  1.0587  0.9315 -2.7006
 3680SOL     OW22501   2.298   2.626   0.818  0.1333  0.3253  0.5120
 3680SOL    HW122502   2.351   2.667   0.750 -0.7024 -1.3681 -1.1452
 3680SOL    HW222503   2.293   2.537   0.783  0.5002 -0.0058  1.2839
 3681SOL     OW22504   2.006   2.388  10.648 -0.1509 -0.2212 -0.0053
 3681SOL    HW122505   2.086   2.409  10.600  0.0785 -2.2494 -0.5050
 3681SOL    HW222506   1.941   2.447  10.610  1.5921 -0.3712 -3.2356
 3682SOL     OW22507   1.339   4.063  14.797 -0.5356 -0.3433 -0.3367
 3682SOL    HW122508   1.406   4.130  14.802 -2.1057  1.3820 -2.2881
 3682SOL    HW222509   1.391   3.996  14.753 -0.4262  0.5542 -1.5912
 3683SOL     OW22510   1.901   4.372   2.332 -0.0125  0.3561  0.1760
 3683SOL    HW122511   1.851   4.358   2.252  0.8010 -1.3814 -0.0177
 3683SOL    HW222512   1.984   4.397   2.292  0.5267 -1.1576  0.3593
 3684SOL     OW22513   1.637   2.042  13.656 -0.5556 -0.3321  0.8159
 3684SOL    HW122514   1.704   2.100  13.619  0.4829 -0.5588  2.3552
 3684SOL    HW222515   1.681   1.971  13.702 -0.3972  1.3436  3.2511
 3685SOL     OW22516   4.150   1.039  17.557 -0.2959  0.4491  0.5710
 3685SOL    HW122517   4.212   1.052  17.485 -0.6040 -0.3981  0.1515
 3685SOL    HW222518   4.199   0.979  17.613  0.5590  0.9368  0.3452
 3686SOL     OW22519   0.008   3.289   3.231  0.0895 -0.6177 -0.1167
 3686SOL    HW122520   4.650   3.237   3.240 -0.2990 -0.4404 -2.5903
 3686SOL    HW222521   0.077   3.227   3.255 -0.4297 -1.4783 -0.8519
 3687SOL     OW22522   1.771   1.286  10.600  0.0721  0.0512  0.7010
 3687SOL    HW122523   1.866   1.283  10.587 -0.1254  2.1893 -1.3549
 3687SOL    HW222524   1.761   1.330  10.684 -1.2954 -0.9305  1.0395
 3688SOL     OW22525   4.433   3.473  12.014 -0.4017  0.7668 -0.4251
 3688SOL    HW122526   4.411   3.381  11.999 -0.8699  0.9622 -0.9504
 3688SOL    HW222527   4.506   3.477  12.075 -0.5350 -0.9698 -0.1504
 3689SOL     OW22528   0.646   2.931  16.776  0.6513 -0.5517  0.3684
 3689SOL    HW122529   0.570   2.910  16.829 -0.5620  0.1185 -1.1266
 3689SOL    HW222530   0.656   3.025  16.791 -1.0939  0.0833 -2.4987
 3690SOL     OW22531   1.285   2.658  16.920 -0.3641  0.2633 -0.2837
 3690SOL    HW122532   1.199   2.661  16.877 -1.1751  2.0839  1.4530
 3690SOL    HW222533   1.276   2.576  16.968  1.4587  0.0846 -0.2656
 3691SOL     OW22534   4.350   4.086   6.159  0.2042 -0.3323 -0.5111
 3691SOL    HW122535   4.406   4.162   6.145 -2.8323  1.6062 -2.1029
 3691SOL    HW222536   4.360   4.072   6.253 -3.3610 -1.6118 -0.3423
 3692SOL     OW22537   3.278   1.577   6.544 -0.4344  0.1026  0.4877
 3692SOL    HW122538   3.366   1.595   6.511 -0.4097 -0.4699  0.2373
 3692SOL    HW222539   3.226   1.646   6.504 -0.6027 -0.3141 -0.0256
 3693SOL     OW22540   2.693   3.586   0.660  0.7267 -0.1365 -0.3126
 3693SOL    HW122541   2.712   3.543   0.744 -1.5425  3.3006  1.9511
 3693SOL    HW222542   2.707   3.521   0.591 -1.0490  1.9207 -2.6220
 3694SOL     OW22543   1.488   0.535   5.638  0.2533  0.1519  0.0420
 3694SOL    HW122544   1.515   0.452   5.676 -0.7991 -0.8638 -1.4415
 3694SOL    HW222545   1.574   0.567   5.612  0.8227 -1.5735 -0.1696
 3695SOL     OW22546   1.537   3.162  12.735  0.0235 -0.3746 -0.3032
 3695SOL    HW122547   1.593   3.144  12.659  0.5408  0.2444 -0.0731
 3695SOL    HW222548   1.602   3.163  12.805 -0.4450 -2.5699  0.1603
 3696SOL     OW22549   0.246   4.472   3.952  0.4082  0.8203  0.4635
 3696SOL    HW122550   0.302   4.453   3.877  0.0085 -3.1306  1.2089
 3696SOL    HW222551   0.294   4.542   3.997  0.2035 -0.1070  2.1108
 3697SOL     OW22552   4.144   3.991   5.607  0.3953 -0.3123 -0.3185
 3697SOL    HW122553   4.224   3.939   5.598  1.2538  0.8959  0.2304
 3697SOL    HW222554   4.086   3.928   5.649  1.1210  1.0745  2.7437
 3698SOL     OW22555   4.348   1.507   5.385  0.3053 -0.3558  0.1713
 3698SOL    HW122556   4.294   1.578   5.350  0.7767 -0.9173 -1.6467
 3698SOL    HW222557   4.362   1.540   5.474 -2.8934 -0.1617  0.6094
 3699SOL     OW22558   2.278   4.530   8.129  0.4522 -0.6185  0.0723
 3699SOL    HW122559   2.233   4.591   8.187  0.2204 -1.1867  0.4947
 3699SOL    HW222560   2.234   4.450   8.157 -0.4347  0.4048  1.5704
 3700SOL     OW22561   2.267   2.834   6.632 -0.3730  0.5127  0.2229
 3700SOL    HW122562   2.295   2.759   6.579 -0.9836  0.4867 -0.0634
 3700SOL    HW222563   2.339   2.834   6.696  0.7308 -0.0019 -1.0172
 3701SOL     OW22564   3.409   1.670   9.549 -0.2956  0.1285  0.2828
 3701SOL    HW122565   3.397   1.668   9.454  0.6766 -0.0868  0.1689
 3701SOL    HW222566   3.494   1.627   9.555 -0.5801 -0.8859 -2.7247
 3702SOL     OW22567   2.770   2.102   4.021  0.1273 -0.3316  0.3949
 3702SOL    HW122568   2.803   2.056   4.098 -0.2002 -0.1692  0.6292
 3702SOL    HW222569   2.823   2.065   3.950 -0.2758 -0.1951  0.0188
 3703SOL     OW22570   2.402   1.575  17.482 -0.1628  0.6939 -0.4484
 3703SOL    HW122571   2.446   1.660  17.492  1.2692  0.1892 -2.4930
 3703SOL    HW222572   2.427   1.573  17.389 -0.5646  1.0049 -0.5643
 3704SOL     OW22573   3.161   3.970   5.681 -0.0679 -0.3253 -0.0515
 3704SOL    HW122574   3.173   3.908   5.609 -1.0071 -2.3790  1.5802
 3704SOL    HW222575   3.207   3.936   5.757 -0.1721 -1.8517 -0.6750
 3705SOL     OW22576   4.439   3.761   5.023  0.1905  0.4146  0.4847
 3705SOL    HW122577   4.362   3.792   4.976 -1.2618 -1.3137  1.7449
 3705SOL    HW222578   4.411   3.774   5.113  1.4844 -0.2424  0.9752
 3706SOL     OW22579   0.990   3.557   6.520 -0.2726  0.1150  0.0592
 3706SOL    HW122580   1.050   3.624   6.488 -1.0839  1.2684  0.9818
 3706SOL    HW222581   1.036   3.484   6.478  1.0568  1.8063 -1.4017
 3707SOL     OW22582   0.554   0.503   6.036 -0.1697  0.1817 -0.7836
 3707SOL    HW122583   0.466   0.514   6.072  0.3322  2.9049 -0.3635
 3707SOL    HW222584   0.541   0.495   5.941 -1.5693 -1.0830 -0.4860
 3708SOL     OW22585   1.807   2.373   7.784 -0.2273 -0.2262 -0.4218
 3708SOL    HW122586   1.868   2.398   7.714 -0.0418 -1.2050 -0.5996
 3708SOL    HW222587   1.859   2.299   7.812 -0.1055  0.4688  1.1704
 3709SOL     OW22588   1.887   4.203   7.812 -0.3922 -0.3291  0.0679
 3709SOL    HW122589   1.917   4.292   7.831  0.0084 -0.4075 -0.2100
 3709SOL    HW222590   1.792   4.213   7.822 -0.3780  0.6240 -0.7047
 3710SOL     OW22591   3.228   1.019   8.439  0.5731 -0.0633  0.1382
 3710SOL    HW122592   3.237   0.948   8.376 -0.5718 -1.5091  1.6172
 3710SOL    HW222593   3.147   0.999   8.485  0.5014  1.0784  0.5140
 3711SOL     OW22594   0.350   3.844   6.310 -0.4321  0.2885 -0.1184
 3711SOL    HW122595   0.286   3.914   6.324  1.2710  2.2254 -2.0815
 3711SOL    HW222596   0.309   3.767   6.351  0.6927 -1.7384 -2.7375
 3712SOL     OW22597   1.372   0.117   4.438  0.4613  0.3212  0.0775
 3712SOL    HW122598   1.352   0.170   4.362  1.9967  0.2233 -0.3932
 3712SOL    HW222599   1.332   0.031   4.426  1.4176 -0.3387  1.4628
 3713SOL     OW22600   0.826   4.365   7.045 -0.6158  0.0912 -0.0510
 3713SOL    HW122601   0.912   4.366   7.086  0.1022 -0.3120 -1.5319
 3713SOL    HW222602   0.794   4.280   7.072  1.0863 -0.7266 -0.6162
 3714SOL     OW22603   3.536   3.452   7.038 -0.0754 -0.1340 -0.1717
 3714SOL    HW122604   3.498   3.443   7.126  1.5420 -0.6449  0.4700
 3714SOL    HW222605   3.503   3.375   6.991  0.7847  0.7274 -2.1881
 3715SOL     OW22606   0.100   3.607   5.488  0.2655 -0.7165  0.0200
 3715SOL    HW122607   0.114   3.597   5.394  2.6356  1.5219  0.1202
 3715SOL    HW222608   0.149   3.542   5.537  1.5493  1.3712  1.5085
 3716SOL     OW22609   0.707   1.723   3.070 -0.0278  0.3395  0.0191
 3716SOL    HW122610   0.716   1.723   2.975  1.5613  0.1332  0.1722
 3716SOL    HW222611   0.786   1.748   3.118 -0.1800 -0.8652  0.9249
 3717SOL     OW22612   3.869   4.043   6.224  0.0731 -0.5323 -0.0685
 3717SOL    HW122613   3.815   4.122   6.234  2.1710  0.9182 -0.2382
 3717SOL    HW222614   3.942   4.085   6.180  0.5063 -1.3965 -0.1669
 3718SOL     OW22615   3.842   0.121   5.911 -0.1162  0.0470  0.0636
 3718SOL    HW122616   3.808   0.168   5.987 -1.4562  0.5679 -0.8391
 3718SOL    HW222617   3.882   0.042   5.945  0.6950  1.5663  2.6494
 3719SOL     OW22618   1.964   3.976   5.213 -0.1217  0.3585  0.2238
 3719SOL    HW122619   1.973   3.882   5.196 -0.5758  0.0822  1.5574
 3719SOL    HW222620   2.041   3.986   5.268  1.3930  2.0460 -2.1891
 3720SOL     OW22621   1.975   2.358   5.099 -0.1921  0.2409  0.5121
 3720SOL    HW122622   1.910   2.371   5.168 -1.4187 -1.8419 -0.2631
 3720SOL    HW222623   2.054   2.360   5.154  0.5970 -0.1982 -0.6158
 3721SOL     OW22624   1.713   2.812   5.097  0.7803  0.2186 -0.1174
 3721SOL    HW122625   1.718   2.743   5.030  0.2018  0.5827 -0.5357
 3721SOL    HW222626   1.719   2.887   5.038 -1.7492 -0.4054 -1.1645
 3722SOL     OW22627   4.329   2.243   7.978 -0.1363  0.3208 -0.1109
 3722SOL    HW122628   4.315   2.149   7.990 -0.7605  0.3161 -0.8931
 3722SOL    HW222629   4.424   2.239   7.967 -0.1290  1.0776 -0.2979
 3723SOL     OW22630   2.822   1.562   7.903  0.3359  0.2365  0.2145
 3723SOL    HW122631   2.892   1.544   7.840 -0.8967 -1.7924 -0.5849
 3723SOL    HW222632   2.768   1.614   7.843  0.7220  0.6203  0.2049
 3724SOL     OW22633   1.642   2.153  10.649  0.1816 -0.3190  0.2164
 3724SOL    HW122634   1.675   2.064  10.657 -2.6145 -1.1791  2.1813
 3724SOL    HW222635   1.666   2.194  10.732 -2.7688  1.2344  0.3099
 3725SOL     OW22636   2.685   1.592   6.990  0.2675  0.3124  0.5316
 3725SOL    HW122637   2.772   1.564   6.963 -0.9442 -0.6934 -2.3248
 3725SOL    HW222638   2.677   1.524   7.057 -1.1488 -0.0739 -0.0258
 3726SOL     OW22639   1.772   3.943   6.714 -0.1362  0.2632  0.1688
 3726SOL    HW122640   1.725   3.881   6.659 -1.0127  0.5110  0.6409
 3726SOL    HW222641   1.787   4.015   6.653 -0.6793 -0.6895 -1.0743
 3727SOL     OW22642   3.738   4.393  14.528 -0.5793 -0.0046  0.1295
 3727SOL    HW122643   3.749   4.298  14.531 -0.3836  0.0138  0.0253
 3727SOL    HW222644   3.645   4.406  14.545 -0.6619  0.6083 -0.7611
 3728SOL     OW22645   3.448   3.211   6.530  0.2392 -0.2201 -0.8808
 3728SOL    HW122646   3.362   3.172   6.518 -0.8145  0.6533  3.7216
 3728SOL    HW222647   3.440   3.304   6.511 -1.1219 -0.0975  0.3173
 3729SOL     OW22648   1.365   4.358   6.416  0.5896  0.5029 -0.2728
 3729SOL    HW122649   1.275   4.374   6.445  0.5616 -0.4530  0.1380
 3729SOL    HW222650   1.371   4.267   6.444 -0.1491  0.6682  0.4414
 3730SOL     OW22651   2.742   1.448   2.450  0.5479 -0.1592  0.3997
 3730SOL    HW122652   2.785   1.419   2.370  2.1328 -1.2069  1.6140
 3730SOL    HW222653   2.798   1.406   2.516 -0.5510  0.8657  1.9827
 3731SOL     OW22654   2.433   1.958   0.511 -0.0887 -0.2656 -0.0113
 3731SOL    HW122655   2.339   1.953   0.530 -0.1325 -0.6771 -0.3127
 3731SOL    HW222656   2.451   2.049   0.489  0.2080 -0.6415 -1.3282
 3732SOL     OW22657   4.165   2.377   8.726 -0.3433 -0.0993  0.1940
 3732SOL    HW122658   4.240   2.317   8.725 -0.7231 -0.6189  2.6401
 3732SOL    HW222659   4.188   2.445   8.663  0.5255 -0.0909  0.5136
 3733SOL     OW22660   2.363   1.253   0.992  0.3019 -0.0550  0.2045
 3733SOL    HW122661   2.328   1.234   0.905 -1.9356  0.4939  0.9988
 3733SOL    HW222662   2.393   1.343   0.985  3.4395 -1.1994 -1.0859
 3734SOL     OW22663   4.391   0.429  16.895  0.2813 -0.6468  0.2416
 3734SOL    HW122664   4.353   0.461  16.977 -1.8872  0.0891 -1.0791
 3734SOL    HW222665   4.379   0.334  16.906  1.5177 -0.7948  0.3632
 3735SOL     OW22666   0.074   1.903   0.601  0.4871  0.2759 -0.4507
 3735SOL    HW122667   0.152   1.930   0.650  0.1029  0.1246  0.2539
 3735SOL    HW222668   0.105   1.829   0.550  0.1929  0.3308 -0.7081
 3736SOL     OW22669   0.218   3.606   4.822  0.3917 -0.1138  0.4263
 3736SOL    HW122670   0.274   3.537   4.788  2.1039  1.5432 -0.1035
 3736SOL    HW222671   0.178   3.650   4.747 -0.0388 -0.8742  0.2098
 3737SOL     OW22672   3.131   2.513   3.749  0.0463 -0.0018 -0.5329
 3737SOL    HW122673   3.132   2.604   3.780 -0.7228  0.7444 -2.7146
 3737SOL    HW222674   3.038   2.492   3.755  0.3290 -1.3911 -1.0388
 3738SOL     OW22675   0.491   0.513   9.733 -0.2222  0.2395  0.3651
 3738SOL    HW122676   0.415   0.524   9.790 -1.3192 -0.5667 -0.9431
 3738SOL    HW222677   0.549   0.462   9.788 -1.6712 -1.0741  0.6746
 3739SOL     OW22678   2.431   3.932   7.851 -0.5555  0.6044  1.0372
 3739SOL    HW122679   2.443   4.005   7.911 -2.1649  2.0124 -0.3172
 3739SOL    HW222680   2.482   3.864   7.895 -1.0639 -0.5638 -0.1479
 3740SOL     OW22681   1.873   1.274   9.076  0.0177  0.1094 -0.1827
 3740SOL    HW122682   1.941   1.276   9.008 -0.4740 -0.6516 -0.6934
 3740SOL    HW222683   1.886   1.352   9.130 -3.8487  1.0477 -0.6088
 3741SOL     OW22684   2.017   4.668   8.382  0.5483  0.5427  0.2248
 3741SOL    HW122685   2.024   4.691   8.475 -1.6456 -1.2052  0.8180
 3741SOL    HW222686   1.973   4.583   8.386 -0.2172  0.9484  0.3576
 3742SOL     OW22687   0.934   3.334   7.499 -0.1571 -0.4165 -0.6306
 3742SOL    HW122688   1.023   3.367   7.498 -0.7143  0.9816 -3.2413
 3742SOL    HW222689   0.886   3.411   7.530 -0.0451 -0.9342  0.8133
 3743SOL     OW22690   0.343   2.202   4.582 -0.0380 -0.7850  0.3201
 3743SOL    HW122691   0.356   2.145   4.506  2.1426 -0.1902  0.2621
 3743SOL    HW222692   0.430   2.234   4.604 -0.5242 -0.4426  1.6935
 3744SOL     OW22693   3.537   1.405   6.586  0.2741  0.4174  0.2582
 3744SOL    HW122694   3.593   1.331   6.611 -0.6799 -1.5825 -3.6493
 3744SOL    HW222695   3.472   1.390   6.654 -0.4787  1.4086 -0.2612
 3745SOL     OW22696   0.695   2.223  10.857  0.2052  0.0495  0.6045
 3745SOL    HW122697   0.694   2.288  10.927  0.4853  1.9995 -1.2110
 3745SOL    HW222698   0.742   2.149  10.895  0.6527  0.6105  1.1453
 3746SOL     OW22699   2.753   1.665   1.770 -0.0199  0.1602 -0.0673
 3746SOL    HW122700   2.832   1.615   1.793  2.1592  3.1697 -1.0274
 3746SOL    HW222701   2.791   1.752   1.760  1.1804 -0.3919 -0.3028
 3747SOL     OW22702   0.805   3.405   2.222  0.8694 -0.1994  0.2498
 3747SOL    HW122703   0.782   3.314   2.237  1.4736  0.0077  2.4195
 3747SOL    HW222704   0.757   3.429   2.144  1.1343  0.8595  0.4131
 3748SOL     OW22705   4.408   1.548   4.059 -0.8325 -0.2421  0.6897
 3748SOL    HW122706   4.363   1.598   3.991  1.8232  0.0620 -0.8483
 3748SOL    HW222707   4.341   1.523   4.122  1.0386 -0.4483  2.6015
 3749SOL     OW22708   0.434   3.158  13.038  0.7743 -0.2112  0.0613
 3749SOL    HW122709   0.487   3.236  13.028 -0.3261  0.9456  3.5309
 3749SOL    HW222710   0.354   3.181  13.084  0.2863 -1.1765 -0.2894
 3750SOL     OW22711   1.952   1.702   7.351  0.0577  0.1969  0.3458
 3750SOL    HW122712   1.873   1.744   7.386  0.0899 -0.8738  1.7080
 3750SOL    HW222713   2.017   1.761   7.390  1.5485  0.0034 -1.9132
 3751SOL     OW22714   3.689   2.354   1.910 -0.0241 -0.5444 -0.1346
 3751SOL    HW122715   3.753   2.418   1.880 -1.1471  0.0046 -1.3325
 3751SOL    HW222716   3.716   2.342   2.001  1.0346 -3.4113 -0.8301
 3752SOL     OW22717   4.294   3.676   0.462 -0.7406 -0.3582  0.3696
 3752SOL    HW122718   4.361   3.706   0.400 -2.0114  0.0177 -0.8035
 3752SOL    HW222719   4.292   3.582   0.444  2.8035 -0.2911 -0.3376
 3753SOL     OW22720   1.102   3.590  12.689 -0.2694 -0.2027  0.3680
 3753SOL    HW122721   1.058   3.610  12.606 -0.4491 -2.4226 -0.0514
 3753SOL    HW222722   1.178   3.535  12.669 -2.1633 -2.5203 -0.4377
 3754SOL     OW22723   1.058   1.379   6.252 -0.4342 -0.0735  0.1550
 3754SOL    HW122724   1.065   1.409   6.161 -3.2398 -3.3706 -1.1585
 3754SOL    HW222725   1.059   1.458   6.306 -1.4794 -1.0312  1.5821
 3755SOL     OW22726   2.021   1.759   0.213 -0.4914  0.5641  0.4135
 3755SOL    HW122727   1.966   1.720   0.145  0.0851  0.0850  0.2161
 3755SOL    HW222728   2.112   1.746   0.186 -1.0548  0.2875 -1.3238
 3756SOL     OW22729   2.015   2.361  11.568  0.0328  0.2301 -0.1537
 3756SOL    HW122730   1.986   2.447  11.538  1.7098  1.1829  0.9517
 3756SOL    HW222731   2.103   2.382  11.598  0.2847 -1.1423  0.0651
 3757SOL     OW22732   1.038   1.038   3.368  0.5847 -0.0870  0.4310
 3757SOL    HW122733   1.117   1.093   3.366 -0.8000  1.8849 -0.6506
 3757SOL    HW222734   1.041   1.006   3.278 -0.8444  0.3637  0.2280
 3758SOL     OW22735   4.426   0.701   2.831 -0.0331  0.0864 -0.2228
 3758SOL    HW122736   4.350   0.695   2.773  0.1438 -0.2732 -0.4174
 3758SOL    HW222737   4.485   0.718   2.758 -0.0784 -1.8037 -0.6982
 3759SOL     OW22738   1.727   0.725   4.768 -0.4280 -0.3004 -0.0974
 3759SOL    HW122739   1.725   0.716   4.673  3.1326 -0.0423 -0.2221
 3759SOL    HW222740   1.805   0.672   4.782 -0.8435 -0.4061  1.8054
 3760SOL     OW22741   3.060   3.554   2.927 -0.1154  0.0318 -0.2928
 3760SOL    HW122742   3.099   3.637   2.952  0.3749 -0.0918 -0.6449
 3760SOL    HW222743   2.992   3.524   2.987  0.9663 -0.4124  0.6900
 3761SOL     OW22744   1.751   1.795   4.700 -0.2962  0.1446  0.4603
 3761SOL    HW122745   1.723   1.711   4.662 -1.7958  1.9261 -2.3394
 3761SOL    HW222746   1.670   1.844   4.689  0.0164  0.5958  0.1940
 3762SOL     OW22747   3.664   1.619   7.694 -0.2216 -0.5059 -0.2109
 3762SOL    HW122748   3.642   1.543   7.748 -0.1836 -0.3223  0.0616
 3762SOL    HW222749   3.588   1.627   7.637  1.0678  1.3050 -1.6540
 3763SOL     OW22750   2.539   3.837   1.161  0.3680 -0.0187 -0.3807
 3763SOL    HW122751   2.561   3.836   1.254 -1.2161  0.4620  0.0001
 3763SOL    HW222752   2.627   3.848   1.124  0.4048  0.3121 -0.1963
 3764SOL     OW22753   4.597   1.715   6.020  0.2900  0.0539 -0.3616
 3764SOL    HW122754   4.645   1.785   5.976 -0.2725  0.1184 -0.8717
 3764SOL    HW222755   4.510   1.753   6.029 -0.8600 -2.8219  0.6287
 3765SOL     OW22756   1.187   0.967   8.962  0.2070 -0.0610 -0.2748
 3765SOL    HW122757   1.258   0.908   8.939  0.3683 -0.4931  1.2877
 3765SOL    HW222758   1.171   1.004   8.875  0.9501 -0.4081 -0.5607
 3766SOL     OW22759   1.216   1.953   6.755 -0.0434 -0.2677  0.0699
 3766SOL    HW122760   1.274   1.882   6.729 -0.0132 -0.1556 -0.1743
 3766SOL    HW222761   1.137   1.902   6.736  0.8975 -1.4861 -0.5964
 3767SOL     OW22762   4.556   0.989   7.658 -0.3017 -0.2488 -0.5686
 3767SOL    HW122763   4.630   0.951   7.706 -1.1056  0.3689  1.1597
 3767SOL    HW222764   4.572   1.081   7.678  1.1425 -0.7751  0.7231
 3768SOL     OW22765   0.023   1.723   2.126  0.4378 -0.0250  0.3203
 3768SOL    HW122766   0.085   1.667   2.174  1.1620  0.3075 -0.2249
 3768SOL    HW222767   0.061   1.718   2.038 -1.8891 -2.1929 -0.5814
 3769SOL     OW22768   0.522   1.094  15.908  0.0708 -0.3759  0.1643
 3769SOL    HW122769   0.539   1.187  15.925 -2.1161 -0.0065  0.2544
 3769SOL    HW222770   0.561   1.084  15.821  0.2010 -0.2332  0.2065
 3770SOL     OW22771   0.546   1.384   8.564 -0.1415 -0.0926 -1.2025
 3770SOL    HW122772   0.479   1.316   8.566 -0.4557  0.2122 -1.2296
 3770SOL    HW222773   0.615   1.339   8.516  1.8607 -0.2537  1.7996
 3771SOL     OW22774   3.700   3.634   5.829 -0.3572  0.0371  0.2695
 3771SOL    HW122775   3.701   3.654   5.735  1.0972 -1.1851  0.0305
 3771SOL    HW222776   3.792   3.645   5.853 -1.0444  2.8069  1.5796
 3772SOL     OW22777   0.302   0.679   1.350  0.0188  0.2788 -0.2424
 3772SOL    HW122778   0.366   0.725   1.294  0.9543  1.8116  2.0882
 3772SOL    HW222779   0.344   0.687   1.436 -3.3459  0.9226  1.3093
 3773SOL     OW22780   1.779   0.366   8.699  0.1480 -0.7155  0.1803
 3773SOL    HW122781   1.713   0.346   8.633 -0.1278  0.1735  0.1890
 3773SOL    HW222782   1.790   0.284   8.747 -1.4755 -1.4970 -0.8079
 3774SOL     OW22783   0.853   1.393  16.043 -0.4419  0.1332  0.2849
 3774SOL    HW122784   0.926   1.346  16.003  0.6016  2.2755 -0.3466
 3774SOL    HW222785   0.878   1.394  16.135  0.3727  0.5950  0.0622
 3775SOL     OW22786   3.693   1.701   0.246  0.1953  0.3739  0.0444
 3775SOL    HW122787   3.694   1.726   0.339  1.0004  2.0631 -0.4209
 3775SOL    HW222788   3.715   1.609   0.258 -0.5040  0.0959 -0.7867
 3776SOL     OW22789   1.342   1.836   8.148  0.1582  0.0235  0.1422
 3776SOL    HW122790   1.291   1.768   8.104  0.1662 -0.0204  0.2006
 3776SOL    HW222791   1.391   1.884   8.081 -1.2100  1.1501 -0.0484
 3777SOL     OW22792   1.878   3.268  17.536  0.4866  0.6702  0.7252
 3777SOL    HW122793   1.860   3.281  17.442 -1.1342 -0.6713  0.8539
 3777SOL    HW222794   1.795   3.273  17.583  0.4539  2.6408  0.4395
 3778SOL     OW22795   4.056   0.902   6.603 -0.1446  0.2153  0.2734
 3778SOL    HW122796   4.097   0.840   6.664 -0.4139 -1.4273 -1.1955
 3778SOL    HW222797   3.992   0.935   6.665 -0.0495  0.6976  0.1161
 3779SOL     OW22798   2.722   1.247   6.559 -0.3789  0.6905  0.5606
 3779SOL    HW122799   2.720   1.341   6.542 -0.9101  0.6434  0.3662
 3779SOL    HW222800   2.668   1.247   6.638  0.1765  0.2060  0.9412
 3780SOL     OW22801   1.621   3.915  16.278  0.8034  0.2453 -0.1309
 3780SOL    HW122802   1.666   3.999  16.270  0.2876  0.6037  0.7189
 3780SOL    HW222803   1.623   3.907  16.373 -0.2720 -2.4123 -0.3478
 3781SOL     OW22804   0.662   2.739   3.610  0.1008  0.5502  0.2112
 3781SOL    HW122805   0.709   2.785   3.540 -1.2008  1.4571 -0.0683
 3781SOL    HW222806   0.613   2.673   3.561  1.5389  0.6273 -1.3108
 3782SOL     OW22807   2.058   3.907   0.684  0.3986  0.0500 -0.2142
 3782SOL    HW122808   2.063   3.829   0.630  1.1517 -0.6304  0.8421
 3782SOL    HW222809   2.141   3.951   0.666 -0.0901  0.8860 -0.4746
 3783SOL     OW22810   2.914   0.408   0.962 -0.8120  0.3649  0.5762
 3783SOL    HW122811   2.832   0.458   0.967 -1.7219 -1.1817  1.3929
 3783SOL    HW222812   2.959   0.433   1.042 -0.1731 -0.3438  0.4341
 3784SOL     OW22813   3.955   4.070   4.777 -0.4888  0.2874 -0.3377
 3784SOL    HW122814   3.920   4.159   4.775  2.3069  1.3712 -0.0544
 3784SOL    HW222815   3.928   4.037   4.691  0.3902 -1.1536 -0.0465
 3785SOL     OW22816   3.284   0.027  13.113  0.2159 -0.1558  0.0519
 3785SOL    HW122817   3.214   0.048  13.176 -0.3751 -1.7376 -0.0583
 3785SOL    HW222818   3.233   4.680  13.070  1.5267  0.5307 -2.5882
 3786SOL     OW22819   2.069   0.946  15.286 -0.0512 -0.5536 -0.2584
 3786SOL    HW122820   2.134   0.880  15.260 -0.6187 -1.0111 -0.5114
 3786SOL    HW222821   1.989   0.898  15.264 -0.3875  0.0574 -0.3808
 3787SOL     OW22822   4.234   0.613   6.291  0.1131  0.5221  0.2395
 3787SOL    HW122823   4.196   0.538   6.247 -0.3389  0.6381  0.4320
 3787SOL    HW222824   4.161   0.674   6.302 -0.4831  0.1679 -1.8520
 3788SOL     OW22825   0.862   2.418   8.451 -0.2056  0.0233  0.0218
 3788SOL    HW122826   0.916   2.370   8.514  0.7349  0.5635 -0.3794
 3788SOL    HW222827   0.828   2.483   8.512 -1.3961  1.9900 -2.7483
 3789SOL     OW22828   0.512   4.348   6.038  0.0586  0.2753  0.2641
 3789SOL    HW122829   0.430   4.385   6.071 -0.0275  0.7301 -0.4426
 3789SOL    HW222830   0.516   4.264   6.082 -0.0275 -0.4219 -1.0571
 3790SOL     OW22831   4.156   0.504   1.800 -0.3176  0.1514  0.2777
 3790SOL    HW122832   4.137   0.522   1.708 -0.9481  1.0797  0.5878
 3790SOL    HW222833   4.251   0.502   1.795 -0.2946  0.4748  0.6296
 3791SOL     OW22834   0.346   1.386   5.981  0.1838 -0.1035  0.0314
 3791SOL    HW122835   0.254   1.394   6.005  0.6923 -2.2132  2.6070
 3791SOL    HW222836   0.364   1.295   6.002 -1.2905 -1.0301 -2.7155
 3792SOL     OW22837   3.485   0.788   5.661 -0.0773 -0.1060 -0.2161
 3792SOL    HW122838   3.459   0.866   5.710 -1.0790  0.0017 -0.9205
 3792SOL    HW222839   3.564   0.753   5.704 -1.8634 -3.1442  0.6043
 3793SOL     OW22840   1.229   2.669   6.550  0.4013 -0.2529 -0.2475
 3793SOL    HW122841   1.198   2.739   6.606 -0.9132  2.1899 -4.0167
 3793SOL    HW222842   1.303   2.636   6.601  0.0911  1.8366  1.5387
 3794SOL     OW22843   0.765   4.136   7.179 -0.0511  0.2190 -0.6660
 3794SOL    HW122844   0.850   4.124   7.222 -2.1642 -0.3859  3.2287
 3794SOL    HW222845   0.712   4.076   7.230  0.4625  0.0885 -0.2842
 3795SOL     OW22846   4.420   1.774   7.678  0.1893 -0.0739 -0.4744
 3795SOL    HW122847   4.421   1.736   7.766 -0.5631 -3.2545 -1.8144
 3795SOL    HW222848   4.367   1.853   7.688 -0.5826 -0.4420 -1.6942
 3796SOL     OW22849   2.652   3.210   7.679  0.1454  0.1492 -0.4898
 3796SOL    HW122850   2.741   3.231   7.651 -0.2694  1.3478 -0.9224
 3796SOL    HW222851   2.613   3.248   7.600 -2.7562 -1.2990  0.2397
 3797SOL     OW22852   3.906   4.550   5.781 -0.2870 -0.3947  0.4639
 3797SOL    HW122853   3.999   4.543   5.800  0.5293  2.8220 -2.2116
 3797SOL    HW222854   3.903   4.501   5.699  0.1897 -2.2267  1.5534
 3798SOL     OW22855   1.888   3.217  14.710 -0.0596 -0.0243  0.1504
 3798SOL    HW122856   1.848   3.170  14.783 -1.6000 -0.1321 -0.7580
 3798SOL    HW222857   1.835   3.296  14.699  0.6435  0.2270 -1.4758
 3799SOL     OW22858   1.558   3.196   0.696  0.0251  0.2208  0.2359
 3799SOL    HW122859   1.613   3.266   0.663 -0.9761  1.5636  1.4184
 3799SOL    HW222860   1.474   3.241   0.705 -1.4161 -2.1080 -1.2854
 3800SOL     OW22861   4.158   1.035   3.594  0.6100 -0.4713  0.4007
 3800SOL    HW122862   4.247   1.007   3.574  1.0155  1.9083 -1.1070
 3800SOL    HW222863   4.174   1.103   3.658  2.1842  0.1379 -0.6313
 3801SOL     OW22864   3.388   0.499   8.185  0.2141  0.9520  0.2181
 3801SOL    HW122865   3.428   0.441   8.121 -1.0907  0.6571 -0.3096
 3801SOL    HW222866   3.295   0.483   8.173  0.6708 -0.5133 -1.3773
 3802SOL     OW22867   0.594   0.835   2.421  0.3124 -0.3919  0.0124
 3802SOL    HW122868   0.541   0.905   2.383  1.7013 -1.0448 -3.1958
 3802SOL    HW222869   0.590   0.772   2.349  1.5432  1.0943 -1.3785
 3803SOL     OW22870   2.567   0.059  14.353 -0.7635 -0.0268 -0.0304
 3803SOL    HW122871   2.513   0.017  14.286 -1.5610  0.4126  0.3357
 3803SOL    HW222872   2.640   0.086  14.297  0.6013  1.1965  2.3540
 3804SOL     OW22873   0.133   3.529   3.247  0.2762  0.1666  0.1266
 3804SOL    HW122874   0.086   3.451   3.216 -0.9428  0.5034  1.1260
 3804SOL    HW222875   0.132   3.524   3.342 -1.2265  0.2939  0.1307
 3805SOL     OW22876   3.608   2.921   5.662  0.0992  0.0658  0.2823
 3805SOL    HW122877   3.633   3.013   5.653  1.5603 -0.4019 -0.2999
 3805SOL    HW222878   3.695   2.893   5.690 -0.7455 -1.0029  1.8509
 3806SOL     OW22879   1.203   3.320   4.380  0.0968 -0.6256 -0.6538
 3806SOL    HW122880   1.244   3.351   4.299  0.6141  0.8263  0.1692
 3806SOL    HW222881   1.187   3.229   4.353  0.3848 -0.7721 -0.3363
 3807SOL     OW22882   4.489   1.612  13.913  0.3426 -0.2698 -0.2514
 3807SOL    HW122883   4.455   1.577  13.830 -1.3135 -0.0031  0.3172
 3807SOL    HW222884   4.431   1.688  13.917  0.9981  0.1725  0.7485
 3808SOL     OW22885   0.695   4.329  15.796  0.1436 -0.0365 -0.2706
 3808SOL    HW122886   0.728   4.346  15.708 -0.9773  1.7713 -0.3353
 3808SOL    HW222887   0.718   4.414  15.833  2.5895 -1.0207  0.4207
 3809SOL     OW22888   3.752   2.693   8.751 -0.1912 -0.1488 -0.6623
 3809SOL    HW122889   3.801   2.648   8.682 -0.2806  0.1159 -0.9017
 3809SOL    HW222890   3.778   2.649   8.832  0.2554 -2.2645 -1.9544
 3810SOL     OW22891   2.625   1.629   3.008 -0.7672  0.2833  0.5189
 3810SOL    HW122892   2.661   1.560   2.953 -0.4320 -0.0354  1.1366
 3810SOL    HW222893   2.708   1.676   3.015 -1.6269  1.7104  1.1725
 3811SOL     OW22894   0.438   1.507   8.099 -0.7805  0.9547 -0.4872
 3811SOL    HW122895   0.390   1.426   8.117 -1.6275  1.2319 -1.4885
 3811SOL    HW222896   0.368   1.565   8.071  0.0629  1.6872 -1.0765
 3812SOL     OW22897   4.488   3.717   2.377 -0.2425 -0.0164  0.2094
 3812SOL    HW122898   4.428   3.767   2.433  0.0799  0.8317 -0.2019
 3812SOL    HW222899   4.473   3.625   2.399  0.9136 -0.2381  0.0296
 3813SOL     OW22900   1.746   4.220   1.619 -0.4487 -0.3707  0.5048
 3813SOL    HW122901   1.654   4.194   1.617 -0.1426 -1.5192  0.9168
 3813SOL    HW222902   1.733   4.314   1.624 -2.8941 -0.5846 -2.0285
 3814SOL     OW22903   4.643   1.278   1.997  0.0955  0.1248  0.1084
 3814SOL    HW122904   4.568   1.336   1.986 -0.7949 -1.0507  0.0288
 3814SOL    HW222905   4.606   1.190   2.002  2.3970 -0.8188  0.3264
 3815SOL     OW22906   0.166   1.035   1.865 -0.0786 -0.3229 -0.1149
 3815SOL    HW122907   0.215   1.102   1.913 -0.6440 -0.6649  0.9490
 3815SOL    HW222908   0.115   0.991   1.933  0.8194  1.0372  1.4303
 3816SOL     OW22909   3.512   0.524   8.776  0.1883 -0.2370  0.1824
 3816SOL    HW122910   3.485   0.584   8.845  1.3787  0.4862  0.0184
 3816SOL    HW222911   3.519   0.442   8.825  0.5628 -1.5351 -2.0367
 3817SOL     OW22912   2.677   3.179   9.273  0.2285 -0.2095  0.3903
 3817SOL    HW122913   2.772   3.174   9.260  0.0865 -0.2409 -0.6566
 3817SOL    HW222914   2.661   3.273   9.276 -3.3307 -0.8579  1.2513
 3818SOL     OW22915   1.767   0.196  12.518 -0.4033  0.5309 -0.1687
 3818SOL    HW122916   1.830   0.260  12.549 -0.4616  0.6724 -0.3412
 3818SOL    HW222917   1.818   0.165  12.443 -0.7227 -1.8294  0.6080
 3819SOL     OW22918   3.972   1.797   4.861 -0.3701 -0.1077  0.4158
 3819SOL    HW122919   3.941   1.728   4.918 -0.6087  2.2274  3.1102
 3819SOL    HW222920   3.892   1.828   4.819  0.3025 -1.3389 -1.7849
 3820SOL     OW22921   0.793   0.516   9.577  0.6152 -0.1054  0.1653
 3820SOL    HW122922   0.733   0.585   9.607 -0.4574 -0.5977 -0.8650
 3820SOL    HW222923   0.807   0.480   9.665  0.4463 -0.2559  0.1292
 3821SOL     OW22924   4.474   0.394   8.469 -0.2849 -0.1393 -0.0242
 3821SOL    HW122925   4.563   0.424   8.490 -0.0853 -0.3178 -0.6115
 3821SOL    HW222926   4.456   0.353   8.554 -0.4912  1.0102  0.4929
 3822SOL     OW22927   1.647   0.307   9.684 -0.5031  0.1266 -0.2203
 3822SOL    HW122928   1.629   0.370   9.754  0.5235 -0.0168  0.1693
 3822SOL    HW222929   1.717   0.257   9.725 -2.9665 -0.9851  2.5880
 3823SOL     OW22930   1.262   0.080   2.445  0.1121  0.4899  0.0224
 3823SOL    HW122931   1.241   0.017   2.376  0.0297 -0.8308  1.2811
 3823SOL    HW222932   1.268   0.026   2.523  0.8039  1.8909  0.9223
 3824SOL     OW22933   1.867   3.742  17.011 -0.0326  0.0188  0.2293
 3824SOL    HW122934   1.788   3.693  16.991 -0.7860  1.3790 -0.0940
 3824SOL    HW222935   1.837   3.805  17.076 -0.5905  1.3965 -1.3678
 3825SOL     OW22936   1.808   2.478   8.130 -0.0420  0.0375  0.0250
 3825SOL    HW122937   1.870   2.541   8.094  1.9219 -0.6173  2.2174
 3825SOL    HW222938   1.731   2.488   8.074  1.5574 -0.4628 -2.2362
 3826SOL     OW22939   3.699   0.909  10.277 -0.5215  0.1175  0.2264
 3826SOL    HW122940   3.705   0.871  10.190  1.0163 -1.6914  1.1264
 3826SOL    HW222941   3.604   0.906  10.278 -0.5392  0.6651  0.3398
 3827SOL     OW22942   2.067   0.094  17.516 -0.1001 -0.5091  0.3424
 3827SOL    HW122943   2.125   0.018  17.516 -0.8786 -1.0860 -2.9659
 3827SOL    HW222944   2.130   0.155  17.556  0.0883  1.0742 -2.4257
 3828SOL     OW22945   2.594   3.381  10.981 -0.0821  0.1870  0.1351
 3828SOL    HW122946   2.601   3.285  10.975  2.0151  0.3622 -0.3913
 3828SOL    HW222947   2.552   3.404  10.899  1.6621  1.8627 -0.2725
 3829SOL     OW22948   4.165   0.839  14.475 -0.5933 -0.0332 -0.1960
 3829SOL    HW122949   4.076   0.874  14.467 -0.4166  1.1560  3.1187
 3829SOL    HW222950   4.212   0.922  14.462 -1.0322  0.0834 -1.0028
 3830SOL     OW22951   2.566   2.346   8.632 -0.3918 -0.1443  0.5999
 3830SOL    HW122952   2.616   2.414   8.676  1.2418  0.4905 -2.2665
 3830SOL    HW222953   2.626   2.272   8.621 -1.1661 -0.9506  1.7826
 3831SOL     OW22954   0.078   3.553   5.845  0.3197 -0.0636  0.0893
 3831SOL    HW122955   0.132   3.623   5.808  2.1229 -2.2429 -1.3568
 3831SOL    HW222956   4.717   3.595   5.822 -0.6071 -1.2462  1.2980
 3832SOL     OW22957   1.190   1.915  13.553 -0.1312 -0.1974  0.0176
 3832SOL    HW122958   1.172   1.992  13.607 -1.5479  0.5365 -1.4904
 3832SOL    HW222959   1.152   1.947  13.471  1.4992 -1.4460 -1.2119
 3833SOL     OW22960   3.174   2.664   5.498  0.3779  0.3382  0.4566
 3833SOL    HW122961   3.165   2.572   5.526 -1.0641  0.2851 -0.1827
 3833SOL    HW222962   3.269   2.667   5.493  0.3146 -0.4670 -1.1300
 3834SOL     OW22963   0.056   2.694  13.762  0.4248  0.2501  1.1603
 3834SOL    HW122964   0.060   2.751  13.685 -0.3804  0.7005  1.4506
 3834SOL    HW222965   4.683   2.691  13.774  0.3777 -0.3557  0.6524
 3835SOL     OW22966   4.673   3.346   8.224 -0.0399  0.3082  0.0923
 3835SOL    HW122967   4.699   3.432   8.258 -0.4629  1.0080 -1.3515
 3835SOL    HW222968   0.009   3.338   8.148 -0.0278  0.4199  0.0896
 3836SOL     OW22969   2.796   2.185   1.122 -0.1493  0.3522  0.1246
 3836SOL    HW122970   2.837   2.255   1.072 -0.1559  1.1886  1.3011
 3836SOL    HW222971   2.762   2.126   1.054 -2.0045  1.9358 -0.3170
 3837SOL     OW22972   2.427   4.014   3.139  0.6161  0.2316  0.5800
 3837SOL    HW122973   2.494   3.951   3.113 -0.7768 -1.4224  0.9628
 3837SOL    HW222974   2.437   4.021   3.234 -1.4533 -1.4121  0.9318
 3838SOL     OW22975   4.089   3.293   7.577 -0.0564  0.3448 -0.0849
 3838SOL    HW122976   4.179   3.297   7.610 -0.6818  0.4864  1.6495
 3838SOL    HW222977   4.082   3.199   7.564  1.5449 -0.1612  2.6211
 3839SOL     OW22978   0.610   3.235  11.480 -0.4602 -0.2718  0.2571
 3839SOL    HW122979   0.660   3.226  11.398 -1.7895  1.0284 -0.7080
 3839SOL    HW222980   0.638   3.321  11.512 -0.1011 -0.2929  0.0062
 3840SOL     OW22981   0.859   1.123   9.122 -0.4079  0.0896  0.0646
 3840SOL    HW122982   0.928   1.189   9.115 -0.6194  0.1456 -1.5985
 3840SOL    HW222983   0.817   1.157   9.201 -0.6771 -1.2442  0.4955
 3841SOL     OW22984   0.888   1.689   4.562 -0.6464 -0.0878 -0.7635
 3841SOL    HW122985   0.865   1.632   4.489 -1.6383 -1.6844  0.8178
 3841SOL    HW222986   0.981   1.709   4.555 -0.8198  1.3621  1.2094
 3842SOL     OW22987   3.896   1.597  17.053  0.1853  0.0001 -0.4053
 3842SOL    HW122988   3.928   1.666  17.111 -3.2406  0.6205  0.7553
 3842SOL    HW222989   3.835   1.545  17.105  0.4714 -2.4089 -2.4805
 3843SOL     OW22990   4.673   3.928   4.034  0.1206  0.2038  0.4034
 3843SOL    HW122991   0.024   3.959   4.088 -0.0331 -0.1542  0.8189
 3843SOL    HW222992   4.638   4.009   3.996 -0.7676 -0.3056  0.1462
 3844SOL     OW22993   1.706   2.021  16.328 -0.2355  0.3601 -0.2299
 3844SOL    HW122994   1.701   2.026  16.424  1.3889 -0.8346 -0.0724
 3844SOL    HW222995   1.662   2.101  16.301 -0.2140  0.5628  0.3394
 3845SOL     OW22996   2.451   3.216   2.594  0.2839  0.2000  0.7006
 3845SOL    HW122997   2.373   3.162   2.590  1.1491 -0.8898 -1.5449
 3845SOL    HW222998   2.479   3.209   2.685  0.8379 -0.1253  0.5055
 3846SOL     OW22999   2.299   1.225   7.575 -0.5246 -0.4621 -0.1504
 3846SOL    HW123000   2.223   1.240   7.519 -1.2091 -0.1853  0.8366
 3846SOL    HW223001   2.340   1.157   7.523  0.0998  0.3483 -0.7178
 3847SOL     OW23002   0.661   0.704   8.235  0.3168 -0.0381  0.3195
 3847SOL    HW123003   0.657   0.618   8.193  0.8888  0.0216  0.1395
 3847SOL    HW223004   0.747   0.731   8.203 -0.1405  0.3772 -0.5713
 3848SOL     OW23005   1.660   0.411   2.619  0.8185  0.0352  0.5725
 3848SOL    HW123006   1.658   0.325   2.661 -0.9378  0.0434  0.5220
 3848SOL    HW223007   1.700   0.387   2.535 -0.8434 -0.5341 -0.0735
 3849SOL     OW23008   2.749   2.247  12.481 -0.4868 -0.6621 -0.2121
 3849SOL    HW123009   2.696   2.255  12.402 -1.0920 -2.2894  0.0496
 3849SOL    HW223010   2.681   2.203  12.532  0.9449 -1.0684  1.3295
 3850SOL     OW23011   4.255   0.783   2.593 -0.4958  0.6707 -0.5209
 3850SOL    HW123012   4.347   0.773   2.570 -0.8594  2.3479 -2.6971
 3850SOL    HW223013   4.217   0.740   2.516 -0.0295 -0.7538  0.0355
 3851SOL     OW23014   1.675   4.348  16.020  0.1504 -0.2255  0.1451
 3851SOL    HW123015   1.672   4.335  15.925  0.8919  0.5255  0.0254
 3851SOL    HW223016   1.622   4.426  16.036 -0.5660 -0.7872  0.5469
 3852SOL     OW23017   4.463   3.178   4.844  0.4495  0.0364 -0.5151
 3852SOL    HW123018   4.458   3.263   4.886  0.0885 -0.2181 -0.0475
 3852SOL    HW223019   4.483   3.188   4.751 -2.6772 -0.8134 -1.2932
 3853SOL     OW23020   0.796   3.420   8.263  0.1200  0.1086 -0.2389
 3853SOL    HW123021   0.870   3.446   8.208 -1.2896 -0.1127 -2.2204
 3853SOL    HW223022   0.790   3.501   8.314  1.2740  0.2994 -0.4056
 3854SOL     OW23023   2.901   2.360  15.921  0.6198 -0.3605 -0.5987
 3854SOL    HW123024   2.990   2.334  15.941  0.3532  1.1639  2.4590
 3854SOL    HW223025   2.881   2.299  15.849  0.2019 -0.7231 -0.1770
 3855SOL     OW23026   0.515   4.036   2.892 -0.3662 -0.1882 -0.6766
 3855SOL    HW123027   0.548   4.041   2.982 -2.9374  3.4969  0.0484
 3855SOL    HW223028   0.556   3.956   2.859  0.0513 -0.7580  1.2125
 3856SOL     OW23029   1.451   2.993   2.546  0.0895 -0.4866 -0.7035
 3856SOL    HW123030   1.498   3.014   2.465  1.8767  2.5208  1.1153
 3856SOL    HW223031   1.513   2.943   2.599 -1.1577  0.0205  1.2303
 3857SOL     OW23032   3.003   1.916   3.874 -0.1411  0.4551 -0.5067
 3857SOL    HW123033   3.068   1.955   3.933  0.7140 -1.1808 -0.3722
 3857SOL    HW223034   3.039   1.830   3.852 -0.2176  0.7859 -1.8913
 3858SOL     OW23035   1.402   4.153  11.159 -0.5257  0.3746 -0.2413
 3858SOL    HW123036   1.446   4.138  11.242  0.2176 -0.6509 -0.8235
 3858SOL    HW223037   1.346   4.076  11.148 -1.3962  1.1036 -0.9915
 3859SOL     OW23038   2.049   0.445   3.849  0.6325 -0.4187 -0.3223
 3859SOL    HW123039   2.062   0.377   3.783 -0.7266 -1.5483  0.5693
 3859SOL    HW223040   2.052   0.392   3.928 -0.2587  0.9274  0.6382
 3860SOL     OW23041   0.662   4.564   7.216  0.2381  0.2372 -0.4898
 3860SOL    HW123042   0.733   4.626   7.236  1.6232 -1.3511 -0.4946
 3860SOL    HW223043   0.718   4.488   7.203 -0.0894 -0.1282  0.2514
 3861SOL     OW23044   0.054   1.016   6.055  0.2155  0.2484 -0.2615
 3861SOL    HW123045   0.072   1.094   6.108 -0.7916 -0.7282  1.4870
 3861SOL    HW223046   4.692   1.000   6.097  2.2738 -0.6249  3.5111
 3862SOL     OW23047   3.850   4.659   8.681  0.0081  0.3354  0.0045
 3862SOL    HW123048   3.875   0.029   8.680 -0.0874  0.3662  0.6371
 3862SOL    HW223049   3.836   4.638   8.588 -4.5441  0.8546  0.5921
 3863SOL     OW23050   2.230   0.210   6.704 -0.0398 -0.1906 -0.2206
 3863SOL    HW123051   2.285   0.138   6.673  2.8344  2.2532 -0.7367
 3863SOL    HW223052   2.144   0.168   6.716 -1.2191  1.6759 -2.1320
 3864SOL     OW23053   3.074   3.185   2.947 -0.3665  0.0210 -0.1816
 3864SOL    HW123054   3.028   3.253   2.997  2.8961  1.3132  1.0623
 3864SOL    HW223055   3.166   3.206   2.962 -0.7914  0.5476  1.7519
 3865SOL     OW23056   3.001   1.743  16.472 -0.5738 -0.5880 -0.2043
 3865SOL    HW123057   3.041   1.780  16.551 -2.1134  1.1616 -0.2627
 3865SOL    HW223058   2.946   1.672  16.505  1.5021 -1.5521  1.2306
 3866SOL     OW23059   4.183   1.919   6.507 -0.0121 -0.2185 -0.8184
 3866SOL    HW123060   4.231   1.909   6.425  0.0323 -1.5896 -0.6260
 3866SOL    HW223061   4.121   1.988   6.486 -1.3202 -2.3604 -3.9728
 3867SOL     OW23062   1.592   2.141   5.913  0.4938 -0.0753 -0.5834
 3867SOL    HW123063   1.519   2.080   5.912 -0.2384  0.7591  1.6627
 3867SOL    HW223064   1.672   2.094   5.888 -0.2844 -2.5888  1.7377
 3868SOL     OW23065   0.558   2.945   7.728 -0.5559 -0.3544  0.4752
 3868SOL    HW123066   0.513   2.871   7.687  1.4680 -1.1647 -0.2709
 3868SOL    HW223067   0.583   2.898   7.807  0.9130 -1.1693 -0.4689
 3869SOL     OW23068   1.597   0.126   6.873 -0.0131 -0.0288 -0.0584
 3869SOL    HW123069   1.680   0.171   6.891  1.4936 -3.7916  2.3719
 3869SOL    HW223070   1.542   0.182   6.929 -1.3476 -0.8265 -0.5811
 3870SOL     OW23071   1.452   1.021   9.957  0.1213 -0.5009 -0.6029
 3870SOL    HW123072   1.486   1.076   9.886  3.1507  0.5104  1.6154
 3870SOL    HW223073   1.367   1.002   9.918  0.9070 -1.1567 -2.0025
 3871SOL     OW23074   1.613   4.299   5.007 -0.4780  0.1457  0.2742
 3871SOL    HW123075   1.671   4.311   4.932  1.6454 -0.8033  1.7939
 3871SOL    HW223076   1.556   4.375   4.997  1.5419  1.5773 -0.3448
 3872SOL     OW23077   1.163   2.648   9.245  0.7174 -0.1110 -0.3767
 3872SOL    HW123078   1.136   2.560   9.271 -0.4276 -0.1454 -1.6770
 3872SOL    HW223079   1.123   2.699   9.315 -1.3988  1.0990 -2.4457
 3873SOL     OW23080   3.484   4.675   5.749 -0.1670  0.1082 -0.1708
 3873SOL    HW123081   3.518   4.594   5.787  1.0274  1.0348  0.7209
 3873SOL    HW223082   3.523   0.023   5.800  2.5614 -1.1706 -0.4957
 3874SOL     OW23083   0.690   4.232   2.598  0.7957  0.0049 -0.1037
 3874SOL    HW123084   0.738   4.154   2.629  0.0654 -0.4958 -0.2313
 3874SOL    HW223085   0.739   4.309   2.625 -1.5505  0.4026  3.0923
 3875SOL     OW23086   0.473   0.732  12.907 -0.7866 -0.3104 -0.1705
 3875SOL    HW123087   0.497   0.824  12.908 -0.5280 -0.3655 -1.5211
 3875SOL    HW223088   0.466   0.716  12.813 -0.3791  0.9736 -0.4121
 3876SOL     OW23089   1.670   3.689  15.664 -0.0313  0.2144  0.2253
 3876SOL    HW123090   1.683   3.712  15.757  0.0011 -1.0745  0.5337
 3876SOL    HW223091   1.715   3.605  15.661  2.3385  1.5842 -2.1698
 3877SOL     OW23092   4.036   1.769   7.695 -0.0892 -0.2213  0.1342
 3877SOL    HW123093   4.062   1.759   7.604 -1.0149  1.5549 -0.3349
 3877SOL    HW223094   4.100   1.835   7.723 -1.4508  1.1671 -0.0385
 3878SOL     OW23095   4.648   0.637  14.721 -0.0621 -0.0147 -0.1881
 3878SOL    HW123096   4.698   0.689  14.785  0.0497 -2.2940  1.5700
 3878SOL    HW223097   4.562   0.678  14.727 -0.4169 -0.9073  0.7901
 3879SOL     OW23098   3.858   3.545   6.969  0.1863 -0.0426  0.4360
 3879SOL    HW123099   3.922   3.577   7.033  0.4335  0.9237 -0.2923
 3879SOL    HW223100   3.820   3.471   7.016 -1.9849 -0.0304 -1.2829
 3880SOL     OW23101   4.328   2.673   4.898  0.7677  0.0044  0.0046
 3880SOL    HW123102   4.309   2.764   4.921  0.1220  0.3042 -1.6853
 3880SOL    HW223103   4.415   2.659   4.935  0.6819  0.8632  0.5315
 3881SOL     OW23104   3.048   1.645   7.402 -0.1380  0.0788  0.6201
 3881SOL    HW123105   2.989   1.604   7.465  0.0903 -2.0719 -0.5517
 3881SOL    HW223106   3.070   1.571   7.345  0.3156  0.9210 -0.3010
 3882SOL     OW23107   2.889   3.227   8.326  0.1222 -0.4158  0.4706
 3882SOL    HW123108   2.807   3.267   8.356  0.9347 -0.6148  2.9288
 3882SOL    HW223109   2.861   3.173   8.252 -0.4926 -0.7798  0.9677
 3883SOL     OW23110   2.065   0.991   1.796  0.0775  0.1278  0.4361
 3883SOL    HW123111   2.031   0.924   1.736  0.0655  0.9147 -0.4269
 3883SOL    HW223112   2.071   0.941   1.878 -0.1232  1.2286  1.1306
 3884SOL     OW23113   3.475   2.095  15.729 -0.4193 -0.1920 -0.1936
 3884SOL    HW123114   3.512   2.018  15.685 -0.3813  0.4176 -1.2271
 3884SOL    HW223115   3.553   2.118  15.780  0.0296  0.8856 -1.3697
 3885SOL     OW23116   0.577   2.896   3.387 -0.2707 -0.5563  0.8996
 3885SOL    HW123117   0.587   2.991   3.384 -5.4113 -0.0096  1.0526
 3885SOL    HW223118   0.654   2.861   3.342  1.1557  2.1046  1.2884
 3886SOL     OW23119   4.682   2.096  11.119  0.6754  0.6511 -0.4538
 3886SOL    HW123120   4.676   2.049  11.202  1.5837  0.2044 -0.6468
 3886SOL    HW223121   4.629   2.040  11.064 -0.7442  2.4426 -0.9092
 3887SOL     OW23122   0.635   4.707   8.207 -0.1777  0.3882 -0.2864
 3887SOL    HW123123   0.578   0.052   8.169 -0.5191  0.3195  0.1028
 3887SOL    HW223124   0.713   4.709   8.152  0.5450 -1.0044  0.6824
 3888SOL     OW23125   2.847   0.080  16.989 -0.0595  0.0395 -0.0974
 3888SOL    HW123126   2.896   0.044  16.915  0.0549 -1.9396  0.9451
 3888SOL    HW223127   2.788   0.133  16.935 -2.6283  0.7260  3.3580
 3889SOL     OW23128   1.841   3.304  11.636  0.1145 -0.1230  0.2739
 3889SOL    HW123129   1.747   3.295  11.620  0.6721 -1.6774 -2.2578
 3889SOL    HW223130   1.854   3.321  11.543  2.1377  1.3380  0.8093
 3890SOL     OW23131   3.620   2.408   6.329 -0.0927 -0.1970  0.0239
 3890SOL    HW123132   3.692   2.469   6.314  1.1598 -1.4024  1.1310
 3890SOL    HW223133   3.642   2.385   6.419  0.6243  1.3133  0.2391
 3891SOL     OW23134   1.351   2.173   3.040 -0.0178 -0.0672  0.1145
 3891SOL    HW123135   1.425   2.142   3.092  0.3573 -2.2700 -1.7731
 3891SOL    HW223136   1.301   2.206   3.115 -1.0040  0.1703 -0.6490
 3892SOL     OW23137   1.976   4.453   7.623 -0.1858  0.1416  0.1952
 3892SOL    HW123138   1.984   4.447   7.718 -1.8759  0.8851  0.3783
 3892SOL    HW223139   1.990   4.547   7.613 -1.9827  0.4888  1.0646
 3893SOL     OW23140   1.619   0.680   8.345 -0.0203 -0.4412 -0.4397
 3893SOL    HW123141   1.591   0.756   8.395  1.3250 -1.2780  1.5759
 3893SOL    HW223142   1.712   0.685   8.369 -0.2587 -1.0733  0.6470
 3894SOL     OW23143   0.378   4.090   7.366  0.5175 -0.1412  0.2181
 3894SOL    HW123144   0.311   4.130   7.422  0.2402 -0.5260  0.1675
 3894SOL    HW223145   0.411   4.167   7.320 -0.6717 -0.0110 -0.4019
 3895SOL     OW23146   3.806   2.370   8.321 -0.4851 -0.3658  0.2019
 3895SOL    HW123147   3.778   2.388   8.231 -0.7952  0.0010  0.3732
 3895SOL    HW223148   3.732   2.325   8.361  0.6266 -1.6066  0.8674
 3896SOL     OW23149   2.410   4.359  15.141  0.3341 -0.5334 -0.3191
 3896SOL    HW123150   2.463   4.372  15.062  2.2763  2.0724  1.4290
 3896SOL    HW223151   2.358   4.287  15.104 -1.6064  1.2909 -1.1783
 3897SOL     OW23152   0.074   2.824   6.286 -0.4304  0.1765 -0.2320
 3897SOL    HW123153   0.089   2.845   6.194  1.5885  0.1269  0.0871
 3897SOL    HW223154   4.715   2.774   6.292 -0.2036 -0.4525 -2.5192
 3898SOL     OW23155   2.712   2.986  14.919 -0.1061 -0.2628  0.0896
 3898SOL    HW123156   2.714   2.920  14.850 -0.6399  0.5941 -0.7506
 3898SOL    HW223157   2.623   2.982  14.953  0.3358 -2.9094  0.9168
 3899SOL     OW23158   3.190   3.820  15.592  0.7653  0.4839 -0.2915
 3899SOL    HW123159   3.248   3.827  15.517  0.0063 -0.1300 -0.9438
 3899SOL    HW223160   3.238   3.869  15.658 -0.4955  1.8405 -0.3829
 3900SOL     OW23161   3.669   0.534   7.929  0.0020  0.2554  0.3121
 3900SOL    HW123162   3.737   0.555   7.866 -0.9287  0.5025 -0.6108
 3900SOL    HW223163   3.693   0.446   7.957 -1.1882  0.0060  0.5537
 3901SOL     OW23164   3.156   0.652   8.544  0.2989  0.3804  0.2515
 3901SOL    HW123165   3.130   0.638   8.635 -0.9990 -0.7287 -0.2883
 3901SOL    HW223166   3.127   0.741   8.524  0.6616 -0.0635 -2.2235
 3902SOL     OW23167   4.463   3.225  11.946  0.6055  0.1941 -0.3490
 3902SOL    HW123168   4.443   3.131  11.949  0.0327  0.2818 -1.2858
 3902SOL    HW223169   4.556   3.227  11.968  0.1043  2.0940  1.5963
 3903SOL     OW23170   2.162   3.988   1.065  0.0556  0.0063 -0.1548
 3903SOL    HW123171   2.235   4.002   1.006  0.0117 -1.4039 -0.5385
 3903SOL    HW223172   2.086   4.022   1.018 -0.1829  0.0010  0.2209
 3904SOL     OW23173   0.060   0.848   5.209  0.2131 -0.0820  0.3553
 3904SOL    HW123174   0.098   0.878   5.292  3.4162  1.1404 -1.5305
 3904SOL    HW223175   0.075   0.931   5.162 -1.7995 -0.2531 -0.5711
 3905SOL     OW23176   2.638   4.249   0.357 -0.1775 -0.0417 -0.0002
 3905SOL    HW123177   2.680   4.246   0.443 -1.5709 -1.6315  0.6343
 3905SOL    HW223178   2.555   4.205   0.377  0.9165 -1.5046  1.3706
 3906SOL     OW23179   3.259   4.197   0.712  0.4183  0.5113  0.1799
 3906SOL    HW123180   3.306   4.217   0.793  1.6647 -2.1779  0.1499
 3906SOL    HW223181   3.238   4.109   0.744  1.2413 -0.5136 -2.0234
 3907SOL     OW23182   2.929   2.909  15.110  0.5647 -0.5426  0.6362
 3907SOL    HW123183   2.969   2.996  15.112  1.7570 -1.1239  2.6953
 3907SOL    HW223184   2.872   2.915  15.034  2.2457 -1.1788 -0.6844
 3908SOL     OW23185   3.443   2.103  11.159  0.2184 -0.2244 -0.0735
 3908SOL    HW123186   3.489   2.045  11.098 -3.2627 -1.3588 -1.5960
 3908SOL    HW223187   3.357   2.076  11.127  0.4442 -0.9955 -0.0204
 3909SOL     OW23188   2.275   3.260   7.409 -0.0551  0.6201  0.8409
 3909SOL    HW123189   2.221   3.251   7.331 -0.6100  1.0015  1.1732
 3909SOL    HW223190   2.359   3.301   7.390  0.0045 -0.8786 -2.0210
 3910SOL     OW23191   1.058   2.013  16.712  0.6591  0.4612 -0.0273
 3910SOL    HW123192   1.088   2.082  16.771  0.7245  1.5603 -1.3327
 3910SOL    HW223193   0.976   1.979  16.746 -1.6448  3.5497 -2.4039
 3911SOL     OW23194   4.611   2.199   6.130 -0.3743 -0.1714 -0.0661
 3911SOL    HW123195   4.551   2.140   6.175 -1.6452  0.8083 -0.4719
 3911SOL    HW223196   4.566   2.191   6.046 -0.4276  0.4207 -0.0944
 3912SOL     OW23197   0.057   3.011   5.618 -0.1959 -0.1907  0.3493
 3912SOL    HW123198   0.094   3.095   5.591  0.1525  0.5764  3.2999
 3912SOL    HW223199   4.685   3.006   5.607 -0.6311  2.9913  3.1074
 3913SOL     OW23200   3.946   2.449  10.446 -0.6989 -0.0332 -0.7087
 3913SOL    HW123201   4.039   2.428  10.450 -0.6626 -0.0369 -1.8220
 3913SOL    HW223202   3.909   2.365  10.419 -3.5673  1.2358 -0.8002
 3914SOL     OW23203   1.007   3.181   3.064  0.0032  0.0649 -0.1106
 3914SOL    HW123204   1.102   3.169   3.054  0.0603  0.5324 -0.1362
 3914SOL    HW223205   0.976   3.097   3.030 -0.9309  1.1618 -1.9825
 3915SOL     OW23206   1.016   1.404  16.347 -0.6738 -0.1593 -0.1356
 3915SOL    HW123207   1.047   1.438  16.431  1.4331  0.2972 -1.0946
 3915SOL    HW223208   0.934   1.362  16.374 -1.7424  0.8964 -1.6889
 3916SOL     OW23209   3.739   2.594  10.351 -0.2731  0.2533 -0.1700
 3916SOL    HW123210   3.696   2.534  10.412  0.0457 -0.7430 -0.9402
 3916SOL    HW223211   3.823   2.549  10.360 -1.5071 -1.4784  2.7476
 3917SOL     OW23212   4.114   0.515   9.008  0.0383  0.6835 -1.1809
 3917SOL    HW123213   4.040   0.532   8.949 -0.7124 -0.4517 -0.5669
 3917SOL    HW223214   4.113   0.585   9.074  0.7000 -0.0920 -0.3629
 3918SOL     OW23215   4.184   4.236   4.678 -0.2591  0.3573 -0.6813
 3918SOL    HW123216   4.150   4.147   4.665  0.4713 -0.3369  2.0497
 3918SOL    HW223217   4.184   4.247   4.773  3.7652 -2.1957 -0.3751
 3919SOL     OW23218   1.549   4.056  11.395 -0.0939  0.2233 -0.0542
 3919SOL    HW123219   1.572   4.108  11.472 -4.2722  2.8519 -0.5704
 3919SOL    HW223220   1.636   4.029  11.365 -0.0467  0.2969  0.0188
 3920SOL     OW23221   2.181   0.727   3.865  0.4411  0.1050 -0.0418
 3920SOL    HW123222   2.163   0.633   3.876  0.8647 -0.2310 -2.2281
 3920SOL    HW223223   2.188   0.755   3.956  0.2803 -0.3240  0.1031
 3921SOL     OW23224   3.499   4.333  14.847  0.3068 -0.1046 -0.2068
 3921SOL    HW123225   3.581   4.383  14.857  0.0340  0.2331  0.3539
 3921SOL    HW223226   3.449   4.395  14.793  2.2743  1.7792  0.0952
 3922SOL     OW23227   1.473   2.342  17.392 -0.0331 -0.4857 -0.0491
 3922SOL    HW123228   1.383   2.360  17.421  0.6112  0.9304  1.0588
 3922SOL    HW223229   1.479   2.365  17.299  0.7812 -1.7789 -0.3104
 3923SOL     OW23230   4.160   2.724   5.423 -0.0864  0.1521 -0.0286
 3923SOL    HW123231   4.117   2.778   5.357 -0.2258  0.6300  0.4515
 3923SOL    HW223232   4.241   2.693   5.383 -0.3827  0.6796 -1.0301
 3924SOL     OW23233   0.692   3.618   8.734 -0.1851 -0.0334 -0.4988
 3924SOL    HW123234   0.760   3.657   8.788 -0.1822  1.5904 -1.6537
 3924SOL    HW223235   0.652   3.560   8.799  0.8117  1.3044  1.2942
 3925SOL     OW23236   2.886   1.660   1.460 -0.0054  0.1260  0.2338
 3925SOL    HW123237   2.803   1.703   1.441  1.1271  0.6643 -3.5820
 3925SOL    HW223238   2.919   1.706   1.537  1.7955  1.5863 -1.3793
 3926SOL     OW23239   4.297   3.785   5.262 -0.0649  0.2809  0.3041
 3926SOL    HW123240   4.213   3.748   5.289  1.0597 -0.8905  2.1808
 3926SOL    HW223241   4.273   3.870   5.225 -0.3915 -0.8969 -2.1122
 3927SOL     OW23242   2.521   1.718  16.157 -0.2708 -0.1358 -0.2240
 3927SOL    HW123243   2.612   1.698  16.178 -0.2356  1.4832  1.1646
 3927SOL    HW223244   2.492   1.790  16.213  0.2106 -0.2910  0.2211
 3928SOL     OW23245   4.050   2.893   1.635 -0.3129 -0.1620 -0.2739
 3928SOL    HW123246   4.099   2.939   1.704 -0.6534 -0.1166 -0.0596
 3928SOL    HW223247   3.981   2.855   1.689 -0.6787 -0.2015 -0.7708
 3929SOL     OW23248   0.516   2.199   6.045 -0.4621  1.1953  0.3620
 3929SOL    HW123249   0.544   2.175   6.133 -0.5056 -2.0245 -0.4998
 3929SOL    HW223250   0.422   2.183   6.049 -0.1663 -1.6442 -3.7783
 3930SOL     OW23251   2.136   2.643   8.510  0.9586 -0.2532  0.1995
 3930SOL    HW123252   2.221   2.601   8.496  1.6056  1.4750 -1.1077
 3930SOL    HW223253   2.081   2.587   8.456  0.7050  0.9102 -0.7455
 3931SOL     OW23254   1.243   3.020   5.276 -0.0948 -0.3188  0.3947
 3931SOL    HW123255   1.328   3.044   5.241 -0.5363  0.3953 -0.1640
 3931SOL    HW223256   1.189   3.076   5.220  0.8600 -1.5247 -1.7095
 3932SOL     OW23257   1.513   1.148  14.795  0.1447 -0.0466  0.1738
 3932SOL    HW123258   1.547   1.059  14.808 -0.6309 -0.2060  1.1601
 3932SOL    HW223259   1.440   1.154  14.856  1.6958  2.4850  1.8204
 3933SOL     OW23260   2.944   2.220  15.693  0.1661 -0.3648 -0.3550
 3933SOL    HW123261   2.870   2.270  15.656 -0.9998  0.0527  2.5432
 3933SOL    HW223262   3.009   2.218  15.623  0.5366  1.2394 -0.0637
 3934SOL     OW23263   1.808   1.866  14.732 -0.5530 -0.5368  0.1860
 3934SOL    HW123264   1.896   1.860  14.694 -0.1711 -2.2855  1.3380
 3934SOL    HW223265   1.754   1.828  14.662 -1.0581  1.2682 -0.3961
 3935SOL     OW23266   4.427   1.324   8.092 -0.9493  0.2803  0.3768
 3935SOL    HW123267   4.408   1.311   8.185  0.3718 -2.1214  0.3140
 3935SOL    HW223268   4.423   1.235   8.057  0.8213  0.0810  0.7111
 3936SOL     OW23269   2.953   2.859   2.396 -0.5022  0.4186 -0.1760
 3936SOL    HW123270   3.044   2.873   2.423 -0.9797 -0.5640  1.9691
 3936SOL    HW223271   2.919   2.795   2.458  2.4733  0.0920  1.1450
 3937SOL     OW23272   0.753   0.485   5.112 -0.0939 -0.1359  0.3406
 3937SOL    HW123273   0.822   0.435   5.156  0.1285 -0.2502 -0.1442
 3937SOL    HW223274   0.779   0.573   5.138 -0.7411 -0.0961  0.8538
 3938SOL     OW23275   0.008   2.840   2.684 -0.3713  0.1353  0.4168
 3938SOL    HW123276   0.073   2.906   2.707 -0.4896 -1.0511  4.0720
 3938SOL    HW223277   0.057   2.770   2.641 -3.7793  0.8329 -4.6967
 3939SOL     OW23278   0.553   1.443   7.274 -0.1674  0.1677  0.0256
 3939SOL    HW123279   0.461   1.430   7.253  0.0891 -1.0075 -0.3799
 3939SOL    HW223280   0.563   1.471   7.365 -1.6355  0.2925  0.1473
 3940SOL     OW23281   3.972   1.954   3.876 -0.3166 -0.1448  0.0734
 3940SOL    HW123282   3.945   1.880   3.930  1.6059 -1.1327 -0.3296
 3940SOL    HW223283   4.025   2.003   3.939  0.4916  0.3924 -1.0300
 3941SOL     OW23284   4.194   3.321   7.894  0.0842 -0.5577  0.0341
 3941SOL    HW123285   4.130   3.353   7.957  0.2097 -0.3443  0.0534
 3941SOL    HW223286   4.159   3.237   7.865  0.1690 -0.4384 -0.4211
 3942SOL     OW23287   1.903   2.398   3.870 -0.3077  1.1168  0.4156
 3942SOL    HW123288   1.852   2.336   3.921  0.4153  1.0058  1.0063
 3942SOL    HW223289   1.982   2.411   3.923  0.8600 -2.0999 -0.5294
 3943SOL     OW23290   1.842   2.375   3.601 -0.0196  0.0278  0.0186
 3943SOL    HW123291   1.899   2.434   3.551  2.3750 -1.5088  0.9142
 3943SOL    HW223292   1.853   2.391   3.695  2.2137  1.8095 -0.5350
 3944SOL     OW23293   1.174   1.310   6.677  0.4326 -0.0309 -0.2775
 3944SOL    HW123294   1.204   1.380   6.735  1.0755 -0.7879  0.2933
 3944SOL    HW223295   1.078   1.314   6.669  0.4628 -0.3247 -0.7597
 3945SOL     OW23296   3.598   4.629  14.140  0.2199  0.0012  0.0965
 3945SOL    HW123297   3.661   4.589  14.080 -0.0753 -0.3100 -0.0054
 3945SOL    HW223298   3.575   4.551  14.190  2.0803 -3.0441 -3.7943
 3946SOL     OW23299   3.586   0.255   2.401 -0.0931 -0.3286  0.3656
 3946SOL    HW123300   3.678   0.233   2.386 -0.1207 -0.4455  0.3690
 3946SOL    HW223301   3.549   0.218   2.321  0.5200  0.3497 -0.2220
 3947SOL     OW23302   2.022   4.157   5.984 -0.5158  0.3681  0.1389
 3947SOL    HW123303   1.939   4.187   5.946  2.1136  4.3248 -2.4573
 3947SOL    HW223304   2.071   4.239   5.986 -0.4806  0.3565 -0.2275
 3948SOL     OW23305   0.881   3.630  11.222  0.0311  0.1243 -0.0997
 3948SOL    HW123306   0.899   3.541  11.250 -1.7836 -0.0247  0.5791
 3948SOL    HW223307   0.828   3.664  11.294 -0.2341  1.3293 -0.8517
 3949SOL     OW23308   0.266   1.723   0.832 -0.1894  0.3769 -0.4406
 3949SOL    HW123309   0.295   1.770   0.910  0.7755 -1.6330  0.4130
 3949SOL    HW223310   0.328   1.754   0.767  0.4490  2.3633  1.1071
 3950SOL     OW23311   4.152   3.717   4.189  0.1241 -0.1422  0.5122
 3950SOL    HW123312   4.228   3.737   4.136 -0.5766 -2.2695 -1.3034
 3950SOL    HW223313   4.083   3.761   4.139 -0.6728 -2.2699 -0.3007
 3951SOL     OW23314   1.809   3.311   9.466 -0.4872 -0.2479 -0.4354
 3951SOL    HW123315   1.817   3.401   9.433 -3.1247  0.4764  0.8527
 3951SOL    HW223316   1.854   3.315   9.551 -1.4960 -2.0938  0.1857
 3952SOL     OW23317   0.393   4.518   5.100  0.1921  0.0510  1.3802
 3952SOL    HW123318   0.446   4.503   5.021 -2.9606  0.7767 -0.8797
 3952SOL    HW223319   0.348   4.596   5.068  0.3331 -0.5546 -0.3248
 3953SOL     OW23320   3.530   2.627   3.518 -0.9572 -0.0891 -0.0925
 3953SOL    HW123321   3.569   2.572   3.451  0.3680  0.4845  0.2014
 3953SOL    HW223322   3.610   2.650   3.565 -2.2301  0.2771  1.9532
 3954SOL     OW23323   2.066   1.199   7.430 -0.1718  0.5981 -0.6242
 3954SOL    HW123324   2.026   1.281   7.462 -1.2398  0.3217 -1.2492
 3954SOL    HW223325   2.089   1.221   7.340  0.5773  1.3348 -0.2575
 3955SOL     OW23326   0.861   0.318   3.163 -0.0749 -0.3982 -0.1083
 3955SOL    HW123327   0.952   0.339   3.143  0.1783  0.7923  2.3575
 3955SOL    HW223328   0.867   0.279   3.250 -0.8320  2.1053  1.0307
 3956SOL     OW23329   1.308   1.144  15.017  0.0778  0.0022 -0.0650
 3956SOL    HW123330   1.224   1.187  15.029 -0.7016 -1.6081  0.3471
 3956SOL    HW223331   1.274   1.056  15.037 -1.1850  0.2420 -1.1885
 3957SOL     OW23332   2.269   1.066  14.846 -0.7038  0.0200  0.2674
 3957SOL    HW123333   2.239   1.138  14.790  1.8357  0.1442 -0.9259
 3957SOL    HW223334   2.212   0.990  14.840 -0.4842 -0.1115 -0.1625
 3958SOL     OW23335   3.914   1.715  16.772  0.6167 -0.1672 -0.0750
 3958SOL    HW123336   3.892   1.710  16.679  0.4748  0.0204 -0.0504
 3958SOL    HW223337   3.885   1.806  16.780  1.5679  0.1586 -0.3384
 3959SOL     OW23338   2.914   3.407   6.161  0.0125 -0.7073  0.0737
 3959SOL    HW123339   2.866   3.325   6.173 -0.4954 -0.5334 -0.7902
 3959SOL    HW223340   2.839   3.462   6.137  0.5430  0.0990  0.2649
 3960SOL     OW23341   3.003   2.633   2.998 -0.3689  0.1817  0.5521
 3960SOL    HW123342   2.977   2.663   2.911  0.6029 -2.0319 -0.5119
 3960SOL    HW223343   3.094   2.661   2.989 -0.6200  0.5431 -0.8057
 3961SOL     OW23344   3.290   0.683  14.319  0.0325  0.0244 -0.1073
 3961SOL    HW123345   3.233   0.641  14.383 -1.3996  1.4531 -0.4233
 3961SOL    HW223346   3.331   0.747  14.377 -3.5031  0.7859  1.5538
 3962SOL     OW23347   1.090   1.144  15.496 -0.3316  0.1707  0.2327
 3962SOL    HW123348   1.080   1.117  15.405  0.0525  0.7398  0.0245
 3962SOL    HW223349   1.143   1.072  15.530 -0.1086  1.4946  2.6996
 3963SOL     OW23350   1.705   0.676   4.470 -0.0963 -0.1124 -0.4736
 3963SOL    HW123351   1.610   0.681   4.465 -0.0379  0.0810 -1.4007
 3963SOL    HW223352   1.722   0.594   4.516  1.5970  0.8159  0.5373
 3964SOL     OW23353   0.727   2.186   3.297 -0.3488  0.3893 -0.5160
 3964SOL    HW123354   0.798   2.145   3.247 -0.0057  0.4907 -0.1196
 3964SOL    HW223355   0.702   2.259   3.241  3.0746 -0.2194 -2.8174
 3965SOL     OW23356   1.510   2.292  13.700 -0.5604  0.5274  0.4794
 3965SOL    HW123357   1.534   2.289  13.793  1.9592  1.4781 -0.1509
 3965SOL    HW223358   1.553   2.212  13.669 -0.9484 -0.4733  2.5219
 3966SOL     OW23359   0.945   2.624   1.739  0.0270 -0.1826  0.4579
 3966SOL    HW123360   1.022   2.671   1.770 -0.3070  0.3863  0.4130
 3966SOL    HW223361   0.920   2.580   1.820  1.4959 -0.8136  0.5750
 3967SOL     OW23362   0.095   4.166  14.923 -0.4293  0.1262  0.0407
 3967SOL    HW123363   0.048   4.233  14.973 -0.1390 -0.7748  1.4968
 3967SOL    HW223364   0.056   4.200  14.842 -1.8840  1.2420  1.1985
 3968SOL     OW23365   2.287   1.119   9.173  0.0945  0.4589  0.1459
 3968SOL    HW123366   2.281   1.055   9.102  1.5944 -0.6860  1.0740
 3968SOL    HW223367   2.285   1.202   9.124 -1.6325 -0.2700 -1.0385
 3969SOL     OW23368   3.670   0.282   4.364 -0.1041 -0.4046  0.1694
 3969SOL    HW123369   3.687   0.189   4.350 -0.5619 -0.4343 -0.1836
 3969SOL    HW223370   3.591   0.288   4.312  1.2850  0.2395 -1.8822
 3970SOL     OW23371   1.735   3.906   7.008  0.2798  0.0447 -0.2430
 3970SOL    HW123372   1.777   3.877   6.927 -0.0019  1.0653 -0.7544
 3970SOL    HW223373   1.646   3.870   7.000  1.1720 -1.6432 -2.7755
 3971SOL     OW23374   3.321   4.081   6.649  0.3099 -0.0035  0.0541
 3971SOL    HW123375   3.391   4.106   6.590  1.8489 -3.0782  0.5658
 3971SOL    HW223376   3.366   4.105   6.729 -0.8010  2.9432 -0.2015
 3972SOL     OW23377   2.155   2.545  11.321  0.6365  0.3027  0.6630
 3972SOL    HW123378   2.233   2.505  11.281 -0.8025 -2.5995  0.7483
 3972SOL    HW223379   2.087   2.486  11.288  1.1645 -1.3975  2.6255
 3973SOL     OW23380   0.913   0.734   3.348 -0.3595 -0.0108 -0.0384
 3973SOL    HW123381   0.848   0.723   3.417  2.1946  2.4933  2.7203
 3973SOL    HW223382   0.877   0.801   3.291 -2.5832  0.9698  2.5547
 3974SOL     OW23383   3.668   3.935   4.071 -0.1431 -0.3984  0.2067
 3974SOL    HW123384   3.744   3.907   4.122 -0.4871  0.7577  1.3566
 3974SOL    HW223385   3.603   3.878   4.111 -2.5879  1.0066 -1.7193
 3975SOL     OW23386   1.599   4.490   2.945  0.0850  0.2325  0.6155
 3975SOL    HW123387   1.611   4.583   2.966 -2.8019  0.5701  0.7511
 3975SOL    HW223388   1.687   4.453   2.932  0.7385  1.7538  0.6721
 3976SOL     OW23389   1.800   1.358   7.841 -0.0850 -0.6050 -0.2223
 3976SOL    HW123390   1.893   1.373   7.860 -0.4763 -0.5712  1.6348
 3976SOL    HW223391   1.788   1.267   7.870 -1.1606 -0.0499  1.0285
 3977SOL     OW23392   2.559   3.286   4.978 -0.2064  0.4301  0.4619
 3977SOL    HW123393   2.464   3.283   4.982 -0.2229  0.0533 -0.2408
 3977SOL    HW223394   2.575   3.311   4.887  1.1673 -1.6196  0.1370
 3978SOL     OW23395   0.350   0.884  13.602 -0.1547 -0.4898 -0.1547
 3978SOL    HW123396   0.375   0.976  13.605  2.0027 -1.0400 -1.2612
 3978SOL    HW223397   0.360   0.865  13.508  1.2255 -2.0465  0.2899
 3979SOL     OW23398   3.964   2.863   3.650  0.0992 -0.3678 -0.1976
 3979SOL    HW123399   3.973   2.948   3.607  0.7242 -0.4944 -0.3254
 3979SOL    HW223400   4.041   2.819   3.613  0.2520 -0.2966  0.0327
 3980SOL     OW23401   1.488   1.829   4.643 -0.3958 -0.4796 -0.1100
 3980SOL    HW123402   1.457   1.799   4.558  0.4047 -1.8501  0.0962
 3980SOL    HW223403   1.406   1.872   4.668  1.0747  1.8255  0.7849
 3981SOL     OW23404   2.563   2.904   3.784  0.6218  0.3143 -0.0525
 3981SOL    HW123405   2.593   2.949   3.863 -4.0490  0.9437  1.3252
 3981SOL    HW223406   2.603   2.817   3.795 -1.1479 -0.6253 -1.1208
 3982SOL     OW23407   2.691   2.771   8.114 -0.3194 -0.0623  0.1475
 3982SOL    HW123408   2.623   2.735   8.172 -2.1216  3.1543  0.0672
 3982SOL    HW223409   2.760   2.707   8.131 -0.7907 -0.2988  1.1769
 3983SOL     OW23410   4.290   3.598   6.582 -0.2871 -0.2851 -0.1810
 3983SOL    HW123411   4.243   3.667   6.627  2.2822  1.8206 -0.7372
 3983SOL    HW223412   4.324   3.558   6.662 -0.3053  1.2630  0.6000
 3984SOL     OW23413   0.292   1.595   6.497  0.1005 -0.0646 -0.4952
 3984SOL    HW123414   0.318   1.623   6.585 -0.3090 -1.1729 -0.0158
 3984SOL    HW223415   0.290   1.681   6.457 -0.7244 -0.2542 -0.8486
 3985SOL     OW23416   4.092   4.277  14.697 -0.0789 -0.1742 -0.7104
 3985SOL    HW123417   4.186   4.287  14.680  0.1913 -1.9123 -0.2939
 3985SOL    HW223418   4.059   4.362  14.668 -0.3975 -0.3469 -0.8516
 3986SOL     OW23419   1.336   4.127   8.656  0.4846 -0.3811  0.6969
 3986SOL    HW123420   1.246   4.132   8.622  0.6130 -1.1130  0.2579
 3986SOL    HW223421   1.356   4.038   8.686  0.9656 -1.1044 -1.7699
 3987SOL     OW23422   2.002   1.679   5.166  0.6022  0.1069 -0.6617
 3987SOL    HW123423   1.936   1.714   5.107  1.5679  2.9126 -0.0740
 3987SOL    HW223424   1.953   1.653   5.244 -0.2064 -2.1090 -1.9153
 3988SOL     OW23425   3.045   2.087   5.057  0.1860 -0.4454  0.1102
 3988SOL    HW123426   3.007   2.059   4.974 -1.3276 -1.3938  1.1256
 3988SOL    HW223427   2.968   2.136   5.085 -1.7189 -3.6180  0.4024
 3989SOL     OW23428   2.556   1.674   3.290  0.0583 -0.3762 -0.2868
 3989SOL    HW123429   2.572   1.604   3.226  2.3304  0.7583 -0.9603
 3989SOL    HW223430   2.583   1.639   3.375  1.4032  0.0349 -0.5531
 3990SOL     OW23431   4.549   2.569   6.417 -0.1288  0.3529  0.3841
 3990SOL    HW123432   4.513   2.647   6.373 -3.1135  0.1401  2.4511
 3990SOL    HW223433   4.609   2.536   6.350 -2.5228 -0.6827 -1.2857
 3991SOL     OW23434   0.709   4.555   6.869 -0.1176  0.0069 -0.1812
 3991SOL    HW123435   0.767   4.498   6.919 -0.9554 -1.3586 -0.7610
 3991SOL    HW223436   0.647   4.585   6.935  0.9172 -0.1034  0.8413
 3992SOL     OW23437   0.574   3.523   2.820 -0.2818  0.1682  0.0613
 3992SOL    HW123438   0.529   3.465   2.760  0.2359 -0.8488  0.6586
 3992SOL    HW223439   0.502   3.570   2.862 -0.1960  1.3398 -1.0947
 3993SOL     OW23440   1.129   1.977   8.272  0.6992 -0.3391  0.0397
 3993SOL    HW123441   1.149   2.065   8.304  0.2642 -0.3280  0.2697
 3993SOL    HW223442   1.217   1.948   8.248  0.3675 -0.5600 -0.9081
 3994SOL     OW23443   1.270   3.332   3.265  0.2259 -0.3869 -0.7840
 3994SOL    HW123444   1.194   3.387   3.244 -0.5282 -1.4346 -0.7876
 3994SOL    HW223445   1.348   3.382   3.241  0.6042  0.1345  1.5286
 3995SOL     OW23446   4.613   1.997   6.835  0.0445  0.1007 -0.6182
 3995SOL    HW123447   4.569   2.056   6.774  0.4787  0.2848 -0.7521
 3995SOL    HW223448   4.660   1.943   6.772 -1.1543 -1.4151 -0.1993
 3996SOL     OW23449   1.674   3.365  12.117 -0.2268 -1.0105  0.4263
 3996SOL    HW123450   1.685   3.295  12.182  1.1457 -3.3302 -2.3072
 3996SOL    HW223451   1.640   3.315  12.043 -0.5229  2.9545 -2.0751
 3997SOL     OW23452   3.080   0.200   6.850  0.2248  0.2165  0.0036
 3997SOL    HW123453   3.098   0.231   6.939 -0.7879 -0.7615  0.5427
 3997SOL    HW223454   3.121   0.272   6.800  1.5352 -0.6543 -0.1869
 3998SOL     OW23455   3.268   4.703   2.112  0.7142  0.1753  0.1738
 3998SOL    HW123456   3.295   4.613   2.135 -0.2146 -0.0049  0.5465
 3998SOL    HW223457   3.289   4.705   2.019  0.0529 -1.4947 -0.0158
 3999SOL     OW23458   4.342   2.940   8.246  0.5599 -0.2676 -0.0472
 3999SOL    HW123459   4.412   2.995   8.211  0.4521 -0.7609 -1.0596
 3999SOL    HW223460   4.367   2.926   8.337  2.0388  0.3254 -0.3732
 4000SOL     OW23461   3.485   1.266   6.011  0.0977  0.0338  0.1073
 4000SOL    HW123462   3.404   1.216   6.020 -0.6198  0.9202 -1.4570
 4000SOL    HW223463   3.459   1.346   6.057  0.8169  1.1543 -1.4155
 4001SOL     OW23464   0.235   0.171   4.423  0.1380  0.1148  0.1919
 4001SOL    HW123465   0.268   0.181   4.513  2.2919  3.2224 -0.9427
 4001SOL    HW223466   0.143   0.150   4.439  0.5093  0.3893  2.7859
 4002SOL     OW23467   1.812   3.041   6.136  0.0808  0.3434  0.2711
 4002SOL    HW123468   1.858   3.059   6.218 -3.1649 -0.3026  2.2198
 4002SOL    HW223469   1.766   2.961   6.160  1.6126 -0.8022 -0.6245
 4003SOL     OW23470   2.708   1.812   6.579  0.2043  0.4810 -0.0654
 4003SOL    HW123471   2.617   1.838   6.564  0.5490  1.0326 -1.2592
 4003SOL    HW223472   2.741   1.813   6.489  1.2436 -1.3057  0.2975
 4004SOL     OW23473   3.653   4.071   3.009 -0.2610 -0.3658 -0.6588
 4004SOL    HW123474   3.724   4.124   2.972 -0.6521 -0.1980 -1.1707
 4004SOL    HW223475   3.702   4.038   3.084  1.3665  1.3401 -0.9453
 4005SOL     OW23476   4.276   2.255  16.650 -0.1157  0.6328 -0.0608
 4005SOL    HW123477   4.265   2.311  16.574  1.0028  3.1429  1.6122
 4005SOL    HW223478   4.270   2.317  16.723 -0.2968 -1.0507  1.3713
 4006SOL     OW23479   4.105   4.501   3.910  0.2343 -0.3600  0.3309
 4006SOL    HW123480   4.142   4.439   3.847 -0.8787  0.5814 -1.2467
 4006SOL    HW223481   4.107   4.584   3.862  1.4952 -0.3557  0.3841
 4007SOL     OW23482   2.121   0.934   4.279 -0.2534  0.3470  0.4653
 4007SOL    HW123483   2.028   0.956   4.269 -0.3343 -0.6151 -0.8616
 4007SOL    HW223484   2.145   0.945   4.371 -0.7080  1.5053  0.4514
 4008SOL     OW23485   3.549   2.930  16.805  0.6184  0.7790  0.3241
 4008SOL    HW123486   3.607   2.933  16.728  1.0982  1.7465  0.7236
 4008SOL    HW223487   3.494   2.853  16.795  2.5317 -0.3480 -1.5934
 4009SOL     OW23488   1.227   3.095   2.930  0.2361  0.2241  0.2181
 4009SOL    HW123489   1.303   3.062   2.978 -1.2861 -1.2988  1.5969
 4009SOL    HW223490   1.276   3.154   2.873  0.1372 -0.0192 -0.1206
 4010SOL     OW23491   3.979   3.185   9.312  0.7234 -0.0940  0.2004
 4010SOL    HW123492   3.959   3.092   9.319 -0.2278  0.1273  0.4724
 4010SOL    HW223493   4.047   3.182   9.245  0.4432  1.2998 -0.1534
 4011SOL     OW23494   2.040   3.774   5.827 -0.0792  0.2333 -0.5564
 4011SOL    HW123495   1.971   3.708   5.839 -0.3502  0.2300 -2.2010
 4011SOL    HW223496   2.099   3.726   5.769  1.0037  0.4147  0.3808
 4012SOL     OW23497   3.334   1.639   0.672 -0.1462 -0.0212 -0.3311
 4012SOL    HW123498   3.377   1.656   0.756 -0.8508  1.2924 -0.2371
 4012SOL    HW223499   3.248   1.668   0.702 -0.4306 -1.2823  0.0669
 4013SOL     OW23500   2.055   3.719   5.393  0.0217 -0.1982  0.4152
 4013SOL    HW123501   1.971   3.676   5.409  0.6016 -1.7119 -0.5467
 4013SOL    HW223502   2.105   3.707   5.474  0.1824 -3.8613 -0.1943
 4014SOL     OW23503   0.083   3.559  13.472  0.3567  0.2108  0.0220
 4014SOL    HW123504   0.131   3.515  13.402 -0.9052  1.9629 -1.9331
 4014SOL    HW223505   0.094   3.650  13.445  2.2066  0.0347  0.1816
 4015SOL     OW23506   3.173   4.362   0.526 -0.0354  0.2935  0.0393
 4015SOL    HW123507   3.200   4.293   0.587  2.9582  0.9902 -0.4960
 4015SOL    HW223508   3.091   4.328   0.489 -0.9866  1.9226  0.6773
 4016SOL     OW23509   2.217   3.760   0.512  0.2142 -0.3708 -0.5266
 4016SOL    HW123510   2.263   3.829   0.560  0.8389 -2.5129  1.9561
 4016SOL    HW223511   2.285   3.693   0.504 -1.1537 -1.8448  0.1080
 4017SOL     OW23512   4.649   0.781   3.449 -0.2931  0.3727 -0.0959
 4017SOL    HW123513   4.679   0.704   3.400 -1.4236 -0.6129  0.7503
 4017SOL    HW223514   4.560   0.784   3.413 -0.4297  3.4859  0.4850
 4018SOL     OW23515   1.574   0.283   8.525 -0.0977  0.1750  0.8836
 4018SOL    HW123516   1.511   0.338   8.479 -0.4786  0.2478  1.5059
 4018SOL    HW223517   1.514   0.217   8.559 -0.5536 -0.1533 -0.5545
 4019SOL     OW23518   3.428   0.403  12.865 -0.6202 -0.3421 -0.0239
 4019SOL    HW123519   3.429   0.379  12.958  2.2782 -0.6181 -0.1093
 4019SOL    HW223520   3.516   0.442  12.867 -1.0128  0.5160  0.3661
 4020SOL     OW23521   0.455   3.001   5.714  0.1723  0.2213 -0.1089
 4020SOL    HW123522   0.473   3.077   5.769 -1.1802  0.8595 -0.5549
 4020SOL    HW223523   0.521   2.948   5.759  0.3019 -0.5724 -1.2433
 4021SOL     OW23524   1.576   0.962   4.471 -0.4018 -0.4821 -0.2080
 4021SOL    HW123525   1.592   0.914   4.390 -2.2067  1.3908 -1.6671
 4021SOL    HW223526   1.481   0.957   4.475 -0.6051  2.9727 -0.4542
 4022SOL     OW23527   0.684   2.363   2.530  0.6892  0.4109  0.2513
 4022SOL    HW123528   0.770   2.334   2.500  1.5406  1.7750  1.3895
 4022SOL    HW223529   0.702   2.364   2.624 -1.8342  1.4403  0.7505
 4023SOL     OW23530   1.614   1.992   3.627  0.6179  0.0899 -0.5732
 4023SOL    HW123531   1.539   1.964   3.575 -0.0684 -1.4771  1.2603
 4023SOL    HW223532   1.652   2.072   3.589  2.3796 -0.3772  0.1756
 4024SOL     OW23533   3.070   0.776   0.174 -0.1650  0.3574 -0.2491
 4024SOL    HW123534   3.018   0.717   0.120  0.4024 -0.9088  0.5931
 4024SOL    HW223535   3.124   0.710   0.218 -0.8354 -1.0308 -1.5281
 4025SOL     OW23536   0.748   0.500   9.275  0.1911  0.6119  0.0947
 4025SOL    HW123537   0.677   0.437   9.261  0.2035  0.0354  2.6965
 4025SOL    HW223538   0.769   0.524   9.185  0.6151 -0.5221 -0.1107
 4026SOL     OW23539   1.173   0.822   4.729  0.2951 -0.6501 -0.1040
 4026SOL    HW123540   1.115   0.763   4.777 -1.3485  0.5565 -0.6387
 4026SOL    HW223541   1.226   0.762   4.677 -0.6217  0.0620 -1.8320
 4027SOL     OW23542   3.203   0.416   0.914 -0.0184 -0.4873  0.1890
 4027SOL    HW123543   3.242   0.350   0.857 -0.3448  0.4796 -1.1767
 4027SOL    HW223544   3.111   0.406   0.888  0.5268 -2.2142 -1.0805
 4028SOL     OW23545   2.335   1.260  10.510 -0.2764 -0.0522 -0.5069
 4028SOL    HW123546   2.348   1.353  10.493 -0.7725  0.4318  1.7502
 4028SOL    HW223547   2.412   1.242  10.564 -0.1476  1.4782 -0.1914
 4029SOL     OW23548   1.886   4.102  15.440  0.1731 -0.0434 -0.4386
 4029SOL    HW123549   1.856   4.191  15.457  0.8683 -0.6568  4.0397
 4029SOL    HW223550   1.837   4.044  15.498 -0.6797  0.5068 -0.6086
 4030SOL     OW23551   0.675   2.303   2.182  0.1571 -0.1483 -0.1894
 4030SOL    HW123552   0.624   2.242   2.235 -1.5682  2.0889  0.7053
 4030SOL    HW223553   0.663   2.388   2.223  0.1544 -0.3363  0.1962
 4031SOL     OW23554   1.385   0.641   4.397 -0.3120 -0.1456  0.1469
 4031SOL    HW123555   1.370   0.650   4.491  0.9902 -1.5076  0.5015
 4031SOL    HW223556   1.307   0.599   4.361  0.1940 -0.4973 -0.5414
 4032SOL     OW23557   0.090   4.483  16.515  0.0957  0.2477  0.2335
 4032SOL    HW123558   0.150   4.425  16.470 -1.1835 -0.3362 -0.7294
 4032SOL    HW223559   0.026   4.498  16.445 -0.9761 -0.8453  0.9863
 4033SOL     OW23560   4.674   0.391   3.018  0.0029 -0.0261  0.3954
 4033SOL    HW123561   0.044   0.381   2.995 -0.2244 -3.3848  1.0039
 4033SOL    HW223562   4.652   0.298   3.022 -1.5581  0.3336  0.3612
 4034SOL     OW23563   2.605   3.987   8.273 -0.5641 -0.2364 -0.4603
 4034SOL    HW123564   2.693   3.949   8.274 -0.1441  0.7799  1.6601
 4034SOL    HW223565   2.559   3.920   8.223 -0.2064 -0.2105 -0.8293
 4035SOL     OW23566   3.693   3.095   4.216 -0.1766 -0.1208  0.5170
 4035SOL    HW123567   3.787   3.088   4.230  0.5251  0.9302 -3.6434
 4035SOL    HW223568   3.684   3.168   4.276  0.7715 -1.3692  2.1939
 4036SOL     OW23569   2.816   1.097  13.748  0.7341  0.5893  0.8175
 4036SOL    HW123570   2.850   1.054  13.669  1.5641 -2.2568  2.7261
 4036SOL    HW223571   2.887   1.071  13.806  0.7636 -2.3017 -0.5063
 4037SOL     OW23572   3.606   2.836   3.817  0.6138  0.2492 -0.0585
 4037SOL    HW123573   3.690   2.857   3.858  0.2060 -1.4861  1.6596
 4037SOL    HW223574   3.634   2.804   3.731 -3.5568 -1.8309 -0.6760
 4038SOL     OW23575   4.683   2.181   2.655  0.0424 -0.2336 -0.0311
 4038SOL    HW123576   4.668   2.087   2.664  1.2740 -0.3487  0.8518
 4038SOL    HW223577   0.049   2.189   2.620  0.0119  1.4644  0.2850
 4039SOL     OW23578   3.421   0.246   7.897 -0.9298 -0.7859 -0.0421
 4039SOL    HW123579   3.420   0.150   7.901  2.2920 -0.7628  1.0428
 4039SOL    HW223580   3.333   0.283   7.889 -0.3193  0.7019  0.1513
 4040SOL     OW23581   3.845   1.118   3.967 -0.3596  0.2620 -0.5296
 4040SOL    HW123582   3.880   1.133   4.055  1.6370 -0.6674 -1.1567
 4040SOL    HW223583   3.849   1.026   3.940 -1.1518  0.0245  0.1935
 4041SOL     OW23584   1.706   0.063   2.423 -0.4928  0.1933  1.1507
 4041SOL    HW123585   1.685   0.142   2.374  0.1841  0.1648  0.8051
 4041SOL    HW223586   1.661   4.717   2.374 -0.1008  0.9906 -0.3001
 4042SOL     OW23587   2.149   3.158   3.649  0.3456  0.3710  0.1886
 4042SOL    HW123588   2.240   3.168   3.674  0.6592  0.0533 -0.7984
 4042SOL    HW223589   2.114   3.113   3.725  0.0456 -1.6872 -1.1546
 4043SOL     OW23590   0.860   3.098   1.469  0.0045 -0.5971  0.2413
 4043SOL    HW123591   0.903   3.051   1.398 -0.6327 -0.8213  0.0073
 4043SOL    HW223592   0.814   3.027   1.513 -1.0768  0.1645  0.3589
 4044SOL     OW23593   2.049   1.810   3.708  0.2761  0.1932 -0.0916
 4044SOL    HW123594   1.966   1.782   3.669  0.3775 -1.1008  0.6067
 4044SOL    HW223595   2.067   1.872   3.637  0.8383  1.4769  1.1733
 4045SOL     OW23596   2.908   1.305   2.621  0.1946  0.4904  0.4495
 4045SOL    HW123597   3.004   1.310   2.621  0.1655  0.7340 -2.2707
 4045SOL    HW223598   2.902   1.211   2.601 -1.0866  0.5354  0.6373
 4046SOL     OW23599   1.010   4.052   7.301 -0.3215 -0.4775 -0.0976
 4046SOL    HW123600   0.993   3.961   7.326  0.3461 -0.3901  0.7055
 4046SOL    HW223601   1.065   4.085   7.372 -1.1509 -0.5383  0.5706
 4047SOL     OW23602   1.068   0.288  17.552  0.4058 -0.0051 -0.3138
 4047SOL    HW123603   1.120   0.218  17.591  1.7988  1.4860  0.5348
 4047SOL    HW223604   1.049   0.344  17.627  1.5455  2.3145 -1.7447
 4048SOL     OW23605   2.398   2.417   8.421 -0.3629  0.4000  0.1396
 4048SOL    HW123606   2.356   2.332   8.409 -0.7895  0.6303  0.0097
 4048SOL    HW223607   2.462   2.400   8.491  1.8885  2.6627 -1.3551
 4049SOL     OW23608   4.452   2.790   7.794  0.3423 -0.3518 -0.0323
 4049SOL    HW123609   4.458   2.742   7.711  0.5484 -0.2731 -0.0646
 4049SOL    HW223610   4.514   2.738   7.847  2.1263  0.4879 -1.2977
 4050SOL     OW23611   3.487   2.548  16.494  0.3832  0.1062 -0.1912
 4050SOL    HW123612   3.460   2.490  16.565  2.8122 -0.0933  0.5596
 4050SOL    HW223613   3.435   2.625  16.519  0.9187  0.1041  0.9102
 4051SOL     OW23614   3.231   4.427   5.593  0.1123  0.1483  0.2393
 4051SOL    HW123615   3.303   4.382   5.547 -0.1409  0.0369 -0.0527
 4051SOL    HW223616   3.255   4.411   5.684 -2.4011  1.2894  1.1020
 4052SOL     OW23617   3.029   0.571   0.714 -0.1519  0.2860  0.0843
 4052SOL    HW123618   2.982   0.630   0.655 -0.1858  0.0077 -0.1658
 4052SOL    HW223619   3.013   0.613   0.799  0.0625 -1.6278  1.0838
 4053SOL     OW23620   2.275   3.138  17.655 -0.5973  0.4814 -0.1519
 4053SOL    HW123621   2.284   3.052   0.005 -1.0602  0.7761  0.5562
 4053SOL    HW223622   2.195   3.169   0.006 -0.6488  0.7096 -0.4191
 4054SOL     OW23623   4.315   1.145   7.327  0.0554 -0.0190  0.4356
 4054SOL    HW123624   4.313   1.193   7.409  1.5524  1.2552 -0.2663
 4054SOL    HW223625   4.367   1.070   7.354  1.4814  0.5183 -0.7668
 4055SOL     OW23626   3.238   0.568  12.683 -0.1554 -0.1523 -0.4255
 4055SOL    HW123627   3.328   0.585  12.656  0.3280 -1.8161  0.1455
 4055SOL    HW223628   3.211   0.659  12.694  1.6940  0.4064 -0.5579
 4056SOL     OW23629   4.436   4.484   7.489 -0.1094 -0.2319  0.3181
 4056SOL    HW123630   4.517   4.489   7.541  0.4826  2.3043 -0.8184
 4056SOL    HW223631   4.459   4.530   7.408  0.5594 -2.2405 -0.6139
 4057SOL     OW23632   2.236   2.196   8.407 -0.0356 -0.0611 -0.0364
 4057SOL    HW123633   2.204   2.246   8.332 -2.7902 -0.9091  0.5606
 4057SOL    HW223634   2.171   2.125   8.409 -1.0452  0.8450 -0.6445
 4058SOL     OW23635   2.069   3.243  13.075  0.1675 -0.9505  0.2570
 4058SOL    HW123636   2.036   3.287  13.154 -1.7135  1.4700 -1.8915
 4058SOL    HW223637   2.084   3.152  13.103  2.6266 -1.4866 -2.8383
 4059SOL     OW23638   0.118   3.888   8.357  0.3519  0.0002 -0.0042
 4059SOL    HW123639   0.159   3.873   8.272 -2.1009 -1.6699 -0.8819
 4059SOL    HW223640   0.194   3.899   8.413 -0.3359 -0.0476  0.9355
 4060SOL     OW23641   1.276   2.258   8.650  0.2020 -0.3440 -0.1227
 4060SOL    HW123642   1.278   2.166   8.624  1.2438 -0.8691  1.8167
 4060SOL    HW223643   1.350   2.290   8.599 -0.9923  0.6398 -1.2340
 4061SOL     OW23644   4.373   2.146  16.368 -0.2486 -0.2295 -0.1597
 4061SOL    HW123645   4.382   2.057  16.335 -1.8236  0.1333 -1.5723
 4061SOL    HW223646   4.352   2.142  16.461  0.6268 -3.0334 -0.1059
 4062SOL     OW23647   1.745   0.445   4.684  0.0762  0.3290  0.2668
 4062SOL    HW123648   1.790   0.360   4.683 -0.0911  0.2480 -1.4025
 4062SOL    HW223649   1.665   0.429   4.734  0.2004  0.8276  0.6176
 4063SOL     OW23650   1.502   3.407   9.135 -0.2293 -0.0160 -0.1704
 4063SOL    HW123651   1.477   3.375   9.048  0.6346 -2.8834  0.6566
 4063SOL    HW223652   1.583   3.450   9.110  0.9543 -1.1782  1.7094
 4064SOL     OW23653   1.448   2.920   0.817  0.4014  0.3631 -0.3395
 4064SOL    HW123654   1.393   2.930   0.739  0.7377 -1.8236 -0.8520
 4064SOL    HW223655   1.379   2.909   0.883 -0.2902 -0.0659 -1.1179
 4065SOL     OW23656   0.305   0.522   6.175 -0.1577  0.1706  0.3363
 4065SOL    HW123657   0.227   0.560   6.136  0.1360 -1.2219 -1.6214
 4065SOL    HW223658   0.326   0.583   6.246  0.2974 -1.1902  1.3933
 4066SOL     OW23659   0.415   3.361  14.074 -0.1535 -0.2614 -0.3808
 4066SOL    HW123660   0.388   3.308  14.149 -1.2254 -1.2043 -1.4451
 4066SOL    HW223661   0.333   3.366  14.026 -0.2787 -0.5044 -0.1908
 4067SOL     OW23662   1.879   4.560   5.493  0.1868  0.7210 -0.0549
 4067SOL    HW123663   1.914   4.477   5.461  0.4714  0.3382  1.2353
 4067SOL    HW223664   1.959   4.601   5.527 -0.4900  1.5094  0.5645
 4068SOL     OW23665   1.442   1.029   8.003 -0.1807  0.2339  0.1992
 4068SOL    HW123666   1.377   0.958   8.000 -1.6043  1.5100  0.6823
 4068SOL    HW223667   1.386   1.107   8.009  2.8836  2.3594  0.6459
 4069SOL     OW23668   0.626   1.443  12.335 -0.6274 -0.0956  0.3906
 4069SOL    HW123669   0.704   1.475  12.380  0.7101 -1.6105 -0.8784
 4069SOL    HW223670   0.572   1.521  12.351 -0.7718  0.0170 -0.6345
 4070SOL     OW23671   4.315   0.121   1.086  0.1376  0.6829 -0.0476
 4070SOL    HW123672   4.314   0.031   1.117  1.9477  2.5060  5.3168
 4070SOL    HW223673   4.274   0.164   1.161 -2.0427 -0.2944 -0.6982
 4071SOL     OW23674   0.186   2.541   8.797  0.6148  0.2720  0.4606
 4071SOL    HW123675   0.211   2.571   8.885  1.7445  0.0214  0.2173
 4071SOL    HW223676   0.161   2.452   8.822 -1.4451  0.7032 -0.0370
 4072SOL     OW23677   1.688   3.418   0.596  0.3635 -0.6296 -0.2540
 4072SOL    HW123678   1.737   3.453   0.671 -1.4747 -0.8853  1.0585
 4072SOL    HW223679   1.669   3.502   0.555  2.1915 -0.1603 -0.1468
 4073SOL     OW23680   0.993   3.743   2.952 -0.0336  0.2491  0.2728
 4073SOL    HW123681   1.005   3.702   2.866 -1.9161  0.0251  0.1125
 4073SOL    HW223682   1.081   3.781   2.954  0.8484 -1.8559  1.3793
 4074SOL     OW23683   2.665   3.056   4.061  0.0014  0.0998  0.6220
 4074SOL    HW123684   2.669   3.044   4.156 -2.2090  1.6393  0.9058
 4074SOL    HW223685   2.622   3.141   4.065  0.6661  0.3866  1.6696
 4075SOL     OW23686   3.137   3.485   3.394 -0.3682 -0.1494  0.4696
 4075SOL    HW123687   3.228   3.515   3.392 -0.8360  1.1302 -1.7850
 4075SOL    HW223688   3.138   3.399   3.435  0.8667 -0.0040  0.7476
 4076SOL     OW23689   1.566   1.571   6.641  0.7808 -0.1600 -0.1093
 4076SOL    HW123690   1.587   1.608   6.555  0.0874  0.9165  0.1813
 4076SOL    HW223691   1.647   1.527   6.668  1.2128  0.5782 -0.1816
 4077SOL     OW23692   0.427   0.852   8.160  0.0055 -0.5416 -0.5844
 4077SOL    HW123693   0.510   0.897   8.150  0.0439 -0.7055 -1.0140
 4077SOL    HW223694   0.430   0.812   8.247  1.0799  1.2159  0.1724
 4078SOL     OW23695   1.294   3.092   9.775  0.3388 -0.8154 -0.4986
 4078SOL    HW123696   1.277   3.153   9.847  0.4033 -1.0497 -0.2854
 4078SOL    HW223697   1.298   3.003   9.809  0.3015 -1.0970 -1.2151
 4079SOL     OW23698   3.657   4.287  13.701 -0.1289 -0.2608 -0.0221
 4079SOL    HW123699   3.593   4.337  13.651 -0.0096  0.7007  0.7973
 4079SOL    HW223700   3.593   4.249  13.761 -2.0171  0.6556 -1.4721
 4080SOL     OW23701   1.508   2.308   9.738 -0.3778  0.0402 -0.5945
 4080SOL    HW123702   1.494   2.349   9.823  0.9682 -2.5845  0.8951
 4080SOL    HW223703   1.571   2.370   9.701 -0.2186  0.0502 -0.3109
 4081SOL     OW23704   4.546   2.917   5.926  0.5083  0.3245 -0.2398
 4081SOL    HW123705   4.546   3.010   5.950 -0.7791  0.2300  0.1191
 4081SOL    HW223706   4.452   2.904   5.911  0.2077  1.5029  0.5858
 4082SOL     OW23707   1.475   1.864   2.017 -0.3852 -0.6035  0.2076
 4082SOL    HW123708   1.431   1.813   2.085  0.8572  0.1973  1.6176
 4082SOL    HW223709   1.414   1.864   1.944 -0.5601 -0.9504  0.3535
 4083SOL     OW23710   4.537   3.101   8.140  0.0405  0.2635  0.1727
 4083SOL    HW123711   4.585   3.065   8.065 -0.4364 -1.5273  0.7175
 4083SOL    HW223712   4.580   3.187   8.139  0.3055  0.1409  1.4347
 4084SOL     OW23713   0.444   2.115  14.005 -0.4883  0.0514  0.3160
 4084SOL    HW123714   0.365   2.156  14.040  0.5979 -0.3870  3.2871
 4084SOL    HW223715   0.421   2.113  13.912 -0.0960 -0.1616  0.2231
 4085SOL     OW23716   0.346   4.550  11.977  0.0654  0.3339 -0.2738
 4085SOL    HW123717   0.420   4.588  12.023  0.6530  0.1103 -1.0369
 4085SOL    HW223718   0.294   4.631  11.983 -2.0551 -1.0187 -0.2798
 4086SOL     OW23719   4.336   0.960   0.875  0.1425  0.5501  0.1258
 4086SOL    HW123720   4.318   0.998   0.789 -1.1153 -0.2871  0.0281
 4086SOL    HW223721   4.400   1.022   0.911  0.3755 -0.7847  1.9844
 4087SOL     OW23722   0.140   2.384  12.379  0.2846  0.6173 -0.1935
 4087SOL    HW123723   0.095   2.385  12.464  2.0574  0.6288  0.7470
 4087SOL    HW223724   0.131   2.292  12.353  0.0417  0.9493 -1.3006
 4088SOL     OW23725   3.656   2.406   2.398  0.9862 -0.0344 -0.2954
 4088SOL    HW123726   3.737   2.374   2.360  1.4530  0.0640  0.6029
 4088SOL    HW223727   3.684   2.475   2.458 -0.6450  1.5944 -1.3924
 4089SOL     OW23728   0.353   1.212   8.616  0.1222  0.2826  0.0089
 4089SOL    HW123729   0.263   1.237   8.637  0.5626  2.1312 -0.2708
 4089SOL    HW223730   0.376   1.171   8.699 -0.3869  0.1833  0.1028
 4090SOL     OW23731   2.167   3.279   8.338 -0.2405  0.7555 -0.5141
 4090SOL    HW123732   2.165   3.184   8.350 -0.3735  0.8759  0.4589
 4090SOL    HW223733   2.257   3.307   8.355 -0.3362 -0.3805  1.9567
 4091SOL     OW23734   3.042   0.887  13.556 -0.1635  0.8415  0.4727
 4091SOL    HW123735   3.082   0.849  13.634 -0.3494 -0.0943  0.1059
 4091SOL    HW223736   2.955   0.847  13.554  0.6345 -0.8668 -0.1686
 4092SOL     OW23737   3.543   4.717   6.366 -0.2455  0.1880  0.0845
 4092SOL    HW123738   3.501   0.057   6.426  0.8488  0.2918  0.7493
 4092SOL    HW223739   3.514   0.009   6.276  0.3117 -2.7901 -0.5570
 4093SOL     OW23740   3.920   4.166   3.641  0.0673  0.1370  0.3313
 4093SOL    HW123741   3.850   4.216   3.599  0.2718 -0.9266 -1.2900
 4093SOL    HW223742   3.925   4.090   3.582  1.5707  0.9772 -0.6396
 4094SOL     OW23743   1.213   1.332  11.891  0.2568 -0.6476 -0.0741
 4094SOL    HW123744   1.125   1.366  11.875 -0.0872 -0.9895  1.1226
 4094SOL    HW223745   1.251   1.414  11.924 -2.5648  1.0840 -1.1250
 4095SOL     OW23746   0.391   0.093  16.609 -0.3257 -0.4626  0.0440
 4095SOL    HW123747   0.446   0.144  16.669  0.2520  0.1692 -1.0172
 4095SOL    HW223748   0.357   0.164  16.554 -1.5079 -1.8819 -1.0444
 4096SOL     OW23749   2.229   3.442  13.900 -0.0900  0.1045  0.3246
 4096SOL    HW123750   2.236   3.490  13.983  0.8469  0.7339 -0.1189
 4096SOL    HW223751   2.298   3.483  13.849  1.1788 -1.0923  1.0798
 4097SOL     OW23752   4.271   4.327   8.984  0.0311 -0.6068 -0.5792
 4097SOL    HW123753   4.312   4.258   8.932  0.5903 -0.1997 -0.6695
 4097SOL    HW223754   4.345   4.351   9.040 -0.7704 -1.0147  0.6734
 4098SOL     OW23755   0.226   1.625   3.231 -0.2106  0.1381  0.1190
 4098SOL    HW123756   0.312   1.626   3.272 -0.3444  1.3923  0.3848
 4098SOL    HW223757   0.248   1.680   3.156  0.1982 -2.6344 -1.7870
 4099SOL     OW23758   3.305   0.477  13.881  0.2524  0.5731 -0.2237
 4099SOL    HW123759   3.210   0.476  13.868  0.4423 -4.9661 -0.9672
 4099SOL    HW223760   3.336   0.494  13.792 -0.6399 -1.2679 -0.8721
 4100SOL     OW23761   2.630   3.721  15.480 -0.2142 -1.2666  0.1000
 4100SOL    HW123762   2.563   3.710  15.413  0.0460 -2.6790  0.0628
 4100SOL    HW223763   2.609   3.809  15.510  2.5245 -0.8538  0.7870
 4101SOL     OW23764   1.271   1.871   1.858 -0.2308  0.1254 -0.1474
 4101SOL    HW123765   1.215   1.948   1.844 -1.1568 -0.2263  1.6138
 4101SOL    HW223766   1.289   1.832   1.772  0.4015  0.0075  0.0397
 4102SOL     OW23767   0.134   4.425   2.055  0.9166 -0.1580  0.5013
 4102SOL    HW123768   0.130   4.510   2.010 -1.4020  0.3052  1.5469
 4102SOL    HW223769   0.139   4.363   1.983  1.9827  2.9933 -2.1497
 4103SOL     OW23770   0.997   0.013  12.758 -0.5461 -0.0595 -0.3146
 4103SOL    HW123771   1.086   0.047  12.751 -0.6120  0.2791  0.4705
 4103SOL    HW223772   1.007   4.658  12.702 -1.2140 -0.0692 -0.4160
 4104SOL     OW23773   4.011   1.340  16.471  0.0248 -0.3663 -0.1712
 4104SOL    HW123774   4.047   1.357  16.558 -1.5786  0.7040  0.2922
 4104SOL    HW223775   3.965   1.259  16.492 -1.2348  0.2266 -0.6218
 4105SOL     OW23776   1.608   2.117   8.988 -0.5479 -0.0943 -0.1128
 4105SOL    HW123777   1.589   2.207   9.014  2.7227  1.1723 -2.0327
 4105SOL    HW223778   1.546   2.101   8.917 -0.2401 -0.4462 -0.3080
 4106SOL     OW23779   0.424   0.164  14.025 -0.0472 -0.4305  0.3499
 4106SOL    HW123780   0.392   0.199  14.109  0.0292 -1.2656  0.7269
 4106SOL    HW223781   0.516   0.186  14.037 -0.6154  0.8768  2.4601
 4107SOL     OW23782   2.789   0.187  13.279  0.4785 -0.4112 -0.7943
 4107SOL    HW123783   2.758   0.169  13.191  1.3628  0.8237 -1.3627
 4107SOL    HW223784   2.768   0.103  13.320 -0.5084  1.3648  2.3354
 4108SOL     OW23785   1.653   1.278   8.913  0.2819 -0.2440 -0.9422
 4108SOL    HW123786   1.729   1.280   8.970  0.5283  0.9026 -1.2969
 4108SOL    HW223787   1.594   1.345   8.947 -0.9283 -0.6040 -2.3094
 4109SOL     OW23788   2.120   1.142  11.114 -0.8681 -0.3079 -0.1085
 4109SOL    HW123789   2.069   1.066  11.142 -2.9462  0.9036 -0.6645
 4109SOL    HW223790   2.113   1.204  11.187  0.5817 -0.5838  0.2820
 4110SOL     OW23791   3.170   0.771   7.734 -0.2805  0.0229  0.0474
 4110SOL    HW123792   3.180   0.847   7.791 -0.0103  1.5063 -1.9832
 4110SOL    HW223793   3.110   0.806   7.667 -0.6909 -0.8631 -0.0578
 4111SOL     OW23794   3.675   3.722  16.992 -0.1250 -0.2421 -0.1249
 4111SOL    HW123795   3.714   3.809  17.002 -0.0827 -0.1282 -1.3512
 4111SOL    HW223796   3.595   3.727  16.940  0.1457 -0.2625 -0.5416
 4112SOL     OW23797   1.819   1.467   6.684 -0.2709  0.1233  0.5495
 4112SOL    HW123798   1.861   1.384   6.706 -0.6703 -0.6175 -1.5484
 4112SOL    HW223799   1.883   1.529   6.720 -0.8177  0.3602  1.1283
 4113SOL     OW23800   0.499   3.613   8.097  0.2177  0.5746  0.2440
 4113SOL    HW123801   0.483   3.597   8.190  1.2558  1.5800  0.6048
 4113SOL    HW223802   0.557   3.548   8.058  1.4264  0.6453  1.9003
 4114SOL     OW23803   3.979   4.327   2.855 -0.3330 -0.1334  0.1485
 4114SOL    HW123804   3.965   4.246   2.807 -1.7088  1.7723 -2.6544
 4114SOL    HW223805   4.071   4.323   2.879 -0.3498 -3.1411 -0.3435
 4115SOL     OW23806   3.187   1.884   0.731 -0.2662  0.6545 -0.2113
 4115SOL    HW123807   3.175   1.959   0.789  1.6513  0.9725 -0.2384
 4115SOL    HW223808   3.274   1.899   0.694 -1.7854  0.5024 -3.8067
 4116SOL     OW23809   1.353   1.418   9.411  0.4778 -0.3556 -0.0302
 4116SOL    HW123810   1.321   1.472   9.339  2.9458  0.0105 -0.8247
 4116SOL    HW223811   1.448   1.422   9.398  0.1195  0.0382 -2.5734
 4117SOL     OW23812   1.619   1.430  11.905  0.0519  0.3411 -0.2170
 4117SOL    HW123813   1.529   1.445  11.878 -0.4832 -2.6318 -0.0031
 4117SOL    HW223814   1.619   1.336  11.922 -0.2163  0.5916  1.1415
 4118SOL     OW23815   1.998   3.896  16.328 -0.4238 -0.5047 -1.1680
 4118SOL    HW123816   1.999   3.981  16.285  2.4278  0.8383  1.5845
 4118SOL    HW223817   1.952   3.841  16.264 -1.6265 -2.8489  1.7319
 4119SOL     OW23818   4.350   2.306   4.057  0.2547 -0.2316 -0.1054
 4119SOL    HW123819   4.388   2.357   3.986 -1.6588 -0.7394 -1.5263
 4119SOL    HW223820   4.414   2.322   4.126 -0.4491 -0.0374  0.5062
 4120SOL     OW23821   1.522   1.348   1.101 -0.2813  0.0821  0.0954
 4120SOL    HW123822   1.437   1.363   1.142  1.2465  2.7212  2.3292
 4120SOL    HW223823   1.556   1.268   1.141  0.2199 -0.7700 -2.0722
 4121SOL     OW23824   4.090   3.566  13.399 -0.2275 -0.9566 -0.3687
 4121SOL    HW123825   4.053   3.651  13.376 -0.1773 -0.4805  1.3187
 4121SOL    HW223826   4.015   3.523  13.440  0.0732 -1.0730  0.0664
 4122SOL     OW23827   1.358   3.398   6.682 -0.2999 -0.1394  0.0840
 4122SOL    HW123828   1.420   3.432   6.746 -0.8950 -0.3974  0.7960
 4122SOL    HW223829   1.352   3.469   6.619 -2.3971  1.3367  1.9311
 4123SOL     OW23830   0.090   2.141   3.006  0.0331  0.0681 -0.8024
 4123SOL    HW123831   0.115   2.049   3.011 -2.5945 -0.5189  2.0321
 4123SOL    HW223832   0.152   2.170   2.939  0.1579  0.7062 -0.4166
 4124SOL     OW23833   1.001   1.236   3.856 -0.2976  0.5934  0.4054
 4124SOL    HW123834   0.932   1.198   3.802 -2.9134  1.8560  2.8372
 4124SOL    HW223835   0.966   1.325   3.867 -1.1046  0.2659  0.4227
 4125SOL     OW23836   3.386   2.142  16.579 -0.5094  0.0508 -0.1261
 4125SOL    HW123837   3.413   2.234  16.570  0.7568 -0.1195  1.9915
 4125SOL    HW223838   3.446   2.093  16.523  0.6642  1.8387 -0.4259
 4126SOL     OW23839   0.411   1.781   2.431 -0.0750  0.4811  0.3630
 4126SOL    HW123840   0.332   1.829   2.455  0.2726  0.8396  0.7727
 4126SOL    HW223841   0.371   1.733   2.358  3.0346 -0.4031 -0.7642
 4127SOL     OW23842   0.367   1.797   6.757  0.1090 -0.6663 -0.0719
 4127SOL    HW123843   0.291   1.832   6.803  0.9109 -0.5203  1.1411
 4127SOL    HW223844   0.420   1.877   6.748 -1.2187  0.3454  1.0683
 4128SOL     OW23845   3.908   3.420   9.456  0.0038 -0.0321 -0.0012
 4128SOL    HW123846   3.991   3.459   9.483  0.6025 -1.6647  0.5337
 4128SOL    HW223847   3.933   3.328   9.441 -0.0830 -0.2959  1.4239
 4129SOL     OW23848   3.937   3.920  17.029 -0.4620  0.0287  0.4035
 4129SOL    HW123849   3.920   3.954  16.941 -0.2126 -0.4161  0.1810
 4129SOL    HW223850   3.976   3.837  16.999  0.2278  0.9803 -1.3411
 4130SOL     OW23851   1.442   2.936   6.644  0.2891  0.2530 -0.1711
 4130SOL    HW123852   1.351   2.913   6.662  0.6474 -0.0699  1.1678
 4130SOL    HW223853   1.437   2.994   6.567  3.3858  1.8136  0.8359
 4131SOL     OW23854   2.047   3.690   0.262  0.5139  0.1223 -0.0950
 4131SOL    HW123855   2.091   3.725   0.340  0.1782 -0.7493  0.4795
 4131SOL    HW223856   2.066   3.596   0.267  0.4621  0.2359  2.1440
 4132SOL     OW23857   2.034   4.132   4.913  0.3042  0.5315  0.1461
 4132SOL    HW123858   1.994   4.051   4.947 -3.7958  2.3149 -0.3676
 4132SOL    HW223859   2.126   4.109   4.902 -0.3861 -0.9224 -2.6196
 4133SOL     OW23860   4.593   4.200  12.922 -0.0411  0.1062  0.3474
 4133SOL    HW123861   4.597   4.218  13.016  0.2560 -0.5907  0.4656
 4133SOL    HW223862   4.564   4.285  12.890 -0.2444  0.8423  2.4870
 4134SOL     OW23863   0.910   0.262   2.906 -0.1633 -0.3743  0.0497
 4134SOL    HW123864   0.861   0.285   2.985 -1.0363  1.4708 -1.0366
 4134SOL    HW223865   0.839   0.253   2.843  2.3867 -2.9344 -2.4290
 4135SOL     OW23866   1.965   1.184   8.200  0.5361  0.5141  0.5806
 4135SOL    HW123867   1.963   1.166   8.106 -0.4327 -0.3075  0.7554
 4135SOL    HW223868   1.892   1.126   8.224  1.3858 -2.2534 -3.6505
 4136SOL     OW23869   0.805   2.370   7.470  0.8382 -0.5054  0.2326
 4136SOL    HW123870   0.723   2.322   7.471 -0.3612  1.5294 -0.7706
 4136SOL    HW223871   0.784   2.460   7.494  2.1452  0.1521 -1.0701
 4137SOL     OW23872   4.006   1.514  15.410 -0.2572  0.1499 -0.6870
 4137SOL    HW123873   3.989   1.501  15.503 -2.6896  0.4497 -1.0862
 4137SOL    HW223874   3.926   1.486  15.367  1.2323  1.1138 -4.0681
 4138SOL     OW23875   2.066   0.328   8.016  0.0887  0.0102 -0.0607
 4138SOL    HW123876   2.062   0.409   8.066 -0.2595 -0.2657  0.3553
 4138SOL    HW223877   2.004   0.280   8.070 -0.1071  1.1082  0.6942
 4139SOL     OW23878   0.383   0.381  10.121 -0.0655  0.0674 -0.2311
 4139SOL    HW123879   0.374   0.441  10.047  4.3564 -0.9066 -1.6014
 4139SOL    HW223880   0.451   0.435  10.161  0.0648  0.6767 -1.2662
 4140SOL     OW23881   3.833   1.729  16.499  0.1310  0.2223  0.1591
 4140SOL    HW123882   3.791   1.767  16.422 -0.3372  0.7251  0.6617
 4140SOL    HW223883   3.918   1.698  16.467  0.4792 -0.0478  1.3342
 4141SOL     OW23884   2.131   1.393   6.602  0.6361 -0.1732  0.2181
 4141SOL    HW123885   2.108   1.430   6.687  1.2531  0.2852  0.1878
 4141SOL    HW223886   2.076   1.315   6.601  0.1438  0.1548  1.4487
 4142SOL     OW23887   4.381   2.678   8.098 -0.2167 -0.4593  0.6286
 4142SOL    HW123888   4.314   2.669   8.030 -0.3163 -1.4950  0.8601
 4142SOL    HW223889   4.352   2.756   8.146  1.1580  0.5242 -0.1333
 4143SOL     OW23890   2.288   2.374   4.226  0.2718  0.1574 -0.2069
 4143SOL    HW123891   2.330   2.446   4.178  0.4712  1.0952  1.3830
 4143SOL    HW223892   2.311   2.302   4.167  2.2026  0.1681  0.5351
 4144SOL     OW23893   0.607   0.758   5.529 -0.6509 -0.1352 -0.4562
 4144SOL    HW123894   0.596   0.768   5.624  1.0019  2.3200 -0.5110
 4144SOL    HW223895   0.642   0.843   5.503 -0.3217  0.0144  0.4698
 4145SOL     OW23896   1.184   3.008   9.545 -0.5311  0.0116 -0.4349
 4145SOL    HW123897   1.261   2.985   9.493 -1.4339 -3.6731 -0.1180
 4145SOL    HW223898   1.218   3.024   9.633  0.8645 -1.3989 -0.7466
 4146SOL     OW23899   2.125   3.537   4.403  0.2378 -0.2119 -0.0458
 4146SOL    HW123900   2.188   3.583   4.347  0.5715 -2.2921 -1.3471
 4146SOL    HW223901   2.055   3.602   4.399  0.8111  0.3960 -0.2189
 4147SOL     OW23902   3.837   1.421  16.798  0.3123  0.3132  0.3742
 4147SOL    HW123903   3.756   1.457  16.760  0.4523  0.6850  0.4282
 4147SOL    HW223904   3.826   1.331  16.769  2.6283  0.2256 -0.1928
 4148SOL     OW23905   0.081   4.454   3.685  0.1757 -0.2052 -0.1011
 4148SOL    HW123906   0.168   4.416   3.698  0.2440 -0.5820 -1.7150
 4148SOL    HW223907   0.047   4.427   3.771 -0.7882 -0.6249 -0.6197
 4149SOL     OW23908   1.666   0.428   2.973 -0.3912  0.0726  0.5140
 4149SOL    HW123909   1.647   0.355   2.914  3.0931  1.0071 -1.7769
 4149SOL    HW223910   1.625   0.402   3.056 -2.0956  0.6577 -0.1377
 4150SOL     OW23911   1.778   3.753   3.744  0.3744  0.2747  0.3867
 4150SOL    HW123912   1.759   3.791   3.829 -0.2055  1.6214 -0.3483
 4150SOL    HW223913   1.729   3.671   3.737  1.8208 -0.6432  0.9531
 4151SOL     OW23914   2.876   0.373   4.435 -0.4688  0.3211  0.2902
 4151SOL    HW123915   2.800   0.322   4.464  0.2164 -0.0135  1.5269
 4151SOL    HW223916   2.941   0.306   4.454  1.2334  1.8604 -0.1698
 4152SOL     OW23917   0.900   0.738   4.867  0.2457  0.5973 -0.3958
 4152SOL    HW123918   0.869   0.675   4.932 -0.9653  0.8976 -0.6717
 4152SOL    HW223919   0.913   0.810   4.929  0.5517  2.9142 -3.1477
 4153SOL     OW23920   2.624   3.915   1.686  0.2261  0.2745  0.0212
 4153SOL    HW123921   2.684   3.842   1.707 -0.9574 -0.9212 -0.7532
 4153SOL    HW223922   2.690   3.983   1.700  0.4284 -0.2229  1.4851
 4154SOL     OW23923   0.730   0.530   6.822  0.2267  0.1235  0.1871
 4154SOL    HW123924   0.744   0.623   6.801  2.6784 -0.4301 -0.7183
 4154SOL    HW223925   0.714   0.549   6.914 -0.9595 -0.3987  0.0836
 4155SOL     OW23926   1.768   1.600   4.079  0.7959 -0.1726  0.0032
 4155SOL    HW123927   1.828   1.604   4.005  1.9019  0.4375  0.9221
 4155SOL    HW223928   1.830   1.596   4.152  1.6118 -0.9589 -0.7293
 4156SOL     OW23929   2.864   2.000  11.781  0.0691  0.1889 -0.2399
 4156SOL    HW123930   2.780   2.046  11.769 -0.1928  0.3545  2.2868
 4156SOL    HW223931   2.899   2.050  11.854  1.1480 -0.3351 -0.4046
 4157SOL     OW23932   4.026   0.644   1.212 -0.3661 -0.0760 -0.5698
 4157SOL    HW123933   4.101   0.595   1.177  1.3499 -0.0913  3.1366
 4157SOL    HW223934   4.007   0.570   1.270 -3.8778  1.1507 -0.1564
 4158SOL     OW23935   1.128   3.880   5.959  0.2107  0.1237  0.1547
 4158SOL    HW123936   1.168   3.817   6.018  0.1585  0.0096  0.0688
 4158SOL    HW223937   1.065   3.825   5.911  0.9436 -0.3493 -0.2600
 4159SOL     OW23938   0.563   2.754   8.704 -0.3486 -1.0130 -0.1364
 4159SOL    HW123939   0.498   2.786   8.767 -0.4888 -1.2926 -0.1381
 4159SOL    HW223940   0.641   2.776   8.755  0.2308  0.3041 -1.5845
 4160SOL     OW23941   4.217   3.617   3.022  0.1528 -1.0780 -0.2449
 4160SOL    HW123942   4.168   3.627   2.940 -1.5812  1.3421  1.0689
 4160SOL    HW223943   4.159   3.667   3.079  0.1947  0.7656 -1.8005
 4161SOL     OW23944   2.935   3.043   3.948 -0.0468  0.2979 -0.1749
 4161SOL    HW123945   2.854   3.027   3.996 -0.1112 -1.2339 -0.8253
 4161SOL    HW223946   3.001   3.042   4.017 -0.5279  3.3841  0.3735
 4162SOL     OW23947   3.699   1.611   9.563 -0.2207 -0.0454  0.2279
 4162SOL    HW123948   3.753   1.658   9.499 -4.2684  0.6709 -2.6288
 4162SOL    HW223949   3.747   1.649   9.636  0.5786  0.8563 -0.7584
 4163SOL     OW23950   1.344   3.133  16.124  0.6834 -0.3409  0.1159
 4163SOL    HW123951   1.282   3.174  16.184 -0.0667 -0.5181 -0.5399
 4163SOL    HW223952   1.431   3.151  16.160  0.9319 -0.5106 -0.4000
 4164SOL     OW23953   3.015   1.567   4.754  0.0189 -0.1629  0.1100
 4164SOL    HW123954   2.942   1.521   4.713 -0.0071  1.9216 -2.1527
 4164SOL    HW223955   3.073   1.491   4.762  0.0876 -0.1837 -0.5816
 4165SOL     OW23956   3.699   0.523   0.315  1.0357 -0.4991  0.2198
 4165SOL    HW123957   3.632   0.591   0.321  0.6840 -0.7898 -0.3998
 4165SOL    HW223958   3.759   0.571   0.257  1.5496  1.2290  2.1788
 4166SOL     OW23959   3.574   4.306   5.677 -0.6022  0.4719 -0.0799
 4166SOL    HW123960   3.513   4.309   5.750 -1.1646  0.3153 -0.5442
 4166SOL    HW223961   3.613   4.222   5.702  0.3786  0.9073 -0.1235
 4167SOL     OW23962   2.290   2.222   2.042 -0.5042  0.0737 -0.0422
 4167SOL    HW123963   2.249   2.160   1.982 -1.2168  0.4865  0.0206
 4167SOL    HW223964   2.220   2.260   2.096 -1.5780 -2.4528  0.3362
 4168SOL     OW23965   2.337   4.180  12.443  0.1186 -0.2681 -0.2126
 4168SOL    HW123966   2.380   4.258  12.478  1.7985 -0.3705 -2.0276
 4168SOL    HW223967   2.318   4.116  12.512 -1.1116 -1.1063 -1.3245
 4169SOL     OW23968   2.492   1.664  11.753 -0.6170 -0.1644 -0.4379
 4169SOL    HW123969   2.497   1.615  11.671 -1.2733 -2.5343  0.9471
 4169SOL    HW223970   2.577   1.635  11.787  0.3170  1.5797 -1.2899
 4170SOL     OW23971   3.233   1.922   0.065  0.6418 -0.4544 -0.2869
 4170SOL    HW123972   3.287   1.851   0.030  1.6875  1.1528 -1.9819
 4170SOL    HW223973   3.194   1.880   0.141 -1.9961  0.1622 -1.3252
 4171SOL     OW23974   1.673   2.005  12.452  0.2513  0.0773  0.2083
 4171SOL    HW123975   1.757   1.998  12.497 -0.3149 -0.4553  1.1747
 4171SOL    HW223976   1.710   1.973  12.369  1.0348 -0.0001  0.5869
 4172SOL     OW23977   1.320   1.924   7.229 -0.9089 -0.3882 -0.3763
 4172SOL    HW123978   1.232   1.958   7.214 -1.5200 -0.6448  2.6795
 4172SOL    HW223979   1.346   1.974   7.306 -0.2576  0.1780 -0.9668
 4173SOL     OW23980   3.760   3.037   7.234 -0.1675 -0.0004 -0.2414
 4173SOL    HW123981   3.843   2.997   7.206  0.2040  1.6959 -1.5049
 4173SOL    HW223982   3.732   3.060   7.145  1.2000  1.2604 -0.3412
 4174SOL     OW23983   2.845   1.856  15.597 -0.9054  0.1690  0.0645
 4174SOL    HW123984   2.855   1.762  15.580  0.3122  0.6114 -1.5152
 4174SOL    HW223985   2.758   1.871  15.559 -2.1521 -1.7180  2.0886
 4175SOL     OW23986   3.257   3.447   7.848  0.0055 -0.5379  0.2372
 4175SOL    HW123987   3.351   3.464   7.849 -0.6056  2.9408  1.4015
 4175SOL    HW223988   3.227   3.535   7.872  0.1814 -0.7336  1.1817
 4176SOL     OW23989   1.791   1.770   3.590 -0.0085  0.2506 -0.0545
 4176SOL    HW123990   1.748   1.723   3.518 -0.2301 -0.0052  0.2445
 4176SOL    HW223991   1.742   1.853   3.594 -1.9429 -0.8219 -1.4227
 4177SOL     OW23992   3.786   2.035   2.633 -0.0867 -0.3541 -0.0609
 4177SOL    HW123993   3.798   2.072   2.545  1.6669  0.0588  0.3525
 4177SOL    HW223994   3.693   2.056   2.641 -0.6921 -2.2516 -2.1594
 4178SOL     OW23995   3.741   4.254   5.969 -0.2029  0.3705 -0.4616
 4178SOL    HW123996   3.803   4.297   6.027  1.3197 -0.3206 -1.5797
 4178SOL    HW223997   3.675   4.321   5.988  1.6588  1.9462  0.3781
 4179SOL     OW23998   2.950   0.045   6.464  0.5708 -0.1291  0.1806
 4179SOL    HW123999   3.032   0.088   6.439  0.0348 -0.1974 -1.6626
 4179SOL    HW224000   2.933   4.708   6.392 -2.5256 -0.1865  0.9510
 4180SOL     OW24001   0.816   1.536   4.345  0.0600 -0.5808 -0.1059
 4180SOL    HW124002   0.727   1.573   4.346  0.8466  1.3325 -0.7566
 4180SOL    HW224003   0.838   1.566   4.257  3.4423  1.5727  1.4377
 4181SOL     OW24004   3.908   3.819   3.563  0.3498  0.4956 -0.3482
 4181SOL    HW124005   3.879   3.821   3.472  0.4451  2.1759 -0.3437
 4181SOL    HW224006   3.876   3.733   3.591  3.2407 -0.8113 -0.9785
 4182SOL     OW24007   3.583   0.114   7.125  0.3978  0.8358 -0.0296
 4182SOL    HW124008   3.531   0.190   7.154 -0.8562 -0.0901  0.1637
 4182SOL    HW224009   3.606   0.075   7.209  2.4587 -0.2129 -1.0906
 4183SOL     OW24010   1.677   0.930  15.488 -0.3246 -0.0226  0.2470
 4183SOL    HW124011   1.587   0.944  15.516 -0.6589 -1.5777 -0.0861
 4183SOL    HW224012   1.705   1.021  15.500 -1.1484  0.2802 -0.1702
 4184SOL     OW24013   2.652   0.600  16.039 -0.6707 -0.3558  0.1049
 4184SOL    HW124014   2.708   0.533  16.080  0.8889  1.8146  1.4976
 4184SOL    HW224015   2.569   0.557  16.017 -0.9478  0.2054  0.0489
 4185SOL     OW24016   4.215   4.290   2.965 -0.1718  0.0636 -0.2146
 4185SOL    HW124017   4.309   4.302   2.973 -0.0540 -1.5142  0.9168
 4185SOL    HW224018   4.184   4.335   3.044 -2.1202 -0.2527 -0.7836
 4186SOL     OW24019   0.799   3.543   6.981  0.0380  0.2081 -0.1716
 4186SOL    HW124020   0.749   3.617   7.015 -1.1779 -2.5851  4.1462
 4186SOL    HW224021   0.811   3.481   7.053 -1.1935  0.6369  0.4029
 4187SOL     OW24022   4.203   0.610  14.611 -0.0430  0.8303  0.2188
 4187SOL    HW124023   4.215   0.675  14.541 -0.0420  1.2950  0.6473
 4187SOL    HW224024   4.112   0.632  14.633 -0.2974 -0.4002  0.3859
 4188SOL     OW24025   4.713   1.261   0.120 -0.0003  0.8703  0.0013
 4188SOL    HW124026   4.654   1.245   0.047  3.5386 -4.4213 -1.7709
 4188SOL    HW224027   0.068   1.298   0.075  0.6882  2.0390  2.1498
 4189SOL     OW24028   1.164   0.717  16.662 -0.1091  1.2374 -0.7033
 4189SOL    HW124029   1.077   0.709  16.623 -0.4114 -1.7912  0.6095
 4189SOL    HW224030   1.182   0.808  16.639  0.0053  1.4300  0.1802
 4190SOL     OW24031   4.408   1.616   5.644 -0.3994 -0.4204  0.1537
 4190SOL    HW124032   4.371   1.547   5.700 -0.5750  0.1003  0.6708
 4190SOL    HW224033   4.371   1.694   5.685  2.5341  0.0640  1.8404
 4191SOL     OW24034   3.498   1.856  15.616 -0.0920  0.6693  0.1585
 4191SOL    HW124035   3.506   1.837  15.522  1.0448 -0.8400  0.5584
 4191SOL    HW224036   3.420   1.806  15.640  0.7698  0.2927  2.1823
 4192SOL     OW24037   2.138   3.555   1.264  0.7508  1.2168 -0.8088
 4192SOL    HW124038   2.093   3.631   1.226 -1.5915 -0.7707 -1.9364
 4192SOL    HW224039   2.066   3.529   1.321  0.2872  0.3810 -1.7897
 4193SOL     OW24040   1.419   0.855   8.859 -0.3900  0.0869  0.5809
 4193SOL    HW124041   1.450   0.773   8.821  0.4108 -0.5811  2.6317
 4193SOL    HW224042   1.503   0.893   8.887  0.5794 -0.4455 -1.5738
 4194SOL     OW24043   3.073   3.718   6.641 -0.0981  0.0250 -0.3454
 4194SOL    HW124044   3.058   3.650   6.575 -0.8335  0.2495 -0.3998
 4194SOL    HW224045   3.061   3.797   6.589 -1.0528  0.9041  1.2149
 4195SOL     OW24046   2.553   1.313   1.566 -0.1166 -0.5539  0.2532
 4195SOL    HW124047   2.537   1.283   1.477  1.6945 -0.5462 -0.0666
 4195SOL    HW224048   2.646   1.335   1.559 -0.2855 -0.2820 -1.0999
 4196SOL     OW24049   0.852   0.538   7.636 -0.2400 -0.0804  0.3269
 4196SOL    HW124050   0.799   0.486   7.575  1.0977  0.8810 -1.6465
 4196SOL    HW224051   0.914   0.576   7.573 -0.3411 -0.0234  0.2622
 4197SOL     OW24052   1.689   2.477   8.543 -0.9653 -0.0428 -0.2032
 4197SOL    HW124053   1.611   2.529   8.563 -0.4822  0.4933  0.2765
 4197SOL    HW224054   1.636   2.402   8.514 -0.9118 -0.1206 -0.1010
 4198SOL     OW24055   4.311   2.754   6.944 -0.2931 -0.4344  0.5521
 4198SOL    HW124056   4.346   2.795   7.024  2.2105 -0.7152 -0.4254
 4198SOL    HW224057   4.374   2.687   6.921 -1.3935 -1.2919  0.0465
 4199SOL     OW24058   1.143   3.898   9.985 -0.2650  0.2963  0.0236
 4199SOL    HW124059   1.069   3.940   9.940 -0.0623 -1.9361 -2.4025
 4199SOL    HW224060   1.121   3.921  10.075  0.0229 -0.6319  0.3302
 4200SOL     OW24061   1.620   0.118   4.561 -0.2958 -0.2018 -0.8151
 4200SOL    HW124062   1.544   0.154   4.515 -0.9532 -0.9237 -0.3031
 4200SOL    HW224063   1.631   0.040   4.506  0.5785 -0.5764 -0.0912
 4201SOL     OW24064   2.416   4.613  17.288  0.0413 -0.1981 -0.6098
 4201SOL    HW124065   2.331   4.589  17.250 -0.5560 -0.4691  0.9019
 4201SOL    HW224066   2.455   4.638  17.204 -0.2194 -0.8826 -0.9333
 4202SOL     OW24067   3.825   1.718   2.774 -0.4870  0.4980 -0.4035
 4202SOL    HW124068   3.880   1.701   2.699  1.7829  0.0362  1.3697
 4202SOL    HW224069   3.758   1.653   2.752 -1.0450  1.1491 -0.6113
 4203SOL     OW24070   4.523   4.091  12.518  0.8151 -0.1196 -0.1033
 4203SOL    HW124071   4.472   4.168  12.545  0.8443 -0.7817  1.8154
 4203SOL    HW224072   4.606   4.133  12.494  0.1423  0.9213 -0.6121
 4204SOL     OW24073   3.766   0.672  14.918  0.0727 -0.0500 -0.4453
 4204SOL    HW124074   3.838   0.622  14.880 -0.4138 -1.1478  0.0796
 4204SOL    HW224075   3.689   0.631  14.879  0.7860 -1.0455 -0.8095
 4205SOL     OW24076   1.738   3.168   9.147 -0.1178  0.2115 -0.0891
 4205SOL    HW124077   1.748   3.083   9.189 -1.9497 -0.6146 -1.3593
 4205SOL    HW224078   1.677   3.218   9.202 -0.0736 -0.2458  0.3720
 4206SOL     OW24079   4.224   4.636   8.234 -0.0827 -0.3656 -0.0969
 4206SOL    HW124080   4.316   4.635   8.207  0.3789  0.0145  1.4901
 4206SOL    HW224081   4.235   4.578   8.309  1.9613 -0.1916 -0.2651
 4207SOL     OW24082   3.403   0.194   6.482 -0.3440  1.0392 -0.1841
 4207SOL    HW124083   3.375   0.168   6.570 -1.2495 -0.1761 -0.8328
 4207SOL    HW224084   3.416   0.289   6.475 -1.3594  1.0573 -1.7913
 4208SOL     OW24085   1.730   1.174   2.730 -0.2846  0.4726  0.5505
 4208SOL    HW124086   1.810   1.131   2.760 -1.1680 -1.6821 -0.1432
 4208SOL    HW224087   1.719   1.138   2.642  0.4844 -0.1462  0.7046
 4209SOL     OW24088   1.534   0.745  14.676 -0.6044  0.5454 -0.0521
 4209SOL    HW124089   1.567   0.669  14.724  1.4314  2.8685  2.2159
 4209SOL    HW224090   1.530   0.807  14.749 -1.0733  0.5327 -0.0687
 4210SOL     OW24091   4.038   0.640   0.737  0.5845 -0.3236 -0.3808
 4210SOL    HW124092   4.052   0.661   0.644 -0.1625 -0.4418 -0.5194
 4210SOL    HW224093   4.044   0.728   0.772 -2.8733 -0.0171 -0.5737
 4211SOL     OW24094   3.635   2.756   4.829  0.5698  0.3644 -0.2500
 4211SOL    HW124095   3.651   2.752   4.923  0.2679  1.1769 -0.1609
 4211SOL    HW224096   3.708   2.807   4.794  0.6968  0.0015 -0.5020
 4212SOL     OW24097   0.494   0.646   8.449  0.0108 -0.0855  0.0259
 4212SOL    HW124098   0.417   0.702   8.435  0.5069  0.6425  0.2243
 4212SOL    HW224099   0.532   0.659   8.362  1.7392  1.7675  1.0744
 4213SOL     OW24100   1.607   3.746   3.053 -0.5846 -0.0418  0.0999
 4213SOL    HW124101   1.654   3.823   3.087 -0.4021  0.3991 -1.1767
 4213SOL    HW224102   1.558   3.720   3.131  0.5713 -2.6828 -0.0745
 4214SOL     OW24103   0.989   3.362   4.779 -0.3101 -0.2115 -0.6983
 4214SOL    HW124104   1.079   3.378   4.750 -0.6777  0.6866 -1.3379
 4214SOL    HW224105   0.982   3.426   4.850 -0.6822 -0.6745 -0.3201
 4215SOL     OW24106   3.656   0.777   7.743 -0.2538 -0.0103  0.2730
 4215SOL    HW124107   3.722   0.712   7.718 -0.0313  0.3852 -0.1571
 4215SOL    HW224108   3.587   0.722   7.782 -0.9143 -0.2790 -1.2850
 4216SOL     OW24109   2.503   4.431   4.543  0.6284  0.0876 -0.1966
 4216SOL    HW124110   2.462   4.374   4.609 -1.2780  2.0376  0.2867
 4216SOL    HW224111   2.447   4.417   4.466 -1.7145  0.6299  1.4131
 4217SOL     OW24112   3.889   4.479   7.188  0.1717 -0.0394 -0.6300
 4217SOL    HW124113   3.853   4.489   7.276  4.1727  0.6497  0.9059
 4217SOL    HW224114   3.851   4.551   7.138  0.1406 -0.4159 -1.1492
 4218SOL     OW24115   1.417   0.233  11.620 -0.1649 -0.4418  0.6250
 4218SOL    HW124116   1.455   0.255  11.705 -0.6940  1.5941  0.3289
 4218SOL    HW224117   1.486   0.180  11.580 -0.3967 -0.3938  0.1623
 4219SOL     OW24118   1.606   4.290   2.193 -0.3161 -0.6128 -0.1142
 4219SOL    HW124119   1.537   4.320   2.133 -0.9904 -1.8048  0.0508
 4219SOL    HW224120   1.616   4.199   2.165  0.3994 -0.2384 -1.0852
 4220SOL     OW24121   2.565   3.285   7.434  0.2922 -0.1213 -0.3513
 4220SOL    HW124122   2.534   3.341   7.363  1.0995  1.1125  0.2781
 4220SOL    HW224123   2.625   3.222   7.393  0.5149  0.1263 -0.4100
 4221SOL     OW24124   1.335   4.463   7.584 -0.0724 -0.8608  0.0731
 4221SOL    HW124125   1.371   4.548   7.558  0.6360 -0.9511  0.7453
 4221SOL    HW224126   1.406   4.420   7.631 -1.2986 -1.6508  1.2357
 4222SOL     OW24127   2.941   4.521   2.055 -0.1329  0.3275  0.4992
 4222SOL    HW124128   2.942   4.617   2.061 -1.9657  0.3833 -0.0733
 4222SOL    HW224129   2.860   4.506   2.103  0.0728  1.5953  1.2361
 4223SOL     OW24130   0.630   4.639  14.112  0.7673 -0.0059 -0.3632
 4223SOL    HW124131   0.702   4.620  14.173 -1.7313 -0.6269  2.3916
 4223SOL    HW224132   0.650   0.005  14.080  0.0860  0.5787  0.8066
 4224SOL     OW24133   0.252   0.008   3.697 -0.7351  0.0678 -0.1292
 4224SOL    HW124134   0.189   4.669   3.736 -1.2719  2.2740  2.4112
 4224SOL    HW224135   0.226   4.720   3.605 -1.3426 -1.2675  0.1849
 4225SOL     OW24136   0.359   1.959   5.858 -0.4225  0.2568 -0.5729
 4225SOL    HW124137   0.390   1.879   5.816 -0.2518  2.1719 -4.0679
 4225SOL    HW224138   0.305   2.000   5.790 -3.2388 -1.5127  0.5629
 4226SOL     OW24139   3.763   0.596   3.201  0.3243  0.0854 -0.7942
 4226SOL    HW124140   3.784   0.596   3.108  0.5331  0.6665 -0.7441
 4226SOL    HW224141   3.758   0.690   3.215  0.3494 -0.1073  0.5771
 4227SOL     OW24142   3.250   0.413   6.750 -0.2455 -0.4001  0.0288
 4227SOL    HW124143   3.231   0.469   6.675  0.7878 -1.7042 -1.2094
 4227SOL    HW224144   3.229   0.463   6.829  2.5573 -0.0347  0.5634
 4228SOL     OW24145   1.450   1.781   3.175 -0.2361  0.5405 -0.2746
 4228SOL    HW124146   1.531   1.735   3.153 -1.2008 -1.4736  0.4575
 4228SOL    HW224147   1.386   1.751   3.110 -0.0055  1.1436 -0.7816
 4229SOL     OW24148   3.601   4.217  11.251  0.5173 -0.3264 -0.6098
 4229SOL    HW124149   3.672   4.184  11.306 -0.6730  1.5272  2.0448
 4229SOL    HW224150   3.555   4.139  11.221  1.5337 -1.0047 -0.3938
 4230SOL     OW24151   0.014   0.814   3.168  0.4109 -0.6326 -0.6525
 4230SOL    HW124152   4.699   0.731   3.197 -0.5975  0.0677  0.0792
 4230SOL    HW224153   0.107   0.803   3.187  0.6110 -1.3405 -2.0653
 4231SOL     OW24154   2.661   4.342   8.424 -0.5638 -0.1372  0.1573
 4231SOL    HW124155   2.731   4.319   8.485  0.4388 -0.4329 -1.1117
 4231SOL    HW224156   2.588   4.299   8.469  0.9964 -1.7385  1.1333
 4232SOL     OW24157   2.796   3.641   9.151 -0.3805 -0.1288 -0.2015
 4232SOL    HW124158   2.821   3.570   9.093  3.1910  0.4090  0.6667
 4232SOL    HW224159   2.878   3.647   9.201 -0.7803  0.0568  0.4388
 4233SOL     OW24160   2.223   0.249   5.293 -0.3351 -0.1077  0.4673
 4233SOL    HW124161   2.282   0.190   5.247 -0.2275 -0.4152  0.9903
 4233SOL    HW224162   2.185   0.188   5.357 -0.9623  1.0733  1.2315
 4234SOL     OW24163   2.284   1.507  10.670 -0.0980 -0.4947 -0.0677
 4234SOL    HW124164   2.220   1.495  10.740  0.0173  0.3694  0.1913
 4234SOL    HW224165   2.234   1.554  10.603 -0.0992 -0.6673 -0.1872
 4235SOL     OW24166   3.709   2.869  15.647  0.3525 -0.4179 -0.4796
 4235SOL    HW124167   3.798   2.889  15.673 -0.8318  2.5569  1.2702
 4235SOL    HW224168   3.667   2.952  15.626  0.3185 -0.1244  0.7258
 4236SOL     OW24169   0.925   0.697   1.900  0.2074 -0.1097  0.3947
 4236SOL    HW124170   0.884   0.755   1.836  2.3695 -0.8024 -1.5926
 4236SOL    HW224171   0.882   0.726   1.981 -0.3588  2.2131 -0.7393
 4237SOL     OW24172   0.738   0.806   9.352  0.2975  0.1423  0.8619
 4237SOL    HW124173   0.649   0.835   9.337  0.7102  2.0699  2.1552
 4237SOL    HW224174   0.741   0.710   9.349  0.1334  0.0972  2.1644
 4238SOL     OW24175   0.185   3.179   6.876 -0.2158  0.6080  0.1334
 4238SOL    HW124176   0.246   3.228   6.821  0.9187  0.4107  1.2364
 4238SOL    HW224177   0.119   3.248   6.881 -0.5262  0.2306  1.2303
 4239SOL     OW24178   0.560   0.628   2.252 -0.2163 -0.4174 -0.8520
 4239SOL    HW124179   0.473   0.662   2.271  0.9519  2.0729  0.1402
 4239SOL    HW224180   0.540   0.548   2.205 -1.2331 -0.9820  0.5642
 4240SOL     OW24181   4.369   4.017   8.357  0.1335 -0.0244 -0.1452
 4240SOL    HW124182   4.428   3.970   8.416 -0.1411  1.7264  1.5040
 4240SOL    HW224183   4.392   4.103   8.393 -0.7548  0.4107 -0.6195
 4241SOL     OW24184   0.869   3.265   9.449 -0.2208 -0.1893 -0.6751
 4241SOL    HW124185   0.930   3.222   9.509 -1.1696  0.0243  0.4491
 4241SOL    HW224186   0.880   3.357   9.474  1.8762 -0.8918  0.9474
 4242SOL     OW24187   0.344   0.715   6.391  0.3855  0.5809  0.2164
 4242SOL    HW124188   0.390   0.689   6.471 -0.5594 -0.4296  0.4415
 4242SOL    HW224189   0.339   0.810   6.399 -2.4843  0.3948  0.7024
 4243SOL     OW24190   3.794   0.342  13.473  0.1646 -0.2983 -0.0305
 4243SOL    HW124191   3.779   0.295  13.555 -1.4455  2.0682  1.0439
 4243SOL    HW224192   3.752   0.422  13.505 -0.7761 -0.1707 -1.6003
 4244SOL     OW24193   2.597   2.893   6.972 -0.2774 -0.3145 -0.6016
 4244SOL    HW124194   2.541   2.838   7.025 -0.3708 -1.5986 -2.0363
 4244SOL    HW224195   2.596   2.975   7.022  3.8125  0.1518 -1.2232
 4245SOL     OW24196   4.711   0.256   4.072  0.6062  0.0047 -0.4203
 4245SOL    HW124197   4.618   0.268   4.091  0.5805 -0.2849 -0.3604
 4245SOL    HW224198   0.001   0.291   3.984  0.5719 -0.7118 -0.7084
 4246SOL     OW24199   1.897   4.022  12.003  0.4923 -0.6602  0.1677
 4246SOL    HW124200   1.828   3.968  12.042  0.3499 -1.2810 -0.9310
 4246SOL    HW224201   1.921   4.075  12.079 -0.7716  0.4078 -0.1718
 4247SOL     OW24202   4.677   4.512   4.852 -0.6947 -0.4853 -0.2577
 4247SOL    HW124203   4.625   4.538   4.928  0.6288  0.0250  0.4881
 4247SOL    HW224204   0.023   4.451   4.880  0.3565  0.1586 -1.3782
 4248SOL     OW24205   4.469   3.526   4.728  0.5164  0.2067 -0.0363
 4248SOL    HW124206   4.407   3.485   4.788  1.8554 -0.6873  0.7112
 4248SOL    HW224207   4.418   3.591   4.679  0.2952 -0.3043 -0.4879
 4249SOL     OW24208   3.717   1.975  17.153  0.4125  0.0682  0.0275
 4249SOL    HW124209   3.624   1.990  17.166  0.2075 -0.6394 -0.6346
 4249SOL    HW224210   3.714   1.893  17.104 -1.0539  0.6703 -0.8462
 4250SOL     OW24211   3.820   0.119  11.852  0.6864 -0.0908  0.0733
 4250SOL    HW124212   3.906   0.077  11.848  0.6388 -0.1351 -0.5538
 4250SOL    HW224213   3.759   0.047  11.863 -1.4105  1.6581 -0.0380
 4251SOL     OW24214   2.625   0.269   5.496  0.2733  0.0267  0.0123
 4251SOL    HW124215   2.580   0.190   5.525 -0.4049  0.0430 -1.0157
 4251SOL    HW224216   2.697   0.218   5.457 -0.0457  0.3188 -0.9594
 4252SOL     OW24217   2.490   2.093   7.448 -0.6765 -0.6811  0.0701
 4252SOL    HW124218   2.494   2.148   7.370  1.7576  2.4359  2.3603
 4252SOL    HW224219   2.418   2.132   7.498 -0.9255 -2.0153  0.7487
 4253SOL     OW24220   1.662   3.423   7.123  0.1449  0.1068 -0.0733
 4253SOL    HW124221   1.597   3.408   7.192 -1.6451  1.4429 -1.4585
 4253SOL    HW224222   1.724   3.355   7.150  0.5169 -0.3312 -2.0147
 4254SOL     OW24223   2.900   1.980   2.780  0.3394 -0.6665 -0.2589
 4254SOL    HW124224   2.809   1.998   2.800  0.3089 -1.0188 -0.0886
 4254SOL    HW224225   2.902   1.992   2.685 -1.7508 -1.2944 -0.3772
 4255SOL     OW24226   2.885   3.728   7.216 -0.5877 -0.0741 -0.3087
 4255SOL    HW124227   2.975   3.702   7.193 -0.8278 -1.5579  0.4415
 4255SOL    HW224228   2.874   3.680   7.298  1.9076  1.5961  1.0225
 4256SOL     OW24229   0.870   1.963   6.953  0.9931 -0.4388 -0.4622
 4256SOL    HW124230   0.864   2.030   6.885 -0.5190 -0.6559 -0.5460
 4256SOL    HW224231   0.830   2.003   7.030  3.0514 -0.4459  0.6006
 4257SOL     OW24232   1.292   0.138   8.507  0.1285  0.6998  0.8023
 4257SOL    HW124233   1.222   0.117   8.445 -0.9691  1.1548  1.9058
 4257SOL    HW224234   1.241   0.111   8.583  1.1073 -1.4844  0.6916
 4258SOL     OW24235   0.827   2.053   8.530  0.2503  0.4935 -0.0971
 4258SOL    HW124236   0.854   2.007   8.610  2.5299 -0.1956 -1.2544
 4258SOL    HW224237   0.881   2.131   8.543  3.2604 -1.4604 -0.7953
 4259SOL     OW24238   0.660   1.683  12.117 -0.4802  0.0370 -0.0666
 4259SOL    HW124239   0.615   1.657  12.198 -0.7566  0.3564 -0.1143
 4259SOL    HW224240   0.592   1.711  12.056 -0.4042  0.7246  0.1568
 4260SOL     OW24241   1.836   2.003   3.816  0.4103  0.8440 -0.3756
 4260SOL    HW124242   1.880   2.034   3.737  1.2572  1.3430  0.2784
 4260SOL    HW224243   1.748   1.993   3.780 -0.8455  1.9559  2.3580
 4261SOL     OW24244   1.783   0.690   9.844 -0.4119  0.7446 -0.0771
 4261SOL    HW124245   1.714   0.749   9.813 -2.2702 -1.0750  0.5573
 4261SOL    HW224246   1.736   0.609   9.825  1.4370 -0.1709 -0.6968
 4262SOL     OW24247   2.648   0.544   4.248 -0.1721 -0.1081 -0.1956
 4262SOL    HW124248   2.661   0.562   4.341  0.2778  0.3324 -0.3448
 4262SOL    HW224249   2.589   0.469   4.260  0.7272 -0.7344  0.3422
 4263SOL     OW24250   3.075   2.393  12.467  0.0785  0.1964  0.0592
 4263SOL    HW124251   3.167   2.388  12.493  0.9210  0.8882 -2.7108
 4263SOL    HW224252   3.038   2.410  12.553  3.4235  0.1178  1.4934
 4264SOL     OW24253   2.358   1.593   0.517  0.2601 -0.6695 -0.5277
 4264SOL    HW124254   2.440   1.609   0.470 -0.1804  0.0933 -1.0503
 4264SOL    HW224255   2.372   1.500   0.530  0.3796 -0.4978  0.5809
 4265SOL     OW24256   4.543   4.589   5.410  0.2571 -0.8285 -0.5287
 4265SOL    HW124257   4.474   4.566   5.348  0.2647  0.9692 -1.2237
 4265SOL    HW224258   4.522   4.682   5.417 -1.8122 -1.1325 -2.9040
 4266SOL     OW24259   2.830   2.163   6.436  0.0829  0.2700 -0.0913
 4266SOL    HW124260   2.857   2.207   6.356 -3.0877  0.8284 -0.8619
 4266SOL    HW224261   2.742   2.138   6.409 -0.2077  0.9250  0.2407
 4267SOL     OW24262   0.217   1.870  12.089 -0.1177 -0.5933 -0.3075
 4267SOL    HW124263   0.296   1.916  12.119  0.9669 -1.0374 -2.4932
 4267SOL    HW224264   0.198   1.827  12.173 -0.1963  2.2499  1.1447
 4268SOL     OW24265   1.133   4.240   8.850  0.0290  0.4828  0.1018
 4268SOL    HW124266   1.202   4.306   8.839 -0.1752  0.2839 -2.3470
 4268SOL    HW224267   1.108   4.248   8.943 -0.5556  0.2534 -0.0363
 4269SOL     OW24268   2.198   1.180   7.935  0.1414  0.0724 -0.2280
 4269SOL    HW124269   2.257   1.170   7.860  0.7657 -0.4755  0.3354
 4269SOL    HW224270   2.191   1.088   7.961  0.2666  0.3110  0.6800
 4270SOL     OW24271   2.830   4.650   2.878 -0.0877 -0.0588 -0.0759
 4270SOL    HW124272   2.850   4.577   2.820 -0.4785 -1.3257  1.3946
 4270SOL    HW224273   2.741   4.678   2.855  0.0648  0.3048 -0.2250
 4271SOL     OW24274   1.422   3.787  17.053  0.1681  0.0445  0.3864
 4271SOL    HW124275   1.339   3.738  17.051 -1.0102  2.1090 -1.5490
 4271SOL    HW224276   1.467   3.711  17.017  0.6488  1.2191 -1.4889
 4272SOL     OW24277   4.559   0.201   7.433 -0.2117 -0.1924 -0.4325
 4272SOL    HW124278   4.556   0.200   7.529  1.0125 -1.4734 -0.4163
 4272SOL    HW224279   4.489   0.261   7.406 -1.7345 -1.6178  0.3331
 4273SOL     OW24280   0.395   3.189  11.104 -0.0318 -0.0314 -0.0137
 4273SOL    HW124281   0.474   3.182  11.159 -1.6155 -0.0888  2.2557
 4273SOL    HW224282   0.426   3.141  11.027  0.6848 -0.0749  0.2984
 4274SOL     OW24283   1.623   3.523   1.071  0.5256 -0.5359  0.0834
 4274SOL    HW124284   1.531   3.500   1.084  1.2156 -3.5012 -0.1082
 4274SOL    HW224285   1.654   3.526   1.162  0.8067 -0.3960 -0.0156
 4275SOL     OW24286   2.354   2.145   1.456 -0.4259  0.0614  0.4384
 4275SOL    HW124287   2.382   2.092   1.530  0.4510  1.4381  1.1080
 4275SOL    HW224288   2.394   2.099   1.383  1.5718  2.0438  0.2787
 4276SOL     OW24289   3.999   1.087   8.476  0.0432 -0.5575 -0.4709
 4276SOL    HW124290   3.934   1.033   8.519  0.2070 -1.0295 -0.8103
 4276SOL    HW224291   4.048   1.022   8.426 -2.3335 -0.9182 -2.3112
 4277SOL     OW24292   3.041   4.227   9.035 -0.4553  0.3848 -0.5744
 4277SOL    HW124293   3.133   4.221   9.008 -1.1834  0.4538 -3.0716
 4277SOL    HW224294   3.044   4.271   9.120  0.9600 -0.1884 -0.3168
 4278SOL     OW24295   0.514   1.705   3.288 -0.4634 -0.0696 -0.1832
 4278SOL    HW124296   0.574   1.648   3.337  0.8001  1.5883  0.1893
 4278SOL    HW224297   0.569   1.732   3.215  0.5559 -0.3666  0.4722
 4279SOL     OW24298   0.031   2.031  12.613 -0.1151 -0.2397  0.0335
 4279SOL    HW124299   0.105   2.068  12.566 -1.1483  2.5476  0.5854
 4279SOL    HW224300   0.032   1.938  12.587 -1.2028  0.4323 -2.3710
 4280SOL     OW24301   4.492   0.091   3.322  0.4411  0.2513  0.2939
 4280SOL    HW124302   4.491   0.022   3.389  0.7372 -0.5111 -0.4998
 4280SOL    HW224303   4.415   0.059   3.275  0.1414  1.0217  0.2695
 4281SOL     OW24304   4.547   0.613   8.892  0.1126 -0.3339  0.0629
 4281SOL    HW124305   4.546   0.587   8.985 -0.2137 -1.1790 -0.1828
 4281SOL    HW224306   4.458   0.641   8.874 -0.1991 -1.1615  0.3167
 4282SOL     OW24307   1.508   0.054   5.356 -0.2924 -0.1062 -0.0440
 4282SOL    HW124308   1.565   4.710   5.394 -2.8414 -2.2356  0.0256
 4282SOL    HW224309   1.437   0.033   5.417 -0.2579 -0.8984 -0.2803
 4283SOL     OW24310   1.264   4.366   9.416  0.2814 -0.4587  0.1914
 4283SOL    HW124311   1.214   4.347   9.495  0.4281  0.2587  0.4621
 4283SOL    HW224312   1.341   4.313   9.434 -0.2598 -0.9288  1.1080
 4284SOL     OW24313   3.020   4.708   8.256  0.1561 -0.7345  0.2025
 4284SOL    HW124314   2.943   0.043   8.265  0.6089 -0.1258  0.2172
 4284SOL    HW224315   2.976   4.626   8.279 -0.0682 -1.0621 -1.3428
 4285SOL     OW24316   1.031   2.041  16.403  0.3460 -0.1053 -0.2970
 4285SOL    HW124317   0.994   2.129  16.401 -0.9849 -0.6611 -0.4422
 4285SOL    HW224318   1.092   2.045  16.477  0.5092  0.7348 -0.4812
 4286SOL     OW24319   2.735   1.096   8.700 -0.0827 -0.1285  0.4441
 4286SOL    HW124320   2.804   1.040   8.735 -1.6261 -1.4775  1.3665
 4286SOL    HW224321   2.786   1.164   8.657  1.9778 -2.3391 -0.5695
 4287SOL     OW24322   2.334   1.397   5.614 -0.0438 -0.3845 -0.3336
 4287SOL    HW124323   2.362   1.359   5.531 -1.5591  1.6752 -1.7827
 4287SOL    HW224324   2.402   1.464   5.615 -0.0984 -0.3302 -0.2349
 4288SOL     OW24325   2.232   2.416   3.684  0.3404 -0.0502 -0.4494
 4288SOL    HW124326   2.261   2.436   3.595 -1.4831 -0.2363 -1.0659
 4288SOL    HW224327   2.306   2.447   3.737  0.3606  1.2337 -1.2238
 4289SOL     OW24328   1.259   1.507   8.233  0.2049 -0.1789 -0.5381
 4289SOL    HW124329   1.221   1.419   8.231  0.2929 -0.3323  3.7724
 4289SOL    HW224330   1.197   1.559   8.284  0.2613 -1.9909  1.3936
 4290SOL     OW24331   0.943   2.241   6.461  0.1556  0.2452 -0.4733
 4290SOL    HW124332   0.974   2.279   6.543  0.9290 -1.2488 -0.0641
 4290SOL    HW224333   0.851   2.269   6.466  1.1082  3.3589 -0.9986
 4291SOL     OW24334   0.710   0.255   2.681 -0.1371  0.0061 -0.6385
 4291SOL    HW124335   0.724   0.182   2.621  1.5435  1.5570 -2.1556
 4291SOL    HW224336   0.650   0.207   2.737  1.9183 -1.4822  0.2722
 4292SOL     OW24337   2.405   0.355  16.814 -0.1960  0.2043  0.1283
 4292SOL    HW124338   2.394   0.295  16.740 -2.0297  0.0146  0.5451
 4292SOL    HW224339   2.350   0.426  16.781 -0.4142 -0.2161 -0.4093
 4293SOL     OW24340   4.484   1.366   5.139  0.5275  0.3773 -0.5010
 4293SOL    HW124341   4.539   1.444   5.133  2.2361 -0.6519  1.4360
 4293SOL    HW224342   4.442   1.389   5.222 -1.8132 -0.4288 -1.4816
 4294SOL     OW24343   4.274   3.280   5.915  0.4772  0.8085  0.4284
 4294SOL    HW124344   4.330   3.353   5.939  0.1581  1.9123 -2.2141
 4294SOL    HW224345   4.273   3.223   5.992  0.1731  0.1610 -0.0520
 4295SOL     OW24346   4.537   1.057   7.020 -0.3265 -0.4717  0.0594
 4295SOL    HW124347   4.543   1.104   6.936  1.1193 -0.5622  0.1241
 4295SOL    HW224348   4.622   1.085   7.052 -1.1516  0.5987  1.3151
 4296SOL     OW24349   0.617   3.824   9.833  0.2510  0.4564 -0.3770
 4296SOL    HW124350   0.543   3.764   9.824  0.9711 -0.5098  0.0810
 4296SOL    HW224351   0.688   3.787   9.779  0.4806  2.0682 -1.1637
 4297SOL     OW24352   4.508   0.124  11.904  0.3049  0.1278 -0.1828
 4297SOL    HW124353   4.433   0.066  11.891  0.5097  0.0038 -0.8359
 4297SOL    HW224354   4.498   0.161  11.816 -0.3833 -1.1324 -0.6308
 4298SOL     OW24355   0.263   3.602   6.468 -0.5283 -0.8053  0.3135
 4298SOL    HW124356   0.172   3.627   6.486 -0.9343 -1.2739 -1.0389
 4298SOL    HW224357   0.295   3.604   6.558  0.4044 -0.2820 -0.0376
 4299SOL     OW24358   0.161   0.604   3.599  0.2762 -0.1683  0.6925
 4299SOL    HW124359   0.215   0.599   3.678  0.4552  0.2724  0.5949
 4299SOL    HW224360   0.220   0.615   3.525 -0.0335  1.8421  0.7540
 4300SOL     OW24361   4.049   2.637  11.101  0.4238 -0.0147 -0.1665
 4300SOL    HW124362   4.046   2.659  11.194 -1.6391 -1.1874  0.0474
 4300SOL    HW224363   3.997   2.556  11.100  0.8563 -0.3006  0.4005
 4301SOL     OW24364   0.078   1.260  10.302  0.5762  0.3437 -0.4320
 4301SOL    HW124365   0.054   1.197  10.369  0.0364  0.2960 -0.6690
 4301SOL    HW224366   0.107   1.198  10.235  1.1555  0.5886 -0.4043
 4302SOL     OW24367   2.098   3.953  16.582  0.4349  0.3633 -0.3414
 4302SOL    HW124368   2.054   3.915  16.506 -1.5752 -0.7251  1.3492
 4302SOL    HW224369   2.056   3.901  16.651  0.9722  1.9113  1.1562
 4303SOL     OW24370   3.459   4.339   4.276 -0.0158  0.1311 -0.1822
 4303SOL    HW124371   3.432   4.412   4.331  1.1838 -0.8166  1.6876
 4303SOL    HW224372   3.515   4.373   4.207 -0.7755  0.8783 -0.4285
 4304SOL     OW24373   1.206   0.877   7.937 -0.5518  0.4489 -0.5829
 4304SOL    HW124374   1.116   0.900   7.959 -0.1843  0.7534  0.5637
 4304SOL    HW224375   1.201   0.841   7.848  2.1590  0.6205 -0.8106
 4305SOL     OW24376   2.111   1.311  17.161  0.1690  0.0728  0.0643
 4305SOL    HW124377   2.035   1.313  17.219  1.3554 -0.8441  1.6295
 4305SOL    HW224378   2.124   1.217  17.156 -0.5823 -0.0217 -0.1844
 4306SOL     OW24379   2.183   3.800  12.257 -0.1063  0.0531 -0.0060
 4306SOL    HW124380   2.193   3.723  12.313  0.7643 -1.3016 -2.0080
 4306SOL    HW224381   2.141   3.861  12.317  1.0164 -0.8449  1.6793
 4307SOL     OW24382   3.983   3.808   5.739  0.6108  0.0185 -0.2928
 4307SOL    HW124383   3.941   3.761   5.668  2.1712 -0.9684 -0.5745
 4307SOL    HW224384   3.991   3.740   5.806 -0.5230 -0.6985 -0.8894
 4308SOL     OW24385   4.472   0.833   3.797 -0.1530  0.1439 -0.0061
 4308SOL    HW124386   4.390   0.786   3.780  0.8996 -1.5971 -0.2708
 4308SOL    HW224387   4.447   0.923   3.779 -0.6003 -0.1425 -0.8298
 4309SOL     OW24388   2.280   3.289   4.926  0.1159  0.0591  0.0383
 4309SOL    HW124389   2.267   3.216   4.866 -0.7901  0.1126  0.1699
 4309SOL    HW224390   2.293   3.366   4.870 -1.8149  0.4667  0.1605
 4310SOL     OW24391   3.868   0.077   9.493  0.3582  0.4756  0.1011
 4310SOL    HW124392   3.938   0.012   9.499  0.9932  0.9769 -1.9841
 4310SOL    HW224393   3.810   0.062   9.568  2.3846 -3.5402  0.8428
 4311SOL     OW24394   4.081   2.692   7.220  0.1967 -0.2062 -0.3988
 4311SOL    HW124395   4.117   2.619   7.169  0.1399 -0.6118  0.1329
 4311SOL    HW224396   4.027   2.654   7.289  0.4922 -3.7126 -2.0988
 4312SOL     OW24397   4.717   3.027   4.878 -0.0726 -0.5472 -0.3984
 4312SOL    HW124398   4.623   3.045   4.884  0.6078  1.4381  4.1080
 4312SOL    HW224399   4.721   3.005   4.785 -0.3356  0.6653 -0.7060
 4313SOL     OW24400   3.044   0.342   1.943  0.5064 -0.0698  0.3135
 4313SOL    HW124401   3.092   0.263   1.921 -0.5759 -0.6478  0.0421
 4313SOL    HW224402   3.079   0.368   2.028 -1.0321  0.8982  0.6617
 4314SOL     OW24403   3.789   0.453  16.021 -0.3021  0.3332 -0.3187
 4314SOL    HW124404   3.723   0.471  15.953 -0.9274  1.2016  0.5170
 4314SOL    HW224405   3.732   0.410  16.085  1.0450  0.6102  1.0641
 4315SOL     OW24406   2.895   2.681   4.452 -1.0487  0.1366  0.3367
 4315SOL    HW124407   2.869   2.697   4.542 -1.2545 -0.5067  0.3928
 4315SOL    HW224408   2.965   2.621   4.476 -0.0148  1.7073  1.2237
 4316SOL     OW24409   0.847   4.412   8.189 -0.0200  0.2987  0.1259
 4316SOL    HW124410   0.755   4.420   8.215  0.5365  2.6829  1.3248
 4316SOL    HW224411   0.866   4.497   8.149 -0.6861 -0.6261 -2.1553
 4317SOL     OW24412   0.603   2.526   0.762 -0.0564  0.0225  0.0984
 4317SOL    HW124413   0.624   2.620   0.764  4.1335 -0.9372  1.2696
 4317SOL    HW224414   0.577   2.519   0.854 -1.4927 -3.6116 -0.6140
 4318SOL     OW24415   4.643   3.187   8.442  0.2449  0.0987 -0.2738
 4318SOL    HW124416   4.652   3.270   8.489  2.0598 -0.2486 -0.0088
 4318SOL    HW224417   4.636   3.217   8.352  1.8118  0.2434 -0.3385
 4319SOL     OW24418   2.788   2.553   5.401 -0.2195  0.0812 -0.2733
 4319SOL    HW124419   2.758   2.494   5.333 -2.4186  0.8519  0.0127
 4319SOL    HW224420   2.728   2.625   5.383 -0.6961 -0.5529 -1.2050
 4320SOL     OW24421   4.343   1.853   6.269 -0.3322  0.3570 -0.2796
 4320SOL    HW124422   4.367   1.944   6.281  0.6930 -0.0796  0.9433
 4320SOL    HW224423   4.329   1.842   6.174 -2.3526  1.0509 -0.0582
 4321SOL     OW24424   3.848   4.408   8.815  0.1520 -0.1991 -0.3962
 4321SOL    HW124425   3.942   4.426   8.806  0.4241 -2.4105 -1.9225
 4321SOL    HW224426   3.819   4.494   8.844  0.9603  0.6636 -2.1231
 4322SOL     OW24427   2.341   3.625   8.706  0.1119  0.1728 -0.3501
 4322SOL    HW124428   2.313   3.597   8.793  0.5750  0.3552 -0.1403
 4322SOL    HW224429   2.278   3.696   8.689  1.8864  2.0710  0.9561
 4323SOL     OW24430   2.831   4.461   5.418 -0.0788 -0.2817 -0.0441
 4323SOL    HW124431   2.843   4.505   5.334 -0.3880  0.0356  0.0760
 4323SOL    HW224432   2.907   4.403   5.417  0.1062 -0.0460  0.4325
 4324SOL     OW24433   3.207   2.410   7.959  0.1493  0.3720 -0.1742
 4324SOL    HW124434   3.281   2.350   7.961 -0.9692 -0.9891  0.4453
 4324SOL    HW224435   3.141   2.361   8.007 -0.3996  0.4264 -0.8795
 4325SOL     OW24436   0.230   1.312   1.012  0.3774 -0.7568  0.1471
 4325SOL    HW124437   0.294   1.370   1.054  0.5867 -0.1962 -0.9697
 4325SOL    HW224438   0.193   1.269   1.089  0.5846 -1.6027 -0.2287
 4326SOL     OW24439   2.154   2.237   5.487  0.2894 -0.0595 -0.3949
 4326SOL    HW124440   2.096   2.266   5.558 -0.5097 -1.5056 -0.4627
 4326SOL    HW224441   2.172   2.323   5.450 -1.7080  1.8145  2.9695
 4327SOL     OW24442   0.868   3.736   8.908 -0.3350  0.0629  0.1183
 4327SOL    HW124443   0.865   3.693   8.994 -2.5188 -1.2647 -0.5924
 4327SOL    HW224444   0.884   3.823   8.944 -2.2838  0.4625  0.0395
 4328SOL     OW24445   0.767   4.373  15.530  0.1995  0.0451  0.1631
 4328SOL    HW124446   0.845   4.319  15.539  1.2876  1.4001 -1.2299
 4328SOL    HW224447   0.799   4.422  15.454 -0.4686 -0.0913 -0.2124
 4329SOL     OW24448   1.666   2.502   1.246  0.1021  0.2419 -0.5799
 4329SOL    HW124449   1.711   2.512   1.330 -1.5609 -3.1648  0.7058
 4329SOL    HW224450   1.714   2.571   1.199 -0.8707  2.4186  1.6331
 4330SOL     OW24451   1.937   1.168   3.018 -0.2186 -0.0976  0.5139
 4330SOL    HW124452   1.999   1.222   2.968 -1.6587  0.7688 -0.3291
 4330SOL    HW224453   1.853   1.212   3.011 -1.0552 -1.8080 -0.3119
 4331SOL     OW24454   4.268   3.017   3.305 -0.4263  0.5895 -0.2085
 4331SOL    HW124455   4.242   2.998   3.395  1.0103  1.9187  0.4919
 4331SOL    HW224456   4.182   3.015   3.262 -0.3430 -0.7408 -0.3235
 4332SOL     OW24457   3.839   4.427   9.430 -0.1410  0.5819  0.0040
 4332SOL    HW124458   3.753   4.467   9.446  0.3660  1.2489  1.0221
 4332SOL    HW224459   3.863   4.418   9.522 -0.0034  1.7186  0.0776
 4333SOL     OW24460   4.495   0.660   5.538  0.1275 -0.1691  0.1862
 4333SOL    HW124461   4.564   0.685   5.600  0.9429 -0.5204 -0.5791
 4333SOL    HW224462   4.549   0.630   5.465  0.9823 -0.4376  0.9241
 4334SOL     OW24463   2.446   4.671  11.952  0.4222 -0.4321 -0.0796
 4334SOL    HW124464   2.404   0.003  11.885  2.5547  0.2350 -0.8677
 4334SOL    HW224465   2.402   4.586  11.947  0.2354 -0.4681  2.1320
 4335SOL     OW24466   0.339   1.627  11.725  0.2621  0.3411  0.0048
 4335SOL    HW124467   0.385   1.571  11.787 -0.4883  1.5412  1.6342
 4335SOL    HW224468   0.246   1.609  11.731  0.6702 -2.3725 -1.5155
 4336SOL     OW24469   2.848   0.918   2.951  0.3649  0.1020  0.2236
 4336SOL    HW124470   2.916   0.983   2.971  0.2873 -0.1408  1.2744
 4336SOL    HW224471   2.773   0.977   2.942 -0.2449 -1.0268 -2.2042
 4337SOL     OW24472   0.173   0.944   8.114 -0.5101 -0.0135 -0.2812
 4337SOL    HW124473   0.257   0.899   8.120 -0.6030  0.1532  1.9734
 4337SOL    HW224474   0.134   0.931   8.200 -0.5124 -2.7604 -0.6896
 4338SOL     OW24475   2.304   0.292   4.911 -0.6297  0.5830 -0.2781
 4338SOL    HW124476   2.364   0.221   4.934  1.2301  2.0719 -0.5947
 4338SOL    HW224477   2.346   0.320   4.830  0.9042 -0.6471  0.0793
 4339SOL     OW24478   3.611   4.320   3.314 -0.3069 -0.5252  0.2515
 4339SOL    HW124479   3.584   4.394   3.260 -1.1724  0.3052  1.8050
 4339SOL    HW224480   3.535   4.263   3.308 -1.6258  0.9650  2.8918
 4340SOL     OW24481   1.269   3.221   7.254  0.1095  0.1150  0.4472
 4340SOL    HW124482   1.263   3.315   7.236  2.0458  0.0929 -0.3080
 4340SOL    HW224483   1.356   3.208   7.292 -0.1172  0.6529  1.1500
 4341SOL     OW24484   0.315   2.603  13.683  0.0292  0.0683 -0.0475
 4341SOL    HW124485   0.301   2.510  13.703 -1.0544  0.1656 -0.3419
 4341SOL    HW224486   0.232   2.643  13.710  0.0564 -0.5404  0.9527
 4342SOL     OW24487   3.142   1.862   9.241 -0.0652  0.0197  0.7371
 4342SOL    HW124488   3.100   1.834   9.322 -2.1796  1.3382  0.1009
 4342SOL    HW224489   3.140   1.955   9.260 -1.3517  0.2562 -0.5129
 4343SOL     OW24490   4.627   1.740  10.432 -0.4559 -0.1293 -0.0882
 4343SOL    HW124491   4.702   1.798  10.449 -0.4222 -0.4070  0.7113
 4343SOL    HW224492   4.655   1.661  10.478  1.3338 -0.9067 -2.4903
 4344SOL     OW24493   1.443   0.584   2.546 -0.2339  0.3421  0.2114
 4344SOL    HW124494   1.523   0.540   2.575 -0.0602 -0.0010 -0.7829
 4344SOL    HW224495   1.408   0.504   2.508  0.7210  0.3260 -0.6404
 4345SOL     OW24496   2.533   4.046   2.536 -0.3216 -0.4005 -0.9371
 4345SOL    HW124497   2.592   4.119   2.518  0.7952 -0.5257  2.2197
 4345SOL    HW224498   2.523   4.054   2.631 -2.2542  1.7711 -1.3207
 4346SOL     OW24499   2.819   0.306   0.634 -0.1433  0.5944  0.0547
 4346SOL    HW124500   2.854   0.223   0.667  2.0830  0.6793 -2.0322
 4346SOL    HW224501   2.896   0.307   0.576 -1.1683  0.3518 -1.2966
 4347SOL     OW24502   2.127   1.429   5.158 -0.0328  0.3252  0.3522
 4347SOL    HW124503   2.214   1.464   5.141 -0.2975  0.6203 -0.3721
 4347SOL    HW224504   2.079   1.512   5.159 -1.0231 -0.2507 -0.2359
 4348SOL     OW24505   1.764   3.842   8.999 -0.2000  0.1645 -0.5692
 4348SOL    HW124506   1.711   3.885   8.932 -1.5384  0.0367  0.4192
 4348SOL    HW224507   1.847   3.834   8.951 -0.7653 -1.9672 -1.1781
 4349SOL     OW24508   4.351   1.876  14.699 -0.1754 -0.5878 -0.2405
 4349SOL    HW124509   4.297   1.798  14.711  0.4542 -0.9345  0.3161
 4349SOL    HW224510   4.281   1.940  14.683  0.3331 -0.1018 -0.5449
 4350SOL     OW24511   1.518   2.109   7.456 -0.1355 -0.2229  0.5233
 4350SOL    HW124512   1.611   2.096   7.437 -0.6909 -1.3223 -1.4896
 4350SOL    HW224513   1.504   2.043   7.524  2.3096 -0.2467  1.0257
 4351SOL     OW24514   3.490   1.824   6.403 -0.2011 -0.4438  0.5082
 4351SOL    HW124515   3.504   1.824   6.498 -3.1224  0.8445  0.9475
 4351SOL    HW224516   3.434   1.902   6.396  0.4848  0.0484  0.4384
 4352SOL     OW24517   2.375   0.763   4.399 -0.1469 -0.1643 -0.1657
 4352SOL    HW124518   2.423   0.776   4.317 -3.1351 -1.9974 -2.2296
 4352SOL    HW224519   2.428   0.692   4.437  0.8109  0.4613 -0.3165
 4353SOL     OW24520   3.947   4.417   2.198 -0.1532  0.0223 -0.3092
 4353SOL    HW124521   3.898   4.356   2.142 -0.8133  1.2021 -1.0138
 4353SOL    HW224522   3.908   4.503   2.181  2.2000  1.1441 -0.0788
 4354SOL     OW24523   2.676   4.607  15.403  0.0942  0.0421  0.3179
 4354SOL    HW124524   2.743   4.666  15.369  1.0312 -1.6706 -0.7577
 4354SOL    HW224525   2.688   4.617  15.497  2.7147 -2.9139  0.2793
 4355SOL     OW24526   1.416   0.272   7.034 -0.0970 -0.0262  0.6002
 4355SOL    HW124527   1.380   0.284   7.122 -0.0071 -1.3368  0.8145
 4355SOL    HW224528   1.429   0.363   7.006 -2.0176 -0.1722 -0.7723
 4356SOL     OW24529   3.290   2.998   9.958  0.0362 -0.8599 -0.2596
 4356SOL    HW124530   3.311   3.069  10.018 -1.2778 -0.1716 -0.6188
 4356SOL    HW224531   3.226   2.951  10.012  1.6914 -2.1399  0.6385
 4357SOL     OW24532   3.430   0.518   3.578 -0.3581 -0.1380 -0.0980
 4357SOL    HW124533   3.387   0.588   3.627  1.6678  2.7714 -2.4958
 4357SOL    HW224534   3.468   0.578   3.514 -2.1632 -1.9008 -2.8249
 4358SOL     OW24535   1.433   1.922   3.402 -0.0535  0.0555  0.2543
 4358SOL    HW124536   1.428   1.861   3.328  0.5874 -1.5462  1.5232
 4358SOL    HW224537   1.463   2.001   3.356 -0.3433 -0.0575 -0.1271
 4359SOL     OW24538   1.730   3.770   6.060  0.0746 -0.1109  0.2121
 4359SOL    HW124539   1.750   3.713   5.986  2.4903  1.4763 -0.3346
 4359SOL    HW224540   1.670   3.830   6.016 -1.5117 -1.0672  1.0734
 4360SOL     OW24541   3.167   2.288   1.867 -0.2962 -0.0287  0.4429
 4360SOL    HW124542   3.114   2.349   1.919 -1.0622 -2.0234  2.0043
 4360SOL    HW224543   3.255   2.326   1.860  0.5396 -2.4224 -1.8738
 4361SOL     OW24544   0.021   3.223  10.481  0.5997  0.1677 -0.0238
 4361SOL    HW124545   0.102   3.251  10.524 -0.9977  1.1317  2.3153
 4361SOL    HW224546   4.703   3.177  10.555  0.2359 -1.3421 -1.1524
 4362SOL     OW24547   1.945   2.106   3.566  0.8063  0.3390 -0.3617
 4362SOL    HW124548   1.907   2.193   3.549  0.7617  0.1921 -1.0039
 4362SOL    HW224549   1.915   2.064   3.486  0.6149 -0.4687  0.1343
 4363SOL     OW24550   1.864   0.904   2.157 -0.1877 -0.0257  0.9178
 4363SOL    HW124551   1.876   0.872   2.246  1.3310  0.5257  0.9103
 4363SOL    HW224552   1.772   0.929   2.154 -0.2821 -0.7159 -2.5336
 4364SOL     OW24553   0.295   1.195   2.044  0.3463  0.0944 -0.1683
 4364SOL    HW124554   0.245   1.275   2.029 -1.2471 -1.4110 -2.8778
 4364SOL    HW224555   0.308   1.200   2.139  0.2271  0.3056 -0.1634
 4365SOL     OW24556   1.633   3.815  10.175  0.5899  0.1261  0.0691
 4365SOL    HW124557   1.715   3.799  10.128  1.3586  0.0500  1.4624
 4365SOL    HW224558   1.627   3.910  10.174  1.5745  0.1864 -0.2548
 4366SOL     OW24559   2.216   3.691   2.400  0.7544  0.5446 -0.4305
 4366SOL    HW124560   2.141   3.694   2.340 -0.7834  2.4457  1.5994
 4366SOL    HW224561   2.235   3.783   2.419 -3.7504  1.1188  1.1326
 4367SOL     OW24562   1.541   1.150   8.694 -0.2731  0.0686 -0.1796
 4367SOL    HW124563   1.573   1.200   8.769 -1.0353 -1.4252  1.1217
 4367SOL    HW224564   1.585   1.067   8.711  1.0964  0.7709 -0.2345
 4368SOL     OW24565   0.055   1.153  16.861  0.0992  0.0804  0.7071
 4368SOL    HW124566   0.060   1.193  16.947 -0.6296 -0.8240  1.1693
 4368SOL    HW224567   0.067   1.231  16.806  0.6341  0.1242  0.8881
 4369SOL     OW24568   0.174   3.483  17.356 -0.1546  0.7308 -0.8753
 4369SOL    HW124569   0.232   3.559  17.362  0.1509  0.3404  1.0316
 4369SOL    HW224570   0.103   3.521  17.406  0.2738  1.6828 -0.9887
 4370SOL     OW24571   4.112   0.707   2.836  0.1971 -0.0400  0.3574
 4370SOL    HW124572   4.029   0.753   2.825 -0.6325 -1.3778  0.9871
 4370SOL    HW224573   4.158   0.766   2.777  2.1163 -3.5966 -1.6949
 4371SOL     OW24574   3.531   0.148   8.344  0.1569  0.2745 -0.4800
 4371SOL    HW124575   3.553   0.183   8.431 -0.1663 -0.6085 -0.0360
 4371SOL    HW224576   3.440   0.172   8.329 -0.0509 -0.0416  0.2439
 4372SOL     OW24577   0.790   1.443   7.120 -0.1274 -0.1522  0.6676
 4372SOL    HW124578   0.701   1.428   7.153 -1.0469 -0.0740 -1.7945
 4372SOL    HW224579   0.765   1.474   7.033  1.6327  0.9274  0.5503
 4373SOL     OW24580   2.210   1.192  16.373  0.5140  0.3661 -0.2820
 4373SOL    HW124581   2.120   1.225  16.382  0.4394  0.4154 -1.2404
 4373SOL    HW224582   2.215   1.182  16.278 -0.7675  3.8492 -0.7319
 4374SOL     OW24583   1.910   0.233   9.279 -0.5670  0.2758 -0.0668
 4374SOL    HW124584   1.954   0.254   9.361 -1.9623 -0.3665  0.8673
 4374SOL    HW224585   1.847   0.304   9.264 -0.2025  0.9121  1.4519
 4375SOL     OW24586   1.046   2.667   8.805 -0.2196  0.2002 -0.1619
 4375SOL    HW124587   1.115   2.601   8.814  0.9284  1.0389 -2.9962
 4375SOL    HW224588   0.973   2.607   8.820 -1.5353  1.9096  0.2746
 4376SOL     OW24589   0.112   2.643   2.541 -0.1999 -0.4190 -0.2508
 4376SOL    HW124590   0.123   2.587   2.618  0.2065 -3.4592 -2.5366
 4376SOL    HW224591   0.066   2.585   2.480  2.0071 -2.4440  0.0045
 4377SOL     OW24592   2.701   0.483   9.748  0.2736  0.1522  0.0507
 4377SOL    HW124593   2.640   0.542   9.792  1.8084  2.6613 -1.1773
 4377SOL    HW224594   2.644   0.460   9.675 -0.7531 -1.6595  1.4050
 4378SOL     OW24595   2.698   2.209   9.924 -0.3232  0.1419  0.1601
 4378SOL    HW124596   2.736   2.141   9.980  2.2334  3.7154  2.7719
 4378SOL    HW224597   2.723   2.168   9.841 -0.7671 -1.5534  0.8757
 4379SOL     OW24598   3.739   2.788   9.102 -0.6024 -0.7012  0.2360
 4379SOL    HW124599   3.810   2.839   9.063  0.6648 -2.2683  0.4566
 4379SOL    HW224600   3.775   2.699   9.099 -2.7757 -1.6164  1.3937
 4380SOL     OW24601   0.758   0.182   4.436  0.5359  0.2400  0.0431
 4380SOL    HW124602   0.718   0.227   4.361 -1.0818 -1.4892 -0.1302
 4380SOL    HW224603   0.734   0.239   4.508  1.3079 -0.2044  0.6546
 4381SOL     OW24604   0.380   3.816   2.058 -0.1034  0.2344 -0.2562
 4381SOL    HW124605   0.372   3.903   2.098 -0.1926  0.2386 -0.2831
 4381SOL    HW224606   0.437   3.835   1.983  0.0004 -0.8358 -0.4465
 4382SOL     OW24607   0.641   0.887   1.498  0.2545 -0.4986  0.0298
 4382SOL    HW124608   0.547   0.873   1.515 -0.0989  1.3953 -0.3109
 4382SOL    HW224609   0.645   0.959   1.436 -1.1209  0.5005  1.0874
 4383SOL     OW24610   3.285   3.549   1.433  0.4829 -0.4518 -0.2111
 4383SOL    HW124611   3.337   3.612   1.384  2.7692 -2.4982 -0.4709
 4383SOL    HW224612   3.331   3.465   1.422 -2.2748 -1.8870 -0.7076
 4384SOL     OW24613   0.640   0.141   5.665  0.0292 -0.0010  0.4462
 4384SOL    HW124614   0.670   0.184   5.585  1.6909 -2.7265 -0.3865
 4384SOL    HW224615   0.720   0.099   5.696 -0.8941 -1.1220  1.2962
 4385SOL     OW24616   4.249   3.618   7.851  0.1804  0.2873  0.4202
 4385SOL    HW124617   4.185   3.591   7.784 -0.9135 -0.3363  1.7198
 4385SOL    HW224618   4.197   3.669   7.913 -1.4037  0.7679 -1.2899
 4386SOL     OW24619   0.128   0.290   7.916 -0.0509 -0.2017 -0.9565
 4386SOL    HW124620   0.199   0.355   7.911 -0.0693 -0.1790 -0.9191
 4386SOL    HW224621   0.165   0.205   7.890 -2.3633 -1.2776 -0.7437
 4387SOL     OW24622   3.358   1.085   8.812  0.5354 -0.4271  0.6274
 4387SOL    HW124623   3.278   1.040   8.840 -0.1574 -0.2945 -1.1577
 4387SOL    HW224624   3.336   1.178   8.809 -2.2287 -1.1548 -1.7910
 4388SOL     OW24625   4.552   2.016   8.540 -0.1056 -0.1417 -0.2738
 4388SOL    HW124626   4.569   1.933   8.586  0.1215  0.6804  1.1152
 4388SOL    HW224627   4.631   2.063   8.566 -0.3818 -0.8290  1.7984
 4389SOL     OW24628   3.878   0.681  11.454  0.2437 -0.6021  0.2078
 4389SOL    HW124629   3.810   0.658  11.391 -0.6079  0.5558  0.6967
 4389SOL    HW224630   3.961   0.674  11.407  0.2342 -1.9813  0.3989
 4390SOL     OW24631   1.529   0.087   6.026 -0.0433 -0.0608 -0.0348
 4390SOL    HW124632   1.565   0.090   5.937 -0.4497 -2.0745 -0.2665
 4390SOL    HW224633   1.587   0.021   6.064  1.1941  1.5992  0.9536
 4391SOL     OW24634   2.987   2.158  12.470  0.6072 -0.2068 -0.6073
 4391SOL    HW124635   2.897   2.184  12.487  0.2915 -0.7788 -1.4281
 4391SOL    HW224636   3.026   2.245  12.459 -0.1204  0.4159  1.8424
 4392SOL     OW24637   0.050   0.018   6.818 -0.5111  0.2081 -0.4329
 4392SOL    HW124638   0.082   0.050   6.733 -0.0318 -0.0858 -0.3618
 4392SOL    HW224639   0.096   0.083   6.871 -1.0368  0.2023  0.0271
 4393SOL     OW24640   2.045   1.726  10.355  0.2585 -0.6370 -0.3689
 4393SOL    HW124641   2.127   1.682  10.376  0.0292 -0.3536  1.1039
 4393SOL    HW224642   2.067   1.819  10.353 -0.1808 -0.5348 -0.3682
 4394SOL     OW24643   4.632   4.394   8.163  0.0872 -0.2190 -0.9338
 4394SOL    HW124644   4.590   4.316   8.127  1.0397 -0.6090 -1.1856
 4394SOL    HW224645   0.002   4.368   8.163  0.0992 -0.1643  0.1865
 4395SOL     OW24646   1.573   3.062   5.614 -0.0592 -0.2442 -0.5988
 4395SOL    HW124647   1.493   3.013   5.628  0.5589 -1.1881 -0.3976
 4395SOL    HW224648   1.625   3.008   5.554 -0.1354  0.5037 -1.3539
 4396SOL     OW24649   4.703   3.498  15.231  0.2265  0.0052 -0.7320
 4396SOL    HW124650   4.670   3.577  15.189 -1.4549  0.3339  1.2456
 4396SOL    HW224651   4.663   3.434  15.173 -1.0814  0.1393  0.0367
 4397SOL     OW24652   2.761   1.713   5.453  0.0384  0.1844 -0.5569
 4397SOL    HW124653   2.789   1.758   5.533 -1.0653  0.8944 -0.5674
 4397SOL    HW224654   2.808   1.631   5.464  0.8087  0.8568  1.1316
 4398SOL     OW24655   4.552   4.189   0.813  0.2299 -0.3503 -0.2111
 4398SOL    HW124656   4.571   4.243   0.737 -0.9396 -2.0954 -1.7311
 4398SOL    HW224657   4.471   4.236   0.836  2.0400  2.4244  0.5528
 4399SOL     OW24658   2.496   0.326   4.325  0.3627  0.0534  0.0651
 4399SOL    HW124659   2.415   0.373   4.343  0.8919  0.3322  1.6454
 4399SOL    HW224660   2.485   0.240   4.365 -1.4071  0.2399 -0.0089
 4400SOL     OW24661   1.548   4.283   3.508  0.2883 -0.7426 -0.7105
 4400SOL    HW124662   1.454   4.294   3.492  0.6164  2.8974 -0.1551
 4400SOL    HW224663   1.568   4.278   3.415 -0.7865 -0.4449 -0.9575
 4401SOL     OW24664   2.035   4.331   6.532  0.2473  0.0623  0.2045
 4401SOL    HW124665   2.042   4.291   6.445 -1.6641  0.9483 -0.3550
 4401SOL    HW224666   2.113   4.387   6.539  1.4714 -1.0795 -3.8406
 4402SOL     OW24667   2.408   3.125   6.596  0.2997  0.1665  0.0294
 4402SOL    HW124668   2.429   3.052   6.538 -0.1643 -1.9440  2.5489
 4402SOL    HW224669   2.371   3.080   6.672  1.0092  1.6496  1.2474
 4403SOL     OW24670   1.939   4.028   1.752  0.1032 -0.5881  0.0841
 4403SOL    HW124671   1.882   3.955   1.775  1.8030 -2.2690 -1.0024
 4403SOL    HW224672   1.876   4.075   1.698 -0.1795 -0.9193  0.1275
 4404SOL     OW24673   3.752   1.980  12.598  0.1661  0.5170 -0.5017
 4404SOL    HW124674   3.735   1.984  12.503  0.6928  0.0193 -0.6206
 4404SOL    HW224675   3.669   2.016  12.629 -0.7271 -1.6964 -0.3025
 4405SOL     OW24676   0.479   2.326  12.219 -0.2051 -0.3179  0.5941
 4405SOL    HW124677   0.556   2.379  12.200 -0.2092 -0.1678  0.9883
 4405SOL    HW224678   0.459   2.354  12.309 -1.8694 -0.7230  0.3433
 4406SOL     OW24679   4.535   1.991   5.702 -0.2860 -0.0948 -0.3704
 4406SOL    HW124680   4.519   2.055   5.633 -2.4034 -1.2348 -0.9683
 4406SOL    HW224681   4.560   1.916   5.647  2.9559  0.2473  0.6808
 4407SOL     OW24682   2.470   3.639   7.722 -0.8034 -0.6538 -0.8694
 4407SOL    HW124683   2.548   3.590   7.746 -1.1387 -1.0884 -0.6703
 4407SOL    HW224684   2.476   3.717   7.778  0.2716 -3.0695  2.3528
 4408SOL     OW24685   3.362   4.271  15.082  0.3588 -0.5836 -0.0596
 4408SOL    HW124686   3.319   4.185  15.080  4.1990 -2.5409  1.0695
 4408SOL    HW224687   3.396   4.279  14.993  0.5376 -0.5863  0.0088
 4409SOL     OW24688   4.555   2.962   7.001  0.3586  0.2475  0.4469
 4409SOL    HW124689   4.620   3.019   6.961  0.1643  0.1280 -0.0388
 4409SOL    HW224690   4.495   2.949   6.927 -1.1478 -0.0136  1.6933
 4410SOL     OW24691   2.836   3.546  15.466  0.7981  0.3704 -0.1458
 4410SOL    HW124692   2.861   3.586  15.383  0.0112 -0.2167 -0.6568
 4410SOL    HW224693   2.754   3.592  15.480  0.1097  0.0062 -3.0783
 4411SOL     OW24694   0.235   0.977  15.956 -0.0699  0.1384  0.1698
 4411SOL    HW124695   0.318   0.932  15.939  0.3712  1.8230 -2.1718
 4411SOL    HW224696   0.239   1.057  15.903 -0.4544  0.1022  0.0892
 4412SOL     OW24697   2.414   1.276  15.319 -0.1143  0.3019 -0.1810
 4412SOL    HW124698   2.407   1.209  15.387  1.2864  2.7878  2.4052
 4412SOL    HW224699   2.387   1.226  15.242 -0.8321  2.2391 -1.2093
 4413SOL     OW24700   3.037   4.292  15.242 -0.3349 -0.2551 -0.5871
 4413SOL    HW124701   3.054   4.218  15.300  0.1825  1.7696  1.8495
 4413SOL    HW224702   2.951   4.266  15.211 -0.2216 -1.2520 -0.0706
 4414SOL     OW24703   4.102   0.722  10.192  0.0842 -0.2977  0.0227
 4414SOL    HW124704   4.104   0.677  10.107 -2.8011 -1.1565  0.3991
 4414SOL    HW224705   4.035   0.790  10.178  0.7492  0.4500  0.4707
 4415SOL     OW24706   0.423   3.144   4.680 -0.3163 -0.4939 -0.0620
 4415SOL    HW124707   0.353   3.112   4.622  0.1991 -0.0939 -0.9028
 4415SOL    HW224708   0.448   3.059   4.716 -2.0060 -1.3557 -0.8913
 4416SOL     OW24709   0.277   3.744  14.190 -0.0012  0.3322 -0.3082
 4416SOL    HW124710   0.279   3.824  14.243  2.5210 -0.3273  0.5738
 4416SOL    HW224711   0.207   3.770  14.130  0.0304 -1.9256 -1.2943
 4417SOL     OW24712   2.005   2.728   0.875 -0.4780  0.1206  0.2604
 4417SOL    HW124713   2.094   2.702   0.853 -0.8398 -0.0562 -0.9901
 4417SOL    HW224714   1.960   2.697   0.796  0.8082 -2.5420  0.5748
 4418SOL     OW24715   1.199   2.527   6.306  0.1054 -0.6618 -0.1130
 4418SOL    HW124716   1.201   2.578   6.386  0.6983  0.3093 -0.7514
 4418SOL    HW224717   1.217   2.598   6.245 -1.5598  2.6116  3.2526
 4419SOL     OW24718   0.922   3.799   7.654 -0.0316  0.0880 -0.1703
 4419SOL    HW124719   0.924   3.742   7.731  2.4577  1.0411  0.4836
 4419SOL    HW224720   0.871   3.876   7.680  0.2288 -1.2517  4.3765
 4420SOL     OW24721   0.125   0.010   3.448  0.2056 -0.5383 -0.1465
 4420SOL    HW124722   0.144   0.073   3.379 -2.5089  0.2870 -0.1438
 4420SOL    HW224723   0.070   4.668   3.402 -0.9465  0.3834 -0.0675
 4421SOL     OW24724   0.805   2.595   8.042  0.3688  0.2776 -0.1380
 4421SOL    HW124725   0.850   2.613   8.123 -1.0241  0.7218  0.5416
 4421SOL    HW224726   0.878   2.596   7.980  0.1931 -0.4047 -0.3595
 4422SOL     OW24727   2.629   0.445   6.341 -0.6770 -0.3272 -0.3478
 4422SOL    HW124728   2.601   0.354   6.339 -0.7339 -0.2694 -1.8972
 4422SOL    HW224729   2.720   0.449   6.314 -0.6552  0.0419 -0.2248
 4423SOL     OW24730   4.589   0.972   4.116 -0.2520  0.0405 -0.7293
 4423SOL    HW124731   4.592   0.929   4.202  1.0907 -1.4091 -1.4917
 4423SOL    HW224732   4.506   0.937   4.084 -1.3718  1.7637  0.3439
 4424SOL     OW24733   3.985   4.588   3.296 -0.2367 -0.0990 -0.1427
 4424SOL    HW124734   3.930   4.556   3.367 -0.1311  0.7282  0.3100
 4424SOL    HW224735   4.035   4.650   3.349 -1.1530  1.2525 -0.8504
 4425SOL     OW24736   0.641   4.537  13.485 -0.4408 -0.3573  0.2576
 4425SOL    HW124737   0.622   4.599  13.414 -0.4361 -0.6323  0.0171
 4425SOL    HW224738   0.591   4.464  13.449  0.6466 -0.2458 -1.4951
 4426SOL     OW24739   2.601   4.517   6.281  0.0411  0.3802 -0.2629
 4426SOL    HW124740   2.622   4.440   6.229 -0.5185 -0.9708  1.5449
 4426SOL    HW224741   2.646   4.586   6.231  0.9983 -1.6882 -2.2317
 4427SOL     OW24742   3.761   3.109   1.478  0.2538 -0.3973  0.1171
 4427SOL    HW124743   3.730   3.028   1.520 -3.1005  0.7759 -0.0740
 4427SOL    HW224744   3.838   3.129   1.531 -0.2431 -0.1047  0.7341
 4428SOL     OW24745   2.777   3.361   0.830  0.3140  0.0476  0.6232
 4428SOL    HW124746   2.721   3.294   0.871  1.7960  0.2878  3.0837
 4428SOL    HW224747   2.854   3.312   0.801 -0.1468 -0.1655 -0.2413
 4429SOL     OW24748   2.628   3.411   4.309  0.3480 -0.1626 -0.4872
 4429SOL    HW124749   2.678   3.473   4.255 -0.3946 -0.1596 -1.1729
 4429SOL    HW224750   2.680   3.335   4.285  2.6900  1.0192  0.8393
 4430SOL     OW24751   3.517   2.170   8.630 -0.0086  0.4070 -0.3029
 4430SOL    HW124752   3.523   2.261   8.660  0.9941  1.1847 -2.8248
 4430SOL    HW224753   3.545   2.129   8.712  0.0048 -1.4214 -1.2274
 4431SOL     OW24754   3.302   3.156  16.077 -0.4005  0.2578  0.3978
 4431SOL    HW124755   3.268   3.067  16.075  1.7783 -0.6039  0.9021
 4431SOL    HW224756   3.382   3.137  16.027 -1.6019 -1.5217 -0.8636
 4432SOL     OW24757   1.950   1.347   0.165  0.0538 -0.1034  0.1777
 4432SOL    HW124758   1.854   1.342   0.168  0.1034 -1.2369  0.1263
 4432SOL    HW224759   1.974   1.365   0.256 -1.9989  2.3542  0.2376
 4433SOL     OW24760   0.285   1.555   0.208  0.1398 -0.0773 -0.7992
 4433SOL    HW124761   0.233   1.497   0.152 -1.4994 -0.0713  0.7349
 4433SOL    HW224762   0.373   1.535   0.174 -0.1862 -2.0639 -0.4935
 4434SOL     OW24763   2.091   4.294   5.423  0.0570 -0.0856  0.4388
 4434SOL    HW124764   2.016   4.274   5.368 -0.5772 -0.0186  1.2938
 4434SOL    HW224765   2.136   4.353   5.362 -0.7641 -0.3260 -0.3992
 4435SOL     OW24766   1.196   3.408   9.563  0.4395 -0.2461 -0.2434
 4435SOL    HW124767   1.187   3.429   9.470  1.0087  0.8689 -0.0460
 4435SOL    HW224768   1.281   3.364   9.559  1.4863  1.7465 -0.1975
 4436SOL     OW24769   2.594   3.459   6.324 -0.2372 -0.0701  0.5410
 4436SOL    HW124770   2.574   3.538   6.274  1.8494 -0.2591 -0.6095
 4436SOL    HW224771   2.603   3.492   6.413  0.1728  1.5651 -0.1088
 4437SOL     OW24772   1.996   4.384   4.792  0.5172  0.1775 -0.0697
 4437SOL    HW124773   1.901   4.389   4.788  0.5987 -0.5849 -2.6782
 4437SOL    HW224774   2.012   4.294   4.818  0.9791  0.3173  0.1403
 4438SOL     OW24775   3.843   3.256   8.603 -0.0873  0.4522 -0.2801
 4438SOL    HW124776   3.818   3.347   8.620  0.1981  0.2590  1.1876
 4438SOL    HW224777   3.922   3.278   8.554  1.0143 -1.0265  0.8484
 4439SOL     OW24778   2.530   1.673   1.629 -0.6866  0.7562 -0.0700
 4439SOL    HW124779   2.610   1.681   1.681 -0.2908 -1.5922 -0.3095
 4439SOL    HW224780   2.485   1.597   1.667  1.7179 -0.6531 -0.0995
 4440SOL     OW24781   1.938   2.133   7.737 -0.1240  0.3265 -0.6399
 4440SOL    HW124782   1.998   2.062   7.716 -1.2480 -0.8322  0.0644
 4440SOL    HW224783   1.956   2.133   7.831  1.2085 -0.3469 -0.8963
 4441SOL     OW24784   1.092   0.322   6.560 -0.1454 -0.4196 -0.6113
 4441SOL    HW124785   1.078   0.278   6.476  4.0907 -0.0179 -1.5633
 4441SOL    HW224786   1.011   0.371   6.572 -0.7440 -1.4761 -0.4092
 4442SOL     OW24787   4.618   3.456  10.775 -0.0232  0.3004  0.3548
 4442SOL    HW124788   4.535   3.455  10.823  0.6881 -1.6353  1.5365
 4442SOL    HW224789   4.641   3.365  10.757 -2.0746  0.0371 -0.9495
 4443SOL     OW24790   1.841   2.937   6.536  0.2856 -0.1453  0.4417
 4443SOL    HW124791   1.842   2.912   6.628  1.0968  0.1022  0.5013
 4443SOL    HW224792   1.758   2.895   6.513  1.1735 -0.7788 -1.6322
 4444SOL     OW24793   2.447   4.124   3.420 -0.0231 -0.6791  0.6955
 4444SOL    HW124794   2.539   4.142   3.402  0.4126 -2.7277  0.8999
 4444SOL    HW224795   2.428   4.207   3.463 -1.6697 -0.8015  0.2044
 4445SOL     OW24796   2.265   3.034   1.542  0.0120 -0.0163 -0.2325
 4445SOL    HW124797   2.210   2.958   1.527  1.6895 -0.6199 -3.4272
 4445SOL    HW224798   2.351   2.997   1.562  0.0265  1.8713  3.2115
 4446SOL     OW24799   3.571   2.059   3.570  0.3533  0.4947 -0.5269
 4446SOL    HW124800   3.660   2.025   3.558  1.0519  2.8977 -2.1138
 4446SOL    HW224801   3.523   1.978   3.549  0.7269  0.2596 -0.4683
 4447SOL     OW24802   1.438   3.261   2.815 -0.3772 -0.0389  0.3478
 4447SOL    HW124803   1.418   3.350   2.844 -0.2096  0.4785 -1.1305
 4447SOL    HW224804   1.411   3.260   2.723 -1.0824 -1.6773  0.5583
 4448SOL     OW24805   4.069   3.541   4.587  0.0460 -0.1529  0.0168
 4448SOL    HW124806   4.088   3.455   4.624  0.0380 -0.5047 -0.7925
 4448SOL    HW224807   4.015   3.508   4.515 -0.9570  2.4487 -0.4255
 4449SOL     OW24808   2.072   3.846   4.598 -0.5011  0.1121  0.0996
 4449SOL    HW124809   2.036   3.795   4.526 -1.3714  1.4677 -0.4221
 4449SOL    HW224810   2.054   3.936   4.570 -0.7360 -0.4246 -1.4769
 4450SOL     OW24811   2.571   3.068   6.060 -0.2236 -0.0520  0.6081
 4450SOL    HW124812   2.636   3.126   6.099  0.0292  0.7087 -0.9340
 4450SOL    HW224813   2.543   3.018   6.137  1.3229 -1.1246  0.4711
 4451SOL     OW24814   2.379   3.400   8.543 -0.2959  0.0974 -0.1085
 4451SOL    HW124815   2.368   3.483   8.589 -1.1210 -0.1036  0.0673
 4451SOL    HW224816   2.321   3.341   8.592  0.8767  0.4676  1.7005
 4452SOL     OW24817   1.542   4.285   2.486 -0.2410  0.2461  0.1626
 4452SOL    HW124818   1.469   4.314   2.431  0.1944  0.8536 -0.0862
 4452SOL    HW224819   1.606   4.268   2.417 -0.5680  0.7275 -0.2566
 4453SOL     OW24820   2.605   1.896   0.305 -0.0077  0.6204  0.2776
 4453SOL    HW124821   2.670   1.944   0.356 -0.3022  0.8761  0.4162
 4453SOL    HW224822   2.536   1.908   0.371  0.0494 -0.8533  0.6166
 4454SOL     OW24823   3.666   2.984   7.849  0.2697 -0.4037  0.0697
 4454SOL    HW124824   3.732   3.047   7.822 -1.6378  0.6679 -2.0525
 4454SOL    HW224825   3.615   2.984   7.769  3.1608 -0.0254 -1.7520
 4455SOL     OW24826   2.893   0.400   4.998 -0.3159 -0.2698  0.3576
 4455SOL    HW124827   2.813   0.397   5.051 -0.9261 -0.3704 -0.5597
 4455SOL    HW224828   2.884   0.482   4.950  0.2691 -0.6536 -0.4077
 4456SOL     OW24829   2.577   2.496   4.649  0.7427 -0.2780 -0.4904
 4456SOL    HW124830   2.529   2.442   4.586 -1.0722  1.1062 -0.3024
 4456SOL    HW224831   2.606   2.427   4.708 -1.6254 -1.5760 -0.8542
 4457SOL     OW24832   1.539   3.703   6.551  0.2047  0.1704  0.5582
 4457SOL    HW124833   1.573   3.623   6.592 -0.0372  0.2045  0.8227
 4457SOL    HW224834   1.568   3.682   6.463 -1.1614 -0.5458  0.2746
 4458SOL     OW24835   2.391   2.227   6.137  0.7760  0.1178  0.7985
 4458SOL    HW124836   2.326   2.157   6.129 -0.1325  1.2035 -1.2561
 4458SOL    HW224837   2.378   2.266   6.051 -0.8950  1.3697  1.6426
 4459SOL     OW24838   3.403   1.455   7.358 -0.1084  0.0988 -0.4151
 4459SOL    HW124839   3.482   1.407   7.382 -1.9502 -3.2493 -1.0020
 4459SOL    HW224840   3.413   1.530   7.417 -0.6495 -0.2167  0.0832
 4460SOL     OW24841   2.259   1.243   8.237  0.2347 -0.2916  0.1678
 4460SOL    HW124842   2.292   1.331   8.255  1.3618 -0.2347 -2.2477
 4460SOL    HW224843   2.168   1.263   8.213  0.1917  2.6619  2.7247
 4461SOL     OW24844   2.758   3.435   6.847 -0.1410 -0.6946 -0.1538
 4461SOL    HW124845   2.815   3.370   6.887  0.0691 -1.5785 -1.8834
 4461SOL    HW224846   2.809   3.516   6.857 -1.6612  0.4950 -1.8885
 4462SOL     OW24847   2.747   0.896  10.904 -0.2679 -0.1423 -0.6889
 4462SOL    HW124848   2.731   0.803  10.919 -4.4314  0.7918  0.7036
 4462SOL    HW224849   2.828   0.916  10.950 -1.2978 -1.7034  1.7864
 4463SOL     OW24850   0.834   2.865   4.153  0.4168 -0.4753  0.1029
 4463SOL    HW124851   0.895   2.921   4.105 -1.4021  0.8555 -0.6516
 4463SOL    HW224852   0.751   2.909   4.133  1.0482  1.3954  1.5095
 4464SOL     OW24853   1.528   1.958  15.189 -0.0684 -0.0060  0.2018
 4464SOL    HW124854   1.583   1.880  15.189 -0.5320 -0.3323 -0.4211
 4464SOL    HW224855   1.567   1.996  15.268 -0.1813  1.4633 -0.4466
 4465SOL     OW24856   2.700   4.218   1.527 -0.0950  0.1131 -0.4102
 4465SOL    HW124857   2.704   4.192   1.620  1.2785  0.3801 -0.3940
 4465SOL    HW224858   2.697   4.313   1.542 -0.8149  0.2327 -1.3092
 4466SOL     OW24859   0.525   1.170   0.995 -0.4869  0.0183 -0.5208
 4466SOL    HW124860   0.518   1.215   1.079  3.3588 -2.7849  1.3136
 4466SOL    HW224861   0.570   1.236   0.943 -2.1484  0.0928 -1.8407
 4467SOL     OW24862   0.454   0.427   2.064  0.6752  0.1735 -0.1263
 4467SOL    HW124863   0.502   0.379   2.131 -0.0011  0.5078  0.5893
 4467SOL    HW224864   0.411   0.361   2.009  1.0136 -1.2671  1.3630
 4468SOL     OW24865   2.234   3.505   7.779  0.2732 -0.4424  0.1839
 4468SOL    HW124866   2.288   3.450   7.835 -0.2467 -1.2116 -0.0559
 4468SOL    HW224867   2.298   3.565   7.741 -0.6740 -0.3962 -1.3622
 4469SOL     OW24868   1.534   4.699   8.680 -0.0260 -0.2914 -0.1926
 4469SOL    HW124869   1.510   4.671   8.591  1.3515  0.9473 -0.9600
 4469SOL    HW224870   1.471   0.045   8.700  0.7092  0.5903 -0.8422
 4470SOL     OW24871   3.935   2.071  17.340 -0.2573 -0.0969 -0.0650
 4470SOL    HW124872   4.009   2.018  17.369  1.5363  1.9953 -0.8286
 4470SOL    HW224873   3.884   2.001  17.300 -0.2358 -0.5644  0.7292
 4471SOL     OW24874   3.420   0.183   5.494  0.2762 -0.2317  0.6373
 4471SOL    HW124875   3.380   0.098   5.476  0.3117 -0.2779  0.7720
 4471SOL    HW224876   3.353   0.250   5.483  1.4304  0.6157 -1.2094
 4472SOL     OW24877   2.339   3.103   1.104  0.1459 -0.1204 -1.0305
 4472SOL    HW124878   2.324   3.146   1.021 -2.6545  2.6177  0.8863
 4472SOL    HW224879   2.336   3.011   1.076 -1.4128 -0.1785 -0.6768
 4473SOL     OW24880   1.178   1.796  10.777 -0.4100 -0.0723  0.3938
 4473SOL    HW124881   1.245   1.760  10.720  0.7225  0.3038  1.5053
 4473SOL    HW224882   1.111   1.829  10.716 -1.0172 -0.2054  0.9786
 4474SOL     OW24883   1.011   0.411   5.164 -0.6694 -0.3295  0.0616
 4474SOL    HW124884   1.054   0.430   5.247  1.3153 -0.4374 -0.9433
 4474SOL    HW224885   1.039   0.323   5.138 -1.9837 -0.6535 -0.2892
 4475SOL     OW24886   2.003   4.385   9.395 -0.2711  0.2513  0.5294
 4475SOL    HW124887   2.004   4.471   9.354  0.6345 -0.1494 -0.3040
 4475SOL    HW224888   2.073   4.341   9.346  0.0647  0.3705  0.8990
 4476SOL     OW24889   4.305   3.038  11.712  0.1264 -0.0273  0.4459
 4476SOL    HW124890   4.331   2.996  11.794  3.2805  0.1169 -0.4842
 4476SOL    HW224891   4.217   3.005  11.696 -0.0769  0.7211  0.0065
 4477SOL     OW24892   1.864   2.281  17.674  0.0977 -0.0564 -0.8476
 4477SOL    HW124893   1.797   2.337  17.634  1.2426 -0.6273 -3.5690
 4477SOL    HW224894   1.846   2.300   0.075 -0.9063  0.0916 -1.0756
 4478SOL     OW24895   2.899   1.407  12.873  0.1975  0.2497 -0.0546
 4478SOL    HW124896   2.866   1.318  12.880  0.9161 -0.0453 -0.4421
 4478SOL    HW224897   2.881   1.423  12.781  1.2769 -0.4769 -0.4010
 4479SOL     OW24898   3.483   3.854   9.132 -0.1118  0.1317 -0.1360
 4479SOL    HW124899   3.492   3.939   9.175  0.1890 -0.7730  1.5405
 4479SOL    HW224900   3.538   3.861   9.054  0.4067 -1.9413  0.0416
 4480SOL     OW24901   3.092   1.262   1.900 -0.3342  0.4469  0.0091
 4480SOL    HW124902   3.187   1.259   1.894 -0.3992 -0.4041 -0.6070
 4480SOL    HW224903   3.087   1.210   1.820  1.1023  1.1313 -0.5124
 4481SOL     OW24904   0.793   0.897   6.255 -0.0707 -0.1282 -0.3011
 4481SOL    HW124905   0.847   0.952   6.198 -1.1691  2.8676  1.5369
 4481SOL    HW224906   0.824   0.810   6.229 -1.5286 -0.9875  0.8859
 4482SOL     OW24907   3.629   2.097  14.523 -0.2335  0.5962 -0.2979
 4482SOL    HW124908   3.596   2.146  14.598  0.1190 -0.5530  0.5972
 4482SOL    HW224909   3.724   2.104  14.520 -0.2801  0.3992 -2.1698
 4483SOL     OW24910   3.006   2.306   6.124  0.0220 -0.0899 -0.3562
 4483SOL    HW124911   2.947   2.381   6.135 -1.2006 -1.5796  2.9867
 4483SOL    HW224912   3.025   2.324   6.032  0.3442  0.5863 -0.1537
 4484SOL     OW24913   0.985   2.384   5.317  0.1717 -0.1853  0.1390
 4484SOL    HW124914   1.017   2.473   5.302  1.5697 -0.6594  0.3485
 4484SOL    HW224915   0.932   2.363   5.239 -0.9847  1.2131  0.5469
 4485SOL     OW24916   4.339   0.646   4.840  0.3729 -0.5283  0.3230
 4485SOL    HW124917   4.262   0.668   4.788 -0.2992  3.8518  3.1983
 4485SOL    HW224918   4.408   0.662   4.775  0.4106 -1.1310  0.2121
 4486SOL     OW24919   0.822   2.245  14.087  0.1144  0.4717  0.7552
 4486SOL    HW124920   0.892   2.308  14.105  0.6248  1.0761 -3.3413
 4486SOL    HW224921   0.763   2.300  14.035  0.2184  0.9580  1.1576
 4487SOL     OW24922   1.891   3.266  13.319  0.2613  0.4334  0.3629
 4487SOL    HW124923   1.890   3.183  13.365  0.6705  1.5317  2.3795
 4487SOL    HW224924   1.805   3.265  13.278  0.6898 -0.8281 -0.4854
 4488SOL     OW24925   2.268   2.458  13.489 -0.4028 -0.3192 -0.2143
 4488SOL    HW124926   2.363   2.452  13.496 -0.3484  1.4151  0.5357
 4488SOL    HW224927   2.267   2.549  13.462  1.5248 -0.8443 -1.9684
 4489SOL     OW24928   1.416   3.134   6.470  0.1664 -0.4471  0.1501
 4489SOL    HW124929   1.435   3.216   6.516 -1.0691  0.3062 -0.7105
 4489SOL    HW224930   1.498   3.123   6.422 -0.4580 -1.8436 -0.5960
 4490SOL     OW24931   2.145   1.006   3.838 -0.7253 -0.2090  0.2480
 4490SOL    HW124932   2.228   0.965   3.815  0.3485  1.6847  0.7349
 4490SOL    HW224933   2.132   1.070   3.767  2.0030  2.0672  1.8127
 4491SOL     OW24934   3.329   4.132  15.453 -0.1442  0.3443  0.6554
 4491SOL    HW124935   3.319   4.056  15.397  2.2850  0.2792  0.3024
 4491SOL    HW224936   3.286   4.196  15.397 -0.9577  0.2076  1.1329
 4492SOL     OW24937   1.432   3.671   0.855  0.7573  0.8457  0.6577
 4492SOL    HW124938   1.426   3.575   0.857  1.8533  0.8196  2.1427
 4492SOL    HW224939   1.346   3.690   0.894  0.2549  0.1564 -0.0941
 4493SOL     OW24940   3.372   4.105   6.292 -0.3722  0.1750 -0.5623
 4493SOL    HW124941   3.424   4.026   6.307 -0.4846  0.6172  2.0856
 4493SOL    HW224942   3.400   4.155   6.369  0.0791  1.8559 -1.8026
 4494SOL     OW24943   2.432   1.587  15.226  0.1196 -0.1161  0.1841
 4494SOL    HW124944   2.410   1.579  15.319  2.1498 -0.7361  0.6091
 4494SOL    HW224945   2.516   1.540  15.221  1.2297  1.9585 -0.4652
 4495SOL     OW24946   0.282   1.700  13.811 -0.7661  0.3637 -0.6303
 4495SOL    HW124947   0.314   1.614  13.835  2.7038  2.1321  1.0388
 4495SOL    HW224948   0.266   1.734  13.899 -1.3863  2.1854 -1.4442
 4496SOL     OW24949   1.583   0.185   2.802 -0.5364  0.2305 -0.4217
 4496SOL    HW124950   1.585   0.113   2.739  2.5182  0.9248 -1.1304
 4496SOL    HW224951   1.491   0.178   2.826 -0.1088 -1.4445  0.7382
 4497SOL     OW24952   2.075   2.257   6.628 -0.8650  0.1097 -0.3896
 4497SOL    HW124953   2.088   2.328   6.691  0.2212 -0.8770  0.5000
 4497SOL    HW224954   1.981   2.257   6.610 -1.3230  1.3831  1.9905
 4498SOL     OW24955   3.023   1.568   4.430 -0.3519 -0.1525 -0.0931
 4498SOL    HW124956   3.097   1.524   4.472 -0.0562  0.0461 -0.4089
 4498SOL    HW224957   2.957   1.504   4.455  0.3162 -1.8839 -2.7651
 4499SOL     OW24958   3.824   4.591   6.461  0.3623  0.0206  0.1322
 4499SOL    HW124959   3.839   4.680   6.430 -1.0811  0.6900  1.3384
 4499SOL    HW224960   3.784   4.601   6.547 -1.2357 -0.4856 -0.5590
 4500SOL     OW24961   0.581   3.792  14.411  0.0865 -0.3323 -0.1843
 4500SOL    HW124962   0.582   3.781  14.506  0.5053 -1.8967 -0.3708
 4500SOL    HW224963   0.504   3.845  14.393 -0.2598 -0.6538  0.3334
 4501SOL     OW24964   4.172   4.586   6.974  0.5142 -0.0170  0.0408
 4501SOL    HW124965   4.163   4.631   6.890 -0.1594 -0.0409  0.0948
 4501SOL    HW224966   4.231   4.637   7.029  0.2995  0.2550  0.0186
 4502SOL     OW24967   2.081   2.358   8.185  0.4135  0.2422 -0.0804
 4502SOL    HW124968   2.021   2.368   8.259  0.2837  2.9977 -0.5671
 4502SOL    HW224969   2.056   2.444   8.151  2.6385 -0.2476 -2.9246
 4503SOL     OW24970   1.182   2.985  15.324 -0.6004  0.3594  0.1935
 4503SOL    HW124971   1.210   2.962  15.413  0.0267 -4.2722 -1.1750
 4503SOL    HW224972   1.171   2.897  15.288  1.0088 -0.2110  1.0897
 4504SOL     OW24973   0.854   0.433   6.606  0.3293  0.3609 -0.2556
 4504SOL    HW124974   0.790   0.466   6.543  1.0659  1.3225 -0.4920
 4504SOL    HW224975   0.833   0.474   6.690  1.3182  0.8478 -0.2492
 4505SOL     OW24976   3.975   3.904   6.785  0.4213  0.2449  0.1628
 4505SOL    HW124977   4.027   3.958   6.725  0.9398 -1.5379 -0.9708
 4505SOL    HW224978   4.000   3.944   6.868  0.1852  2.3045 -0.7583
 4506SOL     OW24979   4.509   4.617   8.103 -0.5139 -0.4337  0.2649
 4506SOL    HW124980   4.463   4.608   8.020  2.4949 -1.6220 -1.2839
 4506SOL    HW224981   4.561   4.537   8.115  1.8260  1.1213  0.6313
 4507SOL     OW24982   2.844   1.068   0.551  0.3340  0.2809  0.7924
 4507SOL    HW124983   2.908   1.136   0.570  0.7626 -0.0740  0.6247
 4507SOL    HW224984   2.865   1.048   0.460  0.0432 -0.8132  0.9665
 4508SOL     OW24985   3.412   3.316   1.354 -0.3195  0.2852  0.1989
 4508SOL    HW124986   3.348   3.314   1.283  1.4798  0.6624 -1.4257
 4508SOL    HW224987   3.483   3.263   1.317 -1.5430 -2.2736  1.4707
 4509SOL     OW24988   2.246   0.417   4.345 -0.1556 -0.0732 -0.1933
 4509SOL    HW124989   2.202   0.359   4.407  0.3280  1.1690  1.3078
 4509SOL    HW224990   2.194   0.496   4.361 -0.3842 -0.5180  1.2761
 4510SOL     OW24991   3.057   0.836   2.712 -0.5503 -0.2712  0.0637
 4510SOL    HW124992   3.130   0.874   2.760 -0.1572 -2.6893  1.3865
 4510SOL    HW224993   3.038   0.759   2.765 -0.0709 -0.0306  0.5822
 4511SOL     OW24994   0.785   1.156   3.469 -0.4207  0.3162 -0.2898
 4511SOL    HW124995   0.797   1.152   3.564  2.2562  0.5799 -0.6248
 4511SOL    HW224996   0.875   1.135   3.446  0.0814  0.4194  1.5830
 4512SOL     OW24997   2.137   3.789   8.568  0.2488 -0.1193  0.0588
 4512SOL    HW124998   2.111   3.871   8.528  0.0486  0.8588  2.1976
 4512SOL    HW224999   2.079   3.732   8.518 -0.1491  1.9818 -1.8556
 4513SOL     OW25000   0.822   2.598   9.386  0.1917  0.3249  0.3234
 4513SOL    HW125001   0.820   2.505   9.405  0.7081 -0.0172 -1.2959
 4513SOL    HW225002   0.849   2.642   9.467  3.5414 -1.2890  0.0696
 4514SOL     OW25003   0.606   3.387  15.796 -0.7268 -0.2280 -0.4177
 4514SOL    HW125004   0.566   3.332  15.863 -0.5484 -0.3406 -0.4052
 4514SOL    HW225005   0.625   3.314  15.737 -0.4123 -0.7072  0.2796
 4515SOL     OW25006   4.536   4.336  11.014  0.4124  0.0098 -0.1509
 4515SOL    HW125007   4.547   4.430  11.001  1.1350  0.0350  0.6620
 4515SOL    HW225008   4.464   4.318  10.952  0.5166 -1.9335  0.2934
 4516SOL     OW25009   3.012   0.948  13.878 -0.2317 -0.8361 -0.2623
 4516SOL    HW125010   3.006   0.962  13.973 -0.7791 -3.2983  0.0533
 4516SOL    HW225011   3.026   0.854  13.863 -0.3929 -0.8330 -0.4236
 4517SOL     OW25012   1.327   3.202   6.960 -0.3701  0.2501 -0.5825
 4517SOL    HW125013   1.287   3.254   7.030  1.2820  1.4379 -0.5250
 4517SOL    HW225014   1.302   3.254   6.884  0.5694  1.4584 -0.0742
 4518SOL     OW25015   1.005   1.105   6.437  0.1198 -0.2509 -0.0990
 4518SOL    HW125016   0.982   1.093   6.345  3.6526  1.7798 -1.2867
 4518SOL    HW225017   1.033   1.197   6.443  4.0602 -1.4796  0.0809
 4519SOL     OW25018   2.116   0.267   3.650  0.3302  0.1245  0.3305
 4519SOL    HW125019   2.183   0.214   3.606 -0.0669 -0.6811  0.7038
 4519SOL    HW225020   2.039   0.249   3.596  0.5681  2.8797 -0.9038
 4520SOL     OW25021   4.113   3.156   9.061 -0.2557 -0.1378  0.3447
 4520SOL    HW125022   4.155   3.188   8.981  0.4626 -0.5494  0.5618
 4520SOL    HW225023   4.185   3.150   9.124 -1.2772 -0.5288  1.4810
 4521SOL     OW25024   4.285   0.823  13.675  0.5477 -0.4514  0.2878
 4521SOL    HW125025   4.222   0.822  13.747  0.1687 -0.7207 -0.0492
 4521SOL    HW225026   4.224   0.817  13.601 -0.5243  1.6376  1.0155
 4522SOL     OW25027   2.681   2.137   6.990 -0.7553 -0.2052  0.3715
 4522SOL    HW125028   2.710   2.047   7.007 -0.4050  0.5489  3.7145
 4522SOL    HW225029   2.721   2.156   6.906 -1.7333  0.0104 -0.0526
 4523SOL     OW25030   3.809   3.517   8.687 -0.4013  0.1772 -0.0674
 4523SOL    HW125031   3.855   3.578   8.630 -1.3748 -0.3107 -1.4119
 4523SOL    HW225032   3.730   3.571   8.693 -0.7440 -0.0822 -1.9834
 4524SOL     OW25033   2.801   1.893   7.215 -0.2066  0.1549  0.0656
 4524SOL    HW125034   2.725   1.864   7.166 -1.0414 -0.9188  1.9879
 4524SOL    HW225035   2.864   1.880   7.144 -1.2716  1.5809 -1.1366
 4525SOL     OW25036   0.861   2.602   2.023  0.2228 -0.4225 -0.5352
 4525SOL    HW125037   0.787   2.654   2.054 -1.5779 -2.1170 -2.0508
 4525SOL    HW225038   0.928   2.661   2.060  0.1071 -2.3294  2.7617
 4526SOL     OW25039   1.717   2.386  10.911 -0.6146 -0.4588 -0.4501
 4526SOL    HW125040   1.715   2.479  10.889  1.0036 -0.3239  0.0217
 4526SOL    HW225041   1.627   2.363  10.933 -0.3194 -1.3299 -0.1268
 4527SOL     OW25042   0.256   1.046  12.046  0.7301 -0.0532  0.0899
 4527SOL    HW125043   0.258   0.951  12.038 -1.1904 -0.0091 -1.0788
 4527SOL    HW225044   0.175   1.056  11.995  0.7486  2.8710  0.6172
 4528SOL     OW25045   3.896   1.943   3.173 -0.0462  0.1602 -0.3317
 4528SOL    HW125046   3.834   2.002   3.216  0.0379  0.6862 -0.9143
 4528SOL    HW225047   3.837   1.878   3.136 -1.9046  0.0932  2.8154
 4529SOL     OW25048   1.554   0.962   2.998  0.1774  0.2559 -0.6268
 4529SOL    HW125049   1.602   0.880   3.003 -0.5030 -0.0686  0.6732
 4529SOL    HW225050   1.488   0.947   3.067  0.0270 -2.0456 -1.2694
 4530SOL     OW25051   2.741   2.802   1.305  0.8120  0.3167 -0.0980
 4530SOL    HW125052   2.708   2.880   1.259  0.4870  0.5260  0.4874
 4530SOL    HW225053   2.666   2.744   1.292  1.4109 -0.1227 -1.5132
 4531SOL     OW25054   4.526   3.824   6.625  0.4825  0.2669  0.3879
 4531SOL    HW125055   4.450   3.863   6.668 -0.3256  0.0001 -0.8083
 4531SOL    HW225056   4.555   3.881   6.555  1.1028  1.8119  1.8950
 4532SOL     OW25057   1.782   2.847   9.515  0.0074  0.5105  0.0866
 4532SOL    HW125058   1.856   2.901   9.544  0.1852  0.5714 -0.4918
 4532SOL    HW225059   1.759   2.795   9.592  0.0194 -0.4923 -0.5990
 4533SOL     OW25060   0.323   1.552  16.574 -0.5776 -0.5449 -0.1668
 4533SOL    HW125061   0.324   1.637  16.618 -1.2231 -1.0757  0.8777
 4533SOL    HW225062   0.243   1.554  16.522 -1.7728 -0.8137  1.6542
 4534SOL     OW25063   3.592   0.325  10.084  0.0028 -0.1919 -0.0060
 4534SOL    HW125064   3.681   0.290  10.095  0.4502  0.7486 -0.5328
 4534SOL    HW225065   3.569   0.302   9.994  1.1897 -1.0527 -0.0937
 4535SOL     OW25066   2.027   1.626  11.158 -0.6578 -0.3971 -0.4317
 4535SOL    HW125067   2.018   1.707  11.108 -0.4936  0.8268  1.5454
 4535SOL    HW225068   1.955   1.639  11.219 -0.9565  1.6788 -1.2097
 4536SOL     OW25069   0.697   2.939   0.027 -0.3524  0.1271 -0.1829
 4536SOL    HW125070   0.727   2.857   0.067 -1.2999 -0.4878 -0.7286
 4536SOL    HW225071   0.724   2.924  17.627  0.3803  2.5821 -0.3457
 4537SOL     OW25072   0.398   4.124   8.087 -0.0414 -0.4930  0.2652
 4537SOL    HW125073   0.454   4.192   8.051 -1.1917 -0.7755 -2.0619
 4537SOL    HW225074   0.452   4.085   8.156 -0.8376  0.2325  1.3002
 4538SOL     OW25075   3.153   0.177   6.351 -0.4712  0.6860  0.0461
 4538SOL    HW125076   3.183   0.110   6.289  1.6462  0.1945  1.6093
 4538SOL    HW225077   3.228   0.176   6.410 -1.9349 -0.3078  1.8706
 4539SOL     OW25078   2.425   3.521   3.519 -0.1868 -0.0156  0.5191
 4539SOL    HW125079   2.330   3.517   3.509  0.0503  1.2690 -2.1745
 4539SOL    HW225080   2.463   3.442   3.483  0.9613  0.1470  1.3856
 4540SOL     OW25081   3.532   4.531   2.135  0.1451 -0.3177  0.0740
 4540SOL    HW125082   3.545   4.436   2.142 -0.6473 -0.5364 -1.1927
 4540SOL    HW225083   3.590   4.561   2.204 -0.9444  0.4171  0.6794
 4541SOL     OW25084   4.568   3.686  11.001 -0.8966  0.1992  0.7247
 4541SOL    HW125085   4.507   3.649  11.065  0.3330 -2.7835  0.1544
 4541SOL    HW225086   4.573   3.769  11.048  1.8801  0.6723 -0.4301
 4542SOL     OW25087   3.379   4.124   7.054  0.3609  0.4445 -0.2489
 4542SOL    HW125088   3.355   4.033   7.037 -1.5502  0.6027  1.6775
 4542SOL    HW225089   3.453   4.136   6.993  1.1359  2.0100  1.0154
 4543SOL     OW25090   4.395   4.242   6.754  0.2391  0.0978 -0.3036
 4543SOL    HW125091   4.319   4.250   6.697 -1.1011  0.1232  1.4555
 4543SOL    HW225092   4.353   4.228   6.839  0.9395  2.1719  0.3965
 4544SOL     OW25093   2.652   3.666  15.756  0.5459  0.1204 -0.0730
 4544SOL    HW125094   2.700   3.663  15.674 -0.4777  1.6861 -0.7425
 4544SOL    HW225095   2.562   3.685  15.727 -0.6811 -3.0068  1.6744
 4545SOL     OW25096   3.405   0.914   7.694  0.3042 -0.3157  0.2185
 4545SOL    HW125097   3.490   0.870   7.697 -0.6354 -2.0865  0.5868
 4545SOL    HW225098   3.354   0.836   7.715 -0.3057  0.1981  0.6504
 4546SOL     OW25099   2.312   4.381  17.031  0.1985  0.0283  0.1082
 4546SOL    HW125100   2.323   4.404  16.939  2.5804  0.6946  0.5435
 4546SOL    HW225101   2.220   4.402  17.042 -0.5667 -2.8629 -0.8213
 4547SOL     OW25102   1.494   4.041  17.166 -0.0575  0.1426  0.3200
 4547SOL    HW125103   1.425   4.040  17.231  1.6020 -0.6369  2.0803
 4547SOL    HW225104   1.459   3.981  17.100  1.0943 -0.4913  0.2708
 4548SOL     OW25105   4.412   2.323  10.006  0.3411  0.0112  0.2276
 4548SOL    HW125106   4.484   2.261   9.997  1.2473  0.7567  2.2910
 4548SOL    HW225107   4.361   2.281  10.076 -2.4155 -1.0095 -2.3991
 4549SOL     OW25108   2.425   4.395   3.554 -0.2730  0.7313  0.1375
 4549SOL    HW125109   2.358   4.387   3.621 -0.4402 -0.9488 -0.2112
 4549SOL    HW225110   2.499   4.421   3.609 -0.3683  0.9170  0.1785
 4550SOL     OW25111   1.492   2.204   4.137  0.5481  0.3742  0.4427
 4550SOL    HW125112   1.498   2.237   4.226 -1.1286 -1.4552  1.2219
 4550SOL    HW225113   1.454   2.279   4.090  0.6873 -0.6593 -1.3149
 4551SOL     OW25114   3.491   3.730   4.620  0.4669 -0.0706 -0.4547
 4551SOL    HW125115   3.420   3.724   4.556  0.7436 -1.9225 -0.5730
 4551SOL    HW225116   3.481   3.822   4.646 -0.3277  0.1871 -1.6432
 4552SOL     OW25117   2.698   1.900   1.441 -0.6292  0.6586  0.3593
 4552SOL    HW125118   2.616   1.881   1.485  0.0172 -1.1734  0.7688
 4552SOL    HW225119   2.671   1.888   1.350  1.2788  0.9285 -0.2444
 4553SOL     OW25120   4.365   1.438   7.614  0.3617 -0.6872  0.6905
 4553SOL    HW125121   4.300   1.370   7.595 -2.1578  2.0279 -0.4161
 4553SOL    HW225122   4.374   1.448   7.708  0.0621  2.1484  0.4204
 4554SOL     OW25123   1.952   4.062  13.614  0.2912  0.8369  0.5101
 4554SOL    HW125124   1.967   4.156  13.611  0.2167  0.7511 -2.6693
 4554SOL    HW225125   1.910   4.046  13.530  1.3795  1.5236 -0.1671
 4555SOL     OW25126   1.243   1.192   3.301  0.1244  0.5580 -0.6438
 4555SOL    HW125127   1.247   1.177   3.207 -2.4923 -3.2158 -0.1573
 4555SOL    HW225128   1.183   1.265   3.315 -0.8723 -0.4123  0.0989
 4556SOL     OW25129   0.726   3.598   6.511  0.5927  0.5050 -0.1401
 4556SOL    HW125130   0.716   3.665   6.578  0.7638 -1.1015  1.4971
 4556SOL    HW225131   0.819   3.589   6.530  0.7939 -0.3204 -1.4757
 4557SOL     OW25132   4.126   3.952   5.976  0.3350 -0.1596  0.5339
 4557SOL    HW125133   4.057   3.977   5.914  1.4981  2.0423  0.1271
 4557SOL    HW225134   4.066   3.911   6.038  0.4802  1.2541  1.6018
 4558SOL     OW25135   2.584   4.641  12.968  0.0237  0.1164 -0.1785
 4558SOL    HW125136   2.505   4.615  12.921 -0.1530  2.7769 -1.3031
 4558SOL    HW225137   2.572   4.598  13.053 -0.0518  1.3408  0.4307
 4559SOL     OW25138   1.365   1.573  11.870  0.4033  0.5282  0.0563
 4559SOL    HW125139   1.347   1.651  11.923  0.2791  0.8976 -0.5334
 4559SOL    HW225140   1.352   1.613  11.784 -1.2620 -1.5852 -0.6666
 4560SOL     OW25141   2.517   4.689   6.496 -0.2509  0.2244  0.0338
 4560SOL    HW125142   2.539   4.626   6.428 -0.0433  0.8044 -0.4415
 4560SOL    HW225143   2.506   4.629   6.569  1.4991  0.1790  0.2653
 4561SOL     OW25144   4.627   3.544   9.698 -0.3192  0.4271 -0.1093
 4561SOL    HW125145   4.632   3.474   9.764  3.5999  1.2276  0.4571
 4561SOL    HW225146   4.656   3.488   9.626 -0.2216  0.8258 -0.3818
 4562SOL     OW25147   0.500   2.345   7.414  0.2956  0.2356  0.1998
 4562SOL    HW125148   0.424   2.397   7.440  0.1027  0.7732 -1.3973
 4562SOL    HW225149   0.530   2.388   7.334 -0.9880  0.0477 -0.3771
 4563SOL     OW25150   4.570   3.726   5.827  0.5054 -0.6036 -0.5753
 4563SOL    HW125151   4.606   3.766   5.748  1.4282  0.7422  0.5212
 4563SOL    HW225152   4.524   3.797   5.872  1.5240 -1.6589  2.1155
 4564SOL     OW25153   4.654   3.414  13.117 -0.3318  0.3886  0.4888
 4564SOL    HW125154   4.651   3.490  13.174  0.1213  0.6217  0.1982
 4564SOL    HW225155   4.586   3.435  13.053 -0.2967  1.1279  0.6973
 4565SOL     OW25156   4.016   3.774   4.441  0.9280 -0.2344 -0.6167
 4565SOL    HW125157   4.050   3.715   4.509 -1.9043 -2.7384 -1.4219
 4565SOL    HW225158   4.053   3.739   4.360  0.8641  0.7485 -1.0595
 4566SOL     OW25159   0.565   4.398   2.827  0.1085  0.3250 -0.2494
 4566SOL    HW125160   0.592   4.307   2.812 -2.5225 -0.8117  1.8849
 4566SOL    HW225161   0.630   4.447   2.778  0.2289  1.7838  1.3557
 4567SOL     OW25162   3.831   1.377  16.280  0.1341 -0.3649 -0.1160
 4567SOL    HW125163   3.759   1.336  16.329 -0.1767 -0.2188 -0.4464
 4567SOL    HW225164   3.910   1.358  16.331 -0.0035 -4.0414 -1.2520
 4568SOL     OW25165   1.179   1.492   7.038  0.3224 -0.5961  0.7620
 4568SOL    HW125166   1.258   1.475   7.089  0.4125 -2.3449  0.0279
 4568SOL    HW225167   1.215   1.503   6.950 -0.8096  2.9848  0.7227
 4569SOL     OW25168   1.975   0.212   7.541  0.2136 -0.2536 -0.0551
 4569SOL    HW125169   1.958   0.159   7.619  2.8445 -0.5214  0.3420
 4569SOL    HW225170   1.903   0.275   7.545 -1.4414 -2.1774  0.9570
 4570SOL     OW25171   0.271   1.771  16.710 -0.3006 -0.4259  0.0584
 4570SOL    HW125172   0.245   1.863  16.715  1.2853 -0.0350  0.8415
 4570SOL    HW225173   0.244   1.744  16.799  0.2505 -0.5150  0.1974
 4571SOL     OW25174   0.338   2.270  13.307 -0.1531 -0.3938 -0.1052
 4571SOL    HW125175   0.350   2.176  13.323  0.6062 -0.1439  0.7824
 4571SOL    HW225176   0.244   2.279  13.290  0.0074  1.9775  0.3070
 4572SOL     OW25177   3.960   3.312   5.681 -0.0376  0.2049  0.0763
 4572SOL    HW125178   4.020   3.384   5.666 -0.0795 -0.2555 -2.3297
 4572SOL    HW225179   3.959   3.309   5.776 -0.7186 -0.6352  0.0494
 4573SOL     OW25180   3.640   1.521   6.385  0.2711 -0.0270  0.7296
 4573SOL    HW125181   3.599   1.462   6.448 -0.6421 -2.6460 -2.3228
 4573SOL    HW225182   3.641   1.612   6.415 -1.2781 -0.2600  1.4459
 4574SOL     OW25183   0.982   1.659  16.137 -0.2882  0.2120  0.1411
 4574SOL    HW125184   0.911   1.623  16.189 -0.9237  2.4320  0.7895
 4574SOL    HW225185   0.970   1.752  16.157 -1.0356  0.3567 -0.9805
 4575SOL     OW25186   3.713   3.153   7.004  0.0439 -0.3961  0.2474
 4575SOL    HW125187   3.702   3.195   6.918 -1.6688 -0.2056  0.5514
 4575SOL    HW225188   3.722   3.227   7.064  2.4472  0.5862 -1.3369
 4576SOL     OW25189   4.326   0.837  11.516 -0.0363  0.4569  0.4956
 4576SOL    HW125190   4.275   0.894  11.574  0.7038  2.3553 -0.6887
 4576SOL    HW225191   4.333   0.760  11.572  0.0941  0.7605  0.8989
 4577SOL     OW25192   0.605   3.788   4.956 -0.0193  0.3553  0.0153
 4577SOL    HW125193   0.539   3.849   4.924  0.6963  0.4569 -1.2878
 4577SOL    HW225194   0.681   3.799   4.898 -1.3650  1.8416 -1.4809
 4578SOL     OW25195   0.377   1.829   6.112  0.2566 -0.0275  0.5829
 4578SOL    HW125196   0.369   1.894   6.042  0.0331 -0.3904  0.2689
 4578SOL    HW225197   0.472   1.833   6.119  0.1144 -0.4560  2.7422
 4579SOL     OW25198   4.642   2.352   9.392 -0.0341 -0.0542 -0.1341
 4579SOL    HW125199   0.004   2.361   9.436 -0.7471  2.0184  0.8342
 4579SOL    HW225200   4.598   2.431   9.424 -0.4837  0.9544 -3.2210
 4580SOL     OW25201   1.922   1.813  13.962 -0.1231 -0.0056  0.0301
 4580SOL    HW125202   1.848   1.835  14.018 -0.3683  2.4343 -1.2652
 4580SOL    HW225203   2.002   1.823  14.015 -1.3664 -0.5580  1.9933
 4581SOL     OW25204   1.017   4.107   3.499  0.1259  0.0037  0.4951
 4581SOL    HW125205   1.061   4.035   3.546  1.2781  0.2464 -0.1987
 4581SOL    HW225206   1.087   4.115   3.434 -1.2351  1.0003 -0.8326
 4582SOL     OW25207   1.275   3.997   3.661  0.0771  0.2516 -0.3252
 4582SOL    HW125208   1.266   3.902   3.665 -1.6673  0.3257 -2.5736
 4582SOL    HW225209   1.368   4.012   3.645  0.1430  0.8218  0.5948
 4583SOL     OW25210   4.390   4.509  14.811  0.2056  0.3359  0.1672
 4583SOL    HW125211   4.344   4.460  14.744 -1.6917 -1.3562  2.7359
 4583SOL    HW225212   4.432   4.584  14.768 -0.8663 -0.2926 -1.9734
 4584SOL     OW25213   2.986   1.961  14.450  1.0847 -0.2224  0.3572
 4584SOL    HW125214   2.901   1.989  14.485  0.7136 -0.9178  0.0094
 4584SOL    HW225215   3.043   2.034  14.476 -0.3019  1.0231 -0.0694
 4585SOL     OW25216   0.808   2.596   4.221  0.3337 -0.4302  0.2494
 4585SOL    HW125217   0.824   2.595   4.315 -0.9152 -0.3890  0.4605
 4585SOL    HW225218   0.821   2.690   4.204  0.9624 -0.3172  1.3197
 4586SOL     OW25219   0.798   3.931   3.790  0.2601 -0.2006 -1.2252
 4586SOL    HW125220   0.837   4.013   3.820 -0.8636 -0.0870 -0.0803
 4586SOL    HW225221   0.765   3.906   3.876  0.1793 -0.8406 -1.4430
 4587SOL     OW25222   1.549   0.356   7.959 -0.3641 -0.0421 -0.2043
 4587SOL    HW125223   1.560   0.448   7.981 -1.9487 -0.2982  1.6601
 4587SOL    HW225224   1.537   0.316   8.045  1.1665  1.8812  0.8990
 4588SOL     OW25225   2.249   1.572   8.654  0.0140 -0.2904  0.4236
 4588SOL    HW125226   2.285   1.623   8.582 -0.8658  0.8661  0.8108
 4588SOL    HW225227   2.280   1.627   8.725  3.5949  0.6382 -1.8732
 4589SOL     OW25228   3.440   0.240   9.858  0.7959 -0.4315 -0.7493
 4589SOL    HW125229   3.412   0.148   9.858 -0.6938  0.0244 -1.8952
 4589SOL    HW225230   3.367   0.279   9.810  0.1154 -1.0711 -0.2223
 4590SOL     OW25231   2.706   4.022   6.253  0.1862  0.3109 -0.3202
 4590SOL    HW125232   2.770   4.078   6.297  0.1338  0.6928 -0.7218
 4590SOL    HW225233   2.706   3.952   6.318  1.9033 -0.5304 -1.2385
 4591SOL     OW25234   4.027   0.990   5.811 -0.3341 -0.5918  0.0280
 4591SOL    HW125235   4.073   0.911   5.785  1.8578 -0.0819  2.3877
 4591SOL    HW225236   4.101   1.047   5.793  0.1150 -1.7583 -1.7391
 4592SOL     OW25237   2.401   2.923   8.577  0.1696 -0.5244 -0.3305
 4592SOL    HW125238   2.466   2.881   8.521 -0.2163  2.4816 -3.0181
 4592SOL    HW225239   2.419   2.889   8.664 -3.0292  1.2130  1.0233
 4593SOL     OW25240   1.674   2.683   4.401  0.0965  0.4637  0.1026
 4593SOL    HW125241   1.737   2.749   4.430  1.3987 -0.1430 -1.3462
 4593SOL    HW225242   1.718   2.665   4.318  3.3591  1.3938  1.6402
 4594SOL     OW25243   1.643   2.374  15.747  0.1421  0.3598 -0.3175
 4594SOL    HW125244   1.725   2.400  15.789  2.3230 -1.5536 -3.3411
 4594SOL    HW225245   1.586   2.359  15.822  0.3983  0.0991 -0.1747
 4595SOL     OW25246   2.398   0.071   5.096  0.1543  0.7077 -0.0818
 4595SOL    HW125247   2.452   0.005   5.140  0.1146  1.4868  1.1443
 4595SOL    HW225248   2.315   0.023   5.094  0.3036  0.5146 -1.4691
 4596SOL     OW25249   2.346   0.221  16.029  0.5935  0.1697  0.5411
 4596SOL    HW125250   2.387   0.137  16.052  1.9755  0.8488  0.5883
 4596SOL    HW225251   2.258   0.193  16.005  0.4167 -0.8389  2.3746
 4597SOL     OW25252   1.710   1.228   5.609  0.2124  0.3511 -0.1058
 4597SOL    HW125253   1.799   1.245   5.577 -1.4591  3.1840 -3.2577
 4597SOL    HW225254   1.668   1.208   5.526 -1.3135 -1.7614  1.1931
 4598SOL     OW25255   1.546   0.626   1.980 -0.0596  0.4412  0.1424
 4598SOL    HW125256   1.506   0.566   1.918  1.2849 -1.1597  0.8286
 4598SOL    HW225257   1.472   0.645   2.037  0.0636  1.1790  0.0560
 4599SOL     OW25258   0.102   1.386   6.106 -0.1119 -0.3652  0.1581
 4599SOL    HW125259   0.043   1.386   6.181 -0.4499 -1.9132 -0.0933
 4599SOL    HW225260   0.146   1.469   6.123 -0.8812  0.0112  0.2926
 4600SOL     OW25261   1.157   4.716   4.837 -0.4646  0.6888  0.1607
 4600SOL    HW125262   1.238   0.042   4.821 -0.6035  0.9002  0.0970
 4600SOL    HW225263   1.112   0.049   4.902 -0.4045 -1.0528  1.6798
 4601SOL     OW25264   2.609   2.061   5.739 -0.2793  0.2329 -0.6002
 4601SOL    HW125265   2.533   2.086   5.685  1.2666 -0.8675 -3.2668
 4601SOL    HW225266   2.679   2.107   5.693  0.0793 -0.6891 -0.9754
 4602SOL     OW25267   3.358   2.089   4.692  0.7371 -0.3541  0.2699
 4602SOL    HW125268   3.293   2.019   4.687 -1.1501  1.2296  2.7553
 4602SOL    HW225269   3.339   2.132   4.775 -0.4804 -0.6275  0.1255
 4603SOL     OW25270   3.233   3.258   5.674 -0.0798 -0.0663 -0.4570
 4603SOL    HW125271   3.153   3.213   5.648 -0.7075  0.0249  1.3269
 4603SOL    HW225272   3.259   3.297   5.591  1.1519  0.2613  0.0783
 4604SOL     OW25273   0.696   2.972   6.390 -0.0279 -0.2123  0.6496
 4604SOL    HW125274   0.619   3.004   6.344  0.4284 -0.9168 -0.5925
 4604SOL    HW225275   0.765   3.028   6.355  0.6246 -0.7745  1.0195
 4605SOL     OW25276   4.517   2.597   8.911 -0.8402  0.1149  0.0772
 4605SOL    HW125277   4.587   2.537   8.884 -1.0804 -0.9847  1.8706
 4605SOL    HW225278   4.568   2.666   8.954 -0.4941 -0.0088 -0.1304
 4606SOL     OW25279   4.540   2.383   2.496  0.5751 -0.3227 -0.5996
 4606SOL    HW125280   4.606   2.325   2.534  0.9425  0.3537 -0.2105
 4606SOL    HW225281   4.576   2.465   2.529  0.5096  1.0198 -3.8639
 4607SOL     OW25282   4.397   3.850  15.405 -0.0102  0.0648 -0.1412
 4607SOL    HW125283   4.490   3.852  15.383  0.0037  2.0998  0.0909
 4607SOL    HW225284   4.376   3.939  15.376  1.6323  0.2857 -0.6136
 4608SOL     OW25285   0.178   0.575   7.427  0.3925 -0.0768 -0.0498
 4608SOL    HW125286   0.175   0.637   7.500 -1.5400 -1.4718  1.0670
 4608SOL    HW225287   0.172   0.494   7.478  0.5046 -0.2368 -0.2934
 4609SOL     OW25288   2.939   1.163   5.024 -0.0866 -0.1134 -0.0849
 4609SOL    HW125289   3.022   1.212   5.029 -0.6825  0.8074  0.6505
 4609SOL    HW225290   2.885   1.234   4.989 -2.3283 -2.0328 -0.5084
 4610SOL     OW25291   4.489   2.998   1.044 -0.1782 -0.0047  0.1304
 4610SOL    HW125292   4.584   3.008   1.032 -0.3912  0.1484 -1.3581
 4610SOL    HW225293   4.485   2.931   1.112 -1.9337  0.4917  0.5219
 4611SOL     OW25294   2.551   2.484  14.949  0.2023 -0.2263  0.3417
 4611SOL    HW125295   2.532   2.399  14.909 -0.2919  0.2161 -0.3693
 4611SOL    HW225296   2.647   2.494  14.948  0.0791  1.0599  0.8861
 4612SOL     OW25297   2.655   3.062  17.559 -0.1486  0.2981 -0.6438
 4612SOL    HW125298   2.729   3.059  17.619 -0.5441 -1.0135 -0.2110
 4612SOL    HW225299   2.589   3.089  17.623  0.0985  0.3250 -0.4026
 4613SOL     OW25300   2.747   2.956  12.238  0.2221 -0.7706  0.0215
 4613SOL    HW125301   2.783   2.949  12.327  0.4477  1.8030  0.1410
 4613SOL    HW225302   2.662   2.919  12.262 -1.8003  4.6111  1.0732
 4614SOL     OW25303   2.495   2.212   0.427  0.3496 -0.1308 -0.0984
 4614SOL    HW125304   2.561   2.225   0.495  1.5956 -0.7509 -1.1561
 4614SOL    HW225305   2.548   2.235   0.350  0.4723 -1.3025 -0.3709
 4615SOL     OW25306   1.483   1.156   1.604 -0.1581  0.1132  0.0781
 4615SOL    HW125307   1.471   1.092   1.533  1.1077 -1.0946  0.9398
 4615SOL    HW225308   1.482   1.100   1.682  1.0537 -0.8683 -0.6006
 4616SOL     OW25309   3.281   2.970  13.252  0.0095 -0.5020 -0.2376
 4616SOL    HW125310   3.224   2.918  13.308  1.7654 -1.4809  0.6699
 4616SOL    HW225311   3.219   3.020  13.199 -0.2344 -1.9279 -1.3044
 4617SOL     OW25312   1.403   0.920   5.768  0.7565 -1.1068 -0.1247
 4617SOL    HW125313   1.353   0.945   5.846  0.6177  0.7284 -0.7962
 4617SOL    HW225314   1.466   0.992   5.766  0.2107 -0.6335 -0.3913
 4618SOL     OW25315   0.520   4.185   5.267 -0.2564 -0.1114 -0.1267
 4618SOL    HW125316   0.589   4.234   5.223 -1.1850 -0.1537 -1.6359
 4618SOL    HW225317   0.448   4.247   5.252  0.8021  1.4340  1.3123
 4619SOL     OW25318   3.990   4.022   6.509  0.6722 -0.0955 -0.0628
 4619SOL    HW125319   3.947   4.030   6.424  1.7358 -3.8336 -0.9653
 4619SOL    HW225320   4.052   3.949   6.502 -0.6602 -1.3102  0.9424
 4620SOL     OW25321   4.181   2.740   7.646 -0.2632  0.0431 -0.0355
 4620SOL    HW125322   4.143   2.827   7.655  0.6612  0.4757 -0.3802
 4620SOL    HW225323   4.275   2.753   7.647 -0.3353  0.3893  3.5577
 4621SOL     OW25324   0.513   1.078   5.427  0.2399 -0.2038  0.2901
 4621SOL    HW125325   0.532   1.168   5.453 -1.6429  0.8552 -1.9702
 4621SOL    HW225326   0.602   1.047   5.408  0.3560  0.4295 -0.2103
 4622SOL     OW25327   0.583   2.468   6.816 -0.7644 -0.1451 -0.3271
 4622SOL    HW125328   0.646   2.537   6.797 -2.3958  1.7332  1.0623
 4622SOL    HW225329   0.495   2.499   6.795 -0.7537  0.0800 -0.0426
 4623SOL     OW25330   1.209   2.382   1.300  0.1361  0.3434 -0.0196
 4623SOL    HW125331   1.138   2.347   1.354 -0.9204  1.8459 -0.4280
 4623SOL    HW225332   1.198   2.323   1.225  1.9237  1.0888 -0.8874
 4624SOL     OW25333   1.319   0.526  16.534  0.0972  0.2246 -0.5056
 4624SOL    HW125334   1.274   0.594  16.585 -2.3572 -1.1581 -0.8002
 4624SOL    HW225335   1.283   0.441  16.559  2.2291 -0.4895  0.0756
 4625SOL     OW25336   0.220   0.262   2.416  0.2721 -0.9524  0.2854
 4625SOL    HW125337   0.282   0.319   2.461 -0.3949  0.1843 -0.2395
 4625SOL    HW225338   0.140   0.285   2.462  1.0958  0.7369  0.8695
 4626SOL     OW25339   1.181   2.997   7.689 -0.3641  0.4064 -0.2752
 4626SOL    HW125340   1.131   2.944   7.751  1.6828 -1.7549 -0.4601
 4626SOL    HW225341   1.175   3.079   7.738 -0.0759 -0.0387  0.5014
 4627SOL     OW25342   4.617   1.605   5.150  0.2795 -0.2274 -0.2190
 4627SOL    HW125343   4.557   1.663   5.197  1.2280  1.2348 -0.8272
 4627SOL    HW225344   4.695   1.660   5.154  0.2033 -0.1026 -0.4501
 4628SOL     OW25345   2.709   3.051   0.466  0.2296 -0.2522  0.6761
 4628SOL    HW125346   2.640   3.118   0.472 -1.5563 -1.9578 -0.7072
 4628SOL    HW225347   2.689   2.992   0.393  0.8143  1.0544 -0.5420
 4629SOL     OW25348   2.038   1.563   6.840  0.8077 -0.2833 -0.2929
 4629SOL    HW125349   2.031   1.658   6.844 -1.0855 -0.4641  0.5934
 4629SOL    HW225350   2.084   1.545   6.922 -2.0548  0.8760  1.5205
 4630SOL     OW25351   3.361   4.685   4.005 -0.6473  0.9119 -0.0314
 4630SOL    HW125352   3.441   4.676   4.057 -0.2842  1.7512 -0.4412
 4630SOL    HW225353   3.322   4.598   4.006  2.4251 -0.4801 -0.7366
 4631SOL     OW25354   0.100   2.418   2.339 -0.0631  0.5527  0.0931
 4631SOL    HW125355   0.058   2.338   2.370  0.3102 -0.3829 -1.8076
 4631SOL    HW225356   0.117   2.387   2.250  1.3502 -1.7501  1.1591
 4632SOL     OW25357   1.244   4.462  14.785  0.2903  0.6737 -0.0811
 4632SOL    HW125358   1.301   4.496  14.854  0.1054  0.0667  0.3724
 4632SOL    HW225359   1.185   4.404  14.835  0.0390  1.5670  0.6542
 4633SOL     OW25360   3.096   2.064   6.514  0.1427  0.2873  0.2695
 4633SOL    HW125361   3.017   2.102   6.477 -1.4936 -1.5803  1.8762
 4633SOL    HW225362   3.100   2.098   6.604  2.1555 -0.1397  0.3610
 4634SOL     OW25363   1.002   4.406  11.341 -0.4783 -0.1989 -0.1521
 4634SOL    HW125364   0.997   4.370  11.252  0.8767  0.3878 -0.4716
 4634SOL    HW225365   0.912   4.393  11.372  0.1978 -1.0335  1.4453
 4635SOL     OW25366   4.151   0.943   7.212 -0.3361 -0.0374  0.1963
 4635SOL    HW125367   4.175   0.912   7.125  0.4577 -0.7933  0.6831
 4635SOL    HW225368   4.200   1.026   7.213  2.4319 -1.6545 -0.7845
 4636SOL     OW25369   3.398   4.069   5.418 -0.0803 -0.0206  0.2058
 4636SOL    HW125370   3.380   4.158   5.447 -0.6279  0.9961 -3.2502
 4636SOL    HW225371   3.373   4.074   5.326 -0.5355 -0.8124  0.2828
 4637SOL     OW25372   1.107   1.667  13.226  0.2871  0.2025  0.2854
 4637SOL    HW125373   1.021   1.707  13.235  0.6335  0.8991  0.5547
 4637SOL    HW225374   1.150   1.742  13.185  2.9202 -1.5417 -0.1306
 4638SOL     OW25375   0.159   0.760  11.228 -0.0940  0.3525  0.1988
 4638SOL    HW125376   0.095   0.768  11.299 -1.5016  1.9864 -1.2603
 4638SOL    HW225377   0.213   0.689  11.263 -0.0561  0.5015  0.4439
 4639SOL     OW25378   3.027   4.502   4.428 -0.0247 -0.1837 -0.1363
 4639SOL    HW125379   3.048   4.528   4.517  0.2446  0.7164 -0.4586
 4639SOL    HW225380   2.932   4.518   4.428  0.4542  2.5417  1.8016
 4640SOL     OW25381   3.339   1.075   2.557 -0.3795 -0.4104  0.3854
 4640SOL    HW125382   3.414   1.096   2.613  0.1126  0.2971 -0.5445
 4640SOL    HW225383   3.361   0.983   2.546  0.4912  0.1022 -2.2209
 4641SOL     OW25384   3.331   2.709   6.918  0.2787  0.3355 -0.0701
 4641SOL    HW125385   3.278   2.731   6.841 -0.2747 -1.5777 -0.2401
 4641SOL    HW225386   3.406   2.763   6.893 -1.3169  1.3250 -2.7453
 4642SOL     OW25387   3.167   4.342  11.997 -0.0794 -0.4876 -0.2121
 4642SOL    HW125388   3.146   4.329  12.090  1.5136  0.2455  0.2335
 4642SOL    HW225389   3.082   4.316  11.962 -0.5950  0.4791  0.3064
 4643SOL     OW25390   3.044   3.333   4.931 -0.3869 -0.0161 -0.4973
 4643SOL    HW125391   3.078   3.247   4.958 -0.0138  0.1764 -0.3619
 4643SOL    HW225392   3.129   3.361   4.895 -0.2711  1.0041  0.6086
 4644SOL     OW25393   3.864   4.457  14.256 -0.3655  0.0246 -0.1079
 4644SOL    HW125394   3.794   4.448  14.322  0.6921  2.0415  1.2785
 4644SOL    HW225395   3.863   4.369  14.217 -0.1156 -0.8848  1.9259
 4645SOL     OW25396   4.348   2.649   4.416  0.5038 -0.0352  0.2580
 4645SOL    HW125397   4.327   2.734   4.377  0.0186 -0.4414 -0.3618
 4645SOL    HW225398   4.318   2.662   4.506  2.0888  0.8166  0.6702
 4646SOL     OW25399   2.481   4.153   8.005  0.0371  0.1663 -0.2235
 4646SOL    HW125400   2.546   4.222   7.988  0.5201 -0.1693  0.2379
 4646SOL    HW225401   2.491   4.146   8.100 -2.4772 -1.2026 -0.0637
 4647SOL     OW25402   0.312   1.267   8.049  0.4403 -0.1112  0.2015
 4647SOL    HW125403   0.304   1.187   8.101 -0.1208 -0.5239 -0.4999
 4647SOL    HW225404   0.224   1.304   8.052  0.2086 -0.4424 -2.5571
 4648SOL     OW25405   3.796   3.863  13.003 -0.8766  0.1234 -0.4627
 4648SOL    HW125406   3.770   3.771  13.009  0.8722 -0.1694  2.3431
 4648SOL    HW225407   3.841   3.857  12.918 -0.1318 -3.9178  0.2293
 4649SOL     OW25408   0.272   0.294   5.331  0.1447 -0.3261  0.6087
 4649SOL    HW125409   0.324   0.264   5.256  0.4531  0.5676  0.4541
 4649SOL    HW225410   0.279   0.389   5.322 -1.3811 -0.6940 -4.4470
 4650SOL     OW25411   2.536   2.042   4.453 -0.0710 -0.5005  0.1242
 4650SOL    HW125412   2.442   2.042   4.434  0.2172 -0.0515 -1.2626
 4650SOL    HW225413   2.554   1.955   4.418 -0.8015 -0.4287 -0.4382
 4651SOL     OW25414   0.558   3.703  10.125  0.0350 -0.4209 -0.6048
 4651SOL    HW125415   0.492   3.726  10.059 -2.4841  0.4425  2.2503
 4651SOL    HW225416   0.642   3.740  10.096 -1.2369  1.5750 -1.7579
 4652SOL     OW25417   3.117   2.721  14.766  0.4071 -0.1951  0.2760
 4652SOL    HW125418   3.122   2.765  14.681 -0.1829  1.1392  0.9337
 4652SOL    HW225419   3.103   2.635  14.726 -0.9985  0.0103  0.3200
 4653SOL     OW25420   4.319   3.165   9.251  0.6374 -0.3700  0.1075
 4653SOL    HW125421   4.334   3.153   9.345 -2.1476 -2.8771  0.2178
 4653SOL    HW225422   4.403   3.167   9.205  0.4755  0.2930 -0.1557
 4654SOL     OW25423   1.392   3.540   5.306  0.0834 -0.4221 -0.0381
 4654SOL    HW125424   1.356   3.483   5.375  1.5150 -0.0352  1.0409
 4654SOL    HW225425   1.484   3.515   5.309  0.2640  0.2594 -0.0607
 4655SOL     OW25426   1.119   3.002   7.446 -0.2733 -0.5171  0.5104
 4655SOL    HW125427   1.116   2.985   7.540 -3.8824  1.0131  0.6655
 4655SOL    HW225428   1.038   3.051   7.432  0.0922  0.2283  0.9495
 4656SOL     OW25429   3.963   4.646   7.635  0.0885  0.2705  0.0001
 4656SOL    HW125430   3.903   4.576   7.612  0.1827  0.4845 -0.8981
 4656SOL    HW225431   4.033   4.625   7.573 -0.5418 -1.9714  0.0369
 4657SOL     OW25432   3.313   0.026   3.735 -0.9774  0.0547 -0.0541
 4657SOL    HW125433   3.222   0.057   3.736 -0.4498  1.5617  0.0606
 4657SOL    HW225434   3.317   0.020   3.831 -1.1606 -1.6051 -0.1415
 4658SOL     OW25435   0.968   0.674  13.009  0.4615 -0.1215 -0.1988
 4658SOL    HW125436   0.968   0.633  13.095 -0.4931  1.2842  0.4681
 4658SOL    HW225437   0.897   0.738  13.009  0.8933  0.3613  0.4258
 4659SOL     OW25438   3.744   3.069   6.139  0.6543 -0.4494 -0.4255
 4659SOL    HW125439   3.747   3.157   6.175  1.9199 -0.2832 -0.9447
 4659SOL    HW225440   3.831   3.038   6.162 -0.0337 -0.7918  1.6995
 4660SOL     OW25441   4.147   2.886   6.429 -0.5750  0.0718  0.6366
 4660SOL    HW125442   4.142   2.793   6.451 -0.7337 -0.3374 -1.1210
 4660SOL    HW225443   4.218   2.911   6.488 -0.8572  0.6391  0.7413
 4661SOL     OW25444   4.205   1.824   0.845 -0.3724  0.1631  0.1000
 4661SOL    HW125445   4.110   1.825   0.854 -0.3392  1.8167  0.3164
 4661SOL    HW225446   4.229   1.738   0.811 -0.1246  0.3168 -0.1193
 4662SOL     OW25447   4.299   1.714   9.504  0.5773 -0.7448  0.0247
 4662SOL    HW125448   4.291   1.766   9.424 -0.9279 -1.1989 -0.1347
 4662SOL    HW225449   4.298   1.777   9.576 -0.0855 -1.8229  0.9554
 4663SOL     OW25450   4.290   4.152   3.859 -0.2571 -0.2428  0.0597
 4663SOL    HW125451   4.309   4.097   3.783 -1.6818 -1.5777  0.6732
 4663SOL    HW225452   4.237   4.224   3.824 -0.1930  0.8072  2.1007
 4664SOL     OW25453   2.515   4.619   5.942 -0.5963  0.1351  0.0846
 4664SOL    HW125454   2.582   4.641   6.007 -1.1417 -1.1136  1.0740
 4664SOL    HW225455   2.480   4.535   5.971  2.1390 -0.6302  1.1695
 4665SOL     OW25456   3.938   3.798  17.287 -0.1879 -0.1113  0.7221
 4665SOL    HW125457   3.905   3.836  17.368 -0.9909 -1.0389  0.8347
 4665SOL    HW225458   3.929   3.872  17.226  2.9329 -1.3620 -1.2662
 4666SOL     OW25459   2.891   2.445   9.813  0.1405  0.2514 -0.0901
 4666SOL    HW125460   2.936   2.370   9.774 -1.0634  0.0096 -1.0225
 4666SOL    HW225461   2.798   2.427   9.799  0.2487  0.3982 -1.0068
 4667SOL     OW25462   0.592   3.714  14.676  0.1636 -0.4225 -0.1123
 4667SOL    HW125463   0.622   3.631  14.714  1.2911 -0.2944 -0.7121
 4667SOL    HW225464   0.561   3.755  14.757 -1.8115 -2.7503  0.3144
 4668SOL     OW25465   0.207   4.434   2.755  0.3289  0.2978 -0.7064
 4668SOL    HW125466   0.193   4.495   2.827 -0.0430  0.5609 -1.0042
 4668SOL    HW225467   0.222   4.354   2.805 -0.5094  0.5285 -0.0895
 4669SOL     OW25468   1.649   2.907   2.714  0.1732  0.0599 -0.0691
 4669SOL    HW125469   1.732   2.948   2.688 -0.5524  0.9759 -0.9383
 4669SOL    HW225470   1.684   2.818   2.721  0.5929  0.2400  0.1615
 4670SOL     OW25471   0.538   2.968   9.928 -0.1303  0.4802  0.4445
 4670SOL    HW125472   0.463   2.999   9.877 -0.6665  0.0073  0.9487
 4670SOL    HW225473   0.568   2.885   9.891 -1.3098 -0.0341  0.6193
 4671SOL     OW25474   4.217   1.961   7.760 -0.3590 -0.2076 -0.4310
 4671SOL    HW125475   4.248   1.963   7.851 -0.1761 -3.3267 -0.4141
 4671SOL    HW225476   4.228   2.054   7.738 -0.3885  0.1650  1.1531
 4672SOL     OW25477   2.875   1.549  10.351  0.1021  0.4493 -0.4805
 4672SOL    HW125478   2.874   1.522  10.259 -1.2247 -0.2750 -0.2528
 4672SOL    HW225479   2.847   1.641  10.352 -1.0876  0.0643  0.3411
 4673SOL     OW25480   2.771   4.157   1.775  0.1767  0.0318  0.4342
 4673SOL    HW125481   2.817   4.083   1.816 -1.3108  1.1259  4.0949
 4673SOL    HW225482   2.827   4.227   1.810  0.2531 -0.7299  1.8238
 4674SOL     OW25483   0.440   1.428  15.274  0.0003  0.4098 -0.2810
 4674SOL    HW125484   0.383   1.499  15.243  1.3639  2.2327  1.3337
 4674SOL    HW225485   0.510   1.429  15.208  0.3026  1.0504  0.0457
 4675SOL     OW25486   3.138   0.266   7.909  0.4435 -0.0630  0.3410
 4675SOL    HW125487   3.069   0.306   7.961 -0.9280 -1.8323 -0.1151
 4675SOL    HW225488   3.100   0.178   7.903  0.9334 -0.2742  0.3246
 4676SOL     OW25489   1.307   2.585   8.362  0.2181 -0.4520  0.2323
 4676SOL    HW125490   1.213   2.584   8.345  0.4355  0.0884 -1.0187
 4676SOL    HW225491   1.335   2.653   8.300 -0.3125  1.0119  1.6096
 4677SOL     OW25492   4.239   3.205   8.208 -0.4270 -0.4642 -0.2204
 4677SOL    HW125493   4.306   3.139   8.190 -2.7743 -2.6056 -1.0733
 4677SOL    HW225494   4.161   3.151   8.205 -1.9319  1.5558  2.5938
 4678SOL     OW25495   0.739   2.840   2.401 -0.4714 -0.0191 -0.1676
 4678SOL    HW125496   0.813   2.782   2.420 -1.6131 -1.3295  0.3269
 4678SOL    HW225497   0.760   2.911   2.461  0.5311  0.4633 -1.0944
 4679SOL     OW25498   1.973   4.659   9.613  0.0004 -0.3022 -1.0597
 4679SOL    HW125499   1.993   4.650   9.519  3.4089 -0.8632 -0.2704
 4679SOL    HW225500   1.912   0.010   9.615 -0.3786 -0.6489 -0.1681
 4680SOL     OW25501   3.526   3.969   7.970 -0.1449  0.4609  0.0237
 4680SOL    HW125502   3.562   3.948   8.056 -0.7802  0.1812  0.2193
 4680SOL    HW225503   3.464   4.042   7.973  1.4638  1.9137 -1.8490
 4681SOL     OW25504   3.068   0.431   7.540  0.3494  0.5357 -0.2796
 4681SOL    HW125505   3.021   0.410   7.460  0.2076  1.3569 -0.4129
 4681SOL    HW225506   3.147   0.379   7.527  0.2632 -0.3681  2.7674
 4682SOL     OW25507   1.406   4.553   7.251 -0.0436  0.4362 -0.3608
 4682SOL    HW125508   1.463   4.494   7.299  0.8038  0.2382 -1.5941
 4682SOL    HW225509   1.465   4.589   7.185 -1.4354  1.0851 -1.2702
 4683SOL     OW25510   2.721   0.239   0.085 -0.1691 -0.4268  0.1554
 4683SOL    HW125511   2.629   0.244   0.110 -0.1061  1.3945  0.0405
 4683SOL    HW225512   2.708   0.209  17.686  2.3600  0.8020 -0.6130
 4684SOL     OW25513   1.158   0.738   2.264  0.6661  0.3769 -0.2589
 4684SOL    HW125514   1.184   0.815   2.214 -0.9938  1.6530  0.8352
 4684SOL    HW225515   1.063   0.745   2.254  0.5672 -1.1796 -0.3676
 4685SOL     OW25516   0.030   0.552   8.570 -0.2668 -0.5634 -0.1677
 4685SOL    HW125517   0.080   0.491   8.624 -1.2070  0.3855  1.7504
 4685SOL    HW225518   0.036   0.634   8.619  0.4584  0.9544 -2.7755
 4686SOL     OW25519   2.314   0.078   3.874  0.5101 -0.0649 -0.6648
 4686SOL    HW125520   2.313   0.085   3.779  1.9949  0.7301 -0.6124
 4686SOL    HW225521   2.388   0.132   3.900 -2.0702  1.2032  4.0185
 4687SOL     OW25522   3.374   3.130   8.045 -0.3438  0.5772  0.3209
 4687SOL    HW125523   3.399   3.041   8.072  3.1209  0.8806 -1.7803
 4687SOL    HW225524   3.453   3.172   8.010  1.8273 -2.3672  1.6344
 4688SOL     OW25525   0.456   1.066  10.710 -0.2685  0.5204  0.1069
 4688SOL    HW125526   0.498   0.986  10.742 -0.5150  0.1143 -0.5918
 4688SOL    HW225527   0.471   1.109  10.794 -0.3149 -2.6179  1.7325
 4689SOL     OW25528   1.886   1.511  16.013 -0.4457  0.4176 -0.5668
 4689SOL    HW125529   1.837   1.592  15.997  1.4645  1.3259 -1.7868
 4689SOL    HW225530   1.901   1.482  15.922  0.4426  0.1976 -0.3527
 4690SOL     OW25531   3.040   2.889  16.576  0.1544 -0.1332  0.4622
 4690SOL    HW125532   2.983   2.837  16.519 -1.5009  0.5660  1.4926
 4690SOL    HW225533   3.002   2.888  16.664 -2.2415  2.6180 -0.5759
 4691SOL     OW25534   0.376   1.440  13.882 -0.8021  0.1020 -0.3990
 4691SOL    HW125535   0.340   1.370  13.935 -0.3942 -1.0700 -1.6691
 4691SOL    HW225536   0.469   1.416  13.878 -0.3668  1.7339 -0.1362
 4692SOL     OW25537   2.450   2.828   5.196 -0.0355 -0.7657 -0.6368
 4692SOL    HW125538   2.371   2.860   5.241 -0.8181 -0.1766 -2.4084
 4692SOL    HW225539   2.463   2.891   5.125 -1.4380 -1.3167 -1.3979
 4693SOL     OW25540   3.476   0.056   6.901  0.4368 -0.3474 -0.1691
 4693SOL    HW125541   3.529   0.078   6.978  1.5472 -1.6136 -0.5616
 4693SOL    HW225542   3.469   0.136   6.849  0.3204 -0.2089  0.0593
 4694SOL     OW25543   2.610   3.749   1.410  0.2027  0.5456 -0.0904
 4694SOL    HW125544   2.674   3.811   1.444  2.6308 -0.7419 -2.3085
 4694SOL    HW225545   2.550   3.747   1.484  0.5428  2.5509  0.2314
 4695SOL     OW25546   1.771   0.365  10.230  0.1216 -0.1027 -0.3594
 4695SOL    HW125547   1.761   0.394  10.320 -0.9495 -0.3763 -0.3918
 4695SOL    HW225548   1.827   0.289  10.246 -0.0347 -0.0611  0.3903
 4696SOL     OW25549   4.331   1.087   6.225  0.2607 -0.0032  0.4050
 4696SOL    HW125550   4.269   1.049   6.162 -0.3931 -0.8714  1.5670
 4696SOL    HW225551   4.263   1.095   6.292  0.3964 -1.0162  0.6676
 4697SOL     OW25552   1.684   1.222   2.987  0.2966 -0.1985 -0.6320
 4697SOL    HW125553   1.661   1.235   2.895  0.3982  1.8210 -0.3673
 4697SOL    HW225554   1.653   1.132   2.997 -1.5916  0.2140 -2.6916
 4698SOL     OW25555   1.883   1.773   9.738  0.3910 -0.7328 -0.2738
 4698SOL    HW125556   1.893   1.787   9.643  0.2615  0.2064 -0.1518
 4698SOL    HW225557   1.839   1.854   9.763 -1.6790 -1.3940 -1.7517
 4699SOL     OW25558   0.980   1.721  11.866 -0.5562 -0.3793 -0.2770
 4699SOL    HW125559   0.987   1.628  11.846  0.1453 -0.4521  0.2944
 4699SOL    HW225560   0.889   1.745  11.883  0.2144  1.3540  1.4776
 4700SOL     OW25561   2.796   4.386   8.923  0.4984  0.0708  0.3092
 4700SOL    HW125562   2.852   4.453   8.884 -0.8395  0.3688 -1.0575
 4700SOL    HW225563   2.861   4.324   8.959  1.4774  1.2446  0.5494
 4701SOL     OW25564   0.121   2.386   4.851 -0.5501 -0.0382 -0.0485
 4701SOL    HW125565   0.029   2.386   4.876 -0.1034 -1.7128  1.6104
 4701SOL    HW225566   0.127   2.458   4.789 -1.3744  0.7403  0.7776
 4702SOL     OW25567   3.693   4.142   2.468  0.1697  0.8340  0.4390
 4702SOL    HW125568   3.612   4.093   2.482 -0.2588  1.6770  0.9295
 4702SOL    HW225569   3.664   4.202   2.400  0.8378  1.8118  1.0077
 4703SOL     OW25570   2.912   2.695   7.187  0.2142  0.0699 -0.2602
 4703SOL    HW125571   2.915   2.600   7.182  1.5075  0.1831 -1.6189
 4703SOL    HW225572   2.999   2.714   7.222 -0.3302  1.6111  0.2585
 4704SOL     OW25573   0.806   3.749   9.651  0.4358  0.4713 -0.6871
 4704SOL    HW125574   0.831   3.681   9.589 -0.6722 -1.4756  0.9833
 4704SOL    HW225575   0.892   3.790   9.646  0.7478 -0.1647 -0.4824
 4705SOL     OW25576   1.662   1.327  11.228 -0.4762  0.4525 -0.7025
 4705SOL    HW125577   1.595   1.312  11.296  0.2675  1.0545  0.1612
 4705SOL    HW225578   1.610   1.314  11.149  0.9514 -0.6119 -1.4513
 4706SOL     OW25579   1.888   3.020   2.635 -0.2902  0.0715 -0.3320
 4706SOL    HW125580   1.887   3.066   2.719 -0.1400 -2.2263  0.9349
 4706SOL    HW225581   1.921   2.934   2.662 -0.0260 -0.3049 -1.8626
 4707SOL     OW25582   0.189   1.632   6.128 -0.0745  0.5307  0.5122
 4707SOL    HW125583   0.231   1.673   6.204 -2.4206  0.6736  1.7272
 4707SOL    HW225584   0.251   1.651   6.058  1.4074  1.0601  1.9790
 4708SOL     OW25585   1.832   3.824  13.736  0.4364 -0.5370  0.0248
 4708SOL    HW125586   1.848   3.910  13.699  1.5859 -1.1369 -0.8708
 4708SOL    HW225587   1.922   3.799  13.757  0.2372 -1.0633  0.2687
 4709SOL     OW25588   2.151   4.294  12.991  0.3091 -0.2449  0.3495
 4709SOL    HW125589   2.125   4.297  12.899 -0.4115 -1.2577  0.5089
 4709SOL    HW225590   2.215   4.223  12.987 -1.6352 -2.1386  2.1594
 4710SOL     OW25591   1.631   4.447   1.689 -0.6301 -0.0434 -0.3449
 4710SOL    HW125592   1.571   4.445   1.614  0.6785  0.7840 -1.4207
 4710SOL    HW225593   1.612   4.365   1.734 -1.5815  0.2113 -0.2821
 4711SOL     OW25594   0.944   0.690   4.389  0.0504  0.3260  0.3757
 4711SOL    HW125595   0.989   0.767   4.355 -2.0212  1.3193 -0.0949
 4711SOL    HW225596   0.852   0.716   4.388 -0.1449 -0.3470  0.4499
 4712SOL     OW25597   3.243   3.794  16.594 -0.0238 -0.2674  0.3084
 4712SOL    HW125598   3.328   3.810  16.636 -0.0716 -0.3990  0.4556
 4712SOL    HW225599   3.269   3.809  16.503  2.3679  1.7654  1.3336
 4713SOL     OW25600   0.671   3.828   6.665  0.1199  0.6470  0.0186
 4713SOL    HW125601   0.665   3.920   6.641 -0.2247  0.6209 -0.0040
 4713SOL    HW225602   0.597   3.827   6.726  0.3448  0.5678  0.2859
 4714SOL     OW25603   2.248   3.906   5.298  0.1278  0.1156  0.7366
 4714SOL    HW125604   2.245   3.818   5.261 -0.1706 -0.4523  2.1320
 4714SOL    HW225605   2.193   3.912   5.376  0.5914 -0.0845  1.0778
 4715SOL     OW25606   0.233   3.679   1.798  0.3372 -0.3190 -0.7211
 4715SOL    HW125607   0.243   3.670   1.704 -0.3782  0.5380 -0.8757
 4715SOL    HW225608   0.184   3.599   1.820  1.3768 -1.1974 -1.5953
 4716SOL     OW25609   2.577   1.167   4.677 -0.4521  0.3251 -0.0658
 4716SOL    HW125610   2.543   1.257   4.676  0.6051  0.7385  1.4610
 4716SOL    HW225611   2.503   1.124   4.635 -1.2855  0.4760  1.2315
 4717SOL     OW25612   2.668   0.912  15.731  0.4529  0.6701  0.2492
 4717SOL    HW125613   2.678   0.954  15.817  3.1776 -1.3513  0.9173
 4717SOL    HW225614   2.574   0.923  15.714  0.2942 -0.6580  0.2867
 4718SOL     OW25615   3.546   4.174   4.038 -0.2726  0.2442 -0.2678
 4718SOL    HW125616   3.607   4.101   4.030 -0.7302 -0.1608 -0.0593
 4718SOL    HW225617   3.553   4.197   4.131 -1.0709 -0.0400 -0.1390
 4719SOL     OW25618   0.213   4.692   4.687 -0.5851  0.3053  0.0821
 4719SOL    HW125619   0.187   0.003   4.773 -0.2045  0.0381  0.3013
 4719SOL    HW225620   0.164   0.022   4.624  0.6865 -0.4023 -1.5039
 4720SOL     OW25621   1.701   0.894   8.904  0.3332  0.0215 -0.6688
 4720SOL    HW125622   1.727   0.935   8.821  2.7260  1.5596  0.8116
 4720SOL    HW225623   1.781   0.863   8.947  1.3877  1.0849 -1.8699
 4721SOL     OW25624   2.229   2.869   1.289  0.0081 -0.0493  0.2745
 4721SOL    HW125625   2.300   2.870   1.225 -0.8219  0.7484 -0.6444
 4721SOL    HW225626   2.235   2.785   1.334  2.5902  0.0647  0.1217
 4722SOL     OW25627   1.367   1.094   7.180 -0.9820 -0.0080  0.1140
 4722SOL    HW125628   1.424   1.054   7.245 -1.1594  0.0735  0.3161
 4722SOL    HW225629   1.416   1.171   7.151 -3.2932  1.0239 -1.0002
 4723SOL     OW25630   0.808   4.642   5.401  0.0196  0.0128 -0.1749
 4723SOL    HW125631   0.776   4.570   5.456 -1.4017  0.8062  0.0324
 4723SOL    HW225632   0.784   4.719   5.452 -0.0738 -1.6112  2.2521
 4724SOL     OW25633   0.080   0.832   1.173 -0.7161  0.1523  0.0071
 4724SOL    HW125634   0.139   0.766   1.208  0.8886  1.8858  0.5534
 4724SOL    HW225635   0.047   0.875   1.252 -0.4482 -0.2617  0.3444
 4725SOL     OW25636   3.769   0.322   0.134  0.2961  0.1594 -0.3395
 4725SOL    HW125637   3.776   0.394   0.197  0.8405 -0.0986 -0.1084
 4725SOL    HW225638   3.713   0.254   0.171  1.8126 -1.7892 -1.6482
 4726SOL     OW25639   3.076   0.121  13.256  0.2654  0.5500  0.1415
 4726SOL    HW125640   3.109   0.167  13.333 -1.2230  0.6605  0.7113
 4726SOL    HW225641   2.982   0.138  13.256 -0.1918 -1.9191  0.0439
 4727SOL     OW25642   1.238   1.137   8.740  0.3033  0.1565  0.1978
 4727SOL    HW125643   1.321   1.179   8.721 -0.1014  1.8814  2.2501
 4727SOL    HW225644   1.191   1.210   8.781  0.5190  0.4494 -0.0752
 4728SOL     OW25645   3.701   4.695   3.635 -0.5528  0.4839  0.7868
 4728SOL    HW125646   3.789   4.657   3.647 -0.5622  0.5712  1.1182
 4728SOL    HW225647   3.652   4.630   3.685  1.9240 -1.8570  0.1743
 4729SOL     OW25648   3.858   2.922   3.887 -0.1683  0.1542 -0.5253
 4729SOL    HW125649   3.910   2.870   3.948 -1.2204  0.3797  0.5785
 4729SOL    HW225650   3.887   2.889   3.802  1.7704  1.8746 -0.5278
 4730SOL     OW25651   3.258   0.676   3.725  0.0722 -0.3485  0.0409
 4730SOL    HW125652   3.212   0.706   3.646 -3.2612  0.6222  2.3710
 4730SOL    HW225653   3.174   0.640   3.754  0.6317 -3.2564 -1.9396
 4731SOL     OW25654   2.015   2.657  12.130  0.0698 -0.2831 -0.0037
 4731SOL    HW125655   2.027   2.571  12.171  0.0876 -0.8780 -1.2698
 4731SOL    HW225656   1.975   2.697  12.207 -0.7763 -1.1934  0.0370
 4732SOL     OW25657   3.143   0.082   2.521 -0.2602 -0.0130  0.2964
 4732SOL    HW125658   3.162   0.099   2.613 -0.6667  0.9042  0.2118
 4732SOL    HW225659   3.229   0.063   2.483  0.2173  0.5835  1.0822
 4733SOL     OW25660   3.727   1.885   4.823 -0.6091  0.3512  0.2525
 4733SOL    HW125661   3.668   1.955   4.852 -1.9147 -0.0060 -1.4619
 4733SOL    HW225662   3.700   1.812   4.878  1.9688 -1.8415 -1.3898
 4734SOL     OW25663   3.492   2.106  12.625  0.0397 -0.5203 -0.7071
 4734SOL    HW125664   3.505   2.170  12.695 -2.0824  0.1990 -0.9703
 4734SOL    HW225665   3.402   2.077  12.638 -0.1150  1.2116  2.0563
 4735SOL     OW25666   4.192   4.208  11.176 -0.1570  0.1413 -0.0790
 4735SOL    HW125667   4.194   4.113  11.163 -0.7702  0.2593 -1.0326
 4735SOL    HW225668   4.261   4.216  11.242  1.4835  1.9862 -2.0059
 4736SOL     OW25669   1.366   2.895   3.057 -0.0563 -0.2584  0.4746
 4736SOL    HW125670   1.349   2.802   3.046  0.5299  0.0011 -2.5188
 4736SOL    HW225671   1.460   2.902   3.041  0.3838 -0.2532  3.0939
 4737SOL     OW25672   3.373   1.246   2.868  1.0727  0.6055 -0.0861
 4737SOL    HW125673   3.462   1.211   2.861  0.1867 -1.8268  1.0284
 4737SOL    HW225674   3.381   1.301   2.946 -0.3110 -1.1008  1.2498
 4738SOL     OW25675   2.693   0.632  14.954 -0.0719  0.0988  0.2606
 4738SOL    HW125676   2.779   0.590  14.955  0.4667  1.1896 -0.3869
 4738SOL    HW225677   2.711   0.693  14.883  1.7241 -0.8254 -0.0839
 4739SOL     OW25678   0.551   1.150   8.208  0.0724 -0.0587 -0.2787
 4739SOL    HW125679   0.474   1.193   8.244  0.8887 -1.0734  2.7184
 4739SOL    HW225680   0.610   1.168   8.282 -0.8629 -2.1927  0.9700
 4740SOL     OW25681   1.484   3.893  14.618  0.1483 -0.5191 -0.5962
 4740SOL    HW125682   1.507   3.818  14.563 -2.3672 -2.4627  1.0234
 4740SOL    HW225683   1.569   3.936  14.605 -0.0774 -0.0016 -0.3161
 4741SOL     OW25684   3.765   4.229   8.628 -0.0057 -0.2492 -0.8830
 4741SOL    HW125685   3.731   4.277   8.553  1.0266  0.9540 -0.5727
 4741SOL    HW225686   3.800   4.296   8.687  2.0540 -4.3297  2.5567
 4742SOL     OW25687   2.592   2.985   3.518 -0.0232  0.1062  1.0575
 4742SOL    HW125688   2.676   2.943   3.537 -1.0456 -1.6015  1.7745
 4742SOL    HW225689   2.557   2.973   3.606  1.9008 -1.2988  1.6351
 4743SOL     OW25690   3.185   4.321  12.646 -0.1703 -0.0165  0.0006
 4743SOL    HW125691   3.177   4.249  12.583 -1.9431  0.7369 -0.6525
 4743SOL    HW225692   3.093   4.335  12.667 -0.5571  0.8615 -2.2086
 4744SOL     OW25693   1.482   0.577   4.166 -0.0713 -0.1400 -0.2831
 4744SOL    HW125694   1.459   0.666   4.139 -0.1622  0.1409  0.7027
 4744SOL    HW225695   1.479   0.581   4.262  0.1318  1.4004 -0.3458
 4745SOL     OW25696   2.838   0.370   4.163 -0.3415 -0.1903 -0.5444
 4745SOL    HW125697   2.794   0.456   4.164  1.2998  0.6582 -1.1208
 4745SOL    HW225698   2.892   0.370   4.242  1.1139 -2.0999 -1.5653
 4746SOL     OW25699   3.898   1.096  16.389 -0.0757  0.2536 -0.1646
 4746SOL    HW125700   3.811   1.105  16.350  1.2723 -0.2660 -3.3351
 4746SOL    HW225701   3.878   1.048  16.469 -2.0831 -1.5471 -1.7491
 4747SOL     OW25702   2.592   4.297   9.804  0.1487 -0.4498  0.4229
 4747SOL    HW125703   2.534   4.230   9.839 -0.0729 -0.6354 -0.3166
 4747SOL    HW225704   2.569   4.371   9.861  0.5634  0.3763 -0.4844
 4748SOL     OW25705   1.804   1.139  10.996  0.6912  0.0571 -0.3054
 4748SOL    HW125706   1.869   1.082  11.037 -0.5017 -1.6226 -0.7362
 4748SOL    HW225707   1.763   1.169  11.077  0.8921  0.5672 -0.3937
 4749SOL     OW25708   3.455   4.486   8.059 -0.3016  0.6485 -1.0002
 4749SOL    HW125709   3.402   4.499   8.138  1.7707  4.2401 -0.2059
 4749SOL    HW225710   3.548   4.494   8.081 -0.1818  1.0587 -1.6539
 4750SOL     OW25711   1.022   2.489  14.016  0.1964  0.0438 -0.0755
 4750SOL    HW125712   1.087   2.559  14.018 -0.3844  0.6068 -1.0037
 4750SOL    HW225713   0.942   2.539  14.000 -0.3296 -1.4944 -2.1600
 4751SOL     OW25714   0.473   4.099   6.201 -0.3103  0.1608 -0.1133
 4751SOL    HW125715   0.411   4.044   6.250 -0.4845  1.6153  1.3040
 4751SOL    HW225716   0.470   4.176   6.257  0.9004 -0.6895  1.1121
 4752SOL     OW25717   4.205   0.930   7.622 -0.0669  0.3304 -0.0070
 4752SOL    HW125718   4.117   0.895   7.608  0.4170 -0.1927 -1.8327
 4752SOL    HW225719   4.257   0.867   7.572 -0.9524 -0.5089  0.1299
 4753SOL     OW25720   4.549   1.445   6.602  0.5019  0.2208 -0.4467
 4753SOL    HW125721   4.522   1.529   6.637  1.2630  0.0019  0.6679
 4753SOL    HW225722   4.642   1.450   6.579  0.8487 -3.1387  0.0948
 4754SOL     OW25723   1.628   1.998   6.751  0.2370  0.0346  0.0340
 4754SOL    HW125724   1.714   2.012   6.791 -0.3191 -0.4463  1.3857
 4754SOL    HW225725   1.646   1.913   6.712  0.6685  0.2097 -0.1530
 4755SOL     OW25726   0.378   2.501  14.313  0.3193  0.1896  0.2123
 4755SOL    HW125727   0.315   2.548  14.259  0.2082 -1.5100 -1.0935
 4755SOL    HW225728   0.400   2.574  14.372  4.0419  0.0970 -1.0532
 4756SOL     OW25729   2.411   1.649   7.718 -0.0706 -0.0794  0.1675
 4756SOL    HW125730   2.342   1.690   7.771  1.5534  3.0713 -0.1266
 4756SOL    HW225731   2.393   1.556   7.730  0.3314 -0.2775 -0.7648
 4757SOL     OW25732   2.848   1.447  12.616  0.4244  0.4681  0.3650
 4757SOL    HW125733   2.911   1.462  12.546 -1.0442  1.4082 -0.7635
 4757SOL    HW225734   2.769   1.420  12.570  0.2947  1.1799  0.1759
 4758SOL     OW25735   2.531   1.977   5.234  0.5586  0.6680 -0.0268
 4758SOL    HW125736   2.482   1.897   5.217  0.3971  0.5252  1.1232
 4758SOL    HW225737   2.462   2.044   5.237  1.2505  1.3294  0.8591
 4759SOL     OW25738   1.551   0.253   1.009 -0.2546 -0.4845 -0.1531
 4759SOL    HW125739   1.526   0.331   1.058 -0.8398 -0.9540  0.3089
 4759SOL    HW225740   1.560   0.294   0.923 -0.3071  1.9217  1.0043
 4760SOL     OW25741   3.213   3.651   8.511  0.0837 -0.2910 -0.3966
 4760SOL    HW125742   3.259   3.684   8.588 -1.1403 -1.1844  0.7277
 4760SOL    HW225743   3.214   3.718   8.442  2.0326 -0.1448 -0.2174
 4761SOL     OW25744   0.271   0.530   4.629  0.1777 -0.5127 -0.6235
 4761SOL    HW125745   0.333   0.592   4.667 -3.5069  2.3377  0.7072
 4761SOL    HW225746   0.289   0.456   4.688  0.8588  1.2732  1.3741
 4762SOL     OW25747   3.702   1.893   9.165  0.3296 -0.2294 -0.2426
 4762SOL    HW125748   3.685   1.819   9.223 -1.6414 -0.9661 -1.7950
 4762SOL    HW225749   3.670   1.872   9.078  1.5189  2.9600 -1.4766
 4763SOL     OW25750   4.139   2.338   9.016 -0.4764 -0.2916  0.2436
 4763SOL    HW125751   4.167   2.425   9.045  1.4781 -1.5454  2.0873
 4763SOL    HW225752   4.128   2.357   8.923 -0.2370  1.5050  0.5887
 4764SOL     OW25753   2.090   1.271   7.155  0.1269  0.0830 -0.1644
 4764SOL    HW125754   2.178   1.305   7.169  0.1498 -0.2368  0.4742
 4764SOL    HW225755   2.109   1.178   7.138 -0.4203  0.0738 -0.7515
 4765SOL     OW25756   0.296   1.691   1.543 -0.0092 -0.2397 -0.0424
 4765SOL    HW125757   0.279   1.679   1.449 -0.6270 -0.1864  0.0679
 4765SOL    HW225758   0.266   1.604   1.568 -0.8895  0.6764  1.9832
 4766SOL     OW25759   1.718   4.322   6.834 -0.2926  0.3035  0.1964
 4766SOL    HW125760   1.805   4.285   6.849 -0.3745  0.8353  1.9297
 4766SOL    HW225761   1.741   4.415   6.827  2.5249 -0.5080 -1.1275
 4767SOL     OW25762   4.118   0.207   0.887 -0.1771 -0.1462 -0.1628
 4767SOL    HW125763   4.181   0.218   0.958 -1.2873  0.8763  0.6725
 4767SOL    HW225764   4.161   0.145   0.827 -2.5182 -1.3226 -0.6174
 4768SOL     OW25765   1.165   3.748   7.543 -0.5606 -0.1280  0.3980
 4768SOL    HW125766   1.216   3.822   7.574 -1.8398  0.6156  0.7308
 4768SOL    HW225767   1.097   3.751   7.610 -1.7126 -0.2559 -0.7594
 4769SOL     OW25768   1.063   1.655   5.825 -0.3786  0.0251  0.1287
 4769SOL    HW125769   1.074   1.576   5.773  0.7263  2.0158 -2.6448
 4769SOL    HW225770   1.154   1.683   5.827 -0.0224 -1.1906  1.2573
 4770SOL     OW25771   3.125   0.245   1.170 -0.0297 -0.8672  0.4045
 4770SOL    HW125772   3.124   0.153   1.195  1.4846 -0.4350  2.0696
 4770SOL    HW225773   3.153   0.233   1.079 -3.0417 -2.2566 -0.3331
 4771SOL     OW25774   3.978   1.829   6.640 -0.1424  0.0805 -0.5317
 4771SOL    HW125775   4.060   1.833   6.592  1.3275  0.1450  1.9646
 4771SOL    HW225776   4.000   1.890   6.711  0.5648  0.5981 -1.2024
 4772SOL     OW25777   3.669   2.871   2.585 -0.6623  0.2501 -0.2596
 4772SOL    HW125778   3.576   2.884   2.604 -0.5498  0.7919 -0.0830
 4772SOL    HW225779   3.716   2.952   2.603 -0.2370 -0.5980  2.4358
 4773SOL     OW25780   3.439   3.822   6.887  0.1218 -0.2552 -0.2995
 4773SOL    HW125781   3.517   3.790   6.933  0.0514 -3.0585 -2.1157
 4773SOL    HW225782   3.468   3.907   6.854  1.1965 -1.6799 -3.0173
 4774SOL     OW25783   3.653   3.611   8.070  0.0688 -0.4519  0.2325
 4774SOL    HW125784   3.718   3.605   7.999 -0.2996 -0.1646 -0.1301
 4774SOL    HW225785   3.684   3.537   8.121  2.6822  2.7575  3.3689
 4775SOL     OW25786   4.635   1.479   9.069 -0.6191 -0.4856  0.0489
 4775SOL    HW125787   4.630   1.463   8.975  2.7289  0.7078 -0.3201
 4775SOL    HW225788   0.004   1.456   9.090 -1.5269 -2.5243  1.8006
 4776SOL     OW25789   3.190   2.159   5.396  0.3217 -0.1551  0.3992
 4776SOL    HW125790   3.176   2.241   5.348  0.9085  0.0362  0.5524
 4776SOL    HW225791   3.103   2.120   5.405 -0.5663  1.4992 -0.8590
 4777SOL     OW25792   1.723   0.224   1.356 -0.0706  1.0115 -0.4398
 4777SOL    HW125793   1.809   0.264   1.342  0.0034 -0.3625 -3.8438
 4777SOL    HW225794   1.708   0.213   1.450  0.5201 -3.5010 -0.9055
 4778SOL     OW25795   4.555   4.666  10.436 -0.0123  0.0921  0.0617
 4778SOL    HW125796   4.628   4.716  10.400  0.3342 -0.3363  0.1788
 4778SOL    HW225797   4.609   4.589  10.454  0.8969  0.4393 -1.1938
 4779SOL     OW25798   0.905   0.251   5.488  0.1078  0.1157  0.6219
 4779SOL    HW125799   0.919   0.298   5.570 -0.2182  2.0123 -0.4041
 4779SOL    HW225800   0.998   0.233   5.472 -0.0790  0.4133 -0.7809
 4780SOL     OW25801   0.139   3.467   7.832 -0.3011 -0.2618 -0.6101
 4780SOL    HW125802   0.086   3.442   7.756  1.5825  2.4744 -2.8007
 4780SOL    HW225803   0.095   3.541   7.873  1.8861  1.4712 -1.4447
 4781SOL     OW25804   3.088   1.867  16.747 -0.3426 -0.0036 -0.7426
 4781SOL    HW125805   3.007   1.897  16.788  0.5229 -0.4457  1.2721
 4781SOL    HW225806   3.152   1.936  16.767 -0.5286 -0.8748  2.7911
 4782SOL     OW25807   1.320   3.776   9.498 -0.4657 -0.3571  0.0763
 4782SOL    HW125808   1.346   3.696   9.544  1.5819  0.7493  0.8412
 4782SOL    HW225809   1.400   3.828   9.506 -1.0091  0.4517  0.1772
 4783SOL     OW25810   0.903   1.629   9.085  0.1313  0.6889 -0.1469
 4783SOL    HW125811   0.878   1.696   9.149  0.1363  2.7698 -2.3639
 4783SOL    HW225812   0.896   1.558   9.149  0.3416  0.3898 -0.4583
 4784SOL     OW25813   2.101   0.899   1.513 -0.0286 -0.4698 -0.0930
 4784SOL    HW125814   2.151   0.976   1.541 -0.3874 -0.1067 -0.4551
 4784SOL    HW225815   2.081   0.911   1.420  0.5813 -0.9772 -0.2902
 4785SOL     OW25816   0.617   4.280   8.026  0.2003  0.0663  0.3505
 4785SOL    HW125817   0.673   4.324   7.962 -1.2238  0.2924 -0.7254
 4785SOL    HW225818   0.550   4.347   8.041 -1.3017 -1.3716  0.0989
 4786SOL     OW25819   3.555   2.714  12.688 -0.2169 -0.5996 -0.6053
 4786SOL    HW125820   3.483   2.680  12.742  0.1379  0.7024  0.6907
 4786SOL    HW225821   3.537   2.670  12.605 -1.0122  0.2824 -0.8945
 4787SOL     OW25822   0.354   2.318   3.216 -0.5407 -0.6045  0.4439
 4787SOL    HW125823   0.352   2.230   3.179  0.4356 -0.6177  0.4419
 4787SOL    HW225824   0.435   2.356   3.182 -0.3079 -1.8911 -0.4318
 4788SOL     OW25825   0.470   3.599  15.693 -0.4936  0.4982 -0.1861
 4788SOL    HW125826   0.528   3.534  15.734  2.3031  1.8622 -2.0088
 4788SOL    HW225827   0.478   3.569  15.603  1.0045 -1.1062  0.4780
 4789SOL     OW25828   1.349   4.379  11.532  0.1707 -0.3871 -0.4986
 4789SOL    HW125829   1.419   4.323  11.565  0.9598  0.3119 -0.9872
 4789SOL    HW225830   1.345   4.449  11.597 -0.4179  1.2827 -2.3456
 4790SOL     OW25831   2.654   0.824   0.792  0.5133 -0.1770  0.2443
 4790SOL    HW125832   2.745   0.855   0.796  0.3337  0.5320 -1.1170
 4790SOL    HW225833   2.666   0.742   0.745 -2.1677 -0.4829  0.0879
 4791SOL     OW25834   0.646   1.006   4.056  0.6848  0.2670 -0.1453
 4791SOL    HW125835   0.732   1.007   4.014  0.5635  0.4166 -0.3891
 4791SOL    HW225836   0.651   1.094   4.092 -0.8614  0.9403 -1.5701
 4792SOL     OW25837   3.280   4.343   7.161  0.3054 -0.2129  0.2166
 4792SOL    HW125838   3.300   4.256   7.127 -1.8366 -0.1847 -1.0998
 4792SOL    HW225839   3.208   4.367   7.102 -0.0716 -0.7264  0.4738
 4793SOL     OW25840   4.280   1.072   5.095  0.4643  0.3819 -0.3838
 4793SOL    HW125841   4.349   1.092   5.031 -0.7534  1.0826 -1.4661
 4793SOL    HW225842   4.341   1.079   5.169  0.8873 -1.3178 -0.5624
 4794SOL     OW25843   4.615   2.729   1.051 -0.2038 -0.2039 -0.5193
 4794SOL    HW125844   4.522   2.721   1.072 -0.4829  2.4406 -0.7435
 4794SOL    HW225845   4.605   2.735   0.956  2.6035 -0.9792 -0.8549
 4795SOL     OW25846   2.727   2.475   5.866 -0.2610 -0.5920 -0.1039
 4795SOL    HW125847   2.636   2.496   5.846 -0.1193  1.0100  0.8667
 4795SOL    HW225848   2.767   2.559   5.843 -0.0207 -0.1395  1.9764
 4796SOL     OW25849   3.641   3.498   2.434 -0.1132  0.5052 -0.1505
 4796SOL    HW125850   3.668   3.412   2.401 -1.3501  0.5479 -1.2840
 4796SOL    HW225851   3.564   3.462   2.478 -0.1840  0.6989 -0.1183
 4797SOL     OW25852   0.528   3.629  17.458 -0.5752  0.3311  0.1736
 4797SOL    HW125853   0.579   3.575  17.398  0.2175  0.6539  0.5647
 4797SOL    HW225854   0.451   3.651  17.406  0.2546 -0.8172 -1.5319
 4798SOL     OW25855   4.686   1.772   6.294  0.2754  0.1298  0.2037
 4798SOL    HW125856   4.620   1.761   6.225  2.3493 -0.0694 -1.7451
 4798SOL    HW225857   0.044   1.741   6.251  0.2245 -0.3682  0.4711
 4799SOL     OW25858   0.892   2.851  15.663 -0.5171  0.0271 -0.1571
 4799SOL    HW125859   0.928   2.807  15.586  1.5611 -1.1309  1.4610
 4799SOL    HW225860   0.912   2.790  15.734 -2.0108  0.1890  0.4187
 4800SOL     OW25861   3.056   4.036   8.781 -0.1631  0.1783 -0.3724
 4800SOL    HW125862   3.048   4.067   8.691 -2.6545  3.2562  0.9140
 4800SOL    HW225863   3.141   4.068   8.812 -0.2636 -0.1758  0.2471
 4801SOL     OW25864   1.620   0.108   7.336 -0.3553 -0.3147 -0.1324
 4801SOL    HW125865   1.708   0.070   7.338 -0.2826  0.0095  3.8743
 4801SOL    HW225866   1.578   0.072   7.258 -0.3304  0.0467 -0.3119
 4802SOL     OW25867   1.778   3.430   8.009  0.7997 -0.3929 -0.0358
 4802SOL    HW125868   1.823   3.368   7.952  0.5891  0.1523 -0.8024
 4802SOL    HW225869   1.840   3.445   8.081  0.4259 -0.1009  0.2314
 4803SOL     OW25870   0.757   2.801   3.141  0.0722 -0.3965  0.0040
 4803SOL    HW125871   0.842   2.799   3.184  0.8005 -0.0254 -1.4261
 4803SOL    HW225872   0.748   2.713   3.104 -2.1925 -0.0190 -0.3879
 4804SOL     OW25873   0.732   1.556  12.570  0.0524  0.5977 -0.5046
 4804SOL    HW125874   0.815   1.587  12.606  0.3410 -0.0669 -0.5929
 4804SOL    HW225875   0.685   1.512  12.640  1.1574 -0.4346 -0.4222
 4805SOL     OW25876   0.351   3.421  10.238  0.3636 -0.0823  0.3101
 4805SOL    HW125877   0.326   3.328  10.231  3.1065 -0.7925  0.0049
 4805SOL    HW225878   0.269   3.469  10.249 -0.7430 -1.4278 -1.8852
 4806SOL     OW25879   1.217   4.135   6.984 -0.1956  0.1491 -0.2625
 4806SOL    HW125880   1.125   4.111   6.987 -0.2541  0.5986  1.6556
 4806SOL    HW225881   1.226   4.225   7.016 -2.7153  1.2084 -2.5165
 4807SOL     OW25882   0.426   0.209   5.025  0.2624 -0.1442  0.0195
 4807SOL    HW125883   0.507   0.213   4.974  0.3662 -0.2654  0.1748
 4807SOL    HW225884   0.449   0.267   5.098 -0.3810 -1.0834  0.9604
 4808SOL     OW25885   3.868   0.728  11.731 -0.0800 -0.3253  0.4683
 4808SOL    HW125886   3.866   0.738  11.636 -1.0769  4.3904  0.9580
 4808SOL    HW225887   3.930   0.656  11.740  0.7899  0.1945 -1.3100
 4809SOL     OW25888   1.500   4.012   4.309  0.0846 -0.2020  0.2850
 4809SOL    HW125889   1.464   4.009   4.220  1.8407 -1.3870 -0.3779
 4809SOL    HW225890   1.503   3.919   4.331 -0.1114 -0.4299 -0.6583
 4810SOL     OW25891   3.636   2.051   0.186 -0.0558 -0.1791  0.0424
 4810SOL    HW125892   3.610   1.972   0.139 -1.0727 -0.1062  0.4821
 4810SOL    HW225893   3.648   2.112   0.113  0.8976  0.6938  0.9199
 4811SOL     OW25894   0.798   1.240  16.392  0.6901 -0.2618  0.4742
 4811SOL    HW125895   0.711   1.271  16.366  0.6425 -1.7431 -1.1572
 4811SOL    HW225896   0.780   1.146  16.391 -0.7798  0.0129  0.6757
 4812SOL     OW25897   3.885   0.682   3.574 -0.1690  0.0451 -0.2685
 4812SOL    HW125898   3.965   0.679   3.522  0.1446  0.9354  0.1651
 4812SOL    HW225899   3.839   0.600   3.555 -2.4950  1.2983 -0.0126
 4813SOL     OW25900   0.500   4.185  17.211  0.3739  0.8794 -0.3317
 4813SOL    HW125901   0.414   4.161  17.175  0.4119 -2.2122  1.6558
 4813SOL    HW225902   0.478   4.213  17.300 -0.0860  0.3862 -0.2875
 4814SOL     OW25903   1.966   1.251   6.323 -0.3708  0.0500  0.0286
 4814SOL    HW125904   2.039   1.312   6.309  0.0414 -0.6502 -0.8909
 4814SOL    HW225905   1.962   1.258   6.418  4.0047 -0.3322  0.2630
 4815SOL     OW25906   4.699   4.412  14.797 -0.7010  0.2481  0.7662
 4815SOL    HW125907   4.629   4.384  14.737 -1.3373  0.8135  1.2423
 4815SOL    HW225908   4.650   4.437  14.875  0.7182 -1.2446  2.1302
 4816SOL     OW25909   1.209   2.911  16.188  0.1785  0.3311  0.1867
 4816SOL    HW125910   1.250   2.989  16.151  1.0810  0.0142  0.5243
 4816SOL    HW225911   1.207   2.859  16.108  0.7054 -1.3130  1.2428
 4817SOL     OW25912   3.850   0.689   6.694 -0.0740  0.5293 -0.0014
 4817SOL    HW125913   3.842   0.723   6.605  0.0473 -0.1691 -0.2711
 4817SOL    HW225914   3.858   0.776   6.735 -1.0437  0.6935 -0.1666
 4818SOL     OW25915   1.893   1.902   6.213 -0.4026  0.0681 -0.3054
 4818SOL    HW125916   1.868   1.919   6.123 -0.4747 -1.6598 -0.6212
 4818SOL    HW225917   1.981   1.871   6.193 -0.8647 -1.3986 -0.0860
 4819SOL     OW25918   3.848   3.136   4.560 -0.2051  0.2872  0.0987
 4819SOL    HW125919   3.809   3.113   4.644 -0.7857 -0.8107 -0.4747
 4819SOL    HW225920   3.775   3.161   4.503  0.0506 -0.2948 -0.4863
 4820SOL     OW25921   1.639   3.429  14.744 -0.2693  0.7013  0.1601
 4820SOL    HW125922   1.557   3.400  14.704 -0.4379 -0.3289  1.2536
 4820SOL    HW225923   1.619   3.387  14.827 -1.5792  1.8799  0.4426
 4821SOL     OW25924   1.304   1.276   1.771 -0.1731  0.2064  0.0755
 4821SOL    HW125925   1.365   1.256   1.700 -1.3557  2.7671 -1.6421
 4821SOL    HW225926   1.358   1.317   1.839 -1.5615  0.4678  1.0359
 4822SOL     OW25927   2.243   1.017   7.073 -0.2966  0.4357 -0.2251
 4822SOL    HW125928   2.242   0.928   7.038 -2.9672  0.4541 -0.2072
 4822SOL    HW225929   2.278   1.060   6.995  4.3612 -1.3132  0.9037
 4823SOL     OW25930   1.384   3.921   3.313  0.1069 -0.5017  0.2427
 4823SOL    HW125931   1.342   3.925   3.227  0.4620 -0.9184  0.0517
 4823SOL    HW225932   1.343   3.845   3.354 -1.1533  0.6430  1.1116
 4824SOL     OW25933   2.270   2.476   4.939 -0.2059 -0.4886  0.9094
 4824SOL    HW125934   2.275   2.428   5.022  0.3445  0.2463  1.2943
 4824SOL    HW225935   2.227   2.403   4.893 -2.1520  1.2504 -0.0367
 4825SOL     OW25936   1.731   1.248  13.468  0.1757  1.0589  0.3928
 4825SOL    HW125937   1.809   1.298  13.491  0.1110  1.6086 -0.6158
 4825SOL    HW225938   1.751   1.225  13.377 -1.0912  1.7142 -0.0447
 4826SOL     OW25939   2.633   3.654   4.957  0.1334  0.4143  0.0394
 4826SOL    HW125940   2.539   3.646   4.936  0.2857 -0.7097 -0.2108
 4826SOL    HW225941   2.644   3.721   4.890 -0.7853  0.1719 -0.3547
 4827SOL     OW25942   2.476   2.960   2.201  0.2899 -0.0638  0.0180
 4827SOL    HW125943   2.524   2.905   2.139 -0.0487  1.5905 -1.7109
 4827SOL    HW225944   2.453   2.895   2.267 -0.3209 -0.1828 -0.3187
 4828SOL     OW25945   0.182   1.731   8.073  0.1720  0.0045 -0.1321
 4828SOL    HW125946   0.188   1.822   8.102  0.0900 -0.0284 -0.0100
 4828SOL    HW225947   0.178   1.688   8.158 -1.7547  1.0745  0.3272
 4829SOL     OW25948   4.323   0.598  12.179  0.4517  0.0056 -0.2650
 4829SOL    HW125949   4.275   0.587  12.261  0.0111  1.7532 -0.2973
 4829SOL    HW225950   4.388   0.527  12.178 -2.1241 -2.3452 -1.4135
 4830SOL     OW25951   3.149   0.830  15.689  0.1677 -0.1253  0.0214
 4830SOL    HW125952   3.178   0.920  15.674 -0.1400 -0.1938 -0.9748
 4830SOL    HW225953   3.121   0.808  15.600 -1.1535 -1.7462  0.8373
 4831SOL     OW25954   0.198   4.272   7.503  0.5703 -0.2594 -0.2655
 4831SOL    HW125955   0.168   4.296   7.416  0.2796  0.7699  0.1282
 4831SOL    HW225956   0.232   4.356   7.531 -0.0290 -0.5704  1.3805
 4832SOL     OW25957   4.605   4.709   9.122  0.4430 -1.0122  0.0183
 4832SOL    HW125958   4.553   0.013   9.198  0.8283  0.4941 -0.2399
 4832SOL    HW225959   4.529   4.695   9.065  0.8959  0.5580 -0.9738
 4833SOL     OW25960   0.729   0.787   8.649 -0.0063  0.4485 -0.5701
 4833SOL    HW125961   0.717   0.757   8.559  0.2036  0.7601 -0.7022
 4833SOL    HW225962   0.662   0.855   8.647  0.9652  1.4700  1.6604
 4834SOL     OW25963   2.647   2.022  17.290 -0.2468  0.7215  0.3176
 4834SOL    HW125964   2.635   2.029  17.384  1.2265  1.3489  0.4614
 4834SOL    HW225965   2.743   2.027  17.284 -0.0907 -2.4458 -0.2018
 4835SOL     OW25966   0.865   2.413   6.894 -0.1811 -0.4259  0.0103
 4835SOL    HW125967   0.849   2.476   6.964  1.8969 -0.4419  0.5020
 4835SOL    HW225968   0.938   2.450   6.843 -1.4936  1.4179 -0.5162
 4836SOL     OW25969   1.839   3.217   7.155  1.0040  0.0479  0.1152
 4836SOL    HW125970   1.935   3.216   7.146  0.9331 -0.5254 -0.6068
 4836SOL    HW225971   1.833   3.126   7.183  1.6158 -0.5794 -1.7704
 4837SOL     OW25972   1.420   1.658   5.509  0.1934 -0.1845  0.0215
 4837SOL    HW125973   1.439   1.570   5.541  2.3225  0.4779  0.6136
 4837SOL    HW225974   1.506   1.697   5.527 -0.3180  0.4018  1.2455
 4838SOL     OW25975   3.841   3.161  12.993 -0.2915  0.5669  0.1359
 4838SOL    HW125976   3.825   3.150  12.899 -1.5813 -0.3784  0.4668
 4838SOL    HW225977   3.873   3.075  13.018  0.6265  0.4029 -1.6344
 4839SOL     OW25978   0.387   1.754  16.984 -0.4782 -0.7305 -0.3648
 4839SOL    HW125979   0.323   1.824  16.967  1.5223  0.8597 -1.2605
 4839SOL    HW225980   0.354   1.664  16.979  0.6802 -1.1208 -0.9208
 4840SOL     OW25981   1.848   1.340   2.042 -0.2840 -0.2619  0.0448
 4840SOL    HW125982   1.841   1.247   2.019 -0.3601 -0.3780  0.5458
 4840SOL    HW225983   1.904   1.341   2.119 -1.4376 -2.5105  0.9330
 4841SOL     OW25984   0.956   2.249   8.673 -0.0653 -0.7778 -0.0458
 4841SOL    HW125985   0.921   2.320   8.727  0.4671 -1.5465  1.3047
 4841SOL    HW225986   0.990   2.198   8.746  1.5592  2.1593  1.2860
 4842SOL     OW25987   1.149   1.962   2.965 -0.7163 -0.0161 -0.2165
 4842SOL    HW125988   1.221   2.024   2.972 -0.2844 -0.6745  1.2226
 4842SOL    HW225989   1.195   1.888   3.004  0.2431 -0.1141 -1.5454
 4843SOL     OW25990   2.173   0.660   5.370  0.3435  0.3241  0.8053
 4843SOL    HW125991   2.112   0.720   5.326  3.0376  0.7318 -2.4169
 4843SOL    HW225992   2.119   0.619   5.438 -0.6397 -0.4902 -0.4598
 4844SOL     OW25993   0.394   2.167  13.708 -0.0450  0.7410 -0.1912
 4844SOL    HW125994   0.457   2.204  13.647 -0.4997  1.1209 -0.4297
 4844SOL    HW225995   0.381   2.081  13.668  2.3019  0.8392 -1.1706
 4845SOL     OW25996   3.448   0.216   5.929  0.3812 -0.0718 -0.1009
 4845SOL    HW125997   3.396   0.295   5.935  1.2705  0.3493  2.1325
 4845SOL    HW225998   3.499   0.231   5.850 -2.7318 -2.4152 -2.5407
 4846SOL     OW25999   1.138   1.710   3.835  0.0136  0.1614 -0.2398
 4846SOL    HW126000   1.195   1.749   3.901 -1.7941 -0.5187  1.7499
 4846SOL    HW226001   1.188   1.715   3.754  0.1040  1.1311 -0.1159
 4847SOL     OW26002   3.108   2.127   8.153 -0.1632 -0.0811  0.3917
 4847SOL    HW126003   3.145   2.069   8.086  1.3391  0.0102  1.1622
 4847SOL    HW226004   3.034   2.070   8.175  0.2629 -0.6393  0.3793
 4848SOL     OW26005   4.248   1.528   8.562 -0.1161  0.4201 -0.5179
 4848SOL    HW126006   4.184   1.558   8.497  0.0802  0.0800 -0.8765
 4848SOL    HW226007   4.199   1.461   8.610 -0.7066 -0.4020 -2.2547
 4849SOL     OW26008   3.919   3.806  15.193  0.3457  0.0618  0.9027
 4849SOL    HW126009   3.916   3.719  15.152 -0.5750 -0.7813  2.7808
 4849SOL    HW226010   3.980   3.864  15.147 -2.3833  1.2455 -1.2005
 4850SOL     OW26011   4.340   4.221   5.895  0.2880  0.5259  0.0711
 4850SOL    HW126012   4.306   4.138   5.928 -0.4616  1.1928  0.9629
 4850SOL    HW226013   4.341   4.199   5.802 -0.6415  1.6210 -0.1949
 4851SOL     OW26014   4.239   0.449   8.051  0.0569 -0.3252 -0.5425
 4851SOL    HW126015   4.194   0.369   8.079  1.4179 -1.2429 -0.9724
 4851SOL    HW226016   4.258   0.493   8.134 -0.3062 -0.8794 -0.1650
 4852SOL     OW26017   4.338   0.371  14.560  0.3771  0.2782 -0.2681
 4852SOL    HW126018   4.280   0.444  14.582 -0.0774  0.6280 -2.6634
 4852SOL    HW226019   4.314   0.348  14.470  0.9298 -2.7141  0.3604
 4853SOL     OW26020   0.016   2.625  10.160 -0.3437 -0.4346 -0.0836
 4853SOL    HW126021   4.669   2.679  10.198  0.6467  0.7063  0.1076
 4853SOL    HW226022   0.067   2.585  10.231 -3.7230  0.6647  2.9548
 4854SOL     OW26023   2.250   2.052   2.378 -0.0557 -0.0678  0.0467
 4854SOL    HW126024   2.225   2.025   2.466 -1.5893 -0.7541 -0.5888
 4854SOL    HW226025   2.200   2.133   2.368  1.2461  0.4657 -2.1063
 4855SOL     OW26026   3.930   0.594  12.172  0.0298  0.1573 -0.2445
 4855SOL    HW126027   3.967   0.573  12.258 -2.1069  0.1378  0.6574
 4855SOL    HW226028   3.908   0.687  12.178 -0.7897 -0.0940  0.6398
 4856SOL     OW26029   3.474   2.072   2.490 -0.4695  0.6549  0.8528
 4856SOL    HW126030   3.395   2.062   2.544 -0.9148 -0.4046 -0.0023
 4856SOL    HW226031   3.457   2.123   2.411 -0.0795  1.8732  1.5663
 4857SOL     OW26032   1.009   2.413   4.018  0.3707  0.0612 -0.0981
 4857SOL    HW126033   0.957   2.493   4.009  0.8541  0.4286  0.3685
 4857SOL    HW226034   0.934   2.355   4.026  1.5181 -1.3364  0.4946
 4858SOL     OW26035   4.374   3.921  14.452 -0.0287  0.1073 -0.3810
 4858SOL    HW126036   4.347   4.001  14.407  0.2451  0.5990  0.3312
 4858SOL    HW226037   4.301   3.905  14.511  1.3029 -0.4033  1.1073
 4859SOL     OW26038   0.156   2.317  12.854  0.4089 -0.7733 -0.0161
 4859SOL    HW126039   0.100   2.357  12.788  0.3412  2.3685  1.9144
 4859SOL    HW226040   0.131   2.369  12.931 -2.6710 -4.0728  1.2182
 4860SOL     OW26041   3.813   2.069  16.456 -0.6741  0.7639  0.1007
 4860SOL    HW126042   3.821   2.009  16.530 -1.2748  1.1273  0.4591
 4860SOL    HW226043   3.908   2.075  16.442 -0.5913  0.9892  0.7946
 4861SOL     OW26044   4.064   1.743  15.316 -0.0875 -0.8395  0.2382
 4861SOL    HW126045   4.035   1.655  15.338 -0.8339 -0.9923 -1.3989
 4861SOL    HW226046   4.024   1.741  15.230  0.6235  0.0151 -0.1165
 4862SOL     OW26047   4.579   0.519   7.425 -0.4535 -0.1973 -0.1649
 4862SOL    HW126048   4.553   0.504   7.333 -0.2744  0.3875 -0.3062
 4862SOL    HW226049   4.662   0.566   7.417  0.3333 -1.7655 -1.3182
 4863SOL     OW26050   0.894   3.069   2.464 -0.0501 -0.0179 -0.3570
 4863SOL    HW126051   0.828   3.131   2.495  1.8890  1.7623  0.1560
 4863SOL    HW226052   0.955   3.069   2.537 -0.2543 -1.3830 -0.1910
 4864SOL     OW26053   0.374   1.977  10.043 -0.3844 -0.0019 -0.2589
 4864SOL    HW126054   0.292   1.947  10.084 -1.3590  2.3751 -0.5163
 4864SOL    HW226055   0.386   2.051  10.102 -0.9160 -0.1759  0.0712
 4865SOL     OW26056   4.388   3.918   4.694  0.0850 -0.0248 -0.2025
 4865SOL    HW126057   4.309   3.935   4.745 -1.3013 -2.5853 -1.4904
 4865SOL    HW226058   4.361   3.836   4.651 -1.1742  0.2562  0.0409
 4866SOL     OW26059   1.402   0.118   0.291  0.4665 -0.0699  0.2632
 4866SOL    HW126060   1.389   0.210   0.269 -2.1038 -0.6885 -0.8034
 4866SOL    HW226061   1.314   0.091   0.316  0.9853 -0.9808  1.0713
 4867SOL     OW26062   0.754   0.876   1.772 -0.1123 -0.1743  0.4490
 4867SOL    HW126063   0.677   0.843   1.817 -0.8141 -0.6375 -1.1022
 4867SOL    HW226064   0.731   0.854   1.682 -1.3166  0.9053  0.4943
 4868SOL     OW26065   0.619   3.507   0.489  0.8382 -0.7487 -0.3303
 4868SOL    HW126066   0.574   3.522   0.405 -0.4500 -1.0444  0.2943
 4868SOL    HW226067   0.580   3.582   0.533  2.5951  0.0079 -0.0969
 4869SOL     OW26068   2.064   2.984  14.815  0.0781  0.6837  0.6271
 4869SOL    HW126069   2.143   2.967  14.867  1.1672 -2.3094 -1.9933
 4869SOL    HW226070   1.991   2.940  14.859 -1.3712  1.6875 -0.7477
 4870SOL     OW26071   1.331   0.306   2.072  0.4873  0.2042  0.4960
 4870SOL    HW126072   1.348   0.398   2.094 -0.6636  1.0456 -2.1439
 4870SOL    HW226073   1.249   0.310   2.023  0.4921  0.4236  0.5054
 4871SOL     OW26074   3.803   3.706   2.119  0.1987 -0.0117  0.7278
 4871SOL    HW126075   3.851   3.770   2.172 -1.6247  2.2975 -0.4011
 4871SOL    HW226076   3.727   3.760   2.096  0.8475 -0.0322 -1.5060
 4872SOL     OW26077   0.835   1.648   7.297  0.3713 -0.1537  0.1614
 4872SOL    HW126078   0.758   1.689   7.256  0.8111  0.3851 -0.1278
 4872SOL    HW226079   0.839   1.571   7.240  3.7760 -1.6795  2.4934
 4873SOL     OW26080   0.226   1.247  15.103 -0.1400 -0.3322 -0.1498
 4873SOL    HW126081   0.169   1.323  15.114  0.1640  0.1614 -1.8668
 4873SOL    HW226082   0.260   1.227  15.190  0.0173  0.0906 -0.1154
 4874SOL     OW26083   2.573   3.005   4.991 -0.2432 -0.4501  0.0733
 4874SOL    HW126084   2.579   3.098   5.015 -1.9530 -0.3556  0.0827
 4874SOL    HW226085   2.662   2.980   5.018  0.9791 -0.4741 -4.0639
 4875SOL     OW26086   3.548   4.120  15.619 -0.1422  0.1196 -0.3530
 4875SOL    HW126087   3.460   4.101  15.588 -0.2486 -1.1165  0.7318
 4875SOL    HW226088   3.591   4.160  15.543  1.6805  1.1376  1.2125
 4876SOL     OW26089   3.584   2.421   8.732 -0.1347 -0.1462  0.4932
 4876SOL    HW126090   3.572   2.502   8.681 -0.9177  1.3257  3.0059
 4876SOL    HW226091   3.679   2.408   8.733  0.0959  1.3553 -1.6194
 4877SOL     OW26092   0.285   0.579   3.351  0.1015 -0.2207  0.5829
 4877SOL    HW126093   0.202   0.541   3.323  0.2842 -0.7698  0.7766
 4877SOL    HW226094   0.346   0.560   3.280 -1.1893 -2.8970  0.2141
 4878SOL     OW26095   0.413   2.232   6.564  0.2156 -1.0918  0.0771
 4878SOL    HW126096   0.335   2.179   6.546 -1.3014  1.6039 -1.3651
 4878SOL    HW226097   0.375   2.320   6.570 -3.8908 -2.9374  1.4048
 4879SOL     OW26098   2.839   1.139   6.964 -0.2707  0.2321  0.8348
 4879SOL    HW126099   2.814   1.048   6.947 -0.8285  0.9301 -1.9980
 4879SOL    HW226100   2.934   1.133   6.961 -0.2640 -1.4350  4.4872
 4880SOL     OW26101   0.679   0.236   1.986 -0.3637 -0.2041  0.2195
 4880SOL    HW126102   0.627   0.244   1.906 -0.3949 -2.0188  0.0577
 4880SOL    HW226103   0.727   0.317   1.970  0.5854 -0.5466  1.3522
 4881SOL     OW26104   1.035   2.731   7.285  0.2669 -0.2197 -0.4377
 4881SOL    HW126105   1.099   2.794   7.317 -0.3477  1.7792 -3.1675
 4881SOL    HW226106   0.951   2.754   7.325  0.3176  0.6472 -0.8258
 4882SOL     OW26107   2.891   4.438   2.705 -0.0931 -0.0220 -0.2459
 4882SOL    HW126108   2.817   4.392   2.744  1.3148 -1.3838  0.8075
 4882SOL    HW226109   2.957   4.369   2.708  0.3341  0.3199 -1.5830
 4883SOL     OW26110   0.598   1.917  12.419 -0.0731 -0.1778  0.6453
 4883SOL    HW126111   0.555   1.898  12.502 -1.5495 -1.4825 -0.4368
 4883SOL    HW226112   0.660   1.988  12.439 -1.7077  1.2210  0.7705
 4884SOL     OW26113   0.630   1.588  15.890 -0.4966 -0.1593 -0.0613
 4884SOL    HW126114   0.540   1.619  15.900 -0.3412  0.1391  0.4564
 4884SOL    HW226115   0.639   1.532  15.967 -0.7581  0.7746  0.6440
 4885SOL     OW26116   1.696   2.507   6.228 -0.1370  0.1330  0.2066
 4885SOL    HW126117   1.618   2.456   6.207 -1.0548  2.0647 -1.0933
 4885SOL    HW226118   1.729   2.451   6.298  1.9025  2.0754  0.7827
 4886SOL     OW26119   3.835   0.628   9.905 -0.3897  0.5997 -0.7698
 4886SOL    HW126120   3.925   0.658   9.920 -0.0820 -1.4590  1.4918
 4886SOL    HW226121   3.840   0.545   9.858 -3.1074  0.7834 -1.3748
 4887SOL     OW26122   3.586   1.794   0.900  0.6812 -0.5729 -0.0394
 4887SOL    HW126123   3.658   1.855   0.916  0.7808  0.1674 -3.2725
 4887SOL    HW226124   3.550   1.776   0.987  0.4466  2.5349  0.4921
 4888SOL     OW26125   4.592   1.342   1.506  0.1820 -0.1966  0.5323
 4888SOL    HW126126   4.648   1.409   1.468  0.1994 -1.1700 -1.1425
 4888SOL    HW226127   4.634   1.314   1.587  1.3752 -1.2385 -0.4518
 4889SOL     OW26128   3.324   3.696   2.665  0.2624  0.3359  0.3480
 4889SOL    HW126129   3.244   3.736   2.698  1.3501  2.8032 -0.0156
 4889SOL    HW226130   3.289   3.672   2.579 -2.2640  0.1142  1.4332
 4890SOL     OW26131   3.705   2.625   7.337 -0.1261 -0.2592  0.5554
 4890SOL    HW126132   3.699   2.610   7.243  0.0330 -0.2796  0.5499
 4890SOL    HW226133   3.681   2.541   7.375 -0.6571 -0.3163  0.0917
 4891SOL     OW26134   4.640   3.609   7.199 -0.4012 -0.4848  0.2506
 4891SOL    HW126135   0.005   3.610   7.238 -0.4643  3.1271  0.3137
 4891SOL    HW226136   4.596   3.661   7.267  1.0663  0.4868  0.4519
 4892SOL     OW26137   3.371   3.808   8.817 -0.0198 -0.1414  0.2298
 4892SOL    HW126138   3.301   3.782   8.878  0.8985 -3.1428 -0.0041
 4892SOL    HW226139   3.342   3.897   8.801  1.4503  0.1469 -0.8153
 4893SOL     OW26140   0.780   0.972   5.427  0.0293 -0.2705 -0.2643
 4893SOL    HW126141   0.859   0.943   5.473  0.8744 -0.3170 -1.7585
 4893SOL    HW226142   0.808   1.033   5.359 -1.7168  1.5551  0.6645
 4894SOL     OW26143   1.075   3.481  11.350  0.5937  0.0791  0.1917
 4894SOL    HW126144   1.153   3.477  11.296 -0.9821 -0.8474 -2.0141
 4894SOL    HW226145   1.106   3.515  11.434 -0.4066 -1.3433  1.1361
 4895SOL     OW26146   2.910   3.240   7.909 -0.2542  0.1385 -0.0364
 4895SOL    HW126147   2.874   3.287   7.834 -1.3484 -2.1834 -0.9822
 4895SOL    HW226148   3.005   3.248   7.905 -0.1150 -0.9758  0.9921
 4896SOL     OW26149   1.417   3.499  10.388 -0.5235  0.5924  0.5859
 4896SOL    HW126150   1.506   3.475  10.362 -1.3676 -0.5177 -1.2275
 4896SOL    HW226151   1.400   3.573  10.330 -0.1823  1.3342  1.4251
 4897SOL     OW26152   2.896   2.876  10.779  0.0778  0.4396  0.1037
 4897SOL    HW126153   2.863   2.876  10.869 -3.3867  0.0883 -1.1632
 4897SOL    HW226154   2.979   2.924  10.778  0.5819 -0.4277 -0.9079
 4898SOL     OW26155   1.586   0.761   7.775 -0.0991  0.3390 -0.3104
 4898SOL    HW126156   1.647   0.835   7.770 -0.3127  0.3527 -2.6644
 4898SOL    HW226157   1.517   0.811   7.730 -1.9001 -1.8321  0.0154
 4899SOL     OW26158   1.022   3.866   9.278 -0.1588  0.6246 -0.1599
 4899SOL    HW126159   0.976   3.798   9.326  0.5099 -1.8950 -3.0528
 4899SOL    HW226160   1.111   3.832   9.288 -0.1675  0.5215 -0.4206
 4900SOL     OW26161   1.319   3.490   7.237  0.3401 -1.4688 -0.3440
 4900SOL    HW126162   1.272   3.570   7.261  0.7209 -1.2269 -0.3942
 4900SOL    HW226163   1.405   3.506   7.276 -0.2304  0.0291  0.2926
 4901SOL     OW26164   4.138   1.447   3.922  0.1791 -0.4616  0.7372
 4901SOL    HW126165   4.185   1.526   3.894 -0.3269 -0.5030 -0.2325
 4901SOL    HW226166   4.151   1.436   4.016  0.8084  0.3286  0.7448
 4902SOL     OW26167   0.969   1.004  12.593  0.8613 -0.0394  0.2467
 4902SOL    HW126168   0.942   0.918  12.627 -3.5313  2.4035  2.9050
 4902SOL    HW226169   0.936   0.999  12.504 -1.7910 -0.6884  1.2687
 4903SOL     OW26170   0.354   0.739  10.947 -0.1230 -0.0711  0.0609
 4903SOL    HW126171   0.405   0.658  10.958 -0.7241 -0.6469 -1.3462
 4903SOL    HW226172   0.270   0.710  10.983 -0.7661 -0.6270 -1.8724
 4904SOL     OW26173   1.165   1.260  13.841 -0.7741 -0.0544 -0.2132
 4904SOL    HW126174   1.152   1.353  13.823 -0.2967 -0.0739 -0.6595
 4904SOL    HW226175   1.249   1.268  13.887 -0.5344  0.2707 -0.7091
 4905SOL     OW26176   2.091   4.304   1.717  0.2702  0.2929  0.1543
 4905SOL    HW126177   2.137   4.265   1.791  0.9822  0.5779 -0.1316
 4905SOL    HW226178   2.043   4.225   1.693  1.3918 -0.5245  0.6005
 4906SOL     OW26179   3.969   1.304   7.619 -0.0894  0.5297 -0.6028
 4906SOL    HW126180   3.966   1.347   7.705  2.3741 -1.2679  0.3982
 4906SOL    HW226181   3.880   1.268   7.619 -0.5324  1.6112  0.7318
 4907SOL     OW26182   4.056   2.067   3.475  0.5033 -0.4106  0.1086
 4907SOL    HW126183   4.105   2.030   3.402  1.1615 -0.8369  0.7756
 4907SOL    HW226184   4.003   2.132   3.428 -0.1222 -0.5682  0.6039
 4908SOL     OW26185   4.710   3.206   5.268 -0.1796 -0.3528  0.4906
 4908SOL    HW126186   4.711   3.111   5.259 -2.1118 -0.5998  2.7537
 4908SOL    HW226187   0.014   3.215   5.360 -0.8029 -2.9946  0.9076
 4909SOL     OW26188   3.549   2.229  14.731 -0.2793 -0.0211 -0.1957
 4909SOL    HW126189   3.498   2.237  14.811 -1.8086  1.5918 -1.3210
 4909SOL    HW226190   3.555   2.319  14.699  1.0716  0.6119  1.8840
 4910SOL     OW26191   1.105   2.608   5.227 -0.3719  0.3819  0.0838
 4910SOL    HW126192   1.112   2.681   5.288 -0.6002 -0.3849  1.0241
 4910SOL    HW226193   1.059   2.657   5.158  1.5818  0.2859 -1.2759
 4911SOL     OW26194   0.018   3.370   9.505 -0.4832  0.1318 -0.6984
 4911SOL    HW126195   0.110   3.357   9.526 -0.1844  1.1318 -1.3883
 4911SOL    HW226196   4.713   3.278   9.503  0.2284 -0.1072  0.3441
 4912SOL     OW26197   0.214   0.392   5.672 -0.0792 -0.1346 -0.0454
 4912SOL    HW126198   0.302   0.358   5.686  0.0260  0.3921  0.5943
 4912SOL    HW226199   0.234   0.485   5.661 -1.7313  0.4124  1.4789
 4913SOL     OW26200   2.261   4.585   3.415  0.4710  0.0948  0.3635
 4913SOL    HW126201   2.187   4.531   3.388 -0.6833  0.9618  1.8520
 4913SOL    HW226202   2.323   4.514   3.431  0.2657 -0.0592  0.4759
 4914SOL     OW26203   0.257   2.172   4.175 -0.2577 -0.4510  0.8631
 4914SOL    HW126204   0.268   2.267   4.167  2.0259 -0.9177 -1.5603
 4914SOL    HW226205   0.274   2.164   4.081  1.2071 -0.2233  1.0942
 4915SOL     OW26206   2.520   2.582   2.885 -0.1719 -0.0386 -0.3433
 4915SOL    HW126207   2.511   2.669   2.846  1.9022 -0.7367 -2.3709
 4915SOL    HW226208   2.441   2.542   2.849  0.2068  0.3094 -1.5575
 4916SOL     OW26209   1.643   2.862   5.365  0.1599 -0.1629  0.2800
 4916SOL    HW126210   1.636   2.809   5.445 -0.1224 -1.3952 -0.5622
 4916SOL    HW226211   1.672   2.798   5.300 -1.7035  0.0509 -0.7476
 4917SOL     OW26212   3.482   3.667   6.138  0.8362  0.0080 -0.0279
 4917SOL    HW126213   3.444   3.675   6.051  0.8386  0.0861 -0.0216
 4917SOL    HW226214   3.539   3.742   6.153  2.1130 -0.4113 -2.7253
 4918SOL     OW26215   3.879   3.366   2.984 -0.8544  0.1489 -0.0337
 4918SOL    HW126216   3.852   3.450   2.949 -1.6293 -0.2654 -0.4303
 4918SOL    HW226217   3.965   3.356   2.944 -0.0892  2.0399  1.1328
 4919SOL     OW26218   0.275   4.431  14.463  0.1179  0.5961 -0.4733
 4919SOL    HW126219   0.277   4.447  14.557 -1.3827  2.1686 -0.7169
 4919SOL    HW226220   0.337   4.499  14.437  0.9652 -1.1637 -3.1567
 4920SOL     OW26221   3.686   1.084  12.108 -0.1841  0.1794 -0.1581
 4920SOL    HW126222   3.599   1.122  12.091  0.7897  1.9506 -1.2408
 4920SOL    HW226223   3.743   1.160  12.121 -0.2027  0.1015  0.3682
 4921SOL     OW26224   3.714   0.747   8.732  0.0209  0.2467 -0.3515
 4921SOL    HW126225   3.670   0.675   8.686 -1.6745  0.0310  1.6371
 4921SOL    HW226226   3.646   0.797   8.777 -0.0949 -0.2173 -0.0055
 4922SOL     OW26227   0.959   1.914   7.413  0.3085 -0.0443  0.1393
 4922SOL    HW126228   0.949   1.951   7.325  0.9608 -0.2827 -0.0361
 4922SOL    HW226229   1.041   1.949   7.447 -1.1294  1.4783  2.0089
 4923SOL     OW26230   0.411   0.383   7.905 -0.3479 -0.1589  0.6929
 4923SOL    HW126231   0.468   0.394   7.829 -1.7670  3.5393  0.1462
 4923SOL    HW226232   0.409   0.468   7.948  1.4900  0.4360 -0.3914
 4924SOL     OW26233   3.798   4.497   3.019 -0.1403 -0.3321 -0.5151
 4924SOL    HW126234   3.716   4.521   2.976 -0.1686  0.6111  0.0704
 4924SOL    HW226235   3.809   4.573   3.077 -0.5363  0.1078 -1.0248
 4925SOL     OW26236   2.550   4.332   1.815 -0.3848  0.2590 -0.6459
 4925SOL    HW126237   2.510   4.309   1.731  1.3284 -1.4936 -0.9798
 4925SOL    HW226238   2.604   4.256   1.836 -0.0572  0.6934  0.0724
 4926SOL     OW26239   0.071   1.424   3.506  0.5423  0.4032 -0.0314
 4926SOL    HW126240   0.166   1.419   3.516  0.3956  0.5612  1.3826
 4926SOL    HW226241   0.080   1.411   3.412 -0.8835  1.7123 -0.3352
 4927SOL     OW26242   0.466   1.316  17.641  0.0784 -0.2872 -0.5291
 4927SOL    HW126243   0.538   1.289  17.585  0.0124 -0.5064 -0.5060
 4927SOL    HW226244   0.452   1.237   0.001 -0.3277  0.4761  0.5472
 4928SOL     OW26245   4.258   3.942   6.700  0.0144 -0.2887  0.8015
 4928SOL    HW126246   4.261   3.864   6.756  0.8256 -1.8027 -1.3676
 4928SOL    HW226247   4.220   4.005   6.761 -1.7228  2.3988 -3.0830
 4929SOL     OW26248   2.787   1.726   0.648  0.8178 -0.3347 -0.3658
 4929SOL    HW126249   2.798   1.759   0.736  1.9271  0.1391 -0.6789
 4929SOL    HW226250   2.715   1.780   0.616  1.3326  1.3805  1.3921
 4930SOL     OW26251   3.343   1.320   6.789  0.4258 -0.3133 -0.1693
 4930SOL    HW126252   3.362   1.401   6.836  2.0861 -0.3793 -0.7356
 4930SOL    HW226253   3.254   1.334   6.756  0.7391 -0.6811 -1.1758
 4931SOL     OW26254   2.574   2.240   7.246  0.3163 -0.1453  0.0551
 4931SOL    HW126255   2.575   2.228   7.151  1.3166  2.0478 -0.2306
 4931SOL    HW226256   2.661   2.207   7.269 -0.1965 -1.6658 -0.1934
 4932SOL     OW26257   1.536   0.357   7.446  0.2793  0.3539 -0.4423
 4932SOL    HW126258   1.606   0.302   7.410 -0.8126 -1.3960  0.1296
 4932SOL    HW226259   1.462   0.307   7.413  0.8865 -1.2218  0.5662
 4933SOL     OW26260   1.395   3.420  17.432  0.2484 -0.3822 -0.0944
 4933SOL    HW126261   1.389   3.512  17.406 -0.3531 -0.7740 -1.3539
 4933SOL    HW226262   1.313   3.380  17.405  0.8428 -1.6156 -0.0753
 4934SOL     OW26263   3.945   1.437   6.871  0.1114  0.0955 -0.9719
 4934SOL    HW126264   3.937   1.424   6.966 -1.7638  1.8454 -0.9047
 4934SOL    HW226265   3.960   1.347   6.843  0.6925 -0.0182 -0.3122
 4935SOL     OW26266   3.558   1.129   1.546 -0.3776  0.4240 -0.5796
 4935SOL    HW126267   3.526   1.048   1.585 -1.5636  0.6114 -1.1627
 4935SOL    HW226268   3.618   1.154   1.616 -0.9038  2.7700 -0.9618
 4936SOL     OW26269   3.947   3.772   8.626 -0.3936  0.3340 -0.6399
 4936SOL    HW126270   3.911   3.844   8.573 -2.1161 -0.4482 -0.5530
 4936SOL    HW226271   3.950   3.815   8.711  1.4100 -0.1121 -0.4887
 4937SOL     OW26272   3.116   0.794   7.034  0.0877  0.5370 -0.0379
 4937SOL    HW126273   3.141   0.886   7.030  1.1400  0.2082 -1.2497
 4937SOL    HW226274   3.020   0.799   7.039  0.1020 -0.2519  1.0267
 4938SOL     OW26275   0.671   3.779   2.936  0.8681 -0.0633 -0.4696
 4938SOL    HW126276   0.610   3.718   2.978  0.7849  0.7245  0.5611
 4938SOL    HW226277   0.726   3.808   3.009  1.3445  2.5260 -1.8684
 4939SOL     OW26278   3.798   1.992   1.034 -0.1374 -0.2116  0.3658
 4939SOL    HW126279   3.847   1.916   1.066 -0.4133 -1.0070 -1.0785
 4939SOL    HW226280   3.864   2.039   0.983 -0.8199  1.1574  0.7486
 4940SOL     OW26281   3.529   1.380  11.136  0.1753 -0.5549  0.1999
 4940SOL    HW126282   3.492   1.296  11.162  0.2311 -0.5476  0.3028
 4940SOL    HW226283   3.462   1.434  11.177 -1.8781 -0.7629 -2.8679
 4941SOL     OW26284   0.450   3.296   8.323  0.5547 -0.1711 -0.3221
 4941SOL    HW126285   0.388   3.366   8.343  2.0931  0.8846  0.6619
 4941SOL    HW226286   0.387   3.224   8.326 -0.9298  1.0728 -1.5621
 4942SOL     OW26287   3.735   2.142   5.215 -0.1495 -0.5242  0.3948
 4942SOL    HW126288   3.794   2.184   5.152  0.1868 -1.6880 -0.0735
 4942SOL    HW226289   3.673   2.097   5.157  0.6982  0.3065 -1.1625
 4943SOL     OW26290   0.790   1.059   7.267 -0.6135  0.2068  0.3055
 4943SOL    HW126291   0.880   1.080   7.291 -0.1176  1.7155 -2.7365
 4943SOL    HW226292   0.798   1.066   7.171  1.6706  0.3087  0.5010
 4944SOL     OW26293   0.079   0.578   5.981  0.3509 -1.0507  0.3231
 4944SOL    HW126294   0.024   0.511   5.940  0.0765 -0.3260 -0.4840
 4944SOL    HW226295   0.027   0.656   5.999 -0.3158 -1.0455 -1.6578
 4945SOL     OW26296   1.821   0.693  10.141  0.0820 -0.5983  0.2800
 4945SOL    HW126297   1.757   0.760  10.116  0.7076 -0.1419 -0.0922
 4945SOL    HW226298   1.821   0.704  10.236 -1.6383  3.4273 -0.1978
 4946SOL     OW26299   1.879   4.113   1.410 -0.1956  0.2499 -0.1724
 4946SOL    HW126300   1.813   4.170   1.452  0.1311 -0.9589  1.9948
 4946SOL    HW226301   1.841   4.091   1.325 -3.3698  2.6939  0.6250
 4947SOL     OW26302   3.692   1.999  13.987  0.3956 -0.0319 -0.7692
 4947SOL    HW126303   3.696   2.013  14.081 -1.6076  0.0250 -0.7053
 4947SOL    HW226304   3.599   1.983  13.969  0.5715 -0.5514 -1.2057
 4948SOL     OW26305   4.185   4.477   7.803 -0.7733 -0.2822  0.3748
 4948SOL    HW126306   4.101   4.506   7.770  0.1348 -0.0657 -1.7174
 4948SOL    HW226307   4.162   4.395   7.845  0.5295 -0.7072  0.2574
 4949SOL     OW26308   3.371   4.516  14.035  0.3734  0.0736 -0.2192
 4949SOL    HW126309   3.431   4.448  14.064 -1.4987 -1.9905 -1.1592
 4949SOL    HW226310   3.409   4.588  14.085  0.9975 -1.4619  1.5150
 4950SOL     OW26311   1.155   3.170   5.767  0.3151  0.0543 -0.0678
 4950SOL    HW126312   1.200   3.135   5.690  1.9041  1.4684  0.2061
 4950SOL    HW226313   1.126   3.257   5.740 -1.4519 -1.4303 -2.8766
 4951SOL     OW26314   3.740   0.621  13.589  0.2793  0.8335  0.2682
 4951SOL    HW126315   3.816   0.674  13.613  0.1596  0.6173  1.1203
 4951SOL    HW226316   3.707   0.611  13.678  1.9268 -0.1740  0.7490
 4952SOL     OW26317   2.438   2.094   5.531 -0.0370  0.2861  0.2001
 4952SOL    HW126318   2.359   2.148   5.522  0.7414  1.0859 -1.6577
 4952SOL    HW226319   2.487   2.097   5.449 -1.4238 -0.1897 -0.6537
 4953SOL     OW26320   4.212   4.497  14.321  0.3210 -0.1191  0.5231
 4953SOL    HW126321   4.221   4.592  14.311  0.9876 -0.0545  1.6802
 4953SOL    HW226322   4.128   4.498  14.367 -0.2376  0.5850 -0.5214
 4954SOL     OW26323   3.948   0.987   0.594  0.3275 -0.5536 -0.4928
 4954SOL    HW126324   3.853   0.984   0.591  0.2679 -0.1955  0.8209
 4954SOL    HW226325   3.972   0.908   0.546  1.4859 -0.7524  0.3911
 4955SOL     OW26326   1.468   2.875   8.463  0.6297  0.2837  0.1226
 4955SOL    HW126327   1.392   2.878   8.405 -1.2984  0.2470  2.6408
 4955SOL    HW226328   1.433   2.848   8.548  0.2361  1.7680  0.4251
 4956SOL     OW26329   0.327   1.224  14.346 -0.2157 -0.0834  0.4182
 4956SOL    HW126330   0.409   1.274  14.347 -1.3552  1.7177  4.3384
 4956SOL    HW226331   0.274   1.304  14.342  3.0503  1.9973 -1.3646
 4957SOL     OW26332   3.664   3.796  14.761  0.1256 -0.1934  0.4376
 4957SOL    HW126333   3.620   3.788  14.845  1.0593  2.2595  1.1650
 4957SOL    HW226334   3.669   3.889  14.742 -1.8689 -0.4300 -1.2094
 4958SOL     OW26335   2.098   3.207   7.127  0.0638 -0.5698 -0.6544
 4958SOL    HW126336   2.116   3.114   7.121  1.8770 -0.1676 -1.6318
 4958SOL    HW226337   2.175   3.247   7.087 -1.0000 -0.1908 -2.3309
 4959SOL     OW26338   2.821   4.168   5.683  0.4698 -0.3526  0.3195
 4959SOL    HW126339   2.871   4.176   5.764  1.2346  2.6937 -0.4311
 4959SOL    HW226340   2.760   4.242   5.688 -1.9939 -2.4530  1.2527
 4960SOL     OW26341   2.308   4.617  17.576 -0.2513 -0.2375 -0.5443
 4960SOL    HW126342   2.333   4.618  17.484  1.6499  1.3294  0.0048
 4960SOL    HW226343   2.335   4.528  17.599 -2.6359 -1.4030 -2.1668
 4961SOL     OW26344   3.803   2.616  12.260  0.8804  0.1878  0.0761
 4961SOL    HW126345   3.795   2.615  12.165 -0.7627  0.1490  0.2180
 4961SOL    HW226346   3.757   2.536  12.285 -2.0438  2.2891  1.4081
 4962SOL     OW26347   0.466   4.486   8.159 -0.2235 -0.0564  0.2188
 4962SOL    HW126348   0.523   4.562   8.165 -0.5757 -0.1486  4.2378
 4962SOL    HW226349   0.422   4.481   8.243  3.8763  0.5595  2.3803
 4963SOL     OW26350   3.093   1.063   3.487 -0.2256 -0.4466 -0.8046
 4963SOL    HW126351   2.999   1.069   3.466 -0.1804 -2.4045 -1.5409
 4963SOL    HW226352   3.102   1.158   3.496 -2.8651 -0.2358 -0.1672
 4964SOL     OW26353   3.375   3.606   1.100 -0.7062  0.0867 -0.0006
 4964SOL    HW126354   3.427   3.589   1.178 -1.3164  0.2084  0.4320
 4964SOL    HW226355   3.326   3.683   1.128  0.9900  0.8707  0.7360
 4965SOL     OW26356   1.712   4.633   1.873  0.9178  0.2532 -0.4498
 4965SOL    HW126357   1.801   4.604   1.852  0.0962 -1.0986 -2.1070
 4965SOL    HW226358   1.674   4.597   1.793  0.5450 -1.0050  0.3069
 4966SOL     OW26359   2.895   2.358   0.900  0.2377  0.1864 -0.4226
 4966SOL    HW126360   2.947   2.385   0.825  0.0964  0.0259 -0.5785
 4966SOL    HW226361   2.947   2.393   0.972 -2.4961  2.6765  0.3316
 4967SOL     OW26362   2.336   4.241   3.023 -0.5669 -0.1707  0.1860
 4967SOL    HW126363   2.370   4.163   3.067 -1.6543 -0.9925 -0.4385
 4967SOL    HW226364   2.402   4.310   3.031 -0.4850 -0.2824  0.4756
 4968SOL     OW26365   1.517   4.660  15.710 -0.0456  0.5229 -0.1497
 4968SOL    HW126366   1.518   4.670  15.615 -0.0804  3.7606  0.2069
 4968SOL    HW226367   1.492   0.028  15.729  0.8660  1.2043 -2.2164
 4969SOL     OW26368   2.371   0.237  17.564  0.1972  0.0279  0.4771
 4969SOL    HW126369   2.460   0.201  17.556 -0.8350 -2.3485 -0.1727
 4969SOL    HW226370   2.346   0.263  17.475  1.4890  0.2014  0.1528
 4970SOL     OW26371   4.400   1.295   9.084 -0.1038 -0.1813 -0.1241
 4970SOL    HW126372   4.325   1.338   9.124  0.9776  0.7087  0.9464
 4970SOL    HW226373   4.468   1.354   9.116  0.4825 -0.3044 -1.1220
 4971SOL     OW26374   0.389   3.029   9.105  0.5306  0.3624 -0.4748
 4971SOL    HW126375   0.370   3.088   9.032 -1.0263 -0.5668 -0.8221
 4971SOL    HW226376   0.471   3.059   9.143  0.2505  1.6051 -0.8280
 4972SOL     OW26377   4.270   3.086   6.114  0.6089 -0.5419  0.4688
 4972SOL    HW126378   4.353   3.067   6.157  1.3633 -0.7659 -1.0654
 4972SOL    HW226379   4.215   3.126   6.181  1.3116 -0.3108  0.8988
 4973SOL     OW26380   3.064   0.006  11.148 -0.3192 -0.0332 -0.3255
 4973SOL    HW126381   3.124   4.662  11.183 -0.8189 -0.8688 -1.0465
 4973SOL    HW226382   3.122   0.045  11.084  0.4856 -2.0718 -0.8421
 4974SOL     OW26383   0.097   0.551  14.546  0.0161 -0.6872 -0.0739
 4974SOL    HW126384   0.025   0.569  14.607  1.5306  0.2327  1.4296
 4974SOL    HW226385   0.068   0.615  14.481 -1.8187 -0.8678  0.5700
 4975SOL     OW26386   1.512   3.357   4.634 -0.8552 -0.1276 -0.2843
 4975SOL    HW126387   1.511   3.278   4.580 -0.4931  0.8206 -1.6726
 4975SOL    HW226388   1.514   3.313   4.719  0.8735  0.8109  0.1642
 4976SOL     OW26389   2.587   1.710  10.591  0.1226  0.0296  0.2139
 4976SOL    HW126390   2.562   1.721  10.500  0.8675 -0.5821 -0.0599
 4976SOL    HW226391   2.604   1.616  10.593  0.5425  0.1156  0.6268
 4977SOL     OW26392   1.944   0.625   5.534 -0.3335 -0.2129 -0.3818
 4977SOL    HW126393   2.007   0.644   5.604 -0.6704 -0.3367 -0.0441
 4977SOL    HW226394   1.865   0.602   5.584 -0.0831 -1.3615 -0.5157
 4978SOL     OW26395   1.221   0.430   6.252 -0.0422  0.5234  0.4471
 4978SOL    HW126396   1.281   0.355   6.250 -0.4522  0.2188 -0.5424
 4978SOL    HW226397   1.279   0.498   6.285 -0.3775  0.4702  1.1606
 4979SOL     OW26398   3.210   3.285  13.602 -0.2706 -0.2440 -0.2126
 4979SOL    HW126399   3.134   3.232  13.627  0.4816 -1.5122 -0.5779
 4979SOL    HW226400   3.237   3.326  13.684 -1.2098  0.9094 -0.4789
 4980SOL     OW26401   2.410   4.114   6.596 -0.2981  0.3178  1.0179
 4980SOL    HW126402   2.429   4.134   6.504 -0.4160 -1.3700  0.6292
 4980SOL    HW226403   2.328   4.067   6.586  0.3140 -0.6914  0.7570
 4981SOL     OW26404   1.955   2.797  15.422  0.0742  0.7768 -0.6697
 4981SOL    HW126405   1.930   2.783  15.330 -0.9838 -3.0381  0.1887
 4981SOL    HW226406   1.972   2.891  15.418 -1.3345  1.1073  1.0295
 4982SOL     OW26407   4.131   0.402   4.804  0.2218 -0.0427  0.1436
 4982SOL    HW126408   4.080   0.326   4.832 -0.0777  0.6712  1.5068
 4982SOL    HW226409   4.214   0.395   4.850 -0.8530  1.5925  2.3167
 4983SOL     OW26410   3.440   1.465   8.538 -0.2281  0.0399 -0.3252
 4983SOL    HW126411   3.437   1.561   8.537  3.6995  0.2093  2.7410
 4983SOL    HW226412   3.393   1.453   8.456 -3.2140 -2.5305  1.7640
 4984SOL     OW26413   2.454   2.738   2.376 -0.8149 -0.3781  0.1854
 4984SOL    HW126414   2.489   2.650   2.391 -0.9927 -0.3898  0.5401
 4984SOL    HW226415   2.364   2.730   2.407 -0.9835  2.6304  0.5077
 4985SOL     OW26416   2.946   4.241   0.222 -0.6611 -0.2042 -0.2005
 4985SOL    HW126417   2.918   4.184   0.294 -0.5300  1.4356  1.1519
 4985SOL    HW226418   2.946   4.183   0.146 -2.3620 -0.8580  0.2773
 4986SOL     OW26419   4.098   2.809   9.231 -0.2018  0.6687 -0.2397
 4986SOL    HW126420   4.191   2.805   9.207 -0.2070 -0.5831 -0.0451
 4986SOL    HW226421   4.060   2.854   9.156 -0.8793  1.4158  0.5532
 4987SOL     OW26422   1.594   0.885   4.209 -0.0932 -0.4003 -0.4528
 4987SOL    HW126423   1.629   0.856   4.125 -1.9880 -1.1156 -0.9980
 4987SOL    HW226424   1.519   0.938   4.181 -0.2245 -0.7231 -0.7026
 4988SOL     OW26425   3.450   4.230  13.370 -0.5802 -0.3607 -0.7548
 4988SOL    HW126426   3.458   4.279  13.452 -0.2046 -0.1417 -0.9202
 4988SOL    HW226427   3.463   4.303  13.309  0.4806  0.4184  0.3872
 4989SOL     OW26428   3.203   2.000  11.186  0.0537 -0.1441  0.6065
 4989SOL    HW126429   3.194   1.978  11.278  3.0171  2.3298  1.4996
 4989SOL    HW226430   3.126   2.054  11.169  0.1954 -0.0181  0.3478
 4990SOL     OW26431   0.608   3.264  10.298  0.7347 -0.0752  0.6151
 4990SOL    HW126432   0.612   3.187  10.242  0.7394  1.2917 -1.2860
 4990SOL    HW226433   0.540   3.233  10.358 -0.9034  2.3560  0.0506
 4991SOL     OW26434   0.150   0.265  15.768  0.2502 -0.1675 -0.0005
 4991SOL    HW126435   0.197   0.346  15.751  0.2343  0.1211  1.3541
 4991SOL    HW226436   0.109   0.230  15.688 -0.2614 -1.6254  0.8877
 4992SOL     OW26437   2.088   0.673   2.898 -0.1123 -0.1977  0.7180
 4992SOL    HW126438   2.150   0.696   2.829 -1.1067  0.6400  0.1093
 4992SOL    HW226439   2.036   0.753   2.893 -0.1118 -0.2380  0.0973
 4993SOL     OW26440   3.336   2.796  17.642  0.3810  0.2466  0.1653
 4993SOL    HW126441   3.386   2.864  17.687  1.4084 -1.6218  1.8490
 4993SOL    HW226442   3.295   2.746   0.021 -1.4611 -0.8515 -1.6798
 4994SOL     OW26443   3.533   2.919   5.310  0.4722 -0.4467  0.0643
 4994SOL    HW126444   3.499   2.834   5.336 -2.5988  0.0464 -2.2777
 4994SOL    HW226445   3.461   2.967   5.350  1.6267  1.3439 -0.0022
 4995SOL     OW26446   2.378   2.656   8.051  0.0149 -0.3637  0.2072
 4995SOL    HW126447   2.339   2.571   8.030 -0.6326  0.0075 -0.1043
 4995SOL    HW226448   2.464   2.628   8.081 -0.4039 -1.1597  0.6989
 4996SOL     OW26449   0.434   0.771  15.576  0.0128 -0.3734 -0.3508
 4996SOL    HW126450   0.440   0.866  15.588 -0.4262 -0.3407 -0.3840
 4996SOL    HW226451   0.427   0.752  15.669 -2.0536 -1.3675 -0.7113
 4997SOL     OW26452   0.349   2.227   7.189  0.0938  0.1059  0.4994
 4997SOL    HW126453   0.425   2.219   7.131 -1.8036  0.0020 -1.9928
 4997SOL    HW226454   0.369   2.167   7.260 -1.0151 -0.9935 -0.1201
 4998SOL     OW26455   3.612   1.101   3.533  0.1259 -0.2917  0.0050
 4998SOL    HW126456   3.696   1.081   3.492  1.4827  2.5514  1.3790
 4998SOL    HW226457   3.599   1.031   3.597  0.9410 -1.1944 -0.8185
 4999SOL     OW26458   2.934   4.587  12.597 -0.1956  0.3966 -0.0491
 4999SOL    HW126459   3.025   4.608  12.617 -0.3106  0.9545 -0.0970
 4999SOL    HW226460   2.895   4.630  12.673  0.6934 -2.2253  1.8891
 5000SOL     OW26461   3.964   1.426  10.249 -0.3586  0.2045  0.0491
 5000SOL    HW126462   4.003   1.342  10.225 -0.7089 -0.0615  0.4198
 5000SOL    HW226463   3.937   1.411  10.340  0.0956  2.1107  0.5055
 5001SOL     OW26464   0.485   3.072   8.592  0.2335  0.5693  0.3110
 5001SOL    HW126465   0.450   3.060   8.504  0.1982 -1.0109  0.5487
 5001SOL    HW226466   0.575   3.044   8.580 -0.2283 -1.0420  0.5596
 5002SOL     OW26467   4.232   1.776   4.772  0.6402 -0.0911 -0.2678
 5002SOL    HW126468   4.140   1.792   4.795  0.2930  0.1291 -1.7910
 5002SOL    HW226469   4.264   1.857   4.733  0.9656  0.8022  1.8202
 5003SOL     OW26470   1.534   3.790   2.514  0.5735  0.4895  0.0768
 5003SOL    HW126471   1.612   3.777   2.568 -0.5389  0.4012  1.6587
 5003SOL    HW226472   1.495   3.874   2.536 -0.0125 -0.5579  2.9832
 5004SOL     OW26473   3.142   2.195   7.227 -0.3817  0.3690 -0.0946
 5004SOL    HW126474   3.213   2.243   7.185  0.8097 -0.9039  0.4224
 5004SOL    HW226475   3.179   2.167   7.311 -1.0686  0.2681  0.1765
 5005SOL     OW26476   3.831   0.165   2.985  0.3636 -0.5047  0.2916
 5005SOL    HW126477   3.819   0.111   3.064 -2.7997  0.2715  0.3666
 5005SOL    HW226478   3.886   0.114   2.926 -0.2869 -1.4385  0.4891
 5006SOL     OW26479   4.488   4.491   5.700  0.1357 -0.3751  0.5696
 5006SOL    HW126480   4.415   4.428   5.702  0.5924 -0.8775  1.8916
 5006SOL    HW226481   4.493   4.528   5.613  0.9898 -2.7233 -0.3789
 5007SOL     OW26482   0.253   4.310  16.387 -0.8931 -0.2372  0.3881
 5007SOL    HW126483   0.333   4.289  16.435 -1.0145 -2.9360 -0.5974
 5007SOL    HW226484   0.273   4.295  16.295  1.2639  0.3897  0.7628
 5008SOL     OW26485   0.290   1.008   1.276  0.2566 -0.3984 -0.1348
 5008SOL    HW126486   0.247   1.091   1.257 -0.4724 -1.4541 -2.9700
 5008SOL    HW226487   0.235   0.978   1.349  3.2443  0.3217  2.4386
 5009SOL     OW26488   2.183   1.322  13.727 -0.2402  0.0918  0.2396
 5009SOL    HW126489   2.174   1.404  13.775  0.7122  0.3055  0.0371
 5009SOL    HW226490   2.244   1.280  13.787 -1.6242  1.2234  2.4393
 5010SOL     OW26491   3.174   2.061   4.228  0.2961  0.1750  0.3488
 5010SOL    HW126492   3.220   1.978   4.215 -0.2850  0.0224 -0.7453
 5010SOL    HW226493   3.209   2.098   4.310  1.7293  1.3162 -0.7702
 5011SOL     OW26494   3.830   1.668   9.358 -0.2745  0.0850 -0.2244
 5011SOL    HW126495   3.820   1.659   9.263  2.9996 -1.5250 -0.4083
 5011SOL    HW226496   3.917   1.631   9.371 -1.0837 -2.5843 -2.2426
 5012SOL     OW26497   3.620   3.967  11.890  0.3656 -0.3369 -0.3205
 5012SOL    HW126498   3.688   4.022  11.930 -1.5289  1.5520  0.2841
 5012SOL    HW226499   3.665   3.943  11.809  2.0027 -0.1997  0.5540
 5013SOL     OW26500   2.216   3.382   6.322 -0.2915  0.1312  0.1464
 5013SOL    HW126501   2.227   3.374   6.417 -0.6286 -1.3441  0.0578
 5013SOL    HW226502   2.298   3.345   6.288  0.7221 -0.3329  3.1242
 5014SOL     OW26503   3.312   1.816   2.085 -0.4171  0.2902  0.1270
 5014SOL    HW126504   3.331   1.845   2.174  1.4547 -2.2757  0.5515
 5014SOL    HW226505   3.346   1.727   2.079  0.5070  0.4936  2.6320
 5015SOL     OW26506   2.481   1.743   2.105 -0.5453  0.1029  0.9953
 5015SOL    HW126507   2.469   1.708   2.016 -0.8790  1.4819  0.5059
 5015SOL    HW226508   2.574   1.722   2.111 -0.4991 -0.4366 -1.5111
 5016SOL     OW26509   3.351   4.026   4.936 -0.1141  0.3037  0.2974
 5016SOL    HW126510   3.447   4.029   4.933 -0.0706  0.9092  2.5183
 5016SOL    HW226511   3.331   3.986   4.851  1.9644  0.8529 -0.4442
 5017SOL     OW26512   2.389   3.012   0.314 -0.0964  0.5683 -0.5659
 5017SOL    HW126513   2.414   2.976   0.399  0.4437  1.6497 -0.2630
 5017SOL    HW226514   2.464   2.976   0.266 -0.0815  1.0215 -0.8874
 5018SOL     OW26515   3.320   3.435  15.153  0.7971  0.4037  0.1178
 5018SOL    HW126516   3.261   3.414  15.081  1.8919 -1.6331 -0.1641
 5018SOL    HW226517   3.330   3.355  15.205 -3.3998  0.2762  0.7087
 5019SOL     OW26518   1.427   3.240   9.537 -0.4810 -0.1266  0.9834
 5019SOL    HW126519   1.461   3.178   9.472 -0.6969 -1.5873  2.2779
 5019SOL    HW226520   1.395   3.176   9.601 -3.5015  0.1593 -0.2133
 5020SOL     OW26521   3.954   1.771   2.483 -0.2579  0.3495  0.2291
 5020SOL    HW126522   3.907   1.842   2.440 -0.5677  1.1799  1.9379
 5020SOL    HW226523   3.913   1.697   2.439  0.0290 -0.1672  0.8353
 5021SOL     OW26524   3.282   3.458   4.836 -0.1975 -0.3773  0.4880
 5021SOL    HW126525   3.281   3.554   4.841 -0.8018 -0.4574  1.9166
 5021SOL    HW226526   3.367   3.442   4.875  0.6340  0.0297 -1.1282
 5022SOL     OW26527   3.166   0.730  13.743 -0.1291 -0.0891  0.9884
 5022SOL    HW126528   3.137   0.649  13.785 -1.8114  0.7611  1.4688
 5022SOL    HW226529   3.261   0.721  13.737 -0.1678  0.0160  0.2689
 5023SOL     OW26530   1.707   2.628   2.804 -0.4379  0.5055  0.0969
 5023SOL    HW126531   1.781   2.582   2.765 -1.6523 -0.5959 -0.9084
 5023SOL    HW226532   1.639   2.564   2.785 -0.1954  0.6252 -1.2081
 5024SOL     OW26533   2.671   1.319  15.279 -0.1190 -0.6887  0.2256
 5024SOL    HW126534   2.657   1.299  15.187 -0.3082  0.1776  0.0625
 5024SOL    HW226535   2.586   1.293  15.315 -1.2908 -0.1768 -2.1448
 5025SOL     OW26536   1.243   1.995  12.584 -0.0792 -0.3453 -0.1703
 5025SOL    HW126537   1.199   1.939  12.519  0.7320 -0.3196 -0.7469
 5025SOL    HW226538   1.278   2.069  12.534 -0.8138 -0.0347 -0.2249
 5026SOL     OW26539   0.058   2.942   8.294 -0.5412  0.1664  0.2729
 5026SOL    HW126540   4.702   2.979   8.252  0.3221  1.7446  0.0252
 5026SOL    HW226541   0.061   2.989   8.377  1.1057 -0.5937  0.6241
 5027SOL     OW26542   3.821   2.853   4.354  0.1346 -0.0150  0.2080
 5027SOL    HW126543   3.781   2.816   4.433  0.7224  1.0962  1.0313
 5027SOL    HW226544   3.744   2.837   4.300  1.4034  2.4626 -2.3490
 5028SOL     OW26545   3.452   0.260  13.121 -0.3970 -0.0841 -0.3179
 5028SOL    HW126546   3.539   0.249  13.159  0.5937  4.8417 -1.1928
 5028SOL    HW226547   3.404   0.185  13.157 -1.2681  0.0986 -1.1230
 5029SOL     OW26548   0.006   2.494   9.654  0.0367  0.0555  0.0995
 5029SOL    HW126549   0.082   2.436   9.655  0.5418  0.7389  1.4328
 5029SOL    HW226550   4.721   2.508   9.749  1.0297  1.9551 -0.0945
 5030SOL     OW26551   1.863   3.278  10.389 -0.3260 -0.1343 -0.3563
 5030SOL    HW126552   1.903   3.191  10.388  0.6555  0.3052 -0.1927
 5030SOL    HW226553   1.814   3.273  10.471  0.8957  2.7799  0.5255
 5031SOL     OW26554   3.665   4.137   5.385 -0.0728 -0.2408  0.4603
 5031SOL    HW126555   3.727   4.117   5.455 -0.9186  1.2136  1.6210
 5031SOL    HW226556   3.578   4.116   5.421 -0.4243 -0.2273 -0.3845
 5032SOL     OW26557   4.132   1.447   3.487 -0.3108  0.1261 -0.2168
 5032SOL    HW126558   4.069   1.375   3.497  1.0129 -0.5670  2.8460
 5032SOL    HW226559   4.079   1.521   3.517  0.8844  0.6080  0.6868
 5033SOL     OW26560   3.210   0.170   4.111 -0.0087  0.7045 -0.0078
 5033SOL    HW126561   3.256   0.129   4.038 -0.6390  0.1455 -0.0893
 5033SOL    HW226562   3.149   0.230   4.068 -0.1414  0.0520 -0.7324
 5034SOL     OW26563   1.196   4.155   5.079  0.6143 -0.0936  0.2495
 5034SOL    HW126564   1.240   4.163   4.994 -0.7758 -1.2718 -0.5904
 5034SOL    HW226565   1.272   4.126   5.130  1.0101  0.0410 -0.2633
 5035SOL     OW26566   4.478   0.436  11.807  0.1906 -0.1748 -0.0075
 5035SOL    HW126567   4.485   0.349  11.768  0.3981 -0.6711  1.1423
 5035SOL    HW226568   4.564   0.448  11.846  0.4294  0.0812 -0.6172
 5036SOL     OW26569   3.963   1.544   4.716 -0.5412  0.2065  0.1157
 5036SOL    HW126570   3.998   1.591   4.792  0.2210 -2.4039  1.3969
 5036SOL    HW226571   3.885   1.501   4.751 -1.1189  1.3182  0.1778
 5037SOL     OW26572   1.827   0.963  17.185  0.3634  0.1233  0.3049
 5037SOL    HW126573   1.824   1.001  17.097 -1.6999 -2.0146 -0.5329
 5037SOL    HW226574   1.856   0.874  17.166 -1.8098 -0.5627  0.2227
 5038SOL     OW26575   0.349   2.942   6.084  0.3350  0.8902 -0.1792
 5038SOL    HW126576   0.354   2.874   6.152  1.1115  1.7197  0.5972
 5038SOL    HW226577   0.367   2.887   6.008 -1.8301  0.6036 -0.4714
 5039SOL     OW26578   1.229   4.451   4.945 -0.0129  0.0885  0.1208
 5039SOL    HW126579   1.224   4.534   4.898  1.3396 -0.5276 -1.0800
 5039SOL    HW226580   1.248   4.485   5.032  0.1853 -0.8431  0.4500
 5040SOL     OW26581   3.343   4.597   3.499 -0.1735  0.4074 -0.1276
 5040SOL    HW126582   3.360   4.510   3.535  0.9468  0.2341 -1.0780
 5040SOL    HW226583   3.338   4.643   3.583  0.2931 -1.9299  1.1635
 5041SOL     OW26584   4.323   2.491   9.360  0.4014  0.3796  0.1768
 5041SOL    HW126585   4.370   2.508   9.278 -3.0264  1.2536 -1.5795
 5041SOL    HW226586   4.372   2.538   9.428  1.6036 -0.4593 -0.1056
 5042SOL     OW26587   2.781   4.022  17.054  0.1160 -0.0209  0.1328
 5042SOL    HW126588   2.731   4.062  16.982 -0.1859 -0.1533  0.2694
 5042SOL    HW226589   2.837   3.954  17.018  0.4827  0.2515  0.1906
 5043SOL     OW26590   2.262   1.630   4.700 -0.3106  0.3090  0.5907
 5043SOL    HW126591   2.174   1.602   4.728 -0.8434  1.7799  0.3693
 5043SOL    HW226592   2.244   1.662   4.612  0.5512  1.3445  0.7961
 5044SOL     OW26593   2.579   1.410   1.959  0.1231 -0.0280 -0.3140
 5044SOL    HW126594   2.551   1.459   1.882  1.8386 -1.1413 -1.6247
 5044SOL    HW226595   2.608   1.329   1.918  0.7076 -0.3879  0.8076
 5045SOL     OW26596   4.287   2.750  12.388 -0.3787 -0.3769  0.2039
 5045SOL    HW126597   4.330   2.833  12.411 -1.8749  0.2287  0.8117
 5045SOL    HW226598   4.196   2.757  12.418 -0.2816 -0.1956  0.4604
 5046SOL     OW26599   0.902   1.086  12.049 -0.6641  0.3800 -0.2677
 5046SOL    HW126600   0.992   1.055  12.038 -0.3212  1.5122 -0.6014
 5046SOL    HW226601   0.857   1.030  11.986 -2.2498  0.2851  0.9238
 5047SOL     OW26602   4.472   0.296  12.286 -0.0793  0.1084 -0.4226
 5047SOL    HW126603   4.533   0.266  12.219 -0.2901  1.4905 -1.2472
 5047SOL    HW226604   4.387   0.280  12.245 -0.3262 -0.2220  0.2322
 5048SOL     OW26605   2.226   3.801   7.538  0.4230 -0.3081 -0.0645
 5048SOL    HW126606   2.262   3.757   7.461  1.2264 -0.8630  0.6251
 5048SOL    HW226607   2.133   3.787   7.522  0.1250  0.1954  1.2398
 5049SOL     OW26608   3.321   2.712   6.544 -0.2512  0.6557 -0.3627
 5049SOL    HW126609   3.260   2.773   6.586  1.0188  1.3310  0.5043
 5049SOL    HW226610   3.295   2.717   6.452 -0.1435 -1.5096 -0.5288
 5050SOL     OW26611   4.009   1.093   4.999 -0.0657 -0.2311  0.4495
 5050SOL    HW126612   4.099   1.107   5.028  0.5102  1.0491 -1.9818
 5050SOL    HW226613   4.015   1.097   4.903  0.9470  0.6083  0.5560
 5051SOL     OW26614   1.617   1.153   5.369  0.4275 -0.0021 -0.2766
 5051SOL    HW126615   1.661   1.222   5.319  1.5116 -0.0562  0.6142
 5051SOL    HW226616   1.641   1.080   5.312 -0.4442  1.0631 -2.0503
 5052SOL     OW26617   4.061   4.528   5.206 -0.3591 -0.0982 -0.0609
 5052SOL    HW126618   4.049   4.526   5.111  0.8504  3.7463 -0.2860
 5052SOL    HW226619   3.977   4.491   5.236 -0.9505  1.5949  0.3574
 5053SOL     OW26620   0.726   2.645   4.821 -0.5027  0.1938 -0.1406
 5053SOL    HW126621   0.730   2.671   4.913 -0.6275 -0.0690 -0.0592
 5053SOL    HW226622   0.814   2.664   4.789 -0.3661  0.9740  0.7071
 5054SOL     OW26623   0.580   2.458   1.625  0.6934 -1.0823 -0.2042
 5054SOL    HW126624   0.498   2.498   1.595  0.3966 -1.2047  0.4417
 5054SOL    HW226625   0.559   2.433   1.715  1.5200  0.5357  0.4423
 5055SOL     OW26626   1.177   4.483   1.922 -0.4101  0.1266 -0.1551
 5055SOL    HW126627   1.187   4.568   1.966 -0.8853 -0.7385  1.6140
 5055SOL    HW226628   1.103   4.443   1.967 -0.0896 -0.5178 -0.1983
 5056SOL     OW26629   0.821   0.460   1.902 -0.1078  0.4486 -1.5917
 5056SOL    HW126630   0.794   0.448   1.811 -0.8473  2.2218 -1.5976
 5056SOL    HW226631   0.851   0.551   1.906 -1.3425  0.7344  1.3553
 5057SOL     OW26632   3.964   3.402   8.889  0.0287  0.4011 -0.2113
 5057SOL    HW126633   3.891   3.394   8.828  1.4968 -0.1200 -1.9129
 5057SOL    HW226634   3.997   3.312   8.881  1.5328  1.1697 -2.7052
 5058SOL     OW26635   4.489   2.892  13.200 -0.2042 -0.0257  0.4753
 5058SOL    HW126636   4.542   2.899  13.279  1.0719 -1.5024 -0.2515
 5058SOL    HW226637   4.525   2.816  13.156 -1.3605 -0.6488  0.6020
 5059SOL     OW26638   1.603   2.056   2.718 -0.2023 -0.0603 -0.1152
 5059SOL    HW126639   1.606   2.121   2.647  0.8698 -0.5184 -0.4864
 5059SOL    HW226640   1.686   2.012   2.701  1.6921  2.5811  2.1847
 5060SOL     OW26641   1.763   0.581   5.738  0.1494 -0.6579  0.8068
 5060SOL    HW126642   1.706   0.639   5.788  1.8977  0.7925  1.1094
 5060SOL    HW226643   1.818   0.533   5.799  0.2416  0.9041  1.9383
 5061SOL     OW26644   1.877   1.095  14.237  0.0845  0.1505  0.2150
 5061SOL    HW126645   1.871   1.170  14.296 -2.2333 -0.6583  1.0076
 5061SOL    HW226646   1.909   1.140  14.159 -1.3675 -2.2680 -1.7721
 5062SOL     OW26647   2.653   2.261   3.810 -0.0437 -0.1154  0.8281
 5062SOL    HW126648   2.603   2.199   3.757 -0.5233 -1.0831  2.4142
 5062SOL    HW226649   2.678   2.200   3.880 -0.5407  0.6891  1.7034
 5063SOL     OW26650   2.857   4.564   7.599 -0.0333 -0.0025  0.0703
 5063SOL    HW126651   2.822   4.608   7.676  0.1980  0.2289  0.0447
 5063SOL    HW226652   2.843   4.625   7.527 -0.5796 -0.5936 -0.3238
 5064SOL     OW26653   1.172   1.509   1.680 -0.1015  0.1446 -0.0769
 5064SOL    HW126654   1.095   1.474   1.724  0.5633 -1.0405  0.1378
 5064SOL    HW226655   1.234   1.437   1.681  1.4967  1.5306  0.8143
 5065SOL     OW26656   2.023   3.692  10.494 -0.3009  0.0478  0.2661
 5065SOL    HW126657   2.093   3.757  10.503  1.2780 -1.1602 -3.2688
 5065SOL    HW226658   2.070   3.610  10.507 -0.6777 -0.4077 -1.2756
 5066SOL     OW26659   3.720   1.958   6.230  0.5932 -0.2829  0.5107
 5066SOL    HW126660   3.678   1.906   6.299  1.0446 -0.5707  0.5653
 5066SOL    HW226661   3.651   1.957   6.164  0.0910 -0.6897  1.0404
 5067SOL     OW26662   4.576   2.377   8.673  0.3427  0.1815  0.2679
 5067SOL    HW126663   4.623   2.332   8.603 -3.2327 -2.5601 -0.3249
 5067SOL    HW226664   4.616   2.327   8.745  0.5109  0.5541  0.4356
 5068SOL     OW26665   1.031   2.830   1.032 -0.1219 -0.0827  0.1577
 5068SOL    HW126666   1.024   2.738   1.005 -0.5059 -0.3775  1.2555
 5068SOL    HW226667   1.122   2.825   1.063  0.1532 -0.8869 -0.7457
 5069SOL     OW26668   0.969   2.579   6.672 -0.5132 -0.0911 -0.3870
 5069SOL    HW126669   1.043   2.522   6.650 -0.3659 -0.2161  0.4289
 5069SOL    HW226670   1.015   2.663   6.665 -1.0260  0.2139 -0.0415
 5070SOL     OW26671   2.412   0.191   1.747 -0.2557  0.3428 -0.4592
 5070SOL    HW126672   2.472   0.265   1.739 -0.2436  0.4047  0.2112
 5070SOL    HW226673   2.368   0.219   1.827  1.9426 -1.4896  1.3661
 5071SOL     OW26674   3.216   3.877   2.931  0.3298 -0.0071 -0.5001
 5071SOL    HW126675   3.270   3.938   2.981  1.7860 -1.4974 -0.2324
 5071SOL    HW226676   3.225   3.923   2.848 -0.3970  0.2873 -0.4196
 5072SOL     OW26677   2.357   1.944   1.906 -0.4396 -0.0992  0.1621
 5072SOL    HW126678   2.368   1.954   2.000 -1.8501 -1.9161  0.5279
 5072SOL    HW226679   2.343   1.849   1.905  0.6688 -0.2577  0.1827
 5073SOL     OW26680   2.584   1.573   1.111 -0.1321  0.3135 -0.2941
 5073SOL    HW126681   2.647   1.522   1.162 -1.4867  1.6945  2.7779
 5073SOL    HW226682   2.582   1.524   1.029 -0.3683  2.0560 -1.3379
 5074SOL     OW26683   1.612   4.602   5.526  0.2148  0.2980  0.3874
 5074SOL    HW126684   1.705   4.608   5.506 -0.2670  1.1274 -1.6541
 5074SOL    HW226685   1.604   4.508   5.509  1.9325 -0.1070  1.9166
 5075SOL     OW26686   4.326   0.710   7.477  0.1987 -0.2098 -0.6349
 5075SOL    HW126687   4.400   0.683   7.531  0.5806  0.6501 -0.7241
 5075SOL    HW226688   4.353   0.669   7.395  4.0142  2.3592 -0.6462
 5076SOL     OW26689   1.192   1.492  16.137 -0.1166  0.5463  0.3516
 5076SOL    HW126690   1.128   1.474  16.205 -0.3066  1.4038  0.4092
 5076SOL    HW226691   1.145   1.570  16.105  0.0975  1.6958  2.8631
 5077SOL     OW26692   2.284   3.731   3.317 -0.0101 -0.0041 -0.1171
 5077SOL    HW126693   2.367   3.690   3.344 -0.1168 -0.2357 -0.1413
 5077SOL    HW226694   2.262   3.761   3.405  1.3156  0.0136  0.2103
 5078SOL     OW26695   0.660   1.786   7.106  0.5522  0.6405 -0.0631
 5078SOL    HW126696   0.576   1.831   7.112  0.1625  0.0577 -1.0297
 5078SOL    HW226697   0.716   1.863   7.120  1.7358 -0.4358  1.1471
 5079SOL     OW26698   0.770   2.730  13.308  0.7202 -0.3461  0.4297
 5079SOL    HW126699   0.770   2.819  13.274 -1.7561 -0.5495 -0.0944
 5079SOL    HW226700   0.850   2.691  13.274  0.0063  0.7434 -2.4336
 5080SOL     OW26701   4.447   1.805   5.332  0.1219  0.3964 -0.4082
 5080SOL    HW126702   4.503   1.876   5.365  2.9371 -1.2911 -1.5975
 5080SOL    HW226703   4.468   1.817   5.240  0.3222  1.0565 -0.2784
 5081SOL     OW26704   1.732   1.411   7.573  0.1538  0.3451 -0.1905
 5081SOL    HW126705   1.825   1.424   7.553  0.4209  0.8226  1.3640
 5081SOL    HW226706   1.736   1.367   7.658 -0.1810  1.9572  0.6471
 5082SOL     OW26707   1.565   0.254   8.184  0.2973  0.5434 -0.5699
 5082SOL    HW126708   1.502   0.183   8.186  0.6758  0.2043 -0.7072
 5082SOL    HW226709   1.545   0.311   8.259 -0.6053 -1.7373  0.9301
 5083SOL     OW26710   0.069   2.835   6.000 -0.1202  0.9540 -0.4968
 5083SOL    HW126711   0.121   2.839   5.919  0.7671  0.0116  0.0147
 5083SOL    HW226712   4.712   2.875   5.965  0.1494  0.9673 -1.1046
 5084SOL     OW26713   3.569   4.296   0.708 -0.4142  0.1396 -0.2263
 5084SOL    HW126714   3.655   4.257   0.698 -0.7619 -0.3734 -1.2519
 5084SOL    HW226715   3.542   4.261   0.793  1.9007  2.3743  1.4036
 5085SOL     OW26716   2.291   3.437   1.655 -0.3885 -0.6744  0.0210
 5085SOL    HW126717   2.294   3.533   1.654  1.4125 -0.7510 -0.9877
 5085SOL    HW226718   2.308   3.413   1.564  0.5980  1.4891 -0.3593
 5086SOL     OW26719   4.569   0.362   8.765  0.6181  0.1015  0.0158
 5086SOL    HW126720   4.663   0.357   8.745  0.4196 -3.2290 -0.1150
 5086SOL    HW226721   4.565   0.452   8.796 -1.1974  0.2520 -0.6888
 5087SOL     OW26722   3.803   4.706   5.002 -0.1712 -0.1233 -0.5297
 5087SOL    HW126723   3.712   4.676   5.001  0.4308 -1.9526  0.6961
 5087SOL    HW226724   3.847   4.649   4.939 -1.5570  0.5096 -2.0921
 5088SOL     OW26725   0.310   3.031  15.891 -0.1717  0.4734 -0.4443
 5088SOL    HW126726   0.292   2.938  15.901  1.5863  0.3111  1.1757
 5088SOL    HW226727   0.309   3.051  15.798  0.2338  0.0342 -0.5401
 5089SOL     OW26728   0.034   0.246   5.876 -0.4011 -0.4079  0.0845
 5089SOL    HW126729   0.104   0.286   5.825 -1.6390 -3.0149 -3.6954
 5089SOL    HW226730   0.009   0.175   5.817 -2.7033  0.1561  0.4089
 5090SOL     OW26731   1.501   3.922   6.038 -0.3306 -0.2421 -0.2430
 5090SOL    HW126732   1.464   3.840   6.070  0.4369 -0.4022  0.2397
 5090SOL    HW226733   1.471   3.990   6.097  1.9385  1.9268 -1.5789
 5091SOL     OW26734   4.649   2.089   0.442  0.1409  0.3787 -0.0763
 5091SOL    HW126735   4.675   2.029   0.512  1.6854  1.3128  0.1570
 5091SOL    HW226736   4.712   2.074   0.372 -0.6261 -0.9164 -0.4929
 5092SOL     OW26737   3.117   4.620   9.189 -0.2369  0.3242  0.1886
 5092SOL    HW126738   3.154   4.593   9.105  1.9636  0.6441  1.0497
 5092SOL    HW226739   3.176   4.572   9.247  1.5313 -0.5735 -2.3168
 5093SOL     OW26740   3.695   2.735   8.436  0.4850  0.2247  0.7330
 5093SOL    HW126741   3.678   2.746   8.343 -0.2010  0.0619  0.8364
 5093SOL    HW226742   3.671   2.823   8.467 -0.2843  0.0145  0.7465
 5094SOL     OW26743   0.468   4.597   7.818  0.4221 -0.5578  0.1201
 5094SOL    HW126744   0.563   4.587   7.818  0.7479  2.4813  2.4178
 5094SOL    HW226745   0.450   4.504   7.832  1.2056 -0.8213 -0.6182
 5095SOL     OW26746   3.241   1.209   0.849 -0.0105 -0.8883 -0.2523
 5095SOL    HW126747   3.269   1.203   0.758 -2.3483  1.6684 -1.1271
 5095SOL    HW226748   3.151   1.238   0.837  0.9085  2.2298  0.5438
 5096SOL     OW26749   0.594   2.760  13.523 -0.1518  0.4929  0.5640
 5096SOL    HW126750   0.638   2.782  13.441  1.6641 -0.2374  1.3442
 5096SOL    HW226751   0.618   2.833  13.579 -0.1589 -1.6539  3.3659
 5097SOL     OW26752   0.392   0.360   1.544 -0.0762  0.1282 -0.0645
 5097SOL    HW126753   0.331   0.429   1.570  1.0132  2.5623 -3.9451
 5097SOL    HW226754   0.464   0.407   1.500  0.1165 -1.5886 -1.5728
 5098SOL     OW26755   1.956   0.467   6.778  0.2562  0.2556 -0.0658
 5098SOL    HW126756   2.005   0.528   6.834  0.3795 -0.2221  0.3453
 5098SOL    HW226757   1.902   0.410   6.832  0.2295 -0.2929 -0.6647
 5099SOL     OW26758   0.626   4.230  10.097  0.6339 -0.3479  0.5591
 5099SOL    HW126759   0.640   4.261  10.008 -3.1662 -0.1086  0.0719
 5099SOL    HW226760   0.603   4.314  10.139  3.4417  0.1951  1.0249
 5100SOL     OW26761   2.264   1.524   3.971  0.0969  0.5270  0.1429
 5100SOL    HW126762   2.177   1.536   3.933  0.5587 -0.8474 -1.3652
 5100SOL    HW226763   2.276   1.612   4.006 -1.2725 -0.1748  2.3673
 5101SOL     OW26764   4.102   2.107   6.328 -0.0747  0.2612  0.0220
 5101SOL    HW126765   4.042   2.165   6.374  1.8999  0.3273  2.5396
 5101SOL    HW226766   4.058   2.106   6.244  0.0081 -1.8833  0.0044
 5102SOL     OW26767   2.558   3.531   5.200  0.0524  0.6104 -0.1092
 5102SOL    HW126768   2.597   3.567   5.120 -1.6037  1.4141 -0.5436
 5102SOL    HW226769   2.637   3.520   5.254  1.1734 -1.3492 -2.1329
 5103SOL     OW26770   1.638   3.076   9.436  0.1497  0.5967  0.3757
 5103SOL    HW126771   1.689   3.155   9.454  0.0684  1.2610 -2.4023
 5103SOL    HW226772   1.695   3.011   9.478 -2.3764 -0.4368  2.1539
 5104SOL     OW26773   0.877   1.235   7.745 -0.3697  0.7139 -0.5614
 5104SOL    HW126774   0.833   1.177   7.683  1.5852 -1.2247 -0.1183
 5104SOL    HW226775   0.796   1.269   7.784 -0.8172 -2.5885  1.3615
 5105SOL     OW26776   2.334   4.319   7.443  0.7326  0.2713  0.2104
 5105SOL    HW126777   2.348   4.237   7.397 -0.8998 -0.0739  0.3297
 5105SOL    HW226778   2.239   4.322   7.441  0.7158 -0.7332 -0.6216
 5106SOL     OW26779   4.430   3.782  10.768 -0.2444 -0.5873  0.0514
 5106SOL    HW126780   4.406   3.863  10.813 -3.2474 -2.4650  1.8910
 5106SOL    HW226781   4.473   3.726  10.833  1.3093 -0.5421 -0.9349
 5107SOL     OW26782   1.419   3.115  10.884  0.0951  0.2098  0.2683
 5107SOL    HW126783   1.511   3.111  10.912  0.1634 -0.8315 -0.0950
 5107SOL    HW226784   1.399   3.038  10.831 -1.2078  1.2310 -0.7288
 5108SOL     OW26785   1.198   1.050   7.607 -0.2069 -0.2240 -0.3241
 5108SOL    HW126786   1.172   1.072   7.517  1.4648 -0.2000 -0.8033
 5108SOL    HW226787   1.276   1.103   7.621 -2.4798  2.8712  0.7046
 5109SOL     OW26788   0.163   2.990  16.938  0.2796 -0.3423 -0.3355
 5109SOL    HW126789   0.078   2.947  16.930  0.1459  0.1882 -1.9045
 5109SOL    HW226790   0.182   3.012  17.029  0.8048 -0.2240 -0.4727
 5110SOL     OW26791   0.360   4.057   9.379 -0.4902  0.2665  0.7589
 5110SOL    HW126792   0.422   3.997   9.420  0.2777 -0.0936 -0.9269
 5110SOL    HW226793   0.300   3.993   9.341  0.4305 -0.1852  0.0471
 5111SOL     OW26794   0.656   0.924  12.203 -0.6113  0.1673 -0.2021
 5111SOL    HW126795   0.620   1.012  12.205 -0.1102  0.3225  1.5064
 5111SOL    HW226796   0.699   0.921  12.288  0.9562 -1.7747 -1.0392
 5112SOL     OW26797   3.729   4.424  14.938  0.3708 -0.1353 -0.9485
 5112SOL    HW126798   3.782   4.412  15.017  1.0223  1.0637 -1.1953
 5112SOL    HW226799   3.747   4.516  14.918 -1.3898  0.5931  0.7859
 5113SOL     OW26800   1.678   1.697  10.324 -0.5395 -0.4702  0.0339
 5113SOL    HW126801   1.641   1.694  10.412  0.4433  1.5003  0.5132
 5113SOL    HW226802   1.678   1.792  10.311 -1.3015 -0.5874 -0.8572
 5114SOL     OW26803   1.064   3.459   8.957  0.1792 -0.1893 -0.6513
 5114SOL    HW126804   1.141   3.514   8.943  0.1659 -0.0020  0.0140
 5114SOL    HW226805   1.102   3.390   9.012 -2.2382 -1.4050 -0.4878
 5115SOL     OW26806   0.691   0.553   6.422 -0.1315 -0.1660  0.0857
 5115SOL    HW126807   0.730   0.589   6.343 -2.1107  1.2123 -0.2633
 5115SOL    HW226808   0.655   0.473   6.383  0.5587  0.5733 -2.0260
 5116SOL     OW26809   1.118   3.586   3.877 -0.0711 -0.5449  0.1320
 5116SOL    HW126810   1.044   3.570   3.936  0.0882 -1.7646  0.0008
 5116SOL    HW226811   1.145   3.499   3.848 -1.8637 -1.1756  0.3654
 5117SOL     OW26812   3.378   1.642  16.591 -0.7923 -0.2827  0.1387
 5117SOL    HW126813   3.308   1.640  16.656 -0.9931  1.1779 -0.0316
 5117SOL    HW226814   3.330   1.672  16.514  0.8234  0.6573 -0.5089
 5118SOL     OW26815   1.515   3.711   4.336 -0.1959  0.1104  0.6620
 5118SOL    HW126816   1.506   3.620   4.306 -0.2260  0.5023 -0.5330
 5118SOL    HW226817   1.425   3.726   4.366 -0.6227  0.7085 -0.9169
 5119SOL     OW26818   4.587   4.318   2.048 -0.5261  0.1180 -0.5950
 5119SOL    HW126819   4.669   4.347   2.089 -2.3139  2.1722  1.5203
 5119SOL    HW226820   4.526   4.316   2.122  1.3109  3.3419  1.0380
 5120SOL     OW26821   4.165   1.621   2.210 -0.6013  0.3872 -0.5136
 5120SOL    HW126822   4.179   1.716   2.208  2.4320 -0.0292  1.7637
 5120SOL    HW226823   4.250   1.578   2.208 -1.5696 -1.5896  1.3781
 5121SOL     OW26824   3.284   4.337   8.996 -0.3083  0.0540  0.1833
 5121SOL    HW126825   3.316   4.426   8.979  0.9327 -0.3792  0.2727
 5121SOL    HW226826   3.366   4.300   9.028  1.0301  1.3170 -1.6991
 5122SOL     OW26827   1.157   1.470   5.659 -0.0862  0.2654  0.0604
 5122SOL    HW126828   1.248   1.469   5.629 -0.5804 -1.3421 -1.3667
 5122SOL    HW226829   1.113   1.397   5.615 -0.1254 -0.2917  1.0190
 5123SOL     OW26830   1.275   1.008   6.483 -0.5586  0.8073  0.4379
 5123SOL    HW126831   1.293   1.087   6.432  0.6907  0.0766 -0.2459
 5123SOL    HW226832   1.180   1.016   6.489 -0.5636  0.9639  0.1441
 5124SOL     OW26833   3.163   3.204   7.895  0.0507  0.0023  0.4142
 5124SOL    HW126834   3.190   3.293   7.872 -0.7355  0.3133  0.7123
 5124SOL    HW226835   3.242   3.180   7.943  0.8216  1.9229  0.0900
 5125SOL     OW26836   4.565   2.159   2.172  0.0659  0.2385 -0.1499
 5125SOL    HW126837   4.551   2.250   2.197  0.7988  0.1891  0.4267
 5125SOL    HW226838   4.530   2.165   2.082  1.5432  2.3466 -0.5709
 5126SOL     OW26839   0.113   2.201   5.916 -0.8746  0.0499  0.8483
 5126SOL    HW126840   0.130   2.295   5.921  0.9956 -0.3168  1.1462
 5126SOL    HW226841   0.156   2.175   5.998 -1.5162  0.8742  1.4559
 5127SOL     OW26842   3.778   3.402   8.163  0.2771  0.3881  0.8095
 5127SOL    HW126843   3.782   3.321   8.214  0.1062  1.2418  2.1715
 5127SOL    HW226844   3.869   3.415   8.137  0.5447 -0.0140  1.5497
 5128SOL     OW26845   1.607   1.573   3.855  0.0698  0.6165 -0.5493
 5128SOL    HW126846   1.666   1.598   3.926  0.1938 -1.1445 -0.0454
 5128SOL    HW226847   1.627   1.639   3.788 -2.8970  0.0448 -1.9744
 5129SOL     OW26848   3.378   2.973   2.915 -0.6510 -0.1276 -0.3655
 5129SOL    HW126849   3.463   2.996   2.951 -0.2439  1.6967 -2.4664
 5129SOL    HW226850   3.321   3.047   2.935 -1.8347 -0.6821 -1.6008
 5130SOL     OW26851   3.651   0.620  13.886  0.3027 -0.0420  0.3481
 5130SOL    HW126852   3.709   0.675  13.938  0.8947  0.3150 -0.7035
 5130SOL    HW226853   3.621   0.555  13.949  0.3213 -1.8647 -1.5024
 5131SOL     OW26854   0.973   3.194   0.987  0.3919  0.0443  0.5371
 5131SOL    HW126855   1.024   3.146   0.922 -1.2036  0.8627 -1.3147
 5131SOL    HW226856   1.010   3.153   1.066  0.3399 -1.4562 -0.2115
 5132SOL     OW26857   4.074   3.067  14.892  0.0009  0.1514  0.9019
 5132SOL    HW126858   4.162   3.057  14.856 -0.1312  0.4798  0.4970
 5132SOL    HW226859   4.037   3.132  14.832  0.4686  1.2452  1.7919
 5133SOL     OW26860   1.331   0.544   7.187  0.1806  0.1368 -0.0467
 5133SOL    HW126861   1.285   0.572   7.108  0.2314 -1.1841 -0.5511
 5133SOL    HW226862   1.415   0.582   7.162  0.4328  0.2184  0.9229
 5134SOL     OW26863   0.982   2.861   6.230  0.3494 -0.3045 -0.1619
 5134SOL    HW126864   0.951   2.851   6.140  0.5768 -0.5002 -0.2204
 5134SOL    HW226865   0.933   2.791   6.273 -1.3895 -0.3588 -2.2411
 5135SOL     OW26866   2.601   1.621   2.690  0.4944 -0.5211  0.1526
 5135SOL    HW126867   2.584   1.658   2.604 -1.5644  1.7763  1.5407
 5135SOL    HW226868   2.510   1.600   2.714 -0.1233 -1.2264 -2.8126
 5136SOL     OW26869   2.536   3.448   1.194  0.5328  0.7440 -0.4264
 5136SOL    HW126870   2.562   3.512   1.128  1.7990 -0.4497 -1.0942
 5136SOL    HW226871   2.617   3.398   1.204  0.1431  0.1473 -0.2659
 5137SOL     OW26872   3.289   0.366   3.826  0.2332  0.0379 -0.2742
 5137SOL    HW126873   3.354   0.351   3.758  1.0951 -0.5413  0.6685
 5137SOL    HW226874   3.210   0.324   3.793  0.1875  0.0665 -0.2007
 5138SOL     OW26875   1.068   2.762   3.981 -0.1669 -0.5635 -0.7130
 5138SOL    HW126876   1.062   2.736   3.889  1.0930  2.9078 -1.7745
 5138SOL    HW226877   1.022   2.845   3.990 -0.8931 -0.9737 -0.6747
 5139SOL     OW26878   4.621   1.127   3.504 -0.1982 -0.6735 -0.4217
 5139SOL    HW126879   4.646   1.219   3.499 -0.2657 -0.5901  0.9650
 5139SOL    HW226880   4.635   1.098   3.413 -1.7521 -0.6305 -0.6844
 5140SOL     OW26881   4.204   4.456   5.854  0.1948  0.3380 -0.2989
 5140SOL    HW126882   4.244   4.512   5.921 -1.5142 -0.2335  1.2001
 5140SOL    HW226883   4.259   4.378   5.856 -2.0343 -1.2524 -1.1262
 5141SOL     OW26884   1.602   0.160   5.129  0.0160 -0.0544  0.0286
 5141SOL    HW126885   1.583   0.125   5.216  0.2922  0.5820  0.3435
 5141SOL    HW226886   1.684   0.203   5.154 -0.2564  0.6588 -0.2921
 5142SOL     OW26887   2.663   0.681   0.517  0.1856  0.2446  0.2192
 5142SOL    HW126888   2.593   0.744   0.501 -0.8688 -1.5249 -2.0101
 5142SOL    HW226889   2.652   0.627   0.439 -0.7151  3.0097 -1.5310
 5143SOL     OW26890   1.880   0.581   2.565  0.2411 -0.3307 -0.1487
 5143SOL    HW126891   1.838   0.502   2.532 -1.4393 -0.3050  1.9063
 5143SOL    HW226892   1.896   0.553   2.655  0.5720  1.5412  0.3922
 5144SOL     OW26893   1.934   4.255   5.187  0.2879  0.3435  0.7275
 5144SOL    HW126894   1.935   4.163   5.162 -2.6015  0.3508  0.5581
 5144SOL    HW226895   1.939   4.295   5.100  1.0719 -3.2970 -0.8848
 5145SOL     OW26896   2.172   2.730  17.468 -0.2182  0.6053 -0.2910
 5145SOL    HW126897   2.169   2.794  17.397 -1.5198  0.6448 -0.1986
 5145SOL    HW226898   2.108   2.663  17.443 -1.7254  1.6914  0.7141
 5146SOL     OW26899   3.179   2.553   8.898  0.0855  0.2113  0.1488
 5146SOL    HW126900   3.169   2.552   8.803 -0.1859 -2.2233  0.2094
 5146SOL    HW226901   3.210   2.463   8.908 -0.8921 -0.0256  1.0845
 5147SOL     OW26902   1.917   2.836   8.197 -0.7549 -0.2280  0.0104
 5147SOL    HW126903   1.871   2.891   8.133  3.1998  1.5136 -1.3145
 5147SOL    HW226904   1.842   2.805   8.247 -1.3401  0.0738 -0.6776
 5148SOL     OW26905   0.677   2.801   7.940 -0.1674  0.4621 -0.3149
 5148SOL    HW126906   0.722   2.730   7.986 -2.5980  0.0744  1.4582
 5148SOL    HW226907   0.717   2.883   7.966 -0.7962 -0.1283  2.4860
 5149SOL     OW26908   0.362   2.213  10.186  0.3697 -0.4463  0.3371
 5149SOL    HW126909   0.385   2.303  10.163  1.1560 -0.5038  0.8695
 5149SOL    HW226910   0.391   2.220  10.277 -1.5795 -0.7174  0.9760
 5150SOL     OW26911   2.322   1.267   8.919 -0.8573  0.2235 -0.0544
 5150SOL    HW126912   2.413   1.239   8.906 -0.8310 -0.5082  1.8197
 5150SOL    HW226913   2.341   1.331   8.987  0.5805  1.2997 -1.4354
 5151SOL     OW26914   4.617   1.962   5.163 -0.5063  0.0247  0.1787
 5151SOL    HW126915   4.685   1.900   5.188  0.7486  1.3161 -0.0767
 5151SOL    HW226916   4.646   2.047   5.196  1.5057 -0.9130  0.7919
 5152SOL     OW26917   0.191   3.560  15.557 -0.6520 -0.2081 -0.0622
 5152SOL    HW126918   0.194   3.495  15.627  1.5169 -0.6590 -0.5860
 5152SOL    HW226919   0.284   3.565  15.538 -1.1011  0.9061 -1.9350
 5153SOL     OW26920   4.648   3.686   7.473 -0.3886  0.1948 -1.0783
 5153SOL    HW126921   4.653   3.604   7.522  0.3248 -0.6396 -2.5503
 5153SOL    HW226922   0.012   3.723   7.491 -0.5982 -0.3026  0.9043
 5154SOL     OW26923   1.584   1.246   7.369  0.2530  0.3748 -0.3900
 5154SOL    HW126924   1.579   1.225   7.462 -0.7170  0.8941 -0.3206
 5154SOL    HW226925   1.629   1.330   7.381 -1.4726  1.3085 -0.3315
 5155SOL     OW26926   0.293   4.521   7.556 -0.1002 -0.5458  0.4338
 5155SOL    HW126927   0.231   4.593   7.546 -0.6329 -1.2331 -1.2211
 5155SOL    HW226928   0.346   4.557   7.627 -0.7299  0.6802  0.2851
 5156SOL     OW26929   3.048   2.412   4.121 -0.0503  0.4018 -0.5407
 5156SOL    HW126930   3.086   2.500   4.121 -0.1923  0.4628  0.3201
 5156SOL    HW226931   2.956   2.435   4.132 -0.7710 -2.5921 -0.2783
 5157SOL     OW26932   2.386   1.316   1.316  0.4900  0.5336  0.3643
 5157SOL    HW126933   2.333   1.340   1.240  0.4109 -2.1027 -0.3910
 5157SOL    HW226934   2.367   1.392   1.371 -4.8496 -1.0667  0.7480
 5158SOL     OW26935   1.040   1.490   5.320 -0.3003 -0.3230  0.0790
 5158SOL    HW126936   0.948   1.498   5.296 -0.9825  0.8738  3.0252
 5158SOL    HW226937   1.038   1.529   5.408 -0.1437 -0.0788 -0.0246
 5159SOL     OW26938   4.354   1.963   7.985  0.0665  0.7640 -0.6013
 5159SOL    HW126939   4.438   1.974   8.029 -0.2726  2.3562 -0.3484
 5159SOL    HW226940   4.310   1.931   8.064 -1.2112 -0.1040 -1.6598
 5160SOL     OW26941   0.155   1.455  12.296  0.3076  0.1744 -0.0929
 5160SOL    HW126942   0.213   1.449  12.220 -0.6168 -1.4466 -0.6541
 5160SOL    HW226943   0.080   1.415  12.254 -0.6550  3.2758 -1.3475
 5161SOL     OW26944   2.869   2.138   9.123  0.3167 -0.1694 -0.0394
 5161SOL    HW126945   2.795   2.079   9.111  0.7285 -0.8234  0.6383
 5161SOL    HW226946   2.878   2.158   9.030  1.6279  0.6409  0.2659
 5162SOL     OW26947   1.059   2.502   8.269 -0.1938  0.6471  0.3270
 5162SOL    HW126948   0.994   2.563   8.306 -1.5192 -0.9044  0.5491
 5162SOL    HW226949   0.997   2.431   8.249  1.9261 -0.9419 -0.5287
 5163SOL     OW26950   4.032   0.771   6.370 -0.2218  0.1289  0.0652
 5163SOL    HW126951   3.938   0.757   6.381 -0.8044  2.2059 -2.4796
 5163SOL    HW226952   4.052   0.795   6.461  2.8916 -0.1060 -0.5636
 5164SOL     OW26953   4.091   0.191   9.383 -0.0834  0.2908 -0.8189
 5164SOL    HW126954   4.075   0.129   9.312 -1.9523  1.1931 -1.1715
 5164SOL    HW226955   4.018   0.160   9.436  0.4677 -1.2861 -0.9547
 5165SOL     OW26956   3.998   0.221  13.192  0.1619 -0.4418  0.6395
 5165SOL    HW126957   3.956   0.203  13.108  2.5450 -1.3562 -0.3620
 5165SOL    HW226958   4.084   0.243  13.156  0.7178  0.2180  2.3675
 5166SOL     OW26959   4.192   0.019   3.821 -0.1273  0.5934  0.0156
 5166SOL    HW126960   4.276   0.008   3.864  0.1070  2.2228 -0.0580
 5166SOL    HW226961   4.168   0.110   3.805  3.0442  1.4279  0.1042
 5167SOL     OW26962   1.396   0.469   3.592 -0.3863 -0.0495  0.8630
 5167SOL    HW126963   1.409   0.453   3.685  1.5942  3.3274  1.1489
 5167SOL    HW226964   1.355   0.555   3.597  3.9446  2.0411  0.2220
 5168SOL     OW26965   1.234   3.246  15.218  0.6007  0.0473  0.1708
 5168SOL    HW126966   1.174   3.175  15.243  0.7982  0.3001  1.3927
 5168SOL    HW226967   1.317   3.199  15.210 -0.1880 -1.2744 -0.2241
 5169SOL     OW26968   0.774   3.024   8.036 -0.3729  0.3185 -0.4131
 5169SOL    HW126969   0.846   3.086   8.044 -0.1665  0.0247  0.0543
 5169SOL    HW226970   0.699   3.082   8.042 -0.1729  0.6881 -1.4604
 5170SOL     OW26971   1.311   3.743   9.851  0.2962  0.7930  0.7544
 5170SOL    HW126972   1.263   3.807   9.903 -1.2085 -0.1602  0.5555
 5170SOL    HW226973   1.237   3.690   9.822  0.3683  0.0193  1.9685
 5171SOL     OW26974   3.068   0.064   1.823 -0.2409  0.4972 -0.1291
 5171SOL    HW126975   3.095   4.696   1.844 -1.0361  0.5406  1.1286
 5171SOL    HW226976   3.007   0.080   1.896 -0.2945  0.5311 -0.1809
 5172SOL     OW26977   0.649   0.630  13.115 -0.1090  0.0821  0.4304
 5172SOL    HW126978   0.706   0.693  13.071 -0.8338  0.8633  0.6233
 5172SOL    HW226979   0.567   0.633  13.066  0.4777  0.1374 -0.5485
 5173SOL     OW26980   1.623   2.400   9.014 -0.0571  0.0938 -0.3785
 5173SOL    HW126981   1.537   2.412   9.056  0.2411  0.1289  0.2220
 5173SOL    HW226982   1.650   2.490   9.001 -1.8723  0.4126 -1.9419
 5174SOL     OW26983   0.055   2.282  13.857  0.3655  0.8058 -0.7063
 5174SOL    HW126984   4.686   2.259  13.839  0.3498  0.8793 -0.7223
 5174SOL    HW226985   0.074   2.329  13.776  2.5441 -0.3244 -0.8346
 5175SOL     OW26986   1.966   0.940  11.181  1.1246  0.1174  0.1288
 5175SOL    HW126987   1.945   0.851  11.209 -1.5209 -0.1793 -2.8506
 5175SOL    HW226988   1.927   0.988  11.254  0.2880 -0.7865  0.2721
 5176SOL     OW26989   2.914   3.020  14.629 -0.2955  0.2215  0.0592
 5176SOL    HW126990   2.958   3.074  14.564 -0.9283  1.5154  0.6942
 5176SOL    HW226991   2.985   2.976  14.675 -0.5158 -1.1071 -0.8396
 5177SOL     OW26992   1.561   4.045   4.901  0.8620 -0.5029  0.0112
 5177SOL    HW126993   1.607   4.052   4.817  1.5677  1.0544  0.5360
 5177SOL    HW226994   1.569   4.133   4.938  2.6986 -0.3844 -0.6553
 5178SOL     OW26995   0.799   0.379   7.854  0.3404  0.1595 -0.2203
 5178SOL    HW126996   0.880   0.364   7.903  1.9796  0.8337 -2.7539
 5178SOL    HW226997   0.826   0.436   7.782 -0.8962 -0.6840 -1.3591
 5179SOL     OW26998   1.233   1.005   2.394 -0.2409 -0.3764  0.1076
 5179SOL    HW126999   1.302   1.061   2.429 -1.5409  2.5421 -1.9326
 5179SOL    HW227000   1.250   1.011   2.299 -1.3842  0.0561 -0.0695
 5180SOL     OW27001   3.374   1.531   5.227 -1.0032  0.5672  0.0805
 5180SOL    HW127002   3.464   1.507   5.203 -0.9161  2.2032 -1.1868
 5180SOL    HW227003   3.359   1.485   5.309 -2.8311 -0.1545 -0.6540
 5181SOL     OW27004   0.561   0.872   7.177  0.4551  1.0859 -0.5813
 5181SOL    HW127005   0.582   0.887   7.084 -1.0150  2.7122 -0.6429
 5181SOL    HW227006   0.649   0.884   7.213  0.1761  2.4687 -0.3643
 5182SOL     OW27007   3.088   2.304   5.836  0.8345 -0.3289 -0.6703
 5182SOL    HW127008   3.171   2.266   5.809  0.6990  0.1418 -1.7403
 5182SOL    HW227009   3.086   2.375   5.772  0.0685  1.0606  0.8655
 5183SOL     OW27010   3.098   1.400   6.642  0.1247  0.2518 -0.2529
 5183SOL    HW127011   3.026   1.463   6.648  1.7380  1.9068  1.6816
 5183SOL    HW227012   3.158   1.457   6.593 -1.8947  2.7827  0.2255
 5184SOL     OW27013   3.994   0.163   7.764  0.2759  0.2580  0.2281
 5184SOL    HW127014   3.993   0.075   7.724  2.3027  0.4233 -0.1767
 5184SOL    HW227015   4.089   0.170   7.767  0.1834  2.3459 -2.0975
 5185SOL     OW27016   4.699   3.364   9.924 -0.5748  0.0458 -0.2492
 5185SOL    HW127017   0.004   3.448   9.961 -0.1740 -0.1787 -0.0410
 5185SOL    HW227018   0.059   3.314   9.929 -1.6168 -1.7614 -1.1037
 5186SOL     OW27019   3.158   2.913  14.589 -0.1692 -0.3781 -0.3018
 5186SOL    HW127020   3.157   2.853  14.514  3.5161  0.1330 -0.7242
 5186SOL    HW227021   3.244   2.952  14.577  0.0977  0.0982  3.3307
 5187SOL     OW27022   1.606   0.972   2.199 -0.0952 -0.3096  0.3502
 5187SOL    HW127023   1.532   0.912   2.211 -0.1604  0.0103  1.5739
 5187SOL    HW227024   1.568   1.037   2.140 -0.4579 -1.5427 -0.7760
 5188SOL     OW27025   4.392   1.231   1.755 -0.7969  0.2696 -0.1448
 5188SOL    HW127026   4.313   1.186   1.785 -1.5185  1.2527 -0.5336
 5188SOL    HW227027   4.403   1.307   1.812 -1.3499  1.5535 -1.7495
 5189SOL     OW27028   0.359   0.643   9.053 -0.1570  0.0056  0.1106
 5189SOL    HW127029   0.425   0.650   9.122  0.0979  2.1564 -0.3380
 5189SOL    HW227030   0.288   0.616   9.112  2.1120 -1.4720  2.1807
 5190SOL     OW27031   3.820   3.864   9.615  0.3355 -0.0477 -0.5748
 5190SOL    HW127032   3.796   3.773   9.635  2.1791 -0.4375 -0.0839
 5190SOL    HW227033   3.896   3.864   9.672  0.6203  1.9174 -0.9573
 5191SOL     OW27034   2.504   0.973   5.573 -0.2020  0.1840 -0.2799
 5191SOL    HW127035   2.589   0.930   5.566 -0.1172 -0.1494  3.0036
 5191SOL    HW227036   2.456   0.919   5.510 -0.7096  0.1884  0.1075
 5192SOL     OW27037   1.524   3.440  15.830 -0.6365  0.5930  0.0305
 5192SOL    HW127038   1.429   3.429  15.823 -0.1446 -2.7757 -1.1532
 5192SOL    HW227039   1.534   3.497  15.907  0.7748  0.8843 -0.3718
 5193SOL     OW27040   2.407   1.004   4.522 -0.3501 -0.5286  0.2976
 5193SOL    HW127041   2.411   0.912   4.497  0.2140 -0.9219  1.8146
 5193SOL    HW227042   2.315   1.029   4.514  0.1032  0.5760 -1.6298
 5194SOL     OW27043   3.866   2.567   1.970  0.2136  0.0282  0.4491
 5194SOL    HW127044   3.855   2.585   2.064 -0.2224  0.3919  0.3301
 5194SOL    HW227045   3.937   2.504   1.982  0.9257  0.5165 -1.2960
 5195SOL     OW27046   4.460   0.225   0.513 -0.0919  0.3597 -0.1197
 5195SOL    HW127047   4.418   0.203   0.430 -1.0137 -1.1658  0.7367
 5195SOL    HW227048   4.386   0.257   0.566  0.4587  0.1548  0.7834
 5196SOL     OW27049   4.562   0.960   4.960 -0.0963  0.2590  0.1749
 5196SOL    HW127050   4.507   0.952   4.882 -0.3877  0.5037  0.3511
 5196SOL    HW227051   4.616   0.881   4.960 -0.8476 -0.2670  1.7106
 5197SOL     OW27052   3.682   0.220  13.255  0.4195 -0.3436 -0.1641
 5197SOL    HW127053   3.716   0.284  13.318 -1.3370  1.1650 -0.7537
 5197SOL    HW227054   3.760   0.166  13.264  0.5384 -0.1552 -0.0472
 5198SOL     OW27055   0.309   1.656   5.084  0.0265  0.4240 -0.2972
 5198SOL    HW127056   0.387   1.647   5.137 -0.8080  1.9266  1.1759
 5198SOL    HW227057   0.318   1.575   5.034  0.7537  0.2796  0.0674
 5199SOL     OW27058   1.949   2.621   3.549 -0.4242 -0.4557  0.3123
 5199SOL    HW127059   1.894   2.691   3.516  0.0270 -1.2212 -2.0365
 5199SOL    HW227060   1.987   2.653   3.631 -3.0741  1.1394  0.9066
 5200SOL     OW27061   0.730   3.349  12.678 -0.5959 -0.2551 -0.0988
 5200SOL    HW127062   0.668   3.420  12.661  0.3716  0.1778 -1.7470
 5200SOL    HW227063   0.787   3.400  12.736 -0.7238 -0.2339  0.0088
 5201SOL     OW27064   1.765   3.697  13.983  0.0902  0.3434  0.1785
 5201SOL    HW127065   1.797   3.750  13.910  1.7898 -0.7363  0.1201
 5201SOL    HW227066   1.787   3.605  13.966  1.4401  0.2862  2.2848
 5202SOL     OW27067   2.956   4.513  14.882 -0.0601  0.0013 -0.0506
 5202SOL    HW127068   2.950   4.493  14.788  0.6392  1.6902 -0.4689
 5202SOL    HW227069   3.046   4.485  14.894  0.3171  1.4762  0.6427
 5203SOL     OW27070   3.373   1.225   1.857 -0.1198  0.6010 -0.3641
 5203SOL    HW127071   3.400   1.259   1.943 -1.6602  0.9796 -0.0208
 5203SOL    HW227072   3.389   1.132   1.874  1.5486  0.6208 -1.9626
 5204SOL     OW27073   2.241   0.360   5.605  0.3787 -0.6673  0.1929
 5204SOL    HW127074   2.259   0.423   5.674 -1.1550 -1.1860  1.0925
 5204SOL    HW227075   2.282   0.395   5.526  0.9628 -1.1032  0.3060
 5205SOL     OW27076   2.807   3.265  14.661 -0.3777  0.5168 -0.4535
 5205SOL    HW127077   2.815   3.169  14.668 -1.6952  0.4181 -0.2342
 5205SOL    HW227078   2.830   3.271  14.569 -1.0192 -1.5527 -0.7481
 5206SOL     OW27079   2.850   1.559   0.954  0.3085 -0.3256  0.3377
 5206SOL    HW127080   2.906   1.632   0.930  2.3248 -2.5827 -1.9035
 5206SOL    HW227081   2.785   1.605   1.007 -0.4032 -0.1819 -0.6431
 5207SOL     OW27082   0.596   4.237   6.392  0.3316 -0.3874 -0.3653
 5207SOL    HW127083   0.595   4.331   6.414  0.4555 -0.6096  0.5746
 5207SOL    HW227084   0.685   4.216   6.366  0.9617  0.2803  1.2190
 5208SOL     OW27085   4.338   3.302  13.346  0.3312  0.1154  0.0154
 5208SOL    HW127086   4.295   3.241  13.286 -0.3951 -0.1941  0.8466
 5208SOL    HW227087   4.411   3.325  13.288  0.7184  0.7197  0.7338
 5209SOL     OW27088   3.519   4.154  16.080 -0.1804 -0.2617  0.2096
 5209SOL    HW127089   3.552   4.145  16.169 -2.2218 -0.3590  0.9611
 5209SOL    HW227090   3.575   4.089  16.037  0.4384  1.3543 -1.4033
 5210SOL     OW27091   3.176   1.796  17.383 -0.2262  0.2205  0.1218
 5210SOL    HW127092   3.099   1.843  17.417 -0.6571  2.8526 -4.5411
 5210SOL    HW227093   3.135   1.778  17.298  1.2645 -1.9559 -0.1229
 5211SOL     OW27094   1.198   0.923   1.751 -0.1583 -0.1901  0.4402
 5211SOL    HW127095   1.150   0.876   1.683  1.0370  0.9101 -1.1642
 5211SOL    HW227096   1.150   1.005   1.752  1.7891  0.9537  1.8227
 5212SOL     OW27097   1.928   2.006   5.667 -0.5935  0.0796  0.2036
 5212SOL    HW127098   1.941   1.914   5.647 -1.6021 -0.1149  0.4054
 5212SOL    HW227099   1.901   2.046   5.584  0.2830 -2.7707 -1.4142
 5213SOL     OW27100   2.400   2.649   4.780  0.1030  0.8792  0.3846
 5213SOL    HW127101   2.477   2.605   4.744 -0.7859 -0.7486  0.4569
 5213SOL    HW227102   2.346   2.586   4.827  2.2910 -0.9036  0.4911
 5214SOL     OW27103   0.634   1.976  16.951  0.4696  0.3437 -0.3145
 5214SOL    HW127104   0.624   2.012  17.039 -0.4133 -0.7723  0.0309
 5214SOL    HW227105   0.580   2.029  16.892 -1.8638  1.0844  2.4794
 5215SOL     OW27106   2.324   2.705   3.769 -0.0344  0.1124 -0.4049
 5215SOL    HW127107   2.397   2.758   3.801  0.3597 -0.5361 -0.2282
 5215SOL    HW227108   2.361   2.617   3.772 -3.2346 -1.2236 -0.7057
 5216SOL     OW27109   4.363   2.589   3.559 -0.2386  0.1696 -0.0331
 5216SOL    HW127110   4.447   2.592   3.513  0.3455 -0.1290  1.0012
 5216SOL    HW227111   4.377   2.512   3.614  0.7810 -1.6376 -2.8333
 5217SOL     OW27112   3.725   3.831   6.205  0.2325  0.5788  0.4301
 5217SOL    HW127113   3.768   3.906   6.247 -0.3541  0.7472  0.7311
 5217SOL    HW227114   3.798   3.776   6.177  0.2512  1.7122 -1.7855
 5218SOL     OW27115   1.888   2.170  12.097  0.4504 -0.2760  0.2687
 5218SOL    HW127116   1.941   2.153  12.175 -0.4526  0.7774  1.1048
 5218SOL    HW227117   1.822   2.218  12.147 -0.8324 -1.3846 -0.3795
 5219SOL     OW27118   3.395   2.104  17.501  0.2984 -0.4721 -0.4394
 5219SOL    HW127119   3.490   2.116  17.498  0.3705 -0.7915  0.8456
 5219SOL    HW227120   3.385   2.058  17.584 -1.2054  3.0881  1.3516
 5220SOL     OW27121   2.266   2.453  11.588 -0.4533 -0.1721  0.2320
 5220SOL    HW127122   2.239   2.520  11.650 -0.7486  1.1625 -1.3299
 5220SOL    HW227123   2.324   2.499  11.527  0.0001 -0.6857  0.2729
 5221SOL     OW27124   2.490   0.622   6.509  0.0750  0.0870 -0.2613
 5221SOL    HW127125   2.473   0.646   6.418  2.5460 -0.0216 -0.7577
 5221SOL    HW227126   2.544   0.547   6.487 -0.7263 -0.7478  0.6402
 5222SOL     OW27127   4.284   4.330   2.587 -0.0649  0.2846  0.4008
 5222SOL    HW127128   4.264   4.363   2.675  2.4147  0.6181  0.8362
 5222SOL    HW227129   4.197   4.342   2.548  0.9368 -2.0620 -2.5640
 5223SOL     OW27130   4.536   4.285  15.413  0.0665 -0.1095 -0.1778
 5223SOL    HW127131   4.526   4.195  15.380 -0.2001 -0.0190 -0.3482
 5223SOL    HW227132   4.626   4.307  15.389  0.1890  0.5992  0.9326
 5224SOL     OW27133   0.633   1.484   0.861 -0.5681  0.2504 -0.4770
 5224SOL    HW127134   0.682   1.413   0.820  0.6032 -0.4264  2.1139
 5224SOL    HW227135   0.679   1.498   0.944 -3.0788  0.2069  0.9496
 5225SOL     OW27136   0.906   0.974   5.014  0.4319  0.3524  0.7322
 5225SOL    HW127137   0.866   1.022   5.086  0.4971  2.5194 -0.6476
 5225SOL    HW227138   0.994   1.014   5.013  1.3226 -1.6622 -1.3669
 5226SOL     OW27139   2.167   3.455  17.608  0.0017  0.1179  0.0664
 5226SOL    HW127140   2.106   3.388  17.577  0.1047  0.9651 -1.9893
 5226SOL    HW227141   2.211   3.485  17.528 -1.0074  2.1232  0.2686
 5227SOL     OW27142   2.974   3.739   5.954  0.3181 -0.5291 -0.5807
 5227SOL    HW127143   2.895   3.790   5.972  1.5950  0.8876  1.0237
 5227SOL    HW227144   2.960   3.656   5.999 -1.5912 -0.0116 -0.2546
 5228SOL     OW27145   0.164   3.421   5.236 -0.0124  0.1690  0.1539
 5228SOL    HW127146   0.237   3.360   5.231  0.4301  0.9122 -2.5626
 5228SOL    HW227147   0.095   3.356   5.228 -0.7733  0.5436  3.7771
 5229SOL     OW27148   3.175   2.250   3.736 -0.0476 -0.0445  0.1168
 5229SOL    HW127149   3.174   2.346   3.728  3.1619 -0.0709 -0.4109
 5229SOL    HW227150   3.163   2.228   3.828  0.7102  1.4960  0.5870
 5230SOL     OW27151   1.175   2.599   2.432 -0.2222 -0.7129  0.3118
 5230SOL    HW127152   1.213   2.684   2.407 -0.3232 -0.6510  0.3668
 5230SOL    HW227153   1.212   2.600   2.520 -2.7978 -0.4645  1.3759
 5231SOL     OW27154   1.459   1.988   8.797 -0.0561 -0.0102  0.2083
 5231SOL    HW127155   1.523   1.917   8.785  0.1881  0.5037 -1.4428
 5231SOL    HW227156   1.406   1.976   8.718  1.5127 -1.1030 -0.6784
 5232SOL     OW27157   0.461   3.569   3.888  0.0066  0.0354  0.0863
 5232SOL    HW127158   0.452   3.647   3.942 -0.1047  0.7042 -0.8934
 5232SOL    HW227159   0.395   3.573   3.819  0.6602  0.8352 -0.4983
 5233SOL     OW27160   4.459   1.567  15.097  0.4167 -0.2116  0.9152
 5233SOL    HW127161   4.368   1.576  15.069  1.0765  1.5595 -0.6871
 5233SOL    HW227162   4.457   1.517  15.179 -0.3575 -1.4223  0.1624
 5234SOL     OW27163   0.895   2.292   8.222 -0.2406 -0.1608 -0.1332
 5234SOL    HW127164   0.891   2.305   8.317  2.1686  0.3368 -0.0775
 5234SOL    HW227165   0.808   2.256   8.209 -0.7595  0.8329  0.5870
 5235SOL     OW27166   0.337   2.361   8.125  0.0039  0.3494 -0.1924
 5235SOL    HW127167   0.337   2.422   8.198 -1.4170 -0.1283  0.2059
 5235SOL    HW227168   0.420   2.378   8.082  0.2882 -0.3550  0.0879
 5236SOL     OW27169   0.834   4.097  14.024 -0.5784  0.1447  0.3691
 5236SOL    HW127170   0.863   4.006  14.027  1.0654  0.6233 -1.2553
 5236SOL    HW227171   0.867   4.119  13.937 -0.0694 -0.1014  0.5038
 5237SOL     OW27172   3.601   2.926   3.385 -0.4970  0.3859 -0.9119
 5237SOL    HW127173   3.635   2.837   3.380  1.2666  1.1274 -2.3160
 5237SOL    HW227174   3.663   2.959   3.449 -1.3723 -1.7886  1.0525
 5238SOL     OW27175   1.815   1.568  13.228 -0.1899  0.0760  0.4645
 5238SOL    HW127176   1.836   1.475  13.232 -0.9115 -0.1223 -0.4701
 5238SOL    HW227177   1.874   1.597  13.298  0.8276 -2.7271  0.7556
 5239SOL     OW27178   0.408   3.542   4.255  0.3776  0.1094 -0.1202
 5239SOL    HW127179   0.390   3.459   4.300 -3.7886 -0.3205 -2.4819
 5239SOL    HW227180   0.350   3.531   4.180  2.4410 -1.0472 -1.5370
 5240SOL     OW27181   0.544   1.322   1.445  0.6183 -0.5426  0.2501
 5240SOL    HW127182   0.463   1.369   1.425  0.4410 -0.8917  0.1640
 5240SOL    HW227183   0.524   1.283   1.530  0.3015  0.2601  0.5472
 5241SOL     OW27184   1.776   3.561   4.889  0.1468  0.3794  0.4560
 5241SOL    HW127185   1.803   3.653   4.887  0.4923  0.2373 -1.0744
 5241SOL    HW227186   1.684   3.568   4.915  0.6197 -0.0794  2.2760
 5242SOL     OW27187   0.755   3.327   3.089 -0.0387 -0.1988  0.3488
 5242SOL    HW127188   0.838   3.295   3.126 -0.4918 -1.7141  0.0562
 5242SOL    HW227189   0.746   3.272   3.011  1.3944  0.1560 -0.0625
 5243SOL     OW27190   1.373   3.107   3.487 -0.5878 -0.0565  0.0813
 5243SOL    HW127191   1.424   3.186   3.504 -1.3722  1.0553 -2.7273
 5243SOL    HW227192   1.387   3.103   3.392  2.1161  2.0761  0.4243
 5244SOL     OW27193   2.273   3.188   1.796 -0.1876  0.3931  0.3643
 5244SOL    HW127194   2.285   3.125   1.724  0.6176 -0.4952  1.2710
 5244SOL    HW227195   2.260   3.265   1.741  0.2639 -0.3073 -0.7213
 5245SOL     OW27196   1.087   2.059  11.513 -0.0611  0.0278 -0.1231
 5245SOL    HW127197   1.180   2.047  11.531 -0.1671 -0.8656 -0.1304
 5245SOL    HW227198   1.057   2.104  11.591  0.3827  0.4532 -0.2013
 5246SOL     OW27199   0.011   0.543   3.250  0.3663 -0.3629 -0.2666
 5246SOL    HW127200   0.005   0.509   3.160  0.7674 -0.9486 -0.0619
 5246SOL    HW227201   0.021   0.467   3.306 -0.1977  0.4506  0.9495
 5247SOL     OW27202   4.452   0.645   6.881 -0.1278  0.6015 -0.6028
 5247SOL    HW127203   4.470   0.592   6.803 -0.1870 -0.2341 -0.0545
 5247SOL    HW227204   4.529   0.700   6.866 -0.7638  0.9970 -2.4195
 5248SOL     OW27205   4.160   1.881   2.260  0.0685  0.6034  0.7439
 5248SOL    HW127206   4.137   1.929   2.180  0.6739 -0.5701 -0.1439
 5248SOL    HW227207   4.070   1.880   2.290  0.1419 -2.6661  0.8209
 5249SOL     OW27208   0.770   2.717   6.335 -0.1629  0.9526  0.2557
 5249SOL    HW127209   0.738   2.805   6.356  0.8769  1.9575 -2.2737
 5249SOL    HW227210   0.713   2.669   6.395  1.8654 -0.6421  0.8817
 5250SOL     OW27211   1.941   1.937  16.213 -0.4342 -0.5296 -0.3111
 5250SOL    HW127212   1.977   1.977  16.292  0.7286  1.2494 -1.7522
 5250SOL    HW227213   1.853   1.965  16.239 -0.3666  1.0570 -1.7533
 5251SOL     OW27214   2.873   3.439   4.720 -0.1026  0.0284 -0.1418
 5251SOL    HW127215   2.941   3.397   4.772 -0.9561 -1.6099 -0.3390
 5251SOL    HW227216   2.803   3.375   4.737 -0.3774  0.8818  1.9727
 5252SOL     OW27217   3.112   4.540   2.971  0.3035 -0.2915 -0.1053
 5252SOL    HW127218   3.118   4.531   3.066  4.0945 -1.9360 -0.5247
 5252SOL    HW227219   3.106   4.635   2.963  1.8244 -0.3995 -2.6019
 5253SOL     OW27220   0.800   0.421   3.417 -0.5207  0.3409 -0.2407
 5253SOL    HW127221   0.846   0.476   3.354 -0.5773  1.0676  0.3596
 5253SOL    HW227222   0.835   0.463   3.496 -0.5161  0.9686 -0.5756
 5254SOL     OW27223   3.620   3.326   4.482  0.8051  0.5476  0.5918
 5254SOL    HW127224   3.560   3.321   4.557  0.0370  1.1825  0.0223
 5254SOL    HW227225   3.579   3.386   4.419 -1.9854 -0.6755  1.2617
 5255SOL     OW27226   2.766   1.159  12.869 -0.3804 -0.3628  0.1383
 5255SOL    HW127227   2.756   1.159  12.773 -0.9535 -0.5473  0.1970
 5255SOL    HW227228   2.674   1.142  12.891 -0.2576  0.1014  1.0183
 5256SOL     OW27229   2.056   0.874   8.718  0.0816 -0.2913  0.4479
 5256SOL    HW127230   2.123   0.841   8.658  1.4188 -0.3928  2.0119
 5256SOL    HW227231   2.001   0.928   8.661  1.3585  1.6452  1.0258
 5257SOL     OW27232   2.530   4.190   4.136 -0.4270  0.2248  0.1197
 5257SOL    HW127233   2.508   4.100   4.113 -1.5482  0.6409 -0.4806
 5257SOL    HW227234   2.458   4.203   4.197  0.7759  1.4483  1.2674
 5258SOL     OW27235   0.289   4.173  14.483 -0.2857  0.2125  0.2546
 5258SOL    HW127236   0.275   4.266  14.464  1.1757  0.7503  1.7988
 5258SOL    HW227237   0.322   4.180  14.573 -1.2592  0.3304  0.5948
 5259SOL     OW27238   0.964   1.979   5.219  0.0432  0.3026  0.1272
 5259SOL    HW127239   0.927   2.026   5.293  1.0166 -1.5793  1.7886
 5259SOL    HW227240   0.893   1.990   5.155  0.0911  2.7286  0.4967
 5260SOL     OW27241   2.663   0.474   0.289 -0.1247 -0.2536  0.5810
 5260SOL    HW127242   2.653   0.414   0.362  1.1290 -2.2336 -0.8710
 5260SOL    HW227243   2.590   0.447   0.233  1.4227 -0.0391 -1.5722
 5261SOL     OW27244   4.388   4.145  16.209 -0.5584 -0.5765  0.4021
 5261SOL    HW127245   4.467   4.185  16.243 -0.2472  0.3783 -1.4038
 5261SOL    HW227246   4.360   4.204  16.139 -0.3715  0.0973  0.9038
 5262SOL     OW27247   2.934   1.401  17.684  0.5764 -0.0923 -0.2336
 5262SOL    HW127248   3.004   1.339  17.663 -1.2480 -1.4299 -2.3706
 5262SOL    HW227249   2.863   1.345   0.026 -0.4475  0.3415 -1.6884
 5263SOL     OW27250   0.650   4.616   8.448  0.0454 -0.3011 -0.2356
 5263SOL    HW127251   0.638   4.651   8.360 -1.7690  4.6105  1.9752
 5263SOL    HW227252   0.654   4.696   8.501  1.9521  1.1601 -2.5633
 5264SOL     OW27253   2.908   0.654   2.299 -0.3623  0.7492  0.0353
 5264SOL    HW127254   2.978   0.719   2.294 -1.0146  1.4320 -0.1660
 5264SOL    HW227255   2.884   0.627   2.211  1.1982  1.3344 -0.5743
 5265SOL     OW27256   4.005   3.526  13.682  0.5433  0.6269 -0.5444
 5265SOL    HW127257   3.922   3.571  13.697 -0.6303 -1.6332 -0.3178
 5265SOL    HW227258   3.980   3.447  13.635 -1.6752  1.5953 -0.9689
 5266SOL     OW27259   2.140   0.745   5.694 -0.7206  0.5447  0.2965
 5266SOL    HW127260   2.230   0.727   5.722  0.0197  0.1306 -2.3428
 5266SOL    HW227261   2.114   0.774   5.782  1.6691 -1.4820  1.6752
 5267SOL     OW27262   3.117   4.399   8.093 -0.2795  0.6371 -0.2148
 5267SOL    HW127263   3.148   4.435   8.175 -2.1348  1.8035 -0.0135
 5267SOL    HW227264   3.054   4.467   8.067 -2.1307 -2.4487 -3.8478
 5268SOL     OW27265   1.288   1.713   7.453 -0.1333 -0.0025 -0.3014
 5268SOL    HW127266   1.231   1.674   7.386 -1.4705 -0.1010  0.8861
 5268SOL    HW227267   1.239   1.786   7.491  0.9146 -0.2240  1.4723
 5269SOL     OW27268   2.771   0.723   7.469  0.5790 -0.4689  0.1191
 5269SOL    HW127269   2.820   0.702   7.390  1.5043 -1.6044  1.0096
 5269SOL    HW227270   2.782   0.646   7.525 -2.4156  0.2308  1.6933
 5270SOL     OW27271   3.968   1.921   5.787  0.0169 -0.6789  1.0382
 5270SOL    HW127272   3.910   1.994   5.766  0.3274 -0.8691 -0.5091
 5270SOL    HW227273   3.905   1.881   5.847 -2.2755 -0.6976 -1.4072
 5271SOL     OW27274   3.657   1.316   8.474 -0.0453 -0.4804  0.1438
 5271SOL    HW127275   3.572   1.342   8.507  0.1555  1.0210 -0.5325
 5271SOL    HW227276   3.708   1.310   8.555  2.3725 -3.5797 -1.5563
 5272SOL     OW27277   1.260   3.496   6.423  0.0563  0.1072 -0.3594
 5272SOL    HW127278   1.330   3.476   6.361  0.0116 -1.6396  0.1401
 5272SOL    HW227279   1.205   3.419   6.413  1.1419 -1.0129  2.3002
 5273SOL     OW27280   2.034   4.281   8.486 -0.2549 -0.2000  0.2656
 5273SOL    HW127281   2.094   4.334   8.538 -1.1116  2.5342 -1.5623
 5273SOL    HW227282   1.961   4.339   8.510 -2.3665 -2.4234 -0.7232
 5274SOL     OW27283   3.827   1.197  13.313 -0.2882 -0.6645  0.4954
 5274SOL    HW127284   3.748   1.156  13.349 -0.8642  0.0632  0.0477
 5274SOL    HW227285   3.885   1.121  13.326 -1.1029 -1.2758  0.5627
 5275SOL     OW27286   0.925   1.007  12.311 -0.3992 -0.5325 -0.0237
 5275SOL    HW127287   1.015   1.022  12.283 -0.2750 -1.1656  0.0244
 5275SOL    HW227288   0.886   1.077  12.259 -0.6613 -0.8818 -0.3055
 5276SOL     OW27289   0.634   2.017  17.232  0.4613 -0.4058  0.3252
 5276SOL    HW127290   0.708   2.057  17.278 -1.1095 -0.4449  2.8806
 5276SOL    HW227291   0.586   1.968  17.298 -0.9677  1.5540  0.7191
 5277SOL     OW27292   2.051   1.734   3.035 -0.0801  0.0003  0.2543
 5277SOL    HW127293   2.124   1.722   2.974 -0.0937  0.5376  0.1367
 5277SOL    HW227294   2.005   1.810   3.001  1.1335 -0.2367 -1.8978
 5278SOL     OW27295   1.654   4.114   5.772  0.5169 -0.3630 -0.1650
 5278SOL    HW127296   1.619   4.087   5.857 -0.7140  2.3618  0.2013
 5278SOL    HW227297   1.733   4.061   5.765  0.5315 -0.8503  3.8345
 5279SOL     OW27298   3.578   1.324  17.496  0.6625  0.1665  0.4040
 5279SOL    HW127299   3.610   1.241  17.529 -2.8892 -1.3872 -0.0162
 5279SOL    HW227300   3.656   1.379  17.501  1.5612 -1.0278 -0.4862
 5280SOL     OW27301   2.870   0.013   3.136 -0.0331  0.0261 -0.4632
 5280SOL    HW127302   2.858   4.708   3.045 -2.1439 -0.5555 -0.0107
 5280SOL    HW227303   2.966   0.015   3.143  0.0882 -4.1338 -0.5986
 5281SOL     OW27304   0.691   1.592   6.366  1.0189  0.2854 -0.5388
 5281SOL    HW127305   0.701   1.636   6.282  1.1887  1.2798  0.0068
 5281SOL    HW227306   0.625   1.525   6.345  2.2233 -1.4073  1.0658
 5282SOL     OW27307   0.011   1.083   8.571  0.6774  0.0992  0.1335
 5282SOL    HW127308   0.008   1.166   8.618  0.8089  0.4459 -0.4768
 5282SOL    HW227309   0.093   1.048   8.607 -0.1430 -1.9062  0.0792
 5283SOL     OW27310   1.674   0.798   3.927  0.1536 -0.3165 -0.2433
 5283SOL    HW127311   1.734   0.724   3.933 -1.1322 -1.1785  2.0670
 5283SOL    HW227312   1.722   0.842   3.857  0.5911 -0.2224  0.1148
 5284SOL     OW27313   4.178   0.180  17.190  0.7597  0.0794 -0.2329
 5284SOL    HW127314   4.147   0.167  17.280 -1.2134  1.8556 -0.6585
 5284SOL    HW227315   4.205   0.091  17.167 -0.7984 -0.2381 -0.8576
 5285SOL     OW27316   3.459   2.027   1.151 -0.2594 -0.5178 -0.3849
 5285SOL    HW127317   3.430   1.936   1.146 -1.7517 -0.2350  3.3641
 5285SOL    HW227318   3.437   2.050   1.061  0.2891 -1.1483 -0.6867
 5286SOL     OW27319   0.962   2.921   1.302 -0.3532 -0.6264 -0.9643
 5286SOL    HW127320   0.916   2.843   1.272 -0.9095 -1.3355  1.6688
 5286SOL    HW227321   0.998   2.950   1.218  2.9481 -0.5171  0.4798
 5287SOL     OW27322   2.080   4.486   9.098  0.9673  0.3266  0.4541
 5287SOL    HW127323   2.175   4.484   9.109  1.3956 -1.0094 -3.4485
 5287SOL    HW227324   2.063   4.392   9.093  1.7506  0.2074 -0.0510
 5288SOL     OW27325   3.660   2.433   5.369 -0.2905 -0.1859  0.2330
 5288SOL    HW127326   3.728   2.486   5.411 -0.1571 -2.0150  2.3164
 5288SOL    HW227327   3.714   2.367   5.324  0.3804  0.9821 -0.6624
 5289SOL     OW27328   1.963   1.472   3.599  0.3909 -0.3340  0.3325
 5289SOL    HW127329   2.027   1.452   3.530  0.6431 -0.8853  0.7177
 5289SOL    HW227330   1.900   1.517   3.543  0.9665 -1.5318 -1.2692
 5290SOL     OW27331   1.530   4.070   2.976  0.1237 -0.2561  0.3017
 5290SOL    HW127332   1.562   4.074   3.066  1.1499  0.1941 -0.0742
 5290SOL    HW227333   1.609   4.104   2.932  1.7434  0.0330  3.4706
 5291SOL     OW27334   0.640   2.171   5.781 -0.2422  0.5002 -0.2611
 5291SOL    HW127335   0.609   2.187   5.870  5.2648  1.0582  1.5388
 5291SOL    HW227336   0.728   2.136   5.795 -0.7665 -1.1096 -1.0360
 5292SOL     OW27337   3.000   4.381   4.086  0.3653  0.4142  0.4337
 5292SOL    HW127338   2.908   4.356   4.082  0.5497 -0.1258 -0.3597
 5292SOL    HW227339   2.990   4.466   4.130  2.1016  1.0036 -0.3252
 5293SOL     OW27340   0.541   2.065  10.683  0.0330  0.1916  0.4319
 5293SOL    HW127341   0.584   2.131  10.737 -0.4493  0.0321  1.0091
 5293SOL    HW227342   0.542   1.979  10.725 -2.1223  0.0050  0.1367
 5294SOL     OW27343   3.284   1.689  11.178 -0.1241  0.1466  0.2011
 5294SOL    HW127344   3.286   1.700  11.083  1.4208  1.2457  0.3545
 5294SOL    HW227345   3.277   1.776  11.216 -1.6319  0.6237 -1.1548
 5295SOL     OW27346   2.060   0.351  16.917 -0.2388  0.2392  0.1414
 5295SOL    HW127347   2.135   0.409  16.912 -0.1591  0.1286  0.0722
 5295SOL    HW227348   1.990   0.407  16.951  1.0199  0.8200  1.7567
 5296SOL     OW27349   4.699   2.660   2.900  0.3878 -0.2551 -0.3202
 5296SOL    HW127350   0.004   2.718   2.829 -1.1369  2.2130  1.1100
 5296SOL    HW227351   4.690   2.720   2.974 -1.0790  0.4262 -1.0517
 5297SOL     OW27352   3.614   2.341   7.670  0.2992  0.3630  0.0031
 5297SOL    HW127353   3.671   2.263   7.668 -0.3864 -0.1847  1.4672
 5297SOL    HW227354   3.605   2.370   7.580  0.0423 -0.7825 -0.3372
 5298SOL     OW27355   3.111   3.560  15.294  0.1528  0.2512 -0.0607
 5298SOL    HW127356   3.093   3.487  15.353 -0.6995  2.3935  2.3549
 5298SOL    HW227357   3.186   3.519  15.250 -1.6783 -0.5396 -2.4379
 5299SOL     OW27358   1.443   0.036   1.726 -0.0267  0.8125 -0.1531
 5299SOL    HW127359   1.410   4.698   1.792 -0.7779  0.8903 -0.4551
 5299SOL    HW227360   1.374   0.048   1.660  1.4084  2.2376 -1.3949
 5300SOL     OW27361   2.349   0.111   5.846  0.3216  0.4454  0.8981
 5300SOL    HW127362   2.282   0.116   5.914 -2.1271  0.2932 -1.5015
 5300SOL    HW227363   2.388   0.026   5.868  1.2451  0.5471 -0.3093
 5301SOL     OW27364   2.654   3.454   9.308  0.3604  0.2585 -0.1233
 5301SOL    HW127365   2.702   3.510   9.247  1.5188 -1.0309 -0.3992
 5301SOL    HW227366   2.722   3.440   9.374  1.1781 -0.9299 -1.2180
 5302SOL     OW27367   2.347   1.558  15.475 -0.2069 -0.3952 -0.1340
 5302SOL    HW127368   2.318   1.603  15.554 -1.2078 -1.8406  0.3385
 5302SOL    HW227369   2.336   1.467  15.502  0.0086 -0.1118  0.8820
 5303SOL     OW27370   0.902   1.776  12.235 -0.0672  0.1930  0.2868
 5303SOL    HW127371   0.850   1.725  12.298 -0.2732  1.3787  1.0834
 5303SOL    HW227372   0.841   1.762  12.163 -0.5690  3.2137  0.1363
 5304SOL     OW27373   4.342   3.562   9.782  0.0574 -0.3870 -0.0113
 5304SOL    HW127374   4.303   3.645   9.754  0.9839 -0.8127 -2.5230
 5304SOL    HW227375   4.429   3.574   9.745 -0.7085  1.3549 -1.2736
 5305SOL     OW27376   0.732   0.266   6.060 -0.0080 -0.0056  0.0962
 5305SOL    HW127377   0.815   0.306   6.088  1.4332 -1.7685 -1.6113
 5305SOL    HW227378   0.690   0.337   6.011  0.0618 -1.2267 -1.7048
 5306SOL     OW27379   0.636   0.568  11.236 -0.0019  0.1024  0.1687
 5306SOL    HW127380   0.574   0.496  11.233  0.2484  0.0043 -2.8999
 5306SOL    HW227381   0.693   0.550  11.161 -1.6315  0.7559 -1.2248
 5307SOL     OW27382   1.035   3.094   2.698  0.0175  0.7604  0.4186
 5307SOL    HW127383   1.069   3.054   2.778 -1.9229  1.1599  1.4466
 5307SOL    HW227384   1.119   3.106   2.653 -0.5804  0.1410 -0.8489
 5308SOL     OW27385   4.329   1.783   6.001  0.0915  0.4575  0.1112
 5308SOL    HW127386   4.301   1.789   5.910  2.0433  0.2858 -0.4881
 5308SOL    HW227387   4.268   1.714   6.028 -0.0869  0.4857 -0.2128
 5309SOL     OW27388   2.265   3.084   9.053 -0.5412 -0.3186 -0.0559
 5309SOL    HW127389   2.350   3.042   9.065 -0.6647 -1.4179 -2.9805
 5309SOL    HW227390   2.216   3.023   8.998  3.3348 -0.8770 -2.8930
 5310SOL     OW27391   0.122   0.945   2.263  0.0291 -0.0778 -0.0152
 5310SOL    HW127392   0.057   0.903   2.318 -0.1625  0.3790  0.1055
 5310SOL    HW227393   0.088   0.925   2.176  2.1236 -0.4482 -0.7610
 5311SOL     OW27394   0.591   2.488   5.096  0.2571  0.0889 -1.3738
 5311SOL    HW127395   0.614   2.574   5.061 -0.1802  1.4734  1.7221
 5311SOL    HW227396   0.534   2.450   5.029 -1.6474  2.1694 -0.9634
 5312SOL     OW27397   1.028   3.913   8.323  0.0750  0.4678  0.2852
 5312SOL    HW127398   0.971   3.989   8.307  0.1791  0.6060  0.5782
 5312SOL    HW227399   1.057   3.911   8.414  0.9317  0.4336  0.0068
 5313SOL     OW27400   0.608   1.577  16.955  0.2281  0.0059 -0.6018
 5313SOL    HW127401   0.570   1.639  17.018  0.7366  0.6869 -0.9649
 5313SOL    HW227402   0.610   1.640  16.883 -0.6692  1.3436  0.5260
 5314SOL     OW27403   2.295   4.000   4.916  0.2381 -0.9570 -0.3595
 5314SOL    HW127404   2.316   4.010   5.009 -1.9331  0.4502 -0.0020
 5314SOL    HW227405   2.375   3.979   4.869 -0.2341  0.3210 -1.7122
 5315SOL     OW27406   0.266   4.331   8.636 -0.6008  0.2272  0.0534
 5315SOL    HW127407   0.317   4.406   8.666  0.8948 -0.7866  0.0236
 5315SOL    HW227408   0.262   4.296   8.725  0.5913  0.5807  0.2486
 5316SOL     OW27409   2.877   3.503  12.429  0.6075 -0.0690 -0.2189
 5316SOL    HW127410   2.873   3.550  12.346 -3.2064 -1.7611 -0.9974
 5316SOL    HW227411   2.906   3.417  12.400 -1.5239 -0.2443 -1.8199
 5317SOL     OW27412   3.427   4.492  12.591 -0.8062  0.5018  0.2853
 5317SOL    HW127413   3.345   4.480  12.638 -0.7087 -0.1861  0.2863
 5317SOL    HW227414   3.453   4.579  12.620 -0.0676  0.6839 -0.9234
 5318SOL     OW27415   4.651   3.770   3.375  0.3285 -0.5218 -0.8063
 5318SOL    HW127416   4.722   3.829   3.350 -0.4865  0.2229 -1.3679
 5318SOL    HW227417   4.573   3.819   3.350  1.3678  1.0877 -0.9092
 5319SOL     OW27418   0.190   1.715   0.433 -0.6858 -0.6317 -0.3828
 5319SOL    HW127419   0.135   1.642   0.460 -0.9385 -0.5997 -0.8043
 5319SOL    HW227420   0.228   1.673   0.356  0.5123 -0.1510 -0.0592
 5320SOL     OW27421   4.337   1.985  16.666  0.3536  0.2933  0.6656
 5320SOL    HW127422   4.328   2.078  16.684 -3.5869  0.1223 -0.4136
 5320SOL    HW227423   4.430   1.973  16.686  0.5226 -0.8917 -0.7669
 5321SOL     OW27424   3.841   3.324   7.172 -0.4164 -0.3006 -0.0405
 5321SOL    HW127425   3.920   3.355   7.217 -1.1972  2.5567 -0.6217
 5321SOL    HW227426   3.825   3.238   7.211  0.5235  0.0748  1.1780
 5322SOL     OW27427   0.165   3.824   4.316 -0.0665  0.3074 -0.5128
 5322SOL    HW127428   0.193   3.746   4.365 -0.0902  0.6530  0.0506
 5322SOL    HW227429   0.209   3.896   4.361  1.5857 -1.0631  0.0816
 5323SOL     OW27430   4.040   3.042   4.782 -0.0794 -0.1750  0.3987
 5323SOL    HW127431   3.953   3.021   4.816  0.0151  0.2768  0.9233
 5323SOL    HW227432   4.056   2.959   4.737  2.6445 -0.1023  1.2900
 5324SOL     OW27433   0.783   4.488   2.691  0.1185 -0.4661 -0.3380
 5324SOL    HW127434   0.774   4.526   2.604 -1.4289  2.9676  1.3046
 5324SOL    HW227435   0.866   4.516   2.730 -0.5173 -0.5643  1.0969
 5325SOL     OW27436   1.709   2.014   4.215  0.2885 -0.5607 -0.2836
 5325SOL    HW127437   1.654   1.939   4.239 -2.4606  1.4012 -0.3776
 5325SOL    HW227438   1.648   2.079   4.179 -0.0039 -0.0692  1.1171
 5326SOL     OW27439   1.553   2.134   0.955 -0.2422  0.1284 -0.1142
 5326SOL    HW127440   1.536   2.183   1.036  0.2942 -1.1021  0.7338
 5326SOL    HW227441   1.498   2.060   0.981  1.3304 -0.7239  0.8080
 5327SOL     OW27442   3.052   1.884   5.842 -0.4364 -0.5249  0.2195
 5327SOL    HW127443   3.132   1.868   5.792  1.9778  1.4259  3.3428
 5327SOL    HW227444   3.081   1.885   5.934  3.2863  1.6248 -0.9891
 5328SOL     OW27445   1.674   3.710   7.615 -0.1899 -0.4279  0.4648
 5328SOL    HW127446   1.766   3.693   7.595  0.4726  0.6909  2.5574
 5328SOL    HW227447   1.652   3.629   7.662  0.8335 -1.9772 -1.6885
 5329SOL     OW27448   2.188   4.574   6.552 -0.2109  0.0887 -0.5513
 5329SOL    HW127449   2.172   4.567   6.458  2.3886  1.6930 -1.1194
 5329SOL    HW227450   2.276   4.536   6.562  0.2517  1.0694 -0.9159
 5330SOL     OW27451   3.783   1.437   3.371  0.1005 -0.3477  0.2996
 5330SOL    HW127452   3.835   1.364   3.404 -0.7059 -1.7759 -1.5636
 5330SOL    HW227453   3.835   1.465   3.295 -0.3433  1.2673  0.5909
 5331SOL     OW27454   0.253   4.470   6.549 -0.3540 -0.1660 -0.4728
 5331SOL    HW127455   0.199   4.468   6.471 -1.7538  2.2883  0.4169
 5331SOL    HW227456   0.340   4.454   6.512 -0.5750 -1.2339 -0.5285
 5332SOL     OW27457   3.887   1.888   7.312  0.8123 -0.1409 -0.5217
 5332SOL    HW127458   3.954   1.952   7.336 -0.0070  0.4482  0.1684
 5332SOL    HW227459   3.870   1.848   7.397  1.9264  0.8119  0.1589
 5333SOL     OW27460   2.783   1.151   5.500 -0.4173 -0.6501 -0.1194
 5333SOL    HW127461   2.767   1.077   5.559 -0.1179  0.7598  1.7283
 5333SOL    HW227462   2.745   1.118   5.418  1.0482 -1.7941 -0.3340
 5334SOL     OW27463   0.400   0.795  12.635 -0.0206 -0.6143 -1.2291
 5334SOL    HW127464   0.378   0.711  12.595 -0.2291 -0.1274 -2.1366
 5334SOL    HW227465   0.315   0.840  12.631  0.8313  1.0431 -0.4701
 5335SOL     OW27466   4.599   1.394   2.547 -0.0558 -0.7027  0.0015
 5335SOL    HW127467   4.638   1.469   2.502  0.0457  0.0456  1.3408
 5335SOL    HW227468   4.630   1.410   2.636 -0.6765  1.5950 -0.2003
 5336SOL     OW27469   0.906   4.334   4.808  0.0646  0.5245  0.1217
 5336SOL    HW127470   0.966   4.295   4.872 -1.0571 -0.2108  0.7342
 5336SOL    HW227471   0.823   4.299   4.841  0.2693  0.0133  0.0860
 5337SOL     OW27472   4.556   2.317   4.949  0.3813 -0.0821 -0.2664
 5337SOL    HW127473   4.570   2.327   4.854  0.0350  1.1155 -0.1865
 5337SOL    HW227474   4.496   2.243   4.948  0.1261  0.1274 -1.0421
 5338SOL     OW27475   2.043   2.332   9.231 -0.9806  0.3131 -0.0064
 5338SOL    HW127476   2.041   2.382   9.313 -0.4190  0.3973 -0.0394
 5338SOL    HW227477   1.955   2.298   9.243 -1.2736  1.6054  1.5086
 5339SOL     OW27478   0.149   0.794  12.810 -0.5871  0.4824 -0.6281
 5339SOL    HW127479   0.134   0.775  12.717 -0.4863  0.0299 -0.5525
 5339SOL    HW227480   0.144   0.889  12.803  0.0248  0.5422 -0.1820
 5340SOL     OW27481   4.109   2.841   8.451 -0.8311 -0.1193 -0.0185
 5340SOL    HW127482   4.038   2.779   8.432 -0.2254 -1.4094  1.9995
 5340SOL    HW227483   4.098   2.882   8.365  0.9018 -1.8465 -1.0559
 5341SOL     OW27484   3.945   2.193  14.848  0.2870  0.0330  0.4628
 5341SOL    HW127485   3.993   2.137  14.909 -1.9492 -0.4542  1.7928
 5341SOL    HW227486   3.974   2.277  14.882 -0.9747  1.2239 -1.4133
 5342SOL     OW27487   3.277   4.018   4.386  0.3126  0.8885 -0.3368
 5342SOL    HW127488   3.235   3.938   4.353  2.4167  0.1040 -1.1028
 5342SOL    HW227489   3.222   4.081   4.340  1.4511  1.4129 -0.9609
 5343SOL     OW27490   3.341   3.209  15.283  0.9707  0.1101  0.3391
 5343SOL    HW127491   3.415   3.156  15.312  0.4640 -2.0973 -2.4681
 5343SOL    HW227492   3.270   3.157  15.321  0.4778 -1.6876 -3.0210
 5344SOL     OW27493   4.555   0.515   7.138 -0.4258 -0.1495  0.1097
 5344SOL    HW127494   4.513   0.554   7.062  1.3003 -1.0160 -1.3019
 5344SOL    HW227495   4.645   0.536   7.111 -0.6827 -0.9952 -1.4187
 5345SOL     OW27496   0.699   4.465   7.769 -0.4289  0.0026  0.1613
 5345SOL    HW127497   0.784   4.509   7.771 -0.0035 -0.7633 -0.8182
 5345SOL    HW227498   0.693   4.441   7.676  1.5770  1.2278 -0.2737
 5346SOL     OW27499   0.934   0.388  11.527  0.6995  0.6731  0.1520
 5346SOL    HW127500   0.928   0.406  11.621 -4.3129  2.7657 -0.5888
 5346SOL    HW227501   0.994   0.314  11.521  0.8845  0.7887  0.5818
 5347SOL     OW27502   2.065   1.176   5.125 -0.0691 -0.0794 -0.0308
 5347SOL    HW127503   2.080   1.271   5.126  0.4954 -0.1787  0.9911
 5347SOL    HW227504   2.133   1.150   5.186 -1.5943 -0.9357  1.3100
 5348SOL     OW27505   0.191   1.907  16.378  0.0881 -0.3186 -0.1927
 5348SOL    HW127506   0.108   1.898  16.425  0.5698 -2.9567  0.1693
 5348SOL    HW227507   0.241   1.951  16.447  2.1497 -1.7524 -0.7801
 5349SOL     OW27508   3.661   3.132  11.690 -0.2963 -0.2462 -0.3975
 5349SOL    HW127509   3.583   3.090  11.726 -0.1492 -0.9695 -0.9079
 5349SOL    HW227510   3.729   3.066  11.707  1.0141  1.1421 -0.2394
 5350SOL     OW27511   2.294   2.159   7.614  0.1423 -0.1746  0.8163
 5350SOL    HW127512   2.304   2.224   7.684  0.5681  0.2196  0.3883
 5350SOL    HW227513   2.207   2.131   7.641 -0.3454 -0.3598 -0.9501
 5351SOL     OW27514   4.610   3.813   4.310 -0.1878  0.0656  0.2212
 5351SOL    HW127515   4.701   3.802   4.282  0.1714  2.0071  0.5977
 5351SOL    HW227516   4.577   3.845   4.226 -0.8802 -0.6987  0.2097
 5352SOL     OW27517   1.732   3.258   5.255 -0.0798  0.0546 -0.1067
 5352SOL    HW127518   1.814   3.236   5.301  0.0215 -0.2293 -0.4263
 5352SOL    HW227519   1.766   3.267   5.166 -1.2393 -1.9667 -0.7316
 5353SOL     OW27520   1.880   0.047  10.065  0.1989  0.5822  0.1665
 5353SOL    HW127521   1.970   0.070  10.044  0.6829 -0.1332  1.4449
 5353SOL    HW227522   1.889   0.068  10.157  1.2748 -0.6855  0.3605
 5354SOL     OW27523   1.504   4.230   9.942  0.5089 -0.2149  0.5466
 5354SOL    HW127524   1.502   4.318   9.904  0.4102  0.3082  1.7408
 5354SOL    HW227525   1.413   4.201   9.956  0.3816  0.7454  1.6944
 5355SOL     OW27526   0.228   3.235  10.675 -0.0619 -0.2453 -0.0541
 5355SOL    HW127527   0.165   3.174  10.712 -0.6258 -0.0761 -0.7335
 5355SOL    HW227528   0.238   3.305  10.740  1.0920 -1.6120  1.2456
 5356SOL     OW27529   3.985   3.863   4.009  0.4408 -0.1838 -0.3442
 5356SOL    HW127530   3.964   3.948   3.968  1.5447  0.4180  0.3411
 5356SOL    HW227531   3.964   3.795   3.946 -0.1922  2.0407 -2.5645
 5357SOL     OW27532   1.724   4.461   8.837 -0.0462  0.6909 -0.2686
 5357SOL    HW127533   1.696   4.441   8.927  2.6547  1.4813  0.7455
 5357SOL    HW227534   1.647   4.423   8.796  0.2151 -0.9715  0.7644
 5358SOL     OW27535   3.900   2.110   7.699 -0.2275  0.2918  0.1883
 5358SOL    HW127536   3.884   2.099   7.793  1.1843 -1.1542  0.2701
 5358SOL    HW227537   3.827   2.064   7.656  0.8666 -0.5043 -0.8076
 5359SOL     OW27538   2.030   3.360  17.065 -0.0747  0.2445 -0.0770
 5359SOL    HW127539   2.086   3.436  17.079  0.0412  0.7442 -3.2874
 5359SOL    HW227540   2.082   3.308  17.004 -1.7110 -2.0140  0.4162
 5360SOL     OW27541   4.402   0.783   4.061  0.3463 -0.1598  0.2558
 5360SOL    HW127542   4.340   0.838   4.014  1.8019  0.2303 -1.2175
 5360SOL    HW227543   4.449   0.742   3.989 -1.0555 -0.9499 -0.2058
 5361SOL     OW27544   0.595   0.727   4.352  0.7201 -0.0147 -0.4079
 5361SOL    HW127545   0.607   0.810   4.399  0.8727  0.0797 -0.6127
 5361SOL    HW227546   0.597   0.739   4.257 -0.3128  0.3007 -0.3982
 5362SOL     OW27547   0.999   3.821  12.021  0.0698 -0.4477 -0.2553
 5362SOL    HW127548   1.065   3.889  12.006 -0.8222  0.6574  0.9070
 5362SOL    HW227549   1.000   3.768  11.941 -1.4253 -0.3029 -0.3533
 5363SOL     OW27550   4.663   2.370  11.086 -0.2031  0.7140 -0.4546
 5363SOL    HW127551   4.654   2.277  11.108  1.1351  0.6425 -0.2360
 5363SOL    HW227552   4.603   2.396  11.157  0.6732  0.5542  0.3400
 5364SOL     OW27553   3.175   2.057  10.868  0.2269 -0.2745 -0.6789
 5364SOL    HW127554   3.098   2.032  10.919 -1.8398  1.2600 -3.0615
 5364SOL    HW227555   3.247   2.002  10.899 -1.2396 -0.8476  1.6588
 5365SOL     OW27556   0.806   2.328   5.123 -0.1168 -0.1732  0.4000
 5365SOL    HW127557   0.767   2.278   5.051  1.0195 -1.2795  0.5593
 5365SOL    HW227558   0.755   2.409   5.122  0.7988  0.3871 -1.1666
 5366SOL     OW27559   0.393   3.223   2.863  0.5436  0.4874  0.0068
 5366SOL    HW127560   0.387   3.279   2.786  1.2062  0.1446 -0.2952
 5366SOL    HW227561   0.486   3.201   2.853 -0.4323 -2.6964 -1.7752
 5367SOL     OW27562   0.743   3.177   5.813 -0.6834  0.2223  0.0467
 5367SOL    HW127563   0.727   3.262   5.855 -0.6311 -0.0713  0.6567
 5367SOL    HW227564   0.692   3.182   5.732 -0.8040 -3.6029 -0.1204
 5368SOL     OW27565   1.809   2.944   7.232  0.1423  0.4919 -0.5146
 5368SOL    HW127566   1.759   2.921   7.154 -0.9605 -0.4854  0.4739
 5368SOL    HW227567   1.878   2.878   7.229 -1.5172 -1.2295 -1.0961
 5369SOL     OW27568   1.436   2.800   4.445  0.3352  0.4480  0.0370
 5369SOL    HW127569   1.403   2.788   4.533 -2.7136 -0.3872 -1.2313
 5369SOL    HW227570   1.482   2.717   4.432 -0.8794 -0.4238  1.3858
 5370SOL     OW27571   2.658   2.060   0.940  1.2234 -0.0327  0.8073
 5370SOL    HW127572   2.688   2.034   0.853 -0.0133 -0.3341  0.4715
 5370SOL    HW227573   2.563   2.058   0.930  1.0100  0.5300  2.8588
 5371SOL     OW27574   0.931   0.191   8.158  0.0596 -0.4535  0.0237
 5371SOL    HW127575   0.924   0.263   8.095  0.0205  0.1583  0.7317
 5371SOL    HW227576   0.921   0.238   8.241 -2.1919 -0.9233  0.0360
 5372SOL     OW27577   1.671   2.609   7.431 -0.2722 -0.3001 -0.6004
 5372SOL    HW127578   1.750   2.663   7.426  0.3366 -1.2171 -0.8476
 5372SOL    HW227579   1.605   2.666   7.392 -2.6203 -1.3456  1.8084
 5373SOL     OW27580   0.635   1.867  16.282 -0.0361 -0.0459 -0.8790
 5373SOL    HW127581   0.692   1.896  16.211 -1.0355  1.3580 -1.0955
 5373SOL    HW227582   0.556   1.832  16.240  0.5050  1.1097 -2.8211
 5374SOL     OW27583   3.831   4.429   7.491  0.0046  0.5478  0.3425
 5374SOL    HW127584   3.750   4.388   7.522  0.5768 -0.6230  0.2671
 5374SOL    HW227585   3.884   4.357   7.457  1.3359  0.7633  1.9639
 5375SOL     OW27586   0.194   3.677   6.769  0.7418 -0.0235 -0.2885
 5375SOL    HW127587   0.256   3.676   6.841 -0.6470 -0.9261  0.8982
 5375SOL    HW227588   0.194   3.768   6.739  2.3201  0.0064 -0.1944
 5376SOL     OW27589   1.612   2.006  16.830  0.2482 -0.5342 -0.0639
 5376SOL    HW127590   1.670   1.931  16.844 -1.3818 -1.7506  0.1560
 5376SOL    HW227591   1.651   2.054  16.757  0.2978 -0.7170 -0.1580
 5377SOL     OW27592   0.372   4.298  15.188 -0.0614 -0.2060  0.5565
 5377SOL    HW127593   0.412   4.358  15.251 -2.4505 -1.3812  3.2443
 5377SOL    HW227594   0.439   4.230  15.189  0.5966  0.4304 -0.6976
 5378SOL     OW27595   2.543   2.210   3.198 -0.1910 -0.0025  0.1034
 5378SOL    HW127596   2.639   2.211   3.191 -0.2956 -2.2787 -1.6473
 5378SOL    HW227597   2.518   2.302   3.188  0.2930  0.2079  0.8395
 5379SOL     OW27598   1.603   4.575   2.253 -0.5402 -0.2443 -1.1504
 5379SOL    HW127599   1.650   4.499   2.219 -2.2815 -0.2382 -3.6594
 5379SOL    HW227600   1.602   4.624   2.170  1.4032 -0.7308 -1.4573
 5380SOL     OW27601   2.014   0.692  11.309 -0.0390 -0.1713  0.3302
 5380SOL    HW127602   1.933   0.657  11.345  0.3471  0.6488  1.9896
 5380SOL    HW227603   2.054   0.616  11.266  0.5123  1.0054 -1.2409
 5381SOL     OW27604   1.202   2.177  16.864 -0.0337  0.6628 -0.1286
 5381SOL    HW127605   1.264   2.133  16.922 -0.2909  0.0686 -0.3055
 5381SOL    HW227606   1.259   2.200  16.790 -1.3806 -1.2277 -1.7508
 5382SOL     OW27607   2.055   2.075  12.278 -0.2394  0.4784 -0.7002
 5382SOL    HW127608   2.141   2.045  12.248 -0.0625 -0.8482  1.1732
 5382SOL    HW227609   2.067   2.056  12.371  1.2987 -0.8787 -1.1668
 5383SOL     OW27610   4.099   3.627   7.141 -0.0548  0.0515  0.3318
 5383SOL    HW127611   4.096   3.544   7.189 -1.5362 -1.4373 -2.4078
 5383SOL    HW227612   4.193   3.630   7.120 -0.3507 -0.4045 -1.0564
 5384SOL     OW27613   4.508   2.324   4.284  0.3849  0.2940  0.0813
 5384SOL    HW127614   4.581   2.353   4.338 -1.4959  1.8020  1.8121
 5384SOL    HW227615   4.427   2.356   4.325  1.2965  0.1036  2.0146
 5385SOL     OW27616   2.167   0.279   8.662  0.6613  1.1823 -0.0381
 5385SOL    HW127617   2.091   0.326   8.629 -0.0117 -0.0186 -0.1771
 5385SOL    HW227618   2.200   0.345   8.723  2.2448 -0.1448  0.5401
 5386SOL     OW27619   3.856   0.803   8.486  0.8668 -0.9513  0.3457
 5386SOL    HW127620   3.851   0.805   8.582 -2.8527 -0.7107  0.1491
 5386SOL    HW227621   3.764   0.821   8.467  1.3103 -0.0410 -0.9216
 5387SOL     OW27622   2.983   1.545  14.950 -0.4943  0.0817 -0.2716
 5387SOL    HW127623   2.927   1.531  15.027  0.9186 -0.3027  0.6686
 5387SOL    HW227624   2.923   1.511  14.883  0.1780 -1.4264 -0.1063
 5388SOL     OW27625   2.433   3.557   0.565 -0.3113 -0.0017 -0.0577
 5388SOL    HW127626   2.518   3.582   0.600  0.8088 -2.9635 -0.6750
 5388SOL    HW227627   2.395   3.559   0.653  2.6694  2.3893  1.1518
 5389SOL     OW27628   3.033   1.154   0.244  0.0760 -0.0925 -0.2776
 5389SOL    HW127629   3.096   1.134   0.175  0.1944  3.8274 -1.3106
 5389SOL    HW227630   3.014   1.066   0.276 -2.4228  1.0278  1.3069
 5390SOL     OW27631   0.036   2.221   7.354  0.1088 -0.0370  0.7003
 5390SOL    HW127632   0.130   2.210   7.340  0.1035  1.6381 -0.6241
 5390SOL    HW227633   0.030   2.313   7.331 -1.2819 -0.5336 -0.9725
 5391SOL     OW27634   2.653   4.519   4.917 -0.3080 -0.4261  0.1870
 5391SOL    HW127635   2.563   4.492   4.932  0.1250  0.3267  4.2002
 5391SOL    HW227636   2.674   4.583   4.985 -1.4384 -1.0432  1.0956
 5392SOL     OW27637   2.523   1.843   7.008 -0.1043 -0.0630 -0.6225
 5392SOL    HW127638   2.572   1.869   6.930  2.7029  1.7358  1.7417
 5392SOL    HW227639   2.547   1.751   7.016 -1.2331 -0.2107  1.0509
 5393SOL     OW27640   1.597   2.362   6.596  0.1151 -0.6620  0.2642
 5393SOL    HW127641   1.522   2.343   6.539 -0.5288  0.9740  0.5859
 5393SOL    HW227642   1.663   2.348   6.527 -0.6005 -1.5744 -0.2342
 5394SOL     OW27643   2.924   0.718   0.531  0.1462  0.1117 -0.3456
 5394SOL    HW127644   2.833   0.691   0.522  0.2005 -0.1661 -0.0539
 5394SOL    HW227645   2.928   0.806   0.495 -1.3891  1.0620  1.8620
 5395SOL     OW27646   0.642   2.237   4.069  0.1268 -0.1200 -0.0660
 5395SOL    HW127647   0.677   2.160   4.115  3.1145  1.0430 -0.4181
 5395SOL    HW227648   0.600   2.198   3.992  0.5932 -1.0904  0.1641
 5396SOL     OW27649   0.530   4.497   6.465 -0.4496  0.0982  0.2876
 5396SOL    HW127650   0.548   4.530   6.377  0.5387 -0.0794  0.4220
 5396SOL    HW227651   0.550   4.578   6.512  1.8697  0.0631 -0.5899
 5397SOL     OW27652   1.280   3.481   6.009 -0.6915  0.2371 -0.0985
 5397SOL    HW127653   1.260   3.489   5.916 -2.0959 -2.0378 -0.0072
 5397SOL    HW227654   1.193   3.489   6.048 -0.3151  1.0166  0.5564
 5398SOL     OW27655   4.324   4.072  11.442 -0.0723  0.1297  0.2139
 5398SOL    HW127656   4.384   4.092  11.371  0.1807 -0.1291  0.3552
 5398SOL    HW227657   4.310   3.979  11.427 -1.1452  0.5595 -1.4572
 5399SOL     OW27658   2.852   3.580   7.463  0.5347  0.3305 -0.0542
 5399SOL    HW127659   2.760   3.585   7.487  0.1154  1.2869 -1.8590
 5399SOL    HW227660   2.901   3.644   7.515  1.7390 -0.5372 -0.1128
 5400SOL     OW27661   3.565   1.953   6.031  0.1151 -0.3089 -0.2176
 5400SOL    HW127662   3.519   2.017   5.977  3.5233  2.3528  0.0113
 5400SOL    HW227663   3.486   1.906   6.058  0.8484 -0.7653  1.1205
 5401SOL     OW27664   1.600   0.606   0.851 -0.1392 -0.0738 -0.1198
 5401SOL    HW127665   1.653   0.626   0.929 -1.2722 -0.8145  0.8406
 5401SOL    HW227666   1.544   0.683   0.845  0.7992  0.7237  1.2801
 5402SOL     OW27667   0.088   0.280   6.398 -0.0258  0.0828 -0.7193
 5402SOL    HW127668   0.178   0.310   6.415  0.0365 -0.4989  0.0205
 5402SOL    HW227669   0.090   0.287   6.303 -1.7612  0.3472 -0.7333
 5403SOL     OW27670   0.950   3.560   2.398 -0.5841 -0.0722 -0.1807
 5403SOL    HW127671   0.909   3.556   2.485 -1.2050  0.1848 -0.4608
 5403SOL    HW227672   0.888   3.514   2.342 -1.6864 -1.2647  1.9922
 5404SOL     OW27673   0.420   0.742  15.850  0.2039  0.2937  0.2601
 5404SOL    HW127674   0.427   0.646  15.843 -2.5880  0.0096  1.3541
 5404SOL    HW227675   0.479   0.756  15.924  3.1509 -2.9846 -1.4506
 5405SOL     OW27676   2.940   2.741   6.587 -0.0372 -0.5933 -0.3080
 5405SOL    HW127677   2.861   2.781   6.625 -1.3423  0.2063 -3.9371
 5405SOL    HW227678   2.906   2.686   6.517 -0.1836 -2.5959  1.3261
 5406SOL     OW27679   2.811   2.496   6.142 -0.2905  0.0238  0.0243
 5406SOL    HW127680   2.753   2.569   6.162 -0.7334 -0.1329 -0.6862
 5406SOL    HW227681   2.782   2.465   6.056 -1.7532 -1.8871  1.2256
 5407SOL     OW27682   3.167   4.398   6.171  0.0318  0.1833 -0.2103
 5407SOL    HW127683   3.256   4.426   6.193  0.4052 -1.0111 -0.2048
 5407SOL    HW227684   3.154   4.333   6.240  1.2874 -0.7679 -0.8643
 5408SOL     OW27685   3.662   1.097   5.287  0.0872 -0.9063  0.3438
 5408SOL    HW127686   3.653   1.038   5.362 -1.7184 -1.2196 -0.1337
 5408SOL    HW227687   3.754   1.122   5.300 -0.3150  1.2777 -1.1058
 5409SOL     OW27688   0.518   2.083  16.419 -0.2535  0.2271  0.4152
 5409SOL    HW127689   0.527   2.004  16.366  1.7252 -0.1588  1.3517
 5409SOL    HW227690   0.607   2.115  16.430 -0.6218  1.0970  0.9032
 5410SOL     OW27691   4.436   2.332   8.286  0.4366  0.6815 -0.0030
 5410SOL    HW127692   4.358   2.322   8.340 -0.4703  1.7548 -1.0964
 5410SOL    HW227693   4.403   2.400   8.226 -2.1852 -1.8439 -1.4055
 5411SOL     OW27694   3.660   0.347   2.918  0.1106  0.1873 -0.0979
 5411SOL    HW127695   3.726   0.279   2.913  1.5912  1.4944  1.7743
 5411SOL    HW227696   3.654   0.348   3.014  0.5080 -0.8155 -0.0673
 5412SOL     OW27697   2.229   3.347   0.679 -0.0410 -0.4575  0.4699
 5412SOL    HW127698   2.272   3.416   0.729 -0.8250  0.9400 -0.8061
 5412SOL    HW227699   2.227   3.279   0.747 -2.9835 -2.2934 -1.4538
 5413SOL     OW27700   3.149   2.800   6.748 -0.6585 -0.4828 -0.3944
 5413SOL    HW127701   3.100   2.881   6.766  2.1570  0.5796  2.6523
 5413SOL    HW227702   3.079   2.749   6.708  0.7522 -2.1367 -0.7543
 5414SOL     OW27703   4.077   2.163  13.502  0.5763 -0.8303  0.1526
 5414SOL    HW127704   4.047   2.180  13.413  1.8587 -1.1213 -0.3200
 5414SOL    HW227705   4.148   2.227  13.505 -0.6380  0.4951  1.0664
 5415SOL     OW27706   0.612   2.723   7.054  0.0960 -0.8900  0.0080
 5415SOL    HW127707   0.706   2.703   7.053  0.1325 -0.6885 -0.3300
 5415SOL    HW227708   0.596   2.772   6.974 -0.1418 -0.4459  0.3255
 5416SOL     OW27709   1.176   0.443   5.904  0.3419  0.2545  0.3708
 5416SOL    HW127710   1.088   0.408   5.886 -0.4233  1.6080  1.5347
 5416SOL    HW227711   1.228   0.372   5.866  2.1096  2.0451 -0.5275
 5417SOL     OW27712   3.992   0.383   3.533  0.1810  0.0845  0.3928
 5417SOL    HW127713   4.076   0.399   3.488 -0.4392  1.3596 -0.3177
 5417SOL    HW227714   3.933   0.390   3.458 -0.4759  1.2887  1.0093
 5418SOL     OW27715   3.744   3.380   1.472  0.3906  0.1924 -0.1648
 5418SOL    HW127716   3.736   3.285   1.473 -1.3930  0.3465  0.1554
 5418SOL    HW227717   3.725   3.396   1.379 -2.6204 -0.0461  0.4157
 5419SOL     OW27718   2.754   3.431   5.735 -0.4847  0.4123  0.6342
 5419SOL    HW127719   2.835   3.477   5.758  0.3657 -2.1241  2.7102
 5419SOL    HW227720   2.786   3.341   5.746 -0.6260  0.4930  1.6208
 5420SOL     OW27721   3.379   0.629   9.002  0.1615  0.5285 -0.1116
 5420SOL    HW127722   3.361   0.648   9.094 -2.4212 -0.6462 -0.3676
 5420SOL    HW227723   3.377   0.720   8.973  0.3813  0.8351  0.8273
 5421SOL     OW27724   3.171   1.608   8.734  0.0224  0.7246 -0.3832
 5421SOL    HW127725   3.230   1.667   8.780  0.6955 -0.9041  0.8256
 5421SOL    HW227726   3.208   1.619   8.646 -1.5388  1.3047 -0.9495
 5422SOL     OW27727   3.848   4.515   4.719  0.0256 -0.6051  0.1541
 5422SOL    HW127728   3.935   4.496   4.685  0.9953 -0.3256  2.5102
 5422SOL    HW227729   3.835   4.599   4.674  0.5743  0.0510  1.2276
 5423SOL     OW27730   3.999   3.444  10.651 -0.5937  0.0415  0.6361
 5423SOL    HW127731   3.940   3.479  10.719  0.2742  2.8740 -0.0693
 5423SOL    HW227732   4.081   3.485  10.676 -0.6365  0.1161  0.6550
 5424SOL     OW27733   4.454   1.002   1.163  1.0458 -0.4283 -0.5689
 5424SOL    HW127734   4.453   1.052   1.082  1.2995  2.0799  0.9900
 5424SOL    HW227735   4.366   1.010   1.200  0.4977 -1.7579 -1.5706
 5425SOL     OW27736   2.398   3.818   7.101  0.0927  0.3206  0.5436
 5425SOL    HW127737   2.438   3.732   7.090  0.7031  0.4593  1.6783
 5425SOL    HW227738   2.471   3.865   7.140  1.2810 -0.2757 -0.9598
 5426SOL     OW27739   3.426   0.336   7.173 -0.0245 -0.4073 -0.0594
 5426SOL    HW127740   3.462   0.366   7.257  1.2218  0.8317 -1.0422
 5426SOL    HW227741   3.447   0.412   7.120 -0.4887 -0.6117 -0.5401
 5427SOL     OW27742   0.642   4.153   7.735  0.3468 -0.1642 -0.0172
 5427SOL    HW127743   0.621   4.077   7.681  0.2133  0.3524 -0.6964
 5427SOL    HW227744   0.644   4.223   7.669 -1.8598  0.2143  0.3013
 5428SOL     OW27745   3.762   4.196   5.106  0.0870 -0.6347 -0.2453
 5428SOL    HW127746   3.725   4.127   5.050 -0.0711 -1.1338  0.4767
 5428SOL    HW227747   3.685   4.215   5.159 -0.8482  0.7960 -2.0885
 5429SOL     OW27748   0.498   0.129   6.856 -0.6327  0.1824 -0.4704
 5429SOL    HW127749   0.411   0.095   6.833 -0.7115  1.0206 -1.4228
 5429SOL    HW227750   0.477   0.127   6.949 -1.6759  2.0011 -0.6588
 5430SOL     OW27751   0.654   1.061  15.628  0.0021  0.5086 -0.5336
 5430SOL    HW127752   0.696   1.053  15.542  0.8888 -0.1883 -0.0312
 5430SOL    HW227753   0.735   1.051  15.678 -0.9838 -1.7438  0.6381
 5431SOL     OW27754   3.696   1.834  16.258  0.3882  0.1429  0.3257
 5431SOL    HW127755   3.631   1.791  16.202 -0.9329 -0.3083  2.2205
 5431SOL    HW227756   3.741   1.903  16.208  2.2496 -2.3215 -1.4142
 5432SOL     OW27757   3.553   2.805  15.904  0.0220 -0.2034 -0.1497
 5432SOL    HW127758   3.638   2.767  15.884  1.5425  2.1494  1.8133
 5432SOL    HW227759   3.560   2.891  15.863 -0.4575  1.1661  2.5843
 5433SOL     OW27760   2.218   2.946   2.838 -0.4331 -0.2676  0.2581
 5433SOL    HW127761   2.233   2.955   2.744 -0.8200  1.0535  0.3219
 5433SOL    HW227762   2.221   3.040   2.860 -1.1680 -0.3073  0.5077
 5434SOL     OW27763   3.114   2.276   2.853  0.0925 -0.1139  0.7612
 5434SOL    HW127764   3.029   2.296   2.891  0.0774  2.4009 -0.5503
 5434SOL    HW227765   3.109   2.321   2.768 -1.5563  0.4448  1.1495
 5435SOL     OW27766   1.518   3.346   3.585  0.2371 -0.3424  0.8408
 5435SOL    HW127767   1.600   3.388   3.559 -0.3888  1.0295  1.0577
 5435SOL    HW227768   1.514   3.359   3.680 -1.4076  0.9996  0.5978
 5436SOL     OW27769   4.527   0.619   4.655  0.2977 -0.3218  0.4128
 5436SOL    HW127770   4.596   0.685   4.656  0.0181 -0.0252 -0.2613
 5436SOL    HW227771   4.583   0.543   4.640 -0.7569 -1.1660  0.7036
 5437SOL     OW27772   0.218   4.692   5.457 -0.5428  0.0492 -0.0952
 5437SOL    HW127773   0.169   0.046   5.486 -1.0045 -0.4059  0.3322
 5437SOL    HW227774   0.283   4.690   5.527 -1.3819  0.2628  0.6937
 5438SOL     OW27775   3.550   0.827   4.957 -0.7404 -0.1499 -0.3400
 5438SOL    HW127776   3.642   0.823   4.930  0.2430 -0.3256  3.0811
 5438SOL    HW227777   3.550   0.834   5.052 -0.6211  0.0561 -0.3538
 5439SOL     OW27778   2.409   2.468   7.101 -0.0675 -0.4609  0.3950
 5439SOL    HW127779   2.403   2.407   7.174  2.0453 -3.0351 -1.5948
 5439SOL    HW227780   2.335   2.428   7.054 -0.2569  0.2418  0.0935
 5440SOL     OW27781   2.848   2.746  14.840 -0.1195  0.1312  0.0456
 5440SOL    HW127782   2.817   2.659  14.862 -1.4864  1.5049  3.5658
 5440SOL    HW227783   2.942   2.731  14.826 -0.2825  0.3763 -1.2887
 5441SOL     OW27784   1.792   3.843   1.912 -0.9154  0.3702  0.0622
 5441SOL    HW127785   1.708   3.797   1.918 -0.6430 -0.5215 -2.9748
 5441SOL    HW227786   1.765   3.931   1.939  2.2289  1.8781 -1.7388
 5442SOL     OW27787   3.622   2.727   4.190  0.2426 -0.2867  0.4244
 5442SOL    HW127788   3.556   2.673   4.234 -1.6809  2.5806  1.0872
 5442SOL    HW227789   3.655   2.673   4.119 -0.0737  0.9706 -0.6889
 5443SOL     OW27790   0.652   1.942  11.614 -0.7201 -0.2012 -0.2228
 5443SOL    HW127791   0.701   1.969  11.536 -0.3092 -2.4684 -0.7344
 5443SOL    HW227792   0.612   2.025  11.641 -0.8964  0.0824 -1.3558
 5444SOL     OW27793   4.492   3.206   3.505 -0.3483  0.1232 -0.0380
 5444SOL    HW127794   4.451   3.153   3.436  1.1581  0.2771 -1.0703
 5444SOL    HW227795   4.579   3.211   3.465 -1.8503  2.4837 -3.0190
 5445SOL     OW27796   2.190   0.967   8.210 -0.5615 -0.0024 -0.0476
 5445SOL    HW127797   2.255   0.953   8.141 -1.0314  0.7270 -0.6427
 5445SOL    HW227798   2.219   1.057   8.226  0.9569 -0.6369  0.7347
 5446SOL     OW27799   1.809   3.271  12.857 -0.0883 -0.0337  0.3008
 5446SOL    HW127800   1.807   3.191  12.909  1.6703  0.6604  1.4282
 5446SOL    HW227801   1.814   3.346  12.916  1.1524 -0.8060  1.1509
 5447SOL     OW27802   0.684   3.937   5.620  0.3225 -0.2029  0.2924
 5447SOL    HW127803   0.645   4.021   5.646  1.5249  0.4157  0.0811
 5447SOL    HW227804   0.619   3.869   5.640  0.0456  0.3009  1.1273
 5448SOL     OW27805   3.515   3.369  10.217 -0.4610  0.1065 -0.2428
 5448SOL    HW127806   3.467   3.290  10.193 -1.8774  1.1841 -0.9835
 5448SOL    HW227807   3.464   3.393  10.294 -2.8991 -2.2214 -1.1501
 5449SOL     OW27808   2.765   0.575   1.287 -0.3990 -0.3555  0.8154
 5449SOL    HW127809   2.708   0.561   1.212 -0.8310 -0.8092  1.2328
 5449SOL    HW227810   2.745   0.494   1.334 -2.6083  0.5303  1.3846
 5450SOL     OW27811   4.199   3.642  10.696 -0.2349 -0.5412  0.0089
 5450SOL    HW127812   4.163   3.730  10.687  1.3309 -0.0786 -1.7766
 5450SOL    HW227813   4.294   3.645  10.685 -0.0632 -2.9229  0.9774
 5451SOL     OW27814   3.929   0.522   0.966 -0.1582  0.2969  0.4600
 5451SOL    HW127815   3.949   0.591   0.903 -1.1474  1.4143  1.3715
 5451SOL    HW227816   3.964   0.562   1.046  2.3108 -0.5001 -0.2030
 5452SOL     OW27817   4.646   4.007   9.361 -0.1327 -0.4238  0.1613
 5452SOL    HW127818   4.717   3.975   9.306  2.2871  1.7412  1.9903
 5452SOL    HW227819   4.652   4.103   9.363  2.8321 -0.6326 -0.0959
 5453SOL     OW27820   0.500   0.729   6.611 -0.0420  0.3898 -0.4364
 5453SOL    HW127821   0.582   0.685   6.633  1.2300  2.4953 -0.8756
 5453SOL    HW227822   0.526   0.804   6.556 -0.4850  0.5683 -0.4006
 5454SOL     OW27823   0.584   0.130   8.805 -0.4076 -0.0152  0.3331
 5454SOL    HW127824   0.638   0.129   8.726  0.0619 -1.8339  0.6798
 5454SOL    HW227825   0.617   0.209   8.848 -0.2331 -0.4764  1.0428
 5455SOL     OW27826   4.370   2.119   1.627 -0.2251 -0.2817  0.4913
 5455SOL    HW127827   4.420   2.038   1.637  1.4624  0.8172  0.8012
 5455SOL    HW227828   4.299   2.096   1.688  0.3922 -1.0192  0.9329
 5456SOL     OW27829   3.591   1.250   8.117 -0.0498 -0.0236 -0.6716
 5456SOL    HW127830   3.544   1.179   8.075  0.9468 -2.0912  1.6776
 5456SOL    HW227831   3.654   1.207   8.175 -0.5020 -1.0897 -0.9810
 5457SOL     OW27832   0.500   0.513   4.460 -0.7431 -0.7238 -0.1783
 5457SOL    HW127833   0.560   0.568   4.410 -1.2964  2.0468  2.2406
 5457SOL    HW227834   0.430   0.575   4.481  0.9453  1.3011 -0.5481
 5458SOL     OW27835   3.380   1.025  17.632  0.5612 -0.7204  0.0878
 5458SOL    HW127836   3.398   1.003  17.541  1.7405 -0.0519  0.1504
 5458SOL    HW227837   3.349   0.939  17.662  0.2775 -0.3590  0.8271
 5459SOL     OW27838   3.353   3.094  12.363  0.3592  0.4712  0.3340
 5459SOL    HW127839   3.316   3.022  12.311  1.1335  0.0225  0.3885
 5459SOL    HW227840   3.332   3.167  12.305  0.0557 -0.5110 -0.8067
 5460SOL     OW27841   1.040   2.152   5.746 -0.6728 -0.3318 -0.0036
 5460SOL    HW127842   0.963   2.094   5.745 -1.1358  0.2863  0.4515
 5460SOL    HW227843   1.020   2.208   5.820  1.9310  2.5042 -1.4570
 5461SOL     OW27844   3.547   4.401   4.969 -0.4346  0.4906 -0.0191
 5461SOL    HW127845   3.560   4.489   4.933 -0.3299  0.9079  1.0585
 5461SOL    HW227846   3.578   4.352   4.893 -1.0911 -0.3843  0.2834
 5462SOL     OW27847   4.237   0.930  12.108 -0.4879 -0.2213  0.7705
 5462SOL    HW127848   4.214   0.846  12.148 -0.4068 -0.7667 -0.3093
 5462SOL    HW227849   4.269   0.973  12.187  2.7500 -0.9397 -0.1564
 5463SOL     OW27850   1.163   2.656  11.022  0.1398  0.3903 -0.2362
 5463SOL    HW127851   1.246   2.661  10.975  1.1431  1.2624  1.5820
 5463SOL    HW227852   1.110   2.625  10.949  0.7020  2.0789 -1.3619
 5464SOL     OW27853   1.469   3.680  17.326 -0.2253  0.6443  0.2386
 5464SOL    HW127854   1.454   3.740  17.253 -2.0997  1.2927  1.1462
 5464SOL    HW227855   1.561   3.655  17.318 -0.1781 -0.3285  3.6638
 5465SOL     OW27856   4.175   0.039   6.498  0.0754 -0.1442 -0.3054
 5465SOL    HW127857   4.113   0.104   6.464  0.8948  0.5261 -0.4872
 5465SOL    HW227858   4.140   4.683   6.455 -1.0002 -0.9803  2.0809
 5466SOL     OW27859   3.849   3.477  10.878 -0.7398  0.6888  0.4207
 5466SOL    HW127860   3.776   3.525  10.918 -1.6281 -0.0139 -0.3566
 5466SOL    HW227861   3.793   3.410  10.839 -0.2976  0.0386  0.9139
 5467SOL     OW27862   4.631   2.946   8.576  0.7242  0.0463  0.3918
 5467SOL    HW127863   4.627   3.028   8.525 -1.4454 -0.2998  0.0311
 5467SOL    HW227864   4.540   2.916   8.573  1.7858 -3.1692  0.2706
 5468SOL     OW27865   0.844   1.349   6.705  0.0109 -0.2066  0.2647
 5468SOL    HW127866   0.882   1.318   6.787 -0.3457 -1.0002  0.1316
 5468SOL    HW227867   0.825   1.443   6.714 -0.7405 -0.4019  0.7480
 5469SOL     OW27868   2.539   0.659   4.886 -0.2392  0.5718  0.0006
 5469SOL    HW127869   2.553   0.744   4.845 -1.3910  0.3003 -0.9199
 5469SOL    HW227870   2.445   0.647   4.874 -0.0320  2.1837 -3.1098
 5470SOL     OW27871   1.297   4.540   4.515 -0.1644  0.2150 -0.5615
 5470SOL    HW127872   1.236   4.552   4.442 -0.7034  0.3171 -0.0860
 5470SOL    HW227873   1.232   4.544   4.585  0.7307  0.0244  0.2730
 5471SOL     OW27874   1.436   2.013   3.895 -0.3745  0.4590  0.1410
 5471SOL    HW127875   1.440   2.087   3.956  0.6307 -0.5454  1.3149
 5471SOL    HW227876   1.445   2.052   3.808 -3.4360 -0.5866 -0.6508
 5472SOL     OW27877   3.490   2.636   9.254 -0.6428  0.7269  0.6166
 5472SOL    HW127878   3.519   2.724   9.278  1.8016  0.7667 -2.4176
 5472SOL    HW227879   3.564   2.582   9.279 -1.4185 -0.5919  0.0657
 5473SOL     OW27880   4.390   1.214   2.150  0.3921  0.0414  0.2414
 5473SOL    HW127881   4.359   1.166   2.227 -0.9307 -0.9910 -0.9356
 5473SOL    HW227882   4.459   1.154   2.121  1.8656  2.1887 -0.6754
 5474SOL     OW27883   0.776   2.414  10.688 -0.0072 -0.0545 -0.5098
 5474SOL    HW127884   0.768   2.344  10.753 -2.1183  0.2001 -0.5066
 5474SOL    HW227885   0.685   2.439  10.677  0.1106  0.3081 -0.6710
 5475SOL     OW27886   2.821   1.214   6.021 -0.5562  0.6298  0.7202
 5475SOL    HW127887   2.804   1.188   6.112 -3.7571  0.6909  0.1166
 5475SOL    HW227888   2.824   1.309   6.032 -0.7475  0.9487 -2.0709
 5476SOL     OW27889   0.456   1.932  15.663 -0.1895 -1.0585 -0.2581
 5476SOL    HW127890   0.529   1.987  15.634  0.6349 -1.1710  1.6106
 5476SOL    HW227891   0.440   1.970  15.749  2.3247  0.4721 -0.4366
 5477SOL     OW27892   2.712   1.409   5.583  0.0626  0.0151 -0.2432
 5477SOL    HW127893   2.770   1.334   5.599  0.3379 -0.8174 -5.1572
 5477SOL    HW227894   2.676   1.386   5.498 -1.6515  1.6028  0.0564
 5478SOL     OW27895   2.488   3.196   2.880  0.2086  0.2584  0.4597
 5478SOL    HW127896   2.580   3.185   2.902  0.4307 -0.7916 -0.9438
 5478SOL    HW227897   2.464   3.248   2.956  0.1564  1.6320 -0.5132
 5479SOL     OW27898   4.392   4.449  15.540  0.2226 -0.1149 -0.0697
 5479SOL    HW127899   4.466   4.508  15.554 -1.0161  0.8777  2.2636
 5479SOL    HW227900   4.431   4.383  15.482  1.8590  0.5132  0.3116
 5480SOL     OW27901   2.802   3.140   4.856  0.6443 -0.4821 -0.0548
 5480SOL    HW127902   2.884   3.167   4.815 -0.7465  1.9226 -1.2757
 5480SOL    HW227903   2.742   3.134   4.782  0.6966 -1.8864  0.0193
 5481SOL     OW27904   3.987   3.695   6.563  0.4807 -0.1384  0.4105
 5481SOL    HW127905   3.995   3.729   6.652 -0.4650  1.1580 -0.0079
 5481SOL    HW227906   3.894   3.674   6.554  0.1121  1.8273 -0.2772
 5482SOL     OW27907   3.025   1.798   5.211  0.5910 -0.1252 -0.1274
 5482SOL    HW127908   3.054   1.861   5.145 -1.8061 -0.9757 -1.9536
 5482SOL    HW227909   2.942   1.839   5.236  1.4131  0.7974  1.1543
 5483SOL     OW27910   3.334   2.312   7.131 -0.2444  0.1999  0.2316
 5483SOL    HW127911   3.405   2.350   7.184 -0.9572  2.1432 -0.1945
 5483SOL    HW227912   3.386   2.308   7.050 -1.6518 -2.9242 -0.4851
 5484SOL     OW27913   0.643   4.336   7.531 -0.3379  0.1623  0.0267
 5484SOL    HW127914   0.735   4.358   7.523 -0.2330 -0.4328 -0.3932
 5484SOL    HW227915   0.618   4.318   7.440  2.4124  0.4482 -0.7851
 5485SOL     OW27916   3.631   0.948  11.035  0.7384  0.3407  0.1885
 5485SOL    HW127917   3.612   0.855  11.025 -1.7280  0.6333  2.1091
 5485SOL    HW227918   3.574   0.981  11.105 -2.4390  3.0160 -3.6826
 5486SOL     OW27919   3.677   2.368  12.354 -0.3685 -0.2522 -0.0225
 5486SOL    HW127920   3.627   2.303  12.304 -2.2566 -0.0650  1.6088
 5486SOL    HW227921   3.750   2.311  12.376 -1.3795 -2.3087 -1.8533
 5487SOL     OW27922   1.010   2.053  13.387  0.0464 -0.4756  0.0267
 5487SOL    HW127923   1.046   2.027  13.302  1.3506  1.3563  0.0191
 5487SOL    HW227924   0.930   2.001  13.390 -1.2090  1.4527 -0.1463
 5488SOL     OW27925   0.304   1.192   5.724 -0.7039 -0.5381 -0.3101
 5488SOL    HW127926   0.314   1.288   5.728 -0.8507 -0.4642 -1.5901
 5488SOL    HW227927   0.392   1.165   5.750 -0.7182 -1.5944 -1.3481
 5489SOL     OW27928   0.761   2.151  16.525 -0.1053 -0.2849 -0.0276
 5489SOL    HW127929   0.771   2.186  16.614  2.1502 -0.4284 -0.2355
 5489SOL    HW227930   0.812   2.208  16.468 -0.4929 -1.1500 -1.2224
 5490SOL     OW27931   3.462   3.025   2.193  0.1903 -0.2506  0.0898
 5490SOL    HW127932   3.408   3.104   2.202  0.8904 -0.1290  3.0220
 5490SOL    HW227933   3.519   3.056   2.122  0.8527 -4.5800 -1.2442
 5491SOL     OW27934   1.489   4.393  15.785 -0.5297 -0.1281 -0.0583
 5491SOL    HW127935   1.407   4.357  15.750  0.5135 -0.6941 -1.9121
 5491SOL    HW227936   1.483   4.479  15.744  2.3150  0.3507  0.5600
 5492SOL     OW27937   4.112   0.238   8.147  0.0957  0.3958  0.0471
 5492SOL    HW127938   4.167   0.224   8.224 -0.9609 -3.2189  0.1273
 5492SOL    HW227939   4.108   0.147   8.117  0.8016  0.1054  0.8537
 5493SOL     OW27940   4.375   3.900   7.802 -0.2575  0.1121  0.1661
 5493SOL    HW127941   4.393   3.824   7.857 -2.0536 -0.6799 -0.3494
 5493SOL    HW227942   4.460   3.926   7.765 -0.0606  2.0067  1.9502
 5494SOL     OW27943   3.475   2.187   0.627  0.3189  0.0869 -0.4519
 5494SOL    HW127944   3.482   2.236   0.545 -0.9110  0.9400 -0.0557
 5494SOL    HW227945   3.464   2.097   0.599 -0.3518  0.1822 -0.4912
 5495SOL     OW27946   2.480   1.417   2.466  0.1224 -0.5397  0.2200
 5495SOL    HW127947   2.471   1.379   2.378 -1.1479  0.0680  0.0843
 5495SOL    HW227948   2.573   1.440   2.462  0.3135 -1.3337  0.2018
 5496SOL     OW27949   1.847   1.518   9.815 -0.0495  0.1099  0.1021
 5496SOL    HW127950   1.824   1.541   9.905 -3.9642 -0.6140 -0.7312
 5496SOL    HW227951   1.864   1.608   9.788  0.8783 -0.3969 -0.9872
 5497SOL     OW27952   3.893   4.589  12.070 -0.1004  0.1931 -0.4591
 5497SOL    HW127953   3.817   4.547  12.111  2.1914 -1.1786  2.4351
 5497SOL    HW227954   3.868   4.561  11.982  0.4220 -1.6388 -0.0371
 5498SOL     OW27955   0.768   1.181   9.358 -0.1222  0.4029 -0.0882
 5498SOL    HW127956   0.743   1.090   9.376 -1.9298  0.5222 -2.0415
 5498SOL    HW227957   0.710   1.229   9.417 -2.3891 -0.7634 -1.3755
 5499SOL     OW27958   0.754   0.731   3.564  0.1214  0.2314 -0.1636
 5499SOL    HW127959   0.692   0.799   3.592 -0.4370 -0.4048  0.1438
 5499SOL    HW227960   0.707   0.652   3.589  2.1617 -1.4995 -1.8036
 5500SOL     OW27961   4.685   3.918   7.133  0.6256 -0.3948 -0.1302
 5500SOL    HW127962   0.048   3.876   7.145  1.0948  0.7163  0.4162
 5500SOL    HW227963   4.699   3.991   7.073 -0.8733  1.5999  1.9285
 5501SOL     OW27964   1.889   4.156  11.755  0.5633 -0.3979 -0.2108
 5501SOL    HW127965   1.880   4.103  11.834  0.8391  2.0994  1.4864
 5501SOL    HW227966   1.982   4.180  11.755  0.3979  0.2265  1.2521
 5502SOL     OW27967   0.639   3.801  17.646  0.0790 -0.4742  0.0649
 5502SOL    HW127968   0.689   3.858  17.588  0.8988  0.3707  1.6027
 5502SOL    HW227969   0.608   3.742  17.578  1.0103  1.3297 -1.9141
 5503SOL     OW27970   3.508   1.812   6.670 -0.1407 -0.7694  0.2356
 5503SOL    HW127971   3.536   1.860   6.748 -2.1197  1.8147 -0.6734
 5503SOL    HW227972   3.486   1.724   6.702 -3.5420  0.4219  1.1734
 5504SOL     OW27973   1.980   1.184   1.229  0.3518 -0.7284  0.2948
 5504SOL    HW127974   2.039   1.110   1.238  0.6739 -0.5538 -0.3575
 5504SOL    HW227975   1.949   1.169   1.139  0.5600  0.8028 -0.0367
 5505SOL     OW27976   4.282   2.283   2.526 -0.1110 -0.0936  0.2108
 5505SOL    HW127977   4.277   2.235   2.608  1.1619  0.0909  0.4037
 5505SOL    HW227978   4.376   2.299   2.535 -0.5720  1.3860  2.3508
 5506SOL     OW27979   2.844   0.313  13.539  0.3274  0.4544  0.0908
 5506SOL    HW127980   2.751   0.327  13.557  0.4302  0.4466  0.6255
 5506SOL    HW227981   2.841   0.276  13.451  2.0415 -0.4439  0.3929
 5507SOL     OW27982   2.924   3.959   6.836  0.6117  0.3528 -0.5160
 5507SOL    HW127983   2.961   3.976   6.750  0.1065 -3.7871 -1.5676
 5507SOL    HW227984   2.948   4.042   6.878  2.3950  0.7484 -2.3379
 5508SOL     OW27985   2.081   2.984   8.867  0.6313  0.2021  0.1843
 5508SOL    HW127986   2.018   3.038   8.819 -0.4551  0.0661  1.4892
 5508SOL    HW227987   2.111   2.930   8.794  2.4886 -1.6471  2.3050
 5509SOL     OW27988   1.303   3.179   1.021 -0.6272  0.1641 -0.2825
 5509SOL    HW127989   1.248   3.183   1.099  0.6210  1.3714  0.5410
 5509SOL    HW227990   1.263   3.109   0.969 -2.1186 -0.1675  1.3544
 5510SOL     OW27991   0.502   2.749   5.034 -0.2864 -0.3706 -0.2304
 5510SOL    HW127992   0.459   2.710   5.110 -1.9312 -0.3324 -1.1593
 5510SOL    HW227993   0.580   2.790   5.073  0.5722 -0.5843 -1.7179
 5511SOL     OW27994   1.529   3.511   6.857  0.3086  0.0412 -0.1072
 5511SOL    HW127995   1.599   3.480   6.914  0.9353 -0.6249 -1.2521
 5511SOL    HW227996   1.585   3.544   6.787 -1.9848  1.5943 -1.2247
 5512SOL     OW27997   1.822   1.885   5.883 -0.2389  0.2808 -0.1845
 5512SOL    HW127998   1.894   1.828   5.856 -1.7222 -0.7971 -1.8325
 5512SOL    HW227999   1.818   1.932   5.800  0.5651  1.8493  0.6722
 5513SOL     OW28000   0.086   0.593   7.033 -0.6084  0.4382  0.0552
 5513SOL    HW128001   0.101   0.544   6.953  2.3122 -0.0311  0.8816
 5513SOL    HW228002   0.058   0.677   6.996 -1.7654 -0.4800 -1.1012
 5514SOL     OW28003   1.125   0.962   3.611  0.2321 -0.2049  0.2707
 5514SOL    HW128004   1.079   0.879   3.623  2.5809 -1.3704  1.2651
 5514SOL    HW228005   1.075   1.000   3.538  0.9329  1.3115  0.5844
 5515SOL     OW28006   2.943   1.664   3.696 -0.5117  0.4793  0.0010
 5515SOL    HW128007   2.933   1.574   3.666 -0.5391 -0.2706  2.2490
 5515SOL    HW228008   2.875   1.669   3.763  1.2851  0.0651  1.8707
 5516SOL     OW28009   4.110   4.190   6.118  0.2398  0.2542 -0.0480
 5516SOL    HW128010   4.094   4.155   6.030  1.2546  0.7994 -0.4499
 5516SOL    HW228011   4.201   4.159   6.120 -0.0330 -0.3211  2.4453
 5517SOL     OW28012   2.267   3.089   5.523  0.3970  0.6312  0.1244
 5517SOL    HW128013   2.245   3.154   5.456 -3.0866 -0.4934  0.1443
 5517SOL    HW228014   2.253   3.144   5.600  0.4915  1.6663 -0.5971
 5518SOL     OW28015   4.035   4.257   7.369  0.6257  0.7279  0.6092
 5518SOL    HW128016   4.004   4.205   7.295  2.0117  1.0833 -0.2096
 5518SOL    HW228017   4.127   4.234   7.368  0.3243 -0.4378 -0.8778
 5519SOL     OW28018   0.529   1.723  17.206  0.8214 -0.0225  0.1937
 5519SOL    HW128019   0.467   1.740  17.135  3.6627 -0.6531 -2.4395
 5519SOL    HW228020   0.588   1.794  17.183  3.5993 -2.2916  0.3750
 5520SOL     OW28021   3.375   0.126  16.460 -0.4240  0.0698 -0.6732
 5520SOL    HW128022   3.384   0.137  16.365 -0.9497  0.3334 -0.6889
 5520SOL    HW228023   3.382   0.034  16.487  0.1908  0.0116 -1.0372
 5521SOL     OW28024   2.178   3.187   9.686 -0.0569 -0.1834 -0.2593
 5521SOL    HW128025   2.227   3.222   9.612  0.1854  2.5273  1.2057
 5521SOL    HW228026   2.113   3.257   9.693 -0.0424 -0.5907  4.4002
 5522SOL     OW28027   1.171   1.084  12.249 -0.1059  0.3636 -0.6923
 5522SOL    HW128028   1.153   1.174  12.277 -0.0734  0.0078  0.4648
 5522SOL    HW228029   1.252   1.099  12.200 -0.2015  1.2023 -0.5868
 5523SOL     OW28030   4.204   2.719  15.241  0.1973  0.5588 -0.0763
 5523SOL    HW128031   4.147   2.773  15.186  1.2930  0.5783 -1.1829
 5523SOL    HW228032   4.159   2.634  15.247  0.2644  0.4438 -1.1366
 5524SOL     OW28033   4.442   1.829   3.369 -0.1816 -0.0258  0.5415
 5524SOL    HW128034   4.490   1.839   3.286 -0.9364 -1.9906 -0.1268
 5524SOL    HW228035   4.351   1.812   3.346 -0.2085  2.4038 -1.2445
 5525SOL     OW28036   0.484   0.770   9.296 -0.1877 -0.0188 -0.1649
 5525SOL    HW128037   0.472   0.690   9.347  1.6707  0.8350  1.6043
 5525SOL    HW228038   0.391   0.794   9.290  0.2672  1.9500  0.7187
 5526SOL     OW28039   1.107   0.720   5.142 -0.5471 -0.4791 -0.2623
 5526SOL    HW128040   1.144   0.808   5.140 -1.5641 -0.0624 -0.5208
 5526SOL    HW228041   1.182   0.661   5.147  1.6617  2.4048  0.9054
 5527SOL     OW28042   4.248   3.384   2.518  0.2852 -0.1709 -0.0403
 5527SOL    HW128043   4.312   3.433   2.467  0.7748  0.0581  0.7824
 5527SOL    HW228044   4.196   3.331   2.458 -1.8110 -1.7247  3.1109
 5528SOL     OW28045   4.521   2.740   0.806  0.3587 -0.2679  0.3635
 5528SOL    HW128046   4.523   2.819   0.752 -0.7740  0.3772  1.2644
 5528SOL    HW228047   4.539   2.666   0.747  1.5232 -0.4537  0.9416
 5529SOL     OW28048   4.630   1.937  12.066 -0.0498  0.1430 -0.0735
 5529SOL    HW128049   4.541   1.970  12.062  0.6790  2.3588  2.0085
 5529SOL    HW228050   4.614   1.849  12.032 -0.3259  0.1860 -0.0518
 5530SOL     OW28051   1.706   1.441   2.768  0.1470  0.3297  0.1448
 5530SOL    HW128052   1.750   1.453   2.852 -0.7785  2.3087  0.3497
 5530SOL    HW228053   1.730   1.352   2.741 -3.1512 -1.4483  3.1494
 5531SOL     OW28054   3.609   3.591   0.274  0.5396  0.0276 -0.1991
 5531SOL    HW128055   3.545   3.523   0.252  1.1847 -0.7232  0.2366
 5531SOL    HW228056   3.625   3.591   0.368  1.9509 -1.1483 -0.4426
 5532SOL     OW28057   0.711   0.571  16.814  0.1770  0.0187  0.2794
 5532SOL    HW128058   0.664   0.522  16.881  1.6426 -1.6342  0.0977
 5532SOL    HW228059   0.800   0.557  16.846 -0.6961 -0.2566  2.6120
 5533SOL     OW28060   1.259   0.942   2.107 -0.0903 -0.3776 -0.0904
 5533SOL    HW128061   1.230   0.954   2.016 -1.6460  2.6397  0.8060
 5533SOL    HW228062   1.334   1.002   2.110 -0.1712 -0.3518  1.5948
 5534SOL     OW28063   3.247   4.220  14.701 -0.1066 -0.2603 -0.9099
 5534SOL    HW128064   3.198   4.139  14.691 -2.2793  1.0898 -1.3290
 5534SOL    HW228065   3.181   4.289  14.707 -0.7517 -0.8161 -1.7197
 5535SOL     OW28066   3.319   3.639   6.723  0.0567 -0.8017  0.2069
 5535SOL    HW128067   3.339   3.715   6.776 -0.7581  0.0689 -0.7280
 5535SOL    HW228068   3.227   3.653   6.700 -0.4426 -0.0161  2.6892
 5536SOL     OW28069   0.724   3.425   7.254  0.3663  0.7856 -0.3409
 5536SOL    HW128070   0.814   3.414   7.224  0.6799  1.3668  0.3902
 5536SOL    HW228071   0.747   3.465   7.338  0.9613 -0.7863  0.2467
 5537SOL     OW28072   2.988   3.888   6.403  0.2679  0.1462  0.5498
 5537SOL    HW128073   3.015   3.902   6.312 -0.0648 -0.8204  0.3019
 5537SOL    HW228074   3.053   3.940   6.450 -0.5316  1.1020  0.6025
 5538SOL     OW28075   0.432   2.587  10.370  0.1896  0.1890  0.0793
 5538SOL    HW128076   0.338   2.570  10.373  0.7164 -2.8079 -0.4012
 5538SOL    HW228077   0.449   2.643  10.445 -2.1328  2.6965 -1.2412
 5539SOL     OW28078   4.198   2.331   4.834  0.8230 -0.5201  0.5253
 5539SOL    HW128079   4.145   2.393   4.886 -3.8719 -0.2730 -4.5913
 5539SOL    HW228080   4.234   2.277   4.905  0.2897  1.3654  2.2512
 5540SOL     OW28081   3.265   0.381   1.537 -0.4051  0.0483  0.3532
 5540SOL    HW128082   3.325   0.366   1.464 -1.2206  2.0418 -0.7268
 5540SOL    HW228083   3.203   0.442   1.498 -2.1909 -1.0018  1.5194
 5541SOL     OW28084   3.523   4.626  13.380 -0.1103  0.2544  0.1149
 5541SOL    HW128085   3.464   4.688  13.422  0.3401 -0.4964  1.8400
 5541SOL    HW228086   3.591   4.686  13.348 -0.1430 -0.4879 -1.3500
 5542SOL     OW28087   4.523   0.980   8.233 -0.0894  0.0858 -0.2880
 5542SOL    HW128088   4.431   0.966   8.255 -0.2819 -1.0439 -1.8053
 5542SOL    HW228089   4.526   1.016   8.144 -1.9895 -0.1006 -0.4246
 5543SOL     OW28090   1.151   0.053   8.288  0.2757  0.4449  0.2922
 5543SOL    HW128091   1.087   4.713   8.320  0.1264 -0.0809 -1.0265
 5543SOL    HW228092   1.104   0.093   8.215  0.1171 -2.6812 -1.3115
 5544SOL     OW28093   2.290   2.647  17.140 -0.4482 -0.6597 -0.2776
 5544SOL    HW128094   2.333   2.732  17.153  0.6099 -1.6441  2.6646
 5544SOL    HW228095   2.321   2.601  17.217 -0.5473  1.3173  0.9573
 5545SOL     OW28096   3.718   4.433   8.122 -0.1599 -0.0246  0.2587
 5545SOL    HW128097   3.729   4.509   8.064 -4.5387 -1.5033 -2.4559
 5545SOL    HW228098   3.809   4.404   8.128 -0.4826 -1.8076 -4.0134
 5546SOL     OW28099   2.794   3.920  13.074  0.6224 -0.1510  0.2530
 5546SOL    HW128100   2.856   3.901  13.144 -1.2161  0.1992  1.9816
 5546SOL    HW228101   2.821   3.863  13.002  1.2848  2.0101 -1.1909
 5547SOL     OW28102   1.933   4.042   8.258 -0.4397 -0.4934  0.0144
 5547SOL    HW128103   2.015   3.995   8.244  0.8649  1.1120  2.3081
 5547SOL    HW228104   1.955   4.092   8.336 -2.0545 -0.8439  0.7129
 5548SOL     OW28105   3.416   3.624   1.952 -0.0967  0.0576  0.6629
 5548SOL    HW128106   3.386   3.567   1.881 -2.8941  2.0445  0.2148
 5548SOL    HW228107   3.335   3.625   2.004  0.2561 -1.7795  1.2561
 5549SOL     OW28108   2.546   4.314   5.265 -0.2546  0.0641 -0.2203
 5549SOL    HW128109   2.479   4.256   5.229 -1.1974  0.1440  1.3791
 5549SOL    HW228110   2.629   4.293   5.221 -0.9080 -0.9101 -0.9886
 5550SOL     OW28111   1.938   2.036   9.960  0.2770 -0.3952 -0.2119
 5550SOL    HW128112   2.008   2.101   9.955 -1.2807  1.0716 -3.0321
 5550SOL    HW228113   1.897   2.048   9.874 -0.1242  3.5641  0.5320
 5551SOL     OW28114   3.577   4.683   8.805 -0.4181 -0.4150 -0.6717
 5551SOL    HW128115   3.536   4.596   8.799 -0.8135 -0.3393  0.7840
 5551SOL    HW228116   3.658   4.659   8.760 -1.8046 -2.6234 -2.0020
 5552SOL     OW28117   2.336   4.360   5.667 -0.0791 -0.3887 -0.2170
 5552SOL    HW128118   2.365   4.272   5.689 -0.8059 -0.1348  1.7542
 5552SOL    HW228119   2.404   4.398   5.612  2.0724 -0.6545  2.2423
 5553SOL     OW28120   2.550   3.785   5.374  0.1340 -0.7946 -0.0979
 5553SOL    HW128121   2.612   3.757   5.442  0.1716 -0.7971 -0.1339
 5553SOL    HW228122   2.482   3.718   5.375  0.8281 -1.4602  2.3793
 5554SOL     OW28123   2.939   3.161   3.225 -0.4304 -0.2314  0.1246
 5554SOL    HW128124   2.858   3.113   3.212 -0.4715 -0.5312  1.5141
 5554SOL    HW228125   2.995   3.109   3.168 -0.7229 -0.4836  0.0721
 5555SOL     OW28126   0.713   3.543   5.028 -0.3105  0.2309  0.1350
 5555SOL    HW128127   0.673   3.492   5.098 -1.4320  0.9748  0.0387
 5555SOL    HW228128   0.645   3.607   5.007 -0.6202 -1.4258 -3.7971
 5556SOL     OW28129   1.717   3.728  11.595 -0.3661  0.3990  0.2352
 5556SOL    HW128130   1.715   3.681  11.678 -0.5517  0.0103  0.0109
 5556SOL    HW228131   1.631   3.769  11.592 -0.5383  0.1948  2.3579
 5557SOL     OW28132   3.362   3.258   3.467 -0.0147 -0.1184 -0.0696
 5557SOL    HW128133   3.343   3.326   3.532 -0.9675 -0.1559 -0.3055
 5557SOL    HW228134   3.274   3.225   3.447 -0.1472 -0.7136  1.4921
 5558SOL     OW28135   2.197   1.829   7.427  0.0879  0.7117 -0.1754
 5558SOL    HW128136   2.234   1.841   7.340 -0.1727 -2.1546 -0.6760
 5558SOL    HW228137   2.222   1.737   7.432  3.8131  1.7360  0.3214
 5559SOL     OW28138   1.452   1.557   3.422  0.3212  0.5667  0.2754
 5559SOL    HW128139   1.472   1.463   3.421  0.9682  0.7008  0.2927
 5559SOL    HW228140   1.534   1.597   3.393  1.4842 -0.8817  1.6018
 5560SOL     OW28141   3.454   3.902  16.715  0.1985  0.2764  0.1830
 5560SOL    HW128142   3.508   3.905  16.635  1.3697 -0.3127  0.9603
 5560SOL    HW228143   3.436   3.995  16.727  2.4887  0.7707 -0.1579
 5561SOL     OW28144   4.574   0.439   0.437 -0.6276  0.2028  0.2560
 5561SOL    HW128145   4.524   0.363   0.464  0.1437 -0.6318 -0.6575
 5561SOL    HW228146   4.567   0.447   0.341 -1.1098  2.2658  0.4564
 5562SOL     OW28147   1.956   3.864   1.480 -0.1682  0.2251  0.3850
 5562SOL    HW128148   1.913   3.948   1.490 -1.2173 -0.1544 -0.9379
 5562SOL    HW228149   2.029   3.887   1.422 -0.6997 -0.6979 -0.6626
 5563SOL     OW28150   1.810   2.038   9.707  0.6249 -0.1073  0.3921
 5563SOL    HW128151   1.838   2.101   9.640  1.9688 -1.4208 -0.2832
 5563SOL    HW228152   1.716   2.052   9.694  0.6716 -0.2375 -0.0752
 5564SOL     OW28153   2.780   1.908   5.281 -0.4847  0.4936 -0.9233
 5564SOL    HW128154   2.765   1.831   5.337  1.6298  0.0758 -0.9508
 5564SOL    HW228155   2.690   1.937   5.266 -0.4475 -0.4207 -2.8735
 5565SOL     OW28156   0.889   3.785  12.951  0.0428  0.1468 -0.4990
 5565SOL    HW128157   0.903   3.877  12.929 -2.1794 -0.1642 -3.2362
 5565SOL    HW228158   0.982   3.763  12.950  0.2465  1.1020 -2.4215
 5566SOL     OW28159   3.068   3.162   8.529 -0.3575 -0.5443  0.1205
 5566SOL    HW128160   3.121   3.242   8.533 -1.7830  0.2520  2.7529
 5566SOL    HW228161   2.989   3.198   8.491 -1.3350 -1.5851  1.1697
 5567SOL     OW28162   1.366   2.895   4.713  0.1910  0.0322 -0.3726
 5567SOL    HW128163   1.393   2.965   4.772 -1.6462  1.1070 -0.8011
 5567SOL    HW228164   1.323   2.844   4.781 -0.4985  2.6986  1.1934
 5568SOL     OW28165   0.656   1.298  10.150  0.1654  0.5806 -0.9664
 5568SOL    HW128166   0.662   1.307  10.245  0.2599 -0.2968 -0.8906
 5568SOL    HW228167   0.565   1.269  10.157  0.0228  1.1310 -0.4804
 5569SOL     OW28168   1.469   3.130  15.172 -0.3212  0.4817 -0.3177
 5569SOL    HW128169   1.451   3.074  15.247 -0.4678  1.4183  0.3577
 5569SOL    HW228170   1.541   3.073  15.146 -1.3021 -0.3350 -1.2441
 5570SOL     OW28171   1.525   0.384   8.901  0.4621 -0.5918 -0.4136
 5570SOL    HW128172   1.562   0.377   8.989  0.5233 -1.3312 -0.4958
 5570SOL    HW228173   1.467   0.307   8.895 -1.0146  0.4980 -0.1263
 5571SOL     OW28174   2.761   3.091   2.609 -0.4801  0.1625  0.5749
 5571SOL    HW128175   2.844   3.044   2.615 -0.1350  0.7612  0.5119
 5571SOL    HW228176   2.711   3.030   2.555  3.7282 -2.2728 -0.5903
 5572SOL     OW28177   1.225   3.028   5.548 -0.5351  0.2189 -0.2071
 5572SOL    HW128178   1.223   3.011   5.454  2.7828 -0.5926 -0.1399
 5572SOL    HW228179   1.293   2.963   5.569  0.9749  2.2009  1.0235
 5573SOL     OW28180   0.628   3.097   7.047  0.4586  0.2558  0.0648
 5573SOL    HW128181   0.620   3.044   6.968  1.6784  0.6290 -0.3051
 5573SOL    HW228182   0.719   3.122   7.060  0.1649  1.2676  0.2083
 5574SOL     OW28183   0.807   1.616   3.649  0.5852  0.1919  0.0773
 5574SOL    HW128184   0.765   1.702   3.645 -0.3131 -0.3109 -1.1744
 5574SOL    HW228185   0.742   1.556   3.685  0.0783  1.2200  0.8853
 5575SOL     OW28186   2.088   1.738   4.232 -0.3006 -0.5465 -0.3637
 5575SOL    HW128187   2.056   1.793   4.161 -0.7222  0.8318  0.8883
 5575SOL    HW228188   2.179   1.765   4.241  0.1088 -2.1823  0.5144
 5576SOL     OW28189   2.373   4.139   8.297  0.9744  0.0104 -0.0342
 5576SOL    HW128190   2.379   4.160   8.391 -0.3259 -1.1119  0.2976
 5576SOL    HW228191   2.438   4.069   8.294  0.1035 -0.8810  1.5806
 5577SOL     OW28192   0.921   3.952   9.051  0.1231 -0.4679  0.4129
 5577SOL    HW128193   0.969   3.927   9.130  1.2689  1.0286  0.1910
 5577SOL    HW228194   0.887   4.038   9.075 -0.1224 -0.2548 -0.7325
 5578SOL     OW28195   2.400   2.081  17.218  0.1238 -0.1611 -0.0104
 5578SOL    HW128196   2.385   2.131  17.137  1.4846  2.2233  1.2057
 5578SOL    HW228197   2.494   2.068  17.221  0.1492  0.1250  0.5468
 5579SOL     OW28198   1.299   2.821   2.347 -0.2717 -0.5479  0.2511
 5579SOL    HW128199   1.310   2.916   2.348 -0.6191 -0.5236  1.1692
 5579SOL    HW228200   1.382   2.795   2.306  0.7338 -1.7455  3.0970
 5580SOL     OW28201   1.725   4.575   3.581 -0.3407  0.4239 -0.2789
 5580SOL    HW128202   1.652   4.620   3.624 -0.3575  1.3196 -1.2588
 5580SOL    HW228203   1.691   4.486   3.578 -0.3641  0.3981  0.5817
 5581SOL     OW28204   0.747   0.111   8.583 -0.3982 -0.1846 -0.5272
 5581SOL    HW128205   0.790   0.148   8.506 -1.9786  1.5295 -0.5728
 5581SOL    HW228206   0.815   0.061   8.629 -0.1854 -0.5093 -1.1994
 5582SOL     OW28207   1.188   0.652   1.877  0.1662  0.1041 -0.0858
 5582SOL    HW128208   1.220   0.740   1.854 -1.3067  0.7118  0.2042
 5582SOL    HW228209   1.095   0.671   1.888  0.0665  0.7684 -1.9321
 5583SOL     OW28210   1.135   3.180   1.247  0.1348 -0.0391 -0.3429
 5583SOL    HW128211   1.199   3.157   1.314 -0.1071 -2.3705 -0.8999
 5583SOL    HW228212   1.092   3.260   1.276  0.2965 -0.7585  1.8817
 5584SOL     OW28213   1.681   1.741   6.938  0.1321  0.6833 -0.3613
 5584SOL    HW128214   1.736   1.713   7.011 -0.5690 -0.6129 -0.3453
 5584SOL    HW228215   1.726   1.817   6.899 -0.7905  1.3583 -0.1088
 5585SOL     OW28216   3.431   2.917  11.623  0.6971  0.5889 -0.3022
 5585SOL    HW128217   3.413   2.952  11.710  0.3064 -2.8975  1.0354
 5585SOL    HW228218   3.359   2.940  11.564 -0.1890 -0.4082  0.3829
 5586SOL     OW28219   2.111   4.538  17.212 -0.2312 -0.0037  0.3707
 5586SOL    HW128220   2.102   4.473  17.283 -1.5789 -1.0610 -0.7803
 5586SOL    HW228221   2.033   4.518  17.161  0.0131 -1.0573  0.4070
 5587SOL     OW28222   0.508   2.264  14.262 -0.2927 -0.4508  0.0095
 5587SOL    HW128223   0.499   2.244  14.169 -4.6113  0.8043  0.1812
 5587SOL    HW228224   0.466   2.349  14.272 -0.8704 -0.6835 -0.4840
 5588SOL     OW28225   1.396   2.320   6.402  0.2827 -0.5001 -0.4275
 5588SOL    HW128226   1.355   2.249   6.452  0.3534 -2.6177 -3.3690
 5588SOL    HW228227   1.320   2.369   6.372  0.2992  0.2578  0.7658
 5589SOL     OW28228   2.057   3.038   1.129 -0.1443  0.0178 -0.0980
 5589SOL    HW128229   2.106   3.120   1.129 -1.4075  0.7843 -2.8929
 5589SOL    HW228230   2.103   2.975   1.185  0.7561  0.0730 -0.7762
 5590SOL     OW28231   4.488   1.647   6.866  0.0304 -0.0227 -0.2779
 5590SOL    HW128232   4.460   1.696   6.789 -1.4464  0.1313  0.3709
 5590SOL    HW228233   4.406   1.614   6.903  0.4963  0.6280  1.3069
 5591SOL     OW28234   1.364   2.843   9.878  0.6297 -0.2764  0.6486
 5591SOL    HW128235   1.430   2.790   9.921  1.3993  1.6876  1.9087
 5591SOL    HW228236   1.388   2.815   9.790 -1.2885 -0.3304  0.1348
 5592SOL     OW28237   3.387   3.050   3.844  0.2247 -0.5403  0.2020
 5592SOL    HW128238   3.352   3.015   3.762 -1.0554 -1.1316  1.0057
 5592SOL    HW228239   3.388   2.970   3.898  1.2079 -0.3005  0.5515
 5593SOL     OW28240   1.958   1.674   3.287  0.2966  0.5227  0.1397
 5593SOL    HW128241   1.993   1.745   3.340  0.0113 -0.8082  2.1320
 5593SOL    HW228242   1.989   1.706   3.203 -1.9246  0.2514 -0.7909
 5594SOL     OW28243   0.263   1.764   4.713  0.3549  0.0638 -0.2230
 5594SOL    HW128244   0.185   1.808   4.746  0.3012  0.2732 -0.6201
 5594SOL    HW228245   0.324   1.784   4.784  0.8142 -2.4112  0.0702
 5595SOL     OW28246   1.184   2.748   3.682  0.2134 -0.5267 -0.2033
 5595SOL    HW128247   1.121   2.687   3.643  0.4883 -0.7704 -0.2686
 5595SOL    HW228248   1.221   2.785   3.602 -0.3938 -0.6800 -0.5541
 5596SOL     OW28249   0.587   0.970   3.643  0.6433 -0.4736  0.1805
 5596SOL    HW128250   0.569   1.035   3.576  0.6691 -0.2277  0.4105
 5596SOL    HW228251   0.503   0.926   3.655  1.0296 -0.7198  2.0429
 5597SOL     OW28252   2.714   1.886   6.839 -0.0212  0.0396 -0.3457
 5597SOL    HW128253   2.807   1.890   6.814 -0.4159 -5.5020 -2.7417
 5597SOL    HW228254   2.679   1.831   6.769 -1.8955 -0.8915  1.3528
 5598SOL     OW28255   2.384   0.841  14.433 -0.8287 -0.1669  0.2729
 5598SOL    HW128256   2.309   0.783  14.447  0.1874 -1.5778 -0.1348
 5598SOL    HW228257   2.348   0.897  14.365 -0.7350  1.0189  1.1859
 5599SOL     OW28258   2.021   4.094   7.583  0.2211  0.1315 -0.3863
 5599SOL    HW128259   1.982   4.124   7.666 -0.2288 -1.3155 -0.0754
 5599SOL    HW228260   2.092   4.042   7.622  0.3785  0.8179  0.2612
 5600SOL     OW28261   2.211   3.888   3.546 -0.1573 -0.0080  0.4060
 5600SOL    HW128262   2.146   3.868   3.614  0.5011 -0.5039  0.8934
 5600SOL    HW228263   2.279   3.913   3.607  1.7849  2.7582 -2.9196
 5601SOL     OW28264   3.536   0.722  13.383  0.2446 -0.4558 -0.2106
 5601SOL    HW128265   3.517   0.655  13.317 -0.0112 -0.6045  0.0167
 5601SOL    HW228266   3.620   0.697  13.421  0.3548  0.8617  0.4178
 5602SOL     OW28267   1.161   2.202   1.101 -0.1192  0.5491 -0.0707
 5602SOL    HW128268   1.118   2.189   1.017 -0.7877 -0.3132  0.4020
 5602SOL    HW228269   1.223   2.129   1.092 -1.3492 -0.3999 -0.8369
 5603SOL     OW28270   1.410   1.309  13.975  0.1007 -0.4772  0.4244
 5603SOL    HW128271   1.381   1.357  14.052  0.0130  1.0883 -0.5933
 5603SOL    HW228272   1.456   1.232  14.009 -0.0931 -0.4323  0.7856
 5604SOL     OW28273   3.409   3.999   4.616  0.3462 -0.1183  1.0271
 5604SOL    HW128274   3.342   3.981   4.550  1.4985 -1.2179  0.1463
 5604SOL    HW228275   3.434   4.088   4.593  1.1260 -0.8061 -0.8177
 5605SOL     OW28276   4.451   4.581  13.671 -0.0534 -0.3537 -0.1481
 5605SOL    HW128277   4.458   4.501  13.620  2.6506 -0.9372  1.1642
 5605SOL    HW228278   4.461   4.646  13.601 -1.8296  0.8099  0.6682
 5606SOL     OW28279   4.438   4.176   8.795  0.6160 -0.6235 -0.1415
 5606SOL    HW128280   4.355   4.143   8.759  0.1597 -0.1190  0.4479
 5606SOL    HW228281   4.508   4.120   8.762 -0.3623 -2.0519  0.1795
 5607SOL     OW28282   4.351   1.120   0.643  0.3541  0.4754  0.1038
 5607SOL    HW128283   4.440   1.125   0.678 -0.1664 -0.8684  1.6512
 5607SOL    HW228284   4.371   1.139   0.552  1.8660  1.7241  0.7075
 5608SOL     OW28285   3.916   4.318   7.876 -0.9806 -0.0707 -0.2236
 5608SOL    HW128286   3.895   4.296   7.967 -0.4561 -1.6345 -0.4822
 5608SOL    HW228287   3.880   4.406   7.871  1.2179  0.8645  0.0656
 5609SOL     OW28288   1.770   1.547   8.456 -0.3519 -0.3262 -0.3886
 5609SOL    HW128289   1.728   1.498   8.384  1.0907 -1.9844 -0.1067
 5609SOL    HW228290   1.852   1.498   8.450 -1.3001 -2.0050  0.3379
 5610SOL     OW28291   0.644   2.838  12.045 -0.2253 -0.3392 -0.0221
 5610SOL    HW128292   0.649   2.768  11.979 -1.3780 -1.7966  1.4502
 5610SOL    HW228293   0.577   2.810  12.107 -2.2249 -0.9987 -2.4694
 5611SOL     OW28294   2.841   4.192   3.131  0.1001  0.2734  0.0737
 5611SOL    HW128295   2.934   4.215   3.134  0.1968 -0.5462  2.7509
 5611SOL    HW228296   2.817   4.194   3.223  0.4664 -0.8047  0.1885
 5612SOL     OW28297   2.129   4.006   3.281  0.0781  0.1993 -0.0860
 5612SOL    HW128298   2.199   3.941   3.275 -0.6294 -0.3144 -2.5718
 5612SOL    HW228299   2.135   4.007   3.377  0.3057 -1.3787 -0.0814
 5613SOL     OW28300   1.213   3.285  13.017  0.1023  0.0639 -0.2930
 5613SOL    HW128301   1.305   3.312  13.008 -0.5755  3.0474  1.7936
 5613SOL    HW228302   1.194   3.269  12.925 -2.3304  0.0850  0.1984
 5614SOL     OW28303   1.969   0.930   0.495 -0.1817 -0.3963  0.3689
 5614SOL    HW128304   1.895   0.890   0.448  0.4775 -0.4772 -0.5951
 5614SOL    HW228305   1.957   0.908   0.587  2.2651 -0.1577  0.7429
 5615SOL     OW28306   0.838   0.827   2.551  0.1222  0.6868 -0.2497
 5615SOL    HW128307   0.750   0.838   2.517 -0.0062  0.6967  0.0815
 5615SOL    HW228308   0.885   0.806   2.471  0.5524 -1.1674  0.5009
 5616SOL     OW28309   1.940   2.559   9.759 -0.9599 -0.6777 -0.0108
 5616SOL    HW128310   1.879   2.632   9.744 -0.5188 -0.4834 -0.8744
 5616SOL    HW228311   1.876   2.488   9.765 -0.1715 -1.4192 -0.4338
 5617SOL     OW28312   3.451   3.085   0.006  0.1268 -0.1507  0.0394
 5617SOL    HW128313   3.411   3.165   0.041  0.6911  0.7026 -1.2298
 5617SOL    HW228314   3.540   3.113   0.030  0.2614 -2.2940  1.9536
 5618SOL     OW28315   1.370   2.367   3.623  0.5616  0.3122 -0.1240
 5618SOL    HW128316   1.300   2.342   3.684 -0.9275 -0.1260 -2.0501
 5618SOL    HW228317   1.373   2.461   3.638  1.4344  0.5006 -1.4895
 5619SOL     OW28318   0.218   2.444   4.157 -0.4250  0.3500 -0.0980
 5619SOL    HW128319   0.250   2.437   4.247  0.3828 -1.3981 -0.5176
 5619SOL    HW228320   0.212   2.539   4.145  3.2894  0.2696 -2.5575
 5620SOL     OW28321   4.104   0.561   7.546 -0.8746 -0.0340 -0.1678
 5620SOL    HW128322   4.094   0.575   7.640  0.7399  1.3943 -0.2124
 5620SOL    HW228323   4.159   0.633   7.513  0.1049 -1.0481 -0.7279
 5621SOL     OW28324   3.134   0.948   2.018 -0.2718  0.3911 -0.4465
 5621SOL    HW128325   3.223   0.983   2.015  0.5931 -1.6865  1.2805
 5621SOL    HW228326   3.093   0.983   2.097  0.3081 -2.3480  1.0489
 5622SOL     OW28327   0.898   1.268   5.878 -0.1675 -0.0882  0.5189
 5622SOL    HW128328   0.814   1.264   5.924 -0.3567 -0.5221  0.1340
 5622SOL    HW228329   0.869   1.253   5.788  2.5312 -1.2165 -0.1400
 5623SOL     OW28330   0.987   2.584   0.945  0.0272 -0.3128  0.1727
 5623SOL    HW128331   0.958   2.534   0.869  1.4960 -0.0431 -0.5789
 5623SOL    HW228332   1.020   2.516   1.003 -0.3316 -2.0876 -1.7309
 5624SOL     OW28333   3.424   0.547   4.992  0.2067  0.2820 -0.3888
 5624SOL    HW128334   3.419   0.543   4.896  0.2747  1.1404 -0.4350
 5624SOL    HW228335   3.464   0.633   5.007  3.4582 -1.4468  0.8148
 5625SOL     OW28336   4.369   0.875   9.042 -0.2223 -0.5820 -0.2935
 5625SOL    HW128337   4.375   0.902   8.951 -1.5222  0.9428  0.0740
 5625SOL    HW228338   4.291   0.820   9.040 -1.7316  1.6167 -1.4275
 5626SOL     OW28339   1.414   1.499   4.317 -0.4691  0.4370  0.1909
 5626SOL    HW128340   1.384   1.538   4.399 -1.6105 -1.4828  0.7035
 5626SOL    HW228341   1.365   1.416   4.319  1.1613 -0.4910  2.2781
 5627SOL     OW28342   0.539   1.864   2.634  0.2387  0.0111 -0.8413
 5627SOL    HW128343   0.505   1.843   2.547 -0.0599 -0.2068 -0.6721
 5627SOL    HW228344   0.633   1.869   2.617  0.1038  1.2576 -1.2910
 5628SOL     OW28345   1.884   3.189  10.853  0.0952 -0.0733  0.0833
 5628SOL    HW128346   1.942   3.138  10.796 -2.3945 -0.6671 -1.8799
 5628SOL    HW228347   1.806   3.194  10.798 -0.8705 -0.9325  1.3758
 5629SOL     OW28348   2.201   1.122   8.566 -0.6065  0.1339  0.1847
 5629SOL    HW128349   2.235   1.138   8.654  1.8523 -2.3209 -0.2882
 5629SOL    HW228350   2.284   1.096   8.525 -0.1800 -1.0845  1.8019
 5630SOL     OW28351   4.329   0.608  11.687 -0.1005  0.2609 -0.1324
 5630SOL    HW128352   4.346   0.647  11.773 -3.2749  1.0830  0.1143
 5630SOL    HW228353   4.375   0.525  11.697  0.9845  1.0201  1.1935
 5631SOL     OW28354   0.441   2.732  12.187 -0.1759  0.2287  0.2070
 5631SOL    HW128355   0.466   2.696  12.272  0.7136  1.4481  0.4694
 5631SOL    HW228356   0.446   2.652  12.136 -0.4717 -1.3364  2.6190
 5632SOL     OW28357   3.420   2.368   6.113 -0.0918  0.4457 -0.4941
 5632SOL    HW128358   3.461   2.378   6.199 -0.4292  0.2577 -0.3085
 5632SOL    HW228359   3.500   2.331   6.076 -0.0687 -1.3167  1.3029
 5633SOL     OW28360   4.008   4.317   9.122 -0.2350  0.5941  0.2736
 5633SOL    HW128361   4.028   4.361   9.205 -0.2105 -0.3272  0.7587
 5633SOL    HW228362   4.078   4.357   9.071 -0.3408  0.1597 -0.2127
 5634SOL     OW28363   0.100   0.941   6.465  0.3705  0.1244  0.2625
 5634SOL    HW128364   0.082   0.854   6.427 -0.5276  0.5671 -0.3164
 5634SOL    HW228365   0.151   0.915   6.541  0.0333 -0.0769  0.4195
 5635SOL     OW28366   3.556   0.853   5.224  1.1437 -0.4712  0.0549
 5635SOL    HW128367   3.527   0.940   5.251 -0.2453 -0.9843  0.1776
 5635SOL    HW228368   3.499   0.794   5.273 -1.6840  0.3776 -2.2356
 5636SOL     OW28369   4.403   3.793   0.249  0.4782  0.2327  0.1400
 5636SOL    HW128370   4.427   3.794   0.157  0.0650  1.3809  0.0503
 5636SOL    HW228371   4.432   3.881   0.273 -0.9990  0.7223  0.0966
 5637SOL     OW28372   4.095   2.748   5.714 -0.6373 -0.2009  0.4321
 5637SOL    HW128373   4.170   2.797   5.748  1.3382 -2.3103 -0.8931
 5637SOL    HW228374   4.110   2.771   5.623 -1.3224 -0.2332  0.3179
 5638SOL     OW28375   4.686   3.565   6.682  0.1107 -0.0373  0.3275
 5638SOL    HW128376   4.630   3.643   6.679  0.7486  0.4374  0.8387
 5638SOL    HW228377   0.045   3.602   6.714 -0.5958  0.7007  1.2516
 5639SOL     OW28378   3.222   1.770  15.597  0.7082 -0.7746  1.2460
 5639SOL    HW128379   3.256   1.684  15.623 -2.0658 -1.3373  2.9986
 5639SOL    HW228380   3.130   1.747  15.585  0.4231  0.7261  0.6031
 5640SOL     OW28381   3.056   1.430  12.444 -0.4752  0.5138 -0.2877
 5640SOL    HW128382   3.148   1.457  12.443 -0.7776  1.6405  1.2455
 5640SOL    HW228383   3.039   1.390  12.359 -1.2559 -1.9735  1.0330
 5641SOL     OW28384   4.058   2.200   5.485  0.1815  0.0043  0.5421
 5641SOL    HW128385   4.100   2.169   5.405  0.4795 -1.4973  1.2910
 5641SOL    HW228386   4.072   2.295   5.477 -1.1147  0.3324  2.2827
 5642SOL     OW28387   2.326   3.371   8.079 -0.5603 -0.2633 -0.8368
 5642SOL    HW128388   2.297   3.286   8.111  1.5805 -0.9966 -0.8902
 5642SOL    HW228389   2.421   3.366   8.071 -0.5456 -1.2261 -0.0659
 5643SOL     OW28390   3.072   4.091   6.584 -0.2745  0.6199  0.0672
 5643SOL    HW128391   3.081   4.169   6.528 -3.4954  0.8096 -0.1776
 5643SOL    HW228392   3.165   4.073   6.596  0.0345  1.1433 -1.5552
 5644SOL     OW28393   4.635   1.648  11.699 -0.0927  0.4754 -0.3908
 5644SOL    HW128394   4.699   1.689  11.641 -0.4629 -0.8580 -1.7440
 5644SOL    HW228395   4.687   1.660  11.779 -1.0604 -1.2449  0.4884
 5645SOL     OW28396   0.360   3.094  12.117  0.5488  0.1244  0.1074
 5645SOL    HW128397   0.394   3.060  12.200 -0.5647 -0.2350  0.4057
 5645SOL    HW228398   0.443   3.125  12.080  1.8767  0.6595  3.5233
 5646SOL     OW28399   3.460   2.102   1.405 -0.2714  0.0650  0.6690
 5646SOL    HW128400   3.370   2.132   1.389  0.0436  1.3871  1.4002
 5646SOL    HW228401   3.471   2.064   1.317 -1.2853 -0.0523  0.5840
 5647SOL     OW28402   3.773   3.182   3.963  0.6225 -0.4081 -0.4570
 5647SOL    HW128403   3.726   3.167   4.045 -0.9551  1.1289 -1.1034
 5647SOL    HW228404   3.807   3.098   3.932  1.5046 -0.2296 -0.0039
 5648SOL     OW28405   0.686   1.140  11.563 -0.2998  0.2438 -0.5900
 5648SOL    HW128406   0.766   1.100  11.529  0.3328  1.9078 -1.0861
 5648SOL    HW228407   0.630   1.150  11.487 -2.0511  2.7301  0.9969
 5649SOL     OW28408   3.808   0.550   4.183  0.1335  0.5909  0.5838
 5649SOL    HW128409   3.740   0.576   4.244  1.1021  0.5187  1.6965
 5649SOL    HW228410   3.882   0.534   4.241 -1.7277  0.2867  2.8576
 5650SOL     OW28411   3.886   1.911   2.191 -0.3401  0.0787 -0.2351
 5650SOL    HW128412   3.800   1.930   2.229 -1.8063 -1.3710 -2.8221
 5650SOL    HW228413   3.872   1.927   2.098  0.1678 -0.7865 -0.4564
 5651SOL     OW28414   3.446   3.499   5.204 -0.9029 -0.1448 -0.7261
 5651SOL    HW128415   3.362   3.544   5.204 -0.7611  0.1214 -0.6144
 5651SOL    HW228416   3.505   3.571   5.183 -0.1126 -1.1445 -1.9703
 5652SOL     OW28417   3.003   0.497  12.821 -0.1181 -0.1828 -0.8807
 5652SOL    HW128418   3.074   0.520  12.762  0.7753 -0.8444 -0.0676
 5652SOL    HW228419   2.979   0.575  12.871  1.3928  1.9742 -3.5607
 5653SOL     OW28420   0.934   4.134   4.985  0.2956 -0.2105  0.0531
 5653SOL    HW128421   1.020   4.125   5.026  0.1707 -1.0694  0.1226
 5653SOL    HW228422   0.914   4.050   4.943  0.5574 -0.6184  0.7378
 5654SOL     OW28423   0.842   4.133   8.609 -0.1071  0.2487  0.3357
 5654SOL    HW128424   0.766   4.188   8.593  1.1192  1.3353 -1.6018
 5654SOL    HW228425   0.912   4.198   8.612 -0.4532  0.7307 -2.9625
 5655SOL     OW28426   2.867   1.460   7.492 -0.0369  0.1449  0.9387
 5655SOL    HW128427   2.861   1.369   7.462 -1.1542 -0.2881  2.4605
 5655SOL    HW228428   2.792   1.502   7.449  0.3586  0.7302  0.8252
 5656SOL     OW28429   1.664   4.078   0.809 -0.4426 -0.0778 -0.3595
 5656SOL    HW128430   1.701   4.154   0.856  1.7366 -1.7728  0.6804
 5656SOL    HW228431   1.654   4.011   0.876  2.3991  0.9242  1.0749
 5657SOL     OW28432   4.108   1.953   2.655 -0.3920 -0.0243 -0.0749
 5657SOL    HW128433   4.024   1.994   2.675 -1.0806 -1.1531 -0.6620
 5657SOL    HW228434   4.073   1.886   2.596  0.4814  0.1273 -0.7687
 5658SOL     OW28435   1.367   1.711   7.049  0.3129 -0.0646 -0.0262
 5658SOL    HW128436   1.281   1.744   7.021  0.1966 -0.4420 -0.1249
 5658SOL    HW228437   1.380   1.788   7.104 -0.3356  0.3738 -0.4889
 5659SOL     OW28438   2.884   0.201  15.106 -0.2848  0.1986 -0.0570
 5659SOL    HW128439   2.867   0.114  15.071  0.5524  0.7214 -1.7836
 5659SOL    HW228440   2.934   0.239  15.033 -0.7491  0.0867 -0.4361
 5660SOL     OW28441   2.866   1.027   2.678 -0.0927  0.0294  0.0914
 5660SOL    HW128442   2.881   1.081   2.755 -1.2732 -0.6751  0.8145
 5660SOL    HW228443   2.928   0.955   2.687 -1.0888 -0.9771 -1.0429
 5661SOL     OW28444   1.772   2.738   1.157  0.2808 -0.2699 -0.1789
 5661SOL    HW128445   1.777   2.808   1.221 -0.6683  0.2745 -0.7022
 5661SOL    HW228446   1.740   2.785   1.080  1.5424 -0.6760 -0.9531
 5662SOL     OW28447   4.718   0.334   2.539  0.3736 -0.2527 -0.5360
 5662SOL    HW128448   4.652   0.271   2.570 -1.0132  1.9986  1.0730
 5662SOL    HW228449   4.658   0.407   2.545 -0.7537 -1.4261  2.4350
 5663SOL     OW28450   4.436   0.550   0.705 -0.4720  0.7777 -0.0085
 5663SOL    HW128451   4.384   0.622   0.668  1.4933  1.3568 -1.7045
 5663SOL    HW228452   4.372   0.484   0.681 -0.6076  0.3184  1.6253
 5664SOL     OW28453   2.725   2.683   3.814 -0.0215  0.1022  0.2728
 5664SOL    HW128454   2.731   2.669   3.908 -1.9197 -0.1690  0.3497
 5664SOL    HW228455   2.776   2.607   3.783  0.2619  0.4631 -0.1570
 5665SOL     OW28456   3.725   1.913   8.564 -0.6445 -0.9543  0.6487
 5665SOL    HW128457   3.779   1.992   8.567 -0.7489 -0.8106 -1.0897
 5665SOL    HW228458   3.778   1.840   8.596  0.9743  0.4096  1.0787
 5666SOL     OW28459   1.197   0.017   7.939  0.5841  0.3054  0.0193
 5666SOL    HW128460   1.131   0.050   7.878 -0.1966  0.6890  1.0812
 5666SOL    HW228461   1.208   4.652   7.901 -0.6049  1.0257 -2.0136
 5667SOL     OW28462   2.661   3.432  13.811  0.1700  0.3347  0.4649
 5667SOL    HW128463   2.572   3.462  13.795 -0.3005 -1.6319 -0.5237
 5667SOL    HW228464   2.643   3.353  13.861 -0.6870  1.9965  2.8049
 5668SOL     OW28465   3.321   0.723   0.428  0.3628  0.4221 -0.1361
 5668SOL    HW128466   3.316   0.651   0.490 -0.3242  1.2101  0.7321
 5668SOL    HW228467   3.293   0.797   0.482 -0.2342  1.9723 -2.5834
 5669SOL     OW28468   2.932   4.206   6.952 -0.7520  1.0562  0.2820
 5669SOL    HW128469   3.010   4.252   6.983  1.3147 -1.0964 -1.6515
 5669SOL    HW228470   2.868   4.276   6.959  0.2102  1.7060  2.4357
 5670SOL     OW28471   3.255   1.765   2.370 -0.1916  0.1742  0.2601
 5670SOL    HW128472   3.342   1.734   2.395  0.1471 -0.5118 -1.7403
 5670SOL    HW228473   3.224   1.683   2.331 -0.3502  0.0646  0.6137
 5671SOL     OW28474   2.108   3.206   3.392 -0.0167  0.0160 -0.0659
 5671SOL    HW128475   2.163   3.185   3.467  0.0109  1.8063  0.4203
 5671SOL    HW228476   2.038   3.142   3.406 -2.0461  2.5026  1.2314
 5672SOL     OW28477   4.182   1.919   9.349 -0.6368  0.0613  0.3029
 5672SOL    HW128478   4.211   2.010   9.339 -2.6948  0.6394 -0.4001
 5672SOL    HW228479   4.096   1.935   9.386 -0.8689  0.2552 -0.3174
 5673SOL     OW28480   1.886   1.536  11.916  0.7095  0.7604  0.1895
 5673SOL    HW128481   1.869   1.443  11.926 -1.8023  1.4088  2.0932
 5673SOL    HW228482   1.794   1.558  11.902 -0.0523 -2.0230  1.0009
 5674SOL     OW28483   4.459   4.425   9.478 -0.1450  0.2163 -0.2813
 5674SOL    HW128484   4.487   4.430   9.570  0.8583  0.0085 -0.5760
 5674SOL    HW228485   4.416   4.511   9.483 -0.9795 -0.1481 -1.2102
 5675SOL     OW28486   3.799   0.359   9.100  0.0454  0.2519  0.5763
 5675SOL    HW128487   3.820   0.277   9.055  1.6027  0.7581  0.3926
 5675SOL    HW228488   3.703   0.361   9.092  0.3574  1.6438 -2.6674
 5676SOL     OW28489   4.057   1.495   0.666 -0.4470 -0.2784  0.3778
 5676SOL    HW128490   4.148   1.518   0.682 -1.0148  2.1366  0.0414
 5676SOL    HW228491   4.061   1.399   0.656  1.1288 -0.1591 -0.0572
 5677SOL     OW28492   1.657   4.219   9.256 -0.7888 -0.3477  0.2377
 5677SOL    HW128493   1.732   4.169   9.286  0.0556 -0.8992 -2.7486
 5677SOL    HW228494   1.689   4.307   9.274 -1.0260 -0.6011  1.8607
 5678SOL     OW28495   3.750   0.534   5.462  0.2561 -0.0111 -0.1525
 5678SOL    HW128496   3.671   0.482   5.448  0.0958 -0.2027  1.4939
 5678SOL    HW228497   3.748   0.546   5.556 -1.1213  0.5401 -0.2620
 5679SOL     OW28498   2.902   2.150   5.456 -0.7469  0.5565 -0.1328
 5679SOL    HW128499   2.883   2.100   5.536  0.0681  2.9437  1.5400
 5679SOL    HW228500   2.838   2.125   5.390  1.0648 -0.5692 -1.4841
 5680SOL     OW28501   3.021   2.455   7.246 -0.1590  0.1601  0.4688
 5680SOL    HW128502   3.105   2.494   7.267  0.1618 -0.3550  0.1438
 5680SOL    HW228503   3.052   2.369   7.218 -2.1768  0.2103 -1.8888
 5681SOL     OW28504   4.271   4.024  15.035 -0.1533  0.3056  0.0667
 5681SOL    HW128505   4.228   4.059  15.113  1.5945  1.5631  0.4964
 5681SOL    HW228506   4.234   4.089  14.976  1.0172  0.7502 -0.1889
 5682SOL     OW28507   0.779   0.329  17.605  0.5848  0.5627 -0.0899
 5682SOL    HW128508   0.729   0.349  17.684 -0.1918  0.3519 -0.5279
 5682SOL    HW228509   0.825   0.413  17.606 -1.4545  1.7014 -1.6912
 5683SOL     OW28510   3.625   0.906   1.113 -0.2599 -0.2480  0.0777
 5683SOL    HW128511   3.715   0.883   1.135 -0.2070  0.9953  1.1515
 5683SOL    HW228512   3.599   0.934   1.200 -2.1740 -0.0282 -0.5575
 5684SOL     OW28513   0.217   0.195   6.926 -0.5589 -0.7416 -0.0556
 5684SOL    HW128514   0.166   0.259   6.875  2.8881  0.6593 -1.7743
 5684SOL    HW228515   0.262   0.261   6.979 -1.3982 -0.3583  0.1907
 5685SOL     OW28516   4.668   2.888   7.480 -0.2271 -0.8516  0.2168
 5685SOL    HW128517   4.706   2.969   7.515 -0.5856 -0.3815 -0.4587
 5685SOL    HW228518   0.016   2.828   7.503  1.0766  0.5128 -0.2090
 5686SOL     OW28519   1.599   0.051   5.726  0.1023  0.0367  0.6448
 5686SOL    HW128520   1.615   0.109   5.652  0.8804 -0.4917  0.4032
 5686SOL    HW228521   1.581   4.696   5.673  2.6693 -1.5032  2.0090
 5687SOL     OW28522   3.156   4.709   6.129  0.4133 -0.0201 -0.2541
 5687SOL    HW128523   3.144   4.707   6.034 -1.0095  1.0244 -0.0933
 5687SOL    HW228524   3.071   0.017   6.162 -0.0526  0.4249 -1.8584
 5688SOL     OW28525   1.432   0.761   2.317  0.5803  0.1217  0.5909
 5688SOL    HW128526   1.442   0.705   2.393  0.8819  0.2505  0.6455
 5688SOL    HW228527   1.344   0.735   2.291  0.4790  2.0220 -1.0268
 5689SOL     OW28528   2.322   2.668   4.517 -0.1472 -0.0082 -0.2655
 5689SOL    HW128529   2.252   2.603   4.523  0.7428 -0.8679  0.7220
 5689SOL    HW228530   2.367   2.641   4.597 -0.7343 -0.6708 -0.1617
 5690SOL     OW28531   0.762   3.146   3.635  0.3080  0.2127 -0.2136
 5690SOL    HW128532   0.690   3.094   3.670 -0.0525  2.2479  2.0923
 5690SOL    HW228533   0.808   3.082   3.580 -1.4802 -0.9797 -0.3237
 5691SOL     OW28534   1.608   2.223  16.186 -0.5018  0.2937 -0.5671
 5691SOL    HW128535   1.549   2.251  16.116 -2.3447  0.9911  1.2439
 5691SOL    HW228536   1.684   2.272  16.157 -0.2108  0.7766  0.9819
 5692SOL     OW28537   0.953   3.844  14.052  0.0538 -0.9209  0.0730
 5692SOL    HW128538   0.868   3.805  14.070 -1.3478  1.4967 -1.1862
 5692SOL    HW228539   0.985   3.780  13.988 -2.1148  0.7158 -2.6985
 5693SOL     OW28540   0.849   0.070  17.644 -0.3706  0.1922 -0.7290
 5693SOL    HW128541   0.765   0.036  17.673 -0.6123  2.3221  1.0470
 5693SOL    HW228542   0.835   0.165  17.636 -0.1599  0.3275  0.5509
 5694SOL     OW28543   1.747   3.034   4.917  0.4835 -0.0905 -0.1038
 5694SOL    HW128544   1.757   3.116   4.966  0.4880 -0.1218 -0.0526
 5694SOL    HW228545   1.815   3.046   4.850  0.1687  2.0286 -0.0539
 5695SOL     OW28546   3.478   4.444   8.756 -0.1228 -0.1055  0.2623
 5695SOL    HW128547   3.530   4.365   8.772 -0.1589 -0.9749 -3.9544
 5695SOL    HW228548   3.426   4.400   8.689  1.9121  0.5821 -1.7703
 5696SOL     OW28549   0.411   1.856   4.923  0.1779  0.1689  0.1265
 5696SOL    HW128550   0.394   1.939   4.966 -2.9544 -0.5771  0.2952
 5696SOL    HW228551   0.358   1.797   4.976  0.5038  0.5155  0.8368
 5697SOL     OW28552   1.722   1.100   8.022  0.3675  0.6093 -0.6131
 5697SOL    HW128553   1.627   1.087   8.026  0.4539  1.2583  2.9697
 5697SOL    HW228554   1.760   1.021   8.060  1.0168  0.0362 -2.4195
 5698SOL     OW28555   4.125   1.243   6.037 -0.6727 -0.4680 -0.4959
 5698SOL    HW128556   4.107   1.289   6.120  2.1549 -0.3857  0.0621
 5698SOL    HW228557   4.088   1.155   6.045 -3.5047  0.7167 -0.3284
 5699SOL     OW28558   1.960   1.819   2.543 -0.2308  0.5332 -0.6787
 5699SOL    HW128559   1.899   1.747   2.561  0.0072  0.3007 -0.8045
 5699SOL    HW228560   1.892   1.872   2.502 -0.9914  0.7150  0.8373
 5700SOL     OW28561   2.047   3.786  13.894 -0.0002 -0.2847  0.2555
 5700SOL    HW128562   2.021   3.727  13.965  0.5450  1.7577  2.1725
 5700SOL    HW228563   2.038   3.868  13.942  1.5217 -0.7588  1.3521
 5701SOL     OW28564   1.313   1.971  11.630  0.0033 -0.1747 -0.7538
 5701SOL    HW128565   1.398   1.953  11.671 -1.2925 -0.7596  1.6979
 5701SOL    HW228566   1.284   1.880  11.634  0.5674 -0.3771 -1.3358
 5702SOL     OW28567   2.107   1.258   3.693 -0.2286 -0.2040  0.2050
 5702SOL    HW128568   2.049   1.334   3.700 -1.5357 -0.9533 -2.5337
 5702SOL    HW228569   2.049   1.203   3.641 -1.2934 -1.6839  3.0362
 5703SOL     OW28570   1.806   0.684  10.400 -0.2698  0.5382  0.2692
 5703SOL    HW128571   1.775   0.735  10.475  1.2174 -0.5940  1.6444
 5703SOL    HW228572   1.755   0.604  10.407 -2.7003  2.1710  1.1876
 5704SOL     OW28573   1.090   2.038   4.369 -0.8034 -0.5134 -0.0740
 5704SOL    HW128574   1.126   2.119   4.330 -2.4629  0.2683  0.0245
 5704SOL    HW228575   1.125   1.967   4.315 -0.2473  0.4527 -1.0125
 5705SOL     OW28576   4.608   1.913   2.560 -0.3814 -0.2306 -0.3528
 5705SOL    HW128577   4.555   1.955   2.492 -1.7600  0.1814  0.9884
 5705SOL    HW228578   4.558   1.836   2.588 -1.0734 -0.1016 -1.2378
 5706SOL     OW28579   3.159   4.513   5.207  0.3915  0.1135 -0.0195
 5706SOL    HW128580   3.188   4.465   5.130  0.9307 -1.1496  0.9659
 5706SOL    HW228581   3.164   4.445   5.274  2.6535  0.2187 -0.0933
 5707SOL     OW28582   3.028   2.929  14.257  0.4259 -0.1132  0.0668
 5707SOL    HW128583   3.096   2.900  14.198 -0.7258  0.3802 -1.5058
 5707SOL    HW228584   3.034   2.855  14.318 -1.3659 -2.1073 -2.1919
 5708SOL     OW28585   1.290   0.700   3.680  0.3588  0.3058 -0.1688
 5708SOL    HW128586   1.195   0.695   3.670  0.6954 -2.6371 -1.9326
 5708SOL    HW228587   1.301   0.772   3.741  1.3682  1.3096 -1.5232
 5709SOL     OW28588   3.159   0.365  14.145  0.3847 -0.7386  0.5338
 5709SOL    HW128589   3.125   0.444  14.103  0.7004 -0.5074  0.7151
 5709SOL    HW228590   3.249   0.387  14.168  0.3437 -0.6561  0.6166
 5710SOL     OW28591   0.474   0.837   0.463  0.4906  0.3982 -1.1181
 5710SOL    HW128592   0.440   0.809   0.547  2.6223  1.3192  0.0618
 5710SOL    HW228593   0.569   0.841   0.480 -0.0724 -3.8924  2.9192
 5711SOL     OW28594   2.970   1.841   4.848  0.3546 -0.4815  0.1655
 5711SOL    HW128595   2.957   1.746   4.840  0.7594 -0.4526 -0.7467
 5711SOL    HW228596   3.001   1.875   4.765 -1.0782 -1.2267 -0.6749
 5712SOL     OW28597   2.933   2.616   8.074  0.0757  0.2926  0.4373
 5712SOL    HW128598   2.985   2.545   8.112  1.6826  1.0434 -0.3950
 5712SOL    HW228599   2.893   2.571   8.000  0.6117 -2.0390  1.5849
 5713SOL     OW28600   0.023   2.779   2.185 -0.1266  0.3633  0.1630
 5713SOL    HW128601   0.005   2.701   2.131 -0.9941  0.7474 -0.1098
 5713SOL    HW228602   4.658   2.818   2.177 -0.8411 -1.3403 -0.4588
 5714SOL     OW28603   3.778   1.295  15.320 -0.5198  0.1969  0.2386
 5714SOL    HW128604   3.751   1.292  15.228 -1.1602  0.9092  0.4085
 5714SOL    HW228605   3.715   1.358  15.354 -0.3776  1.2071 -1.3563
 5715SOL     OW28606   2.733   0.928   6.783  0.4384 -0.3119 -0.5358
 5715SOL    HW128607   2.671   0.999   6.801  0.4760 -0.6060  0.7655
 5715SOL    HW228608   2.685   0.849   6.806 -0.5476  0.3441 -0.3111
 5716SOL     OW28609   3.056   1.702   4.174  0.2435 -0.0133 -0.5394
 5716SOL    HW128610   3.143   1.741   4.185  0.3236 -0.7970  1.6866
 5716SOL    HW228611   3.036   1.657   4.257  0.5487  3.1217  1.2123
 5717SOL     OW28612   2.756   2.167   8.197 -0.4809 -0.1025  0.0869
 5717SOL    HW128613   2.803   2.091   8.232  0.3817  1.4500  2.2578
 5717SOL    HW228614   2.759   2.220   8.276 -0.0409  2.3795 -1.6130
 5718SOL     OW28615   2.544   0.946   5.837 -0.2078  0.3548  0.0924
 5718SOL    HW128616   2.521   0.978   5.750 -0.4517  1.6258  0.6328
 5718SOL    HW228617   2.632   0.979   5.854  0.4820 -1.6934  0.4960
 5719SOL     OW28618   4.055   0.062   7.193  0.0114  0.1735  0.0478
 5719SOL    HW128619   3.977   0.017   7.162  0.2970 -1.4030  1.6023
 5719SOL    HW228620   4.105   0.003   7.250 -0.3430 -0.2998 -0.1299
 5720SOL     OW28621   0.715   3.729  12.633  0.4815 -0.4156  0.3470
 5720SOL    HW128622   0.801   3.722  12.591  1.0981 -0.0286  1.5648
 5720SOL    HW228623   0.681   3.794  12.570  0.3354 -1.3095 -0.4934
 5721SOL     OW28624   2.643   1.903   5.960  0.0011  0.3995 -0.1748
 5721SOL    HW128625   2.699   1.950   6.021  1.6600  0.1837 -1.5478
 5721SOL    HW228626   2.616   1.961   5.889  0.1498  0.6543 -0.0236
 5722SOL     OW28627   2.254   0.187   7.453  0.2934  0.3560 -0.3530
 5722SOL    HW128628   2.298   0.267   7.482  1.1176  0.1471 -1.0399
 5722SOL    HW228629   2.165   0.203   7.485  1.1155  0.3546  1.9476
 5723SOL     OW28630   1.948   3.148   4.752 -0.6059 -0.1341 -0.5012
 5723SOL    HW128631   2.034   3.108   4.735 -1.1565 -1.5635  0.0129
 5723SOL    HW228632   1.959   3.214   4.683 -0.4123  0.6465  0.2882
 5724SOL     OW28633   3.644   3.960  17.283 -0.1488 -0.3331 -0.1658
 5724SOL    HW128634   3.619   3.907  17.359 -1.2244  1.6427  0.8688
 5724SOL    HW228635   3.675   4.043  17.319 -0.5114  0.0839 -0.8139
 5725SOL     OW28636   4.678   3.195  17.635 -0.1189 -0.3567 -0.1868
 5725SOL    HW128637   4.641   3.139   0.012  0.4994 -0.6380 -0.0768
 5725SOL    HW228638   4.680   3.138  17.558  0.6616  2.1071 -1.9909
 5726SOL     OW28639   2.190   3.836   8.275  0.1675  0.0743 -0.4400
 5726SOL    HW128640   2.207   3.786   8.195  3.0150 -0.3745  0.4200
 5726SOL    HW228641   2.257   3.804   8.336  0.9420  0.2553 -1.1800
 5727SOL     OW28642   2.733   2.930  11.955 -0.3652 -0.8017 -0.0153
 5727SOL    HW128643   2.642   2.951  11.935 -0.2179 -1.4161 -1.3017
 5727SOL    HW228644   2.739   2.938  12.051 -1.0286 -0.4696 -0.0031
 5728SOL     OW28645   3.853   0.407   9.405  0.3126 -0.2006  0.2724
 5728SOL    HW128646   3.827   0.442   9.320 -1.4651  0.8341  1.2366
 5728SOL    HW228647   3.909   0.334   9.381  0.1266  0.2484 -1.4813
 5729SOL     OW28648   4.442   0.823   7.187  0.5864  0.2060 -0.5556
 5729SOL    HW128649   4.472   0.882   7.118 -1.2470 -0.9881 -2.3813
 5729SOL    HW228650   4.454   0.878   7.264  5.3585  0.1143 -1.2322
 5730SOL     OW28651   0.893   3.225  15.384  0.0453  0.1088  0.3630
 5730SOL    HW128652   0.885   3.208  15.478 -3.6747  0.6907  0.1259
 5730SOL    HW228653   0.974   3.276  15.386 -0.8188  1.4027  1.8789
 5731SOL     OW28654   0.108   4.055  11.275  0.0992  0.3393 -0.0031
 5731SOL    HW128655   0.098   4.133  11.330  1.4510  0.7465 -0.3128
 5731SOL    HW228656   0.071   3.988  11.333 -2.0809  1.5985  0.0633
 5732SOL     OW28657   1.132   2.640   1.290 -0.3371 -0.4765  0.1509
 5732SOL    HW128658   1.158   2.550   1.273 -1.4697 -1.0542  1.4286
 5732SOL    HW228659   1.041   2.645   1.259 -1.3663  0.9667  3.3673
 5733SOL     OW28660   2.140   0.855   3.175 -0.3458 -0.5582 -0.2534
 5733SOL    HW128661   2.201   0.786   3.146 -0.8023 -0.6249 -1.0492
 5733SOL    HW228662   2.107   0.879   3.089  2.3531 -0.5156 -1.2776
 5734SOL     OW28663   0.377   0.480   3.097  0.3615  0.1818  0.2183
 5734SOL    HW128664   0.455   0.425   3.104  1.2321  1.5176  0.9947
 5734SOL    HW228665   0.413   0.564   3.069 -2.3268  1.8292  1.6610
 5735SOL     OW28666   1.834   0.639   7.490 -0.1025  0.4020 -0.3338
 5735SOL    HW128667   1.923   0.603   7.486 -0.6123 -0.9015  0.1012
 5735SOL    HW228668   1.850   0.683   7.574  2.0720 -0.0334 -0.5110
 5736SOL     OW28669   3.375   3.395   2.519  0.0875 -0.3849  0.0151
 5736SOL    HW128670   3.317   3.400   2.594 -0.0888  1.8026 -0.2489
 5736SOL    HW228671   3.342   3.468   2.467  0.1734 -1.0934 -1.0321
 5737SOL     OW28672   1.430   2.507   9.902  0.3695  0.2248 -0.1702
 5737SOL    HW128673   1.340   2.529   9.926  0.5704  2.4768 -1.4659
 5737SOL    HW228674   1.488   2.572   9.942 -0.9336  2.3151 -1.6457
 5738SOL     OW28675   1.455   3.122   3.764  0.0645 -0.1832 -0.0733
 5738SOL    HW128676   1.431   3.040   3.806  0.8537  0.4840  1.6888
 5738SOL    HW228677   1.452   3.108   3.669  3.0427 -2.2111  0.1030
 5739SOL     OW28678   0.299   1.970   1.571 -0.4797 -0.0599  0.0897
 5739SOL    HW128679   0.362   1.927   1.630 -0.3233 -2.0692 -1.5355
 5739SOL    HW228680   0.253   1.892   1.541 -0.6499  0.6200 -1.3942
 5740SOL     OW28681   1.607   4.625   3.930 -0.0737  0.3858  0.0063
 5740SOL    HW128682   1.573   4.601   4.016  1.8778 -1.5640  0.2236
 5740SOL    HW228683   1.699   4.600   3.929 -1.2203 -3.7780 -1.9854
 5741SOL     OW28684   3.013   2.894   8.003 -0.2233 -0.4236 -0.4688
 5741SOL    HW128685   3.042   2.934   8.085  0.2306 -1.0863 -0.3049
 5741SOL    HW228686   3.008   2.800   8.021  0.9495 -0.3997 -0.0199
 5742SOL     OW28687   4.037   1.368   2.880 -0.1432 -0.1847  0.1210
 5742SOL    HW128688   3.974   1.334   2.817 -0.0724 -1.6736  0.8492
 5742SOL    HW228689   4.098   1.425   2.832 -1.6630  0.8882 -0.5404
 5743SOL     OW28690   1.278   4.706   5.515  0.3638 -0.2030  0.4005
 5743SOL    HW128691   1.276   4.636   5.580 -2.7788 -0.1509  0.3733
 5743SOL    HW228692   1.226   4.668   5.444  0.4997 -2.5667  1.5631
 5744SOL     OW28693   3.376   3.572   8.184 -0.0077 -0.7738 -0.1966
 5744SOL    HW128694   3.450   3.524   8.146  0.4607 -0.5126  0.3860
 5744SOL    HW228695   3.315   3.498   8.175 -1.4256  0.5753 -1.6676
 5745SOL     OW28696   1.230   3.750   1.001 -0.0715  0.0499 -0.6227
 5745SOL    HW128697   1.249   3.759   1.095 -0.9061  1.9455 -0.6405
 5745SOL    HW228698   1.243   3.842   0.978  0.6757  0.2928  0.7587
 5746SOL     OW28699   0.528   1.518   8.975  0.1208  0.5220  0.1004
 5746SOL    HW128700   0.434   1.522   8.958  0.3793  0.4535 -1.3626
 5746SOL    HW228701   0.534   1.540   9.068  1.0770 -1.1486  0.4467
 5747SOL     OW28702   0.992   3.785   7.003 -0.1161 -0.6700  0.0082
 5747SOL    HW128703   1.007   3.760   7.094 -0.0823 -0.5548  0.0342
 5747SOL    HW228704   0.953   3.703   6.972 -1.6257 -0.3851  1.1542
 5748SOL     OW28705   3.093   2.229   6.780  0.5930  0.2399  0.4176
 5748SOL    HW128706   3.118   2.321   6.787  0.0748  0.2921  1.5752
 5748SOL    HW228707   3.182   2.195   6.788  0.6036 -0.1596 -1.4464
 5749SOL     OW28708   2.045   1.689   8.342  0.3981  0.2526 -0.8856
 5749SOL    HW128709   1.994   1.637   8.404  0.9849  2.2843  1.2716
 5749SOL    HW228710   2.136   1.666   8.361  0.6421  1.3942 -0.6950
 5750SOL     OW28711   1.352   3.368  12.786  1.0897 -0.7167  0.2536
 5750SOL    HW128712   1.367   3.278  12.755  0.1146 -1.0458  0.7572
 5750SOL    HW228713   1.390   3.414  12.711 -1.7695 -2.0402 -2.0020
 5751SOL     OW28714   2.629   0.858  14.528  0.1713  0.1447  0.2788
 5751SOL    HW128715   2.533   0.856  14.522  0.1635 -2.0405  1.3987
 5751SOL    HW228716   2.640   0.940  14.479  5.0030 -0.7664 -0.1077
 5752SOL     OW28717   4.094   2.120  16.458  0.3909 -0.4972 -0.1151
 5752SOL    HW128718   4.150   2.163  16.523  0.2472  0.3938 -0.5747
 5752SOL    HW228719   4.140   2.038  16.447 -1.4616 -1.3319 -1.6398
 5753SOL     OW28720   2.804   1.513   0.244  0.2798  0.5267  0.1808
 5753SOL    HW128721   2.875   1.460   0.208 -0.1482  0.5026 -0.6164
 5753SOL    HW228722   2.806   1.488   0.336  0.1009  1.8246  0.5326
 5754SOL     OW28723   3.309   3.230   8.985  0.0360  0.3124 -0.1145
 5754SOL    HW128724   3.329   3.315   8.947 -0.0952  0.2426 -0.3445
 5754SOL    HW228725   3.214   3.243   8.987  0.1360  1.2327 -1.4656
 5755SOL     OW28726   3.204   2.903  16.178 -0.2262 -0.2332 -0.1768
 5755SOL    HW128727   3.150   2.841  16.129  1.1148 -1.3609 -0.2511
 5755SOL    HW228728   3.275   2.845  16.206 -0.2666 -0.3662 -0.3480
 5756SOL     OW28729   2.855   3.742   4.646 -0.1157 -0.3591 -0.1148
 5756SOL    HW128730   2.773   3.782   4.674 -2.0627 -1.3071 -4.5571
 5756SOL    HW228731   2.844   3.660   4.695  2.1439  0.5306  1.9121
 5757SOL     OW28732   1.913   0.753   6.016 -0.1978  0.0337 -0.2175
 5757SOL    HW128733   1.830   0.744   5.970 -1.5359 -2.4736  2.6506
 5757SOL    HW228734   1.899   0.833   6.065 -2.3135 -0.9907  0.8810
 5758SOL     OW28735   3.835   2.805   5.749  0.7171 -0.6141 -0.3229
 5758SOL    HW128736   3.926   2.773   5.747  0.4875 -1.1813 -1.5545
 5758SOL    HW228737   3.797   2.735   5.803  0.6603 -0.8173 -0.6278
 5759SOL     OW28738   2.577   1.434   7.949  0.2496 -0.6560 -0.2752
 5759SOL    HW128739   2.653   1.418   7.893  0.0515  0.0565 -0.7367
 5759SOL    HW228740   2.499   1.400   7.905  2.0758 -0.3248 -3.7606
 5760SOL     OW28741   2.318   0.529   2.301  0.0913 -0.5109 -0.0792
 5760SOL    HW128742   2.331   0.436   2.317 -1.2492 -0.5445  0.8274
 5760SOL    HW228743   2.409   0.554   2.283 -0.0818  1.2592  1.5148
 5761SOL     OW28744   2.774   1.379   4.967  0.1466 -0.8667  0.3721
 5761SOL    HW128745   2.821   1.463   4.973 -0.0301 -0.7717  0.4450
 5761SOL    HW228746   2.685   1.412   4.952  0.9829  0.6857 -1.2523
 5762SOL     OW28747   1.469   2.323  17.101 -0.2269 -0.1173 -0.1850
 5762SOL    HW128748   1.563   2.337  17.092  0.0431 -1.0788  1.1643
 5762SOL    HW228749   1.444   2.241  17.057  0.5053 -0.2311 -0.3871
 5763SOL     OW28750   1.399   0.813   3.440 -0.4720 -0.8150  0.2460
 5763SOL    HW128751   1.339   0.762   3.385  0.3711 -1.2574 -0.2696
 5763SOL    HW228752   1.358   0.807   3.527  0.7267  2.4442  1.0160
 5764SOL     OW28753   2.195   3.637   5.640  0.4015  0.4834 -0.3696
 5764SOL    HW128754   2.232   3.592   5.564 -0.9885 -0.8189 -0.2658
 5764SOL    HW228755   2.241   3.589   5.708  2.3610  0.6321 -1.5736
 5765SOL     OW28756   2.593   3.931   8.921 -0.6212 -0.3749 -0.1793
 5765SOL    HW128757   2.652   3.917   8.848 -1.6682 -0.4140 -1.0148
 5765SOL    HW228758   2.509   3.949   8.879  0.4409 -3.0696 -3.4005
 5766SOL     OW28759   1.513   2.396   5.986  0.6385  0.0821 -0.0115
 5766SOL    HW128760   1.419   2.389   5.967  0.8193  0.5354 -1.0398
 5766SOL    HW228761   1.536   2.305   5.966 -0.3583  0.5537 -3.2457
 5767SOL     OW28762   4.362   4.670   8.853 -0.2513  0.4166 -0.1392
 5767SOL    HW128763   4.448   4.639   8.826 -0.5525 -0.9022  0.4331
 5767SOL    HW228764   4.356   0.041   8.830 -0.4128  0.4559  0.0579
 5768SOL     OW28765   0.871   2.690   8.289  0.5535  0.1790 -0.3747
 5768SOL    HW128766   0.851   2.668   8.380 -1.0697 -2.0164 -1.2422
 5768SOL    HW228767   0.892   2.783   8.294  1.8525  0.0763 -3.3659
 5769SOL     OW28768   0.071   2.341   7.999  0.4883 -0.0162 -0.2302
 5769SOL    HW128769   0.044   2.370   8.087  2.6225  0.0368  0.4096
 5769SOL    HW228770   0.165   2.352   8.012  0.0658  3.8476 -0.4680
 5770SOL     OW28771   0.614   4.445   5.528 -0.1005 -0.3639 -0.3189
 5770SOL    HW128772   0.571   4.483   5.451 -2.6200 -2.4532  0.0791
 5770SOL    HW228773   0.548   4.466   5.594  0.6098 -2.2726  0.9956
 5771SOL     OW28774   2.912   3.334   7.605  0.0725  0.0079 -0.5949
 5771SOL    HW128775   2.925   3.427   7.587 -0.1691  0.0855 -0.3794
 5771SOL    HW228776   2.990   3.294   7.568 -0.3644 -0.5084 -0.9474
 5772SOL     OW28777   1.047   2.006  13.100  0.9685 -0.2460  0.1447
 5772SOL    HW128778   0.969   1.990  13.047 -0.5964  0.3696  2.2788
 5772SOL    HW228779   1.120   1.949  13.077  0.7561 -0.9080  1.1107
 5773SOL     OW28780   2.033   0.616   2.263  0.3037 -0.3615 -0.3240
 5773SOL    HW128781   1.975   0.626   2.339 -1.7100 -2.5858 -1.5801
 5773SOL    HW228782   2.115   0.592   2.307  0.8771  1.5146 -0.3678
 5774SOL     OW28783   4.032   0.791  17.081  0.2179  0.0553 -0.0562
 5774SOL    HW128784   3.960   0.732  17.061 -0.9166  0.8469  1.7439
 5774SOL    HW228785   3.992   0.815  17.164  2.0209  2.9013 -0.0043
 5775SOL     OW28786   0.829   4.323   9.601  0.1572 -0.0005  0.0925
 5775SOL    HW128787   0.855   4.413   9.583 -0.5644  0.7684  2.8172
 5775SOL    HW228788   0.812   4.302   9.509 -0.7821  2.6224 -0.3117
 5776SOL     OW28789   4.669   1.748   3.013  0.4002 -0.7200 -0.0077
 5776SOL    HW128790   4.671   1.780   3.104 -0.9783  1.5874 -0.7829
 5776SOL    HW228791   4.616   1.668   3.023 -1.0975  0.2167 -0.4186
 5777SOL     OW28792   4.157   2.494   5.831 -0.8266  0.2590  0.2147
 5777SOL    HW128793   4.084   2.470   5.887 -1.8828  0.1761 -1.1956
 5777SOL    HW228794   4.108   2.573   5.806  0.6053  1.7728  2.1974
 5778SOL     OW28795   0.335   4.446   3.150  0.3894  0.5072  0.4284
 5778SOL    HW128796   0.317   4.436   3.243  0.7735 -0.6720  0.3718
 5778SOL    HW228797   0.426   4.475   3.152  0.5609 -0.0098 -0.0110
 5779SOL     OW28798   4.614   4.389   8.942 -1.1814 -0.2482 -0.4544
 5779SOL    HW128799   4.619   4.322   8.874  0.8309  1.3467 -1.8810
 5779SOL    HW228800   4.634   4.460   8.880 -2.3822  1.0150  0.6053
 5780SOL     OW28801   3.321   1.370   5.471  0.4549 -0.6000 -0.6645
 5780SOL    HW128802   3.344   1.333   5.556  2.0741 -1.7012 -1.5711
 5780SOL    HW228803   3.233   1.333   5.464  0.9003 -1.4250 -1.8957
 5781SOL     OW28804   2.182   3.212   2.710  0.2767  0.2359  0.8279
 5781SOL    HW128805   2.183   3.270   2.634 -0.6714 -1.0870 -0.1805
 5781SOL    HW228806   2.204   3.130   2.666  0.3109  1.8325 -2.1240
 5782SOL     OW28807   4.435   1.538   8.860  0.1687  0.7930  0.2320
 5782SOL    HW128808   4.370   1.467   8.861  0.1568  0.7591 -1.9173
 5782SOL    HW228809   4.377   1.613   8.874  0.9866  1.6753 -1.0914
 5783SOL     OW28810   2.103   2.978   8.310  0.2808  0.3910  0.4570
 5783SOL    HW128811   2.028   2.926   8.279  1.0747 -0.0544 -0.7253
 5783SOL    HW228812   2.099   2.971   8.405 -1.8471  0.8316  0.3995
 5784SOL     OW28813   0.570   0.959   4.503  0.3483  0.1855  0.2433
 5784SOL    HW128814   0.561   1.042   4.550 -1.0664 -0.3426  0.9241
 5784SOL    HW228815   0.515   0.979   4.428 -2.6196 -1.7349  1.8828
 5785SOL     OW28816   3.122   1.072   7.044 -0.3802 -0.1495  0.1177
 5785SOL    HW128817   3.107   1.100   6.954  2.7665  1.6929  0.1458
 5785SOL    HW228818   3.209   1.106   7.063 -0.5617 -0.8063  2.1068
 5786SOL     OW28819   0.544   0.314   8.332 -0.8989  0.1283  0.1199
 5786SOL    HW128820   0.614   0.342   8.272 -1.5949 -0.3987 -0.9457
 5786SOL    HW228821   0.468   0.352   8.288  0.3505  0.3459 -1.8707
 5787SOL     OW28822   4.450   0.872   0.363 -0.4221  0.0938 -0.3549
 5787SOL    HW128823   4.482   0.842   0.277 -0.7812  3.2010 -1.5918
 5787SOL    HW228824   4.409   0.957   0.343  1.4994  1.4250  1.2937
 5788SOL     OW28825   0.725   0.814   0.874 -0.3279  0.5393 -0.3898
 5788SOL    HW128826   0.726   0.814   0.969 -0.1237 -1.1851 -0.4063
 5788SOL    HW228827   0.780   0.738   0.856 -1.4590 -0.6855  1.4444
 5789SOL     OW28828   3.712   4.423   4.166 -0.0154  0.3972  0.1791
 5789SOL    HW128829   3.793   4.418   4.217  0.2115  0.6684 -0.1450
 5789SOL    HW228830   3.748   4.387   4.085 -4.5912 -0.0566 -1.6049
 5790SOL     OW28831   4.390   2.004   4.668  0.0517  0.3760  0.7111
 5790SOL    HW128832   4.348   2.076   4.621  0.3444 -0.1292 -0.3252
 5790SOL    HW228833   4.481   2.003   4.637 -0.3786 -0.1267 -0.5395
 5791SOL     OW28834   4.270   4.665  17.089  0.7406 -0.0665 -0.0902
 5791SOL    HW128835   4.208   4.628  17.027  1.7862 -1.0906 -0.5032
 5791SOL    HW228836   4.352   4.623  17.064  0.0746 -2.5132  1.8425
 5792SOL     OW28837   0.039   2.475  10.843 -0.1636  0.2645  0.1270
 5792SOL    HW128838   4.721   2.462  10.928  0.8165 -0.7859  0.4364
 5792SOL    HW228839   0.115   2.531  10.863 -0.6210  0.7812  0.4148
 5793SOL     OW28840   1.158   3.017   0.875  0.5114 -0.2887  0.2340
 5793SOL    HW128841   1.192   2.972   0.798  0.7663 -0.2629  0.3312
 5793SOL    HW228842   1.119   2.945   0.925  1.8100 -0.2122  1.3674
 5794SOL     OW28843   0.929   0.735   8.136 -0.5929 -0.2715  0.5838
 5794SOL    HW128844   0.942   0.824   8.104  3.4129 -1.9293 -2.2299
 5794SOL    HW228845   0.906   0.702   8.049 -0.2471  0.3026  0.2781
 5795SOL     OW28846   3.912   1.757   6.184  0.2476 -0.5652 -0.5671
 5795SOL    HW128847   3.819   1.740   6.168 -0.1475  1.4215 -0.4800
 5795SOL    HW228848   3.907   1.853   6.176  1.5531 -0.5727 -1.3813
 5796SOL     OW28849   0.043   4.122   5.182  0.4769 -0.3181  0.2866
 5796SOL    HW128850   0.090   4.202   5.207  0.2253  0.7327 -2.6731
 5796SOL    HW228851   0.019   4.096   5.271 -0.5803  2.3965  0.7846
 5797SOL     OW28852   3.115   1.251  14.872 -0.7514  0.2017  0.2386
 5797SOL    HW128853   3.167   1.330  14.886  0.2436 -0.7133  1.5802
 5797SOL    HW228854   3.179   1.182  14.860 -2.3200 -1.1375 -0.5188
 5798SOL     OW28855   0.168   0.265  13.956 -0.0917 -0.2903  0.1206
 5798SOL    HW128856   0.251   0.216  13.961  1.6149  2.6505  0.5417
 5798SOL    HW228857   0.189   0.338  14.014 -3.5613  0.9126 -0.1520
 5799SOL     OW28858   3.006   4.578   1.132  0.5498  0.1899  0.3439
 5799SOL    HW128859   3.037   4.623   1.211 -0.1022  1.7195 -0.2548
 5799SOL    HW228860   2.974   4.650   1.078 -2.1729 -1.6569 -0.4873
 5800SOL     OW28861   0.696   3.073   4.786 -0.3290  0.1235  0.3827
 5800SOL    HW128862   0.669   3.128   4.712 -0.6493 -0.1452  0.2985
 5800SOL    HW228863   0.624   3.009   4.784 -0.6575  0.4893  0.5508
 5801SOL     OW28864   3.061   0.690   6.805  0.1306  0.0540 -0.5106
 5801SOL    HW128865   3.061   0.747   6.881  0.4248  1.7337 -1.7816
 5801SOL    HW228866   3.121   0.731   6.743 -1.9963  2.3983 -1.0010
 5802SOL     OW28867   0.021   0.394   4.939 -0.2641  0.1868 -0.2704
 5802SOL    HW128868   0.095   0.454   4.944  0.6586 -1.0783  1.0655
 5802SOL    HW228869   4.681   0.447   4.990 -0.1401  1.5396 -1.5273
 5803SOL     OW28870   3.650   2.404   5.911  0.5612 -0.7213 -0.3221
 5803SOL    HW128871   3.558   2.383   5.894 -0.3632  1.9792  1.2871
 5803SOL    HW228872   3.655   2.499   5.899  1.4002 -0.7965 -0.5535
 5804SOL     OW28873   0.654   3.537   3.214 -0.2716 -0.2163  0.0952
 5804SOL    HW128874   0.721   3.599   3.186  0.8325 -0.6849  1.7375
 5804SOL    HW228875   0.684   3.458   3.169  0.7923  1.9521 -3.0090
 5805SOL     OW28876   4.041   3.627   2.829 -0.4202 -0.6134  0.2294
 5805SOL    HW128877   4.025   3.718   2.854  0.1320 -0.5215  0.2355
 5805SOL    HW228878   3.952   3.597   2.807 -0.6867  0.2652  0.1224
 5806SOL     OW28879   0.738   4.119   4.194  0.3933  0.2328 -0.2430
 5806SOL    HW128880   0.789   4.187   4.151  1.4587 -0.1570  0.4061
 5806SOL    HW228881   0.675   4.172   4.241  0.0075  0.4466 -0.9962
 5807SOL     OW28882   0.191   4.217   6.597  0.0735 -0.0740 -0.0186
 5807SOL    HW128883   0.208   4.311   6.605 -2.5608  0.5453 -1.7073
 5807SOL    HW228884   0.112   4.218   6.650  0.2334  0.6237  0.2122
 5808SOL     OW28885   3.972   3.891   2.907  0.3429 -0.0519  0.5740
 5808SOL    HW128886   4.030   3.949   2.857  0.9489 -1.6081 -0.5303
 5808SOL    HW228887   3.891   3.897   2.857  0.6288 -0.3515  0.0705
 5809SOL     OW28888   0.190   1.534   4.613  0.0692 -0.0390 -0.0118
 5809SOL    HW128889   0.184   1.584   4.531  0.9885  0.5733  0.2918
 5809SOL    HW228890   0.224   1.612   4.658 -2.2639  0.9618 -0.0003
 5810SOL     OW28891   3.263   1.199   8.128  0.0835  0.8540 -0.4769
 5810SOL    HW128892   3.214   1.177   8.208 -2.2888  0.9694 -1.9023
 5810SOL    HW228893   3.284   1.289   8.149 -0.1999  1.4130 -2.6121
 5811SOL     OW28894   4.634   3.476   2.863 -0.0334  0.7446  0.2801
 5811SOL    HW128895   4.713   3.423   2.852 -1.8012 -1.5652 -1.3209
 5811SOL    HW228896   4.565   3.417   2.831  0.2952 -0.3763  1.6531
 5812SOL     OW28897   2.824   4.315  17.042 -0.2863  0.1254 -0.4825
 5812SOL    HW128898   2.733   4.305  17.068 -1.2876  2.3460 -3.1010
 5812SOL    HW228899   2.864   4.228  17.046 -0.0925  0.2386 -0.0173
 5813SOL     OW28900   1.745   0.788   1.918  0.2395 -0.3429  0.0495
 5813SOL    HW128901   1.666   0.741   1.943 -0.1249 -0.3438 -1.0742
 5813SOL    HW228902   1.720   0.807   1.827  0.8771 -2.3767 -0.5467
 5814SOL     OW28903   1.936   4.130  16.228  0.0930  0.3334  0.2917
 5814SOL    HW128904   1.982   4.213  16.214 -1.1503  0.5316 -2.6553
 5814SOL    HW228905   1.847   4.166  16.227  0.3293  0.9080 -1.1793
 5815SOL     OW28906   3.795   1.789  13.825 -0.3248  0.0436 -0.0720
 5815SOL    HW128907   3.840   1.846  13.762 -2.6784  3.3982  1.2602
 5815SOL    HW228908   3.821   1.832  13.907  0.6559 -2.2745  0.8328
 5816SOL     OW28909   4.163   1.943   4.424  0.3779  0.0113  0.3866
 5816SOL    HW128910   4.091   1.982   4.475 -2.0202  0.5439 -3.4436
 5816SOL    HW228911   4.169   2.009   4.355  3.8319 -0.2948  0.3832
 5817SOL     OW28912   1.052   0.986   3.117 -0.0734  0.2465 -0.0277
 5817SOL    HW128913   1.090   0.937   3.044 -1.2823 -2.0428  0.8815
 5817SOL    HW228914   0.970   1.015   3.077 -0.2492  1.6839  1.3949
 5818SOL     OW28915   2.310   4.613  11.032  0.8397 -0.1518  0.0673
 5818SOL    HW128916   2.330   4.521  11.017  1.4839  0.1126 -0.7361
 5818SOL    HW228917   2.229   4.624  10.982  2.3299  3.0338 -1.7050
 5819SOL     OW28918   0.802   1.263  15.080  0.7491  0.1587  0.5500
 5819SOL    HW128919   0.748   1.341  15.075  0.1010 -0.2784  0.7031
 5819SOL    HW228920   0.781   1.219  14.997  0.1679  0.4429  0.5510
 5820SOL     OW28921   0.287   3.776  17.060 -0.3381  0.3969  0.4258
 5820SOL    HW128922   0.272   3.823  16.978 -1.6726  2.6237  1.9665
 5820SOL    HW228923   0.382   3.768  17.054 -0.4391  0.7360 -1.7704
 5821SOL     OW28924   3.585   1.450  11.465  0.2595 -0.4219 -0.2741
 5821SOL    HW128925   3.529   1.435  11.389 -1.1938  0.3945  0.6371
 5821SOL    HW228926   3.603   1.543  11.454  1.9027 -0.2629  3.7818
 5822SOL     OW28927   2.393   1.699   8.837 -0.2576 -0.2664  0.4847
 5822SOL    HW128928   2.399   1.794   8.827  0.8228 -0.8317 -4.1445
 5822SOL    HW228929   2.482   1.689   8.803 -0.6787  1.3255 -1.0470
 5823SOL     OW28930   1.473   1.245  17.451  0.2191  0.2956 -0.6714
 5823SOL    HW128931   1.466   1.160  17.408  0.8053 -0.4625  0.7439
 5823SOL    HW228932   1.499   1.313  17.388  0.1628 -0.2438 -1.2817
 5824SOL     OW28933   3.462   2.198   4.317  0.2043 -0.0741  0.2713
 5824SOL    HW128934   3.510   2.172   4.239  0.3454  0.3637  0.2139
 5824SOL    HW228935   3.511   2.171   4.395 -0.0343 -1.3923 -0.0367
 5825SOL     OW28936   2.923   2.806  10.334  0.4608  0.1588  0.1331
 5825SOL    HW128937   2.857   2.871  10.310  0.3069 -0.3903 -0.9114
 5825SOL    HW228938   2.871   2.759  10.400 -0.1393 -1.3782 -1.4367
 5826SOL     OW28939   0.261   1.576   5.518 -0.3590 -0.2077  0.3525
 5826SOL    HW128940   0.255   1.516   5.443 -3.5367 -0.7722  1.0490
 5826SOL    HW228941   0.320   1.530   5.578 -1.2906 -0.4835  1.0466
 5827SOL     OW28942   0.710   0.470   9.890  0.4737  0.3652 -0.0256
 5827SOL    HW128943   0.736   0.541   9.949  0.6624  1.5585 -1.5490
 5827SOL    HW228944   0.784   0.409   9.902 -0.2264 -0.3601  0.5763
 5828SOL     OW28945   0.610   1.390   3.494  0.1907 -0.5647  0.3476
 5828SOL    HW128946   0.655   1.307   3.511 -1.2584 -1.2182  0.9698
 5828SOL    HW228947   0.671   1.440   3.439 -1.6306 -0.3492 -1.4791
 5829SOL     OW28948   2.520   3.527   4.556  0.2470 -0.3216 -0.2586
 5829SOL    HW128949   2.544   3.494   4.469 -0.4474 -2.6125  0.4135
 5829SOL    HW228950   2.527   3.622   4.548  1.3236 -0.2641  1.4307
 5830SOL     OW28951   0.500   3.786   1.389  0.7572  0.1224  0.2020
 5830SOL    HW128952   0.577   3.838   1.366  1.1215  0.1534  1.4678
 5830SOL    HW228953   0.469   3.746   1.308  0.9157  3.1982 -1.3711
 5831SOL     OW28954   4.110   0.166  16.218 -0.8501  0.0520 -0.0768
 5831SOL    HW128955   4.141   0.249  16.181 -1.7249  0.6528  0.5107
 5831SOL    HW228956   4.187   0.115  16.192 -1.2884 -0.4868 -0.3171
 5832SOL     OW28957   2.232   0.238   3.082 -0.7496 -0.2138 -0.4113
 5832SOL    HW128958   2.197   0.220   2.995 -1.2757  2.2333 -0.7000
 5832SOL    HW228959   2.207   0.331   3.086  2.6060  0.7605 -1.9668
 5833SOL     OW28960   3.438   0.270  10.315  0.2916 -0.1854 -0.8640
 5833SOL    HW128961   3.460   0.287  10.224 -1.5512 -0.5183 -1.3682
 5833SOL    HW228962   3.524   0.278  10.355  0.6810 -0.6975 -1.6171
 5834SOL     OW28963   1.305   3.350   0.786 -0.3226 -0.5739 -0.5476
 5834SOL    HW128964   1.214   3.337   0.756 -1.9323  1.7699  3.4658
 5834SOL    HW228965   1.306   3.288   0.859  0.8019  0.8029  0.5676
 5835SOL     OW28966   3.609   4.250   7.543 -0.2951 -0.0974 -0.0808
 5835SOL    HW128967   3.528   4.291   7.575 -0.4597  0.9873 -1.8822
 5835SOL    HW228968   3.579   4.226   7.455  0.6168  0.8538 -0.6420
 5836SOL     OW28969   1.160   1.775   4.514 -0.0573  0.0017 -0.3367
 5836SOL    HW128970   1.159   1.864   4.547  0.4835 -0.2737  0.4223
 5836SOL    HW228971   1.147   1.792   4.421 -0.1542 -0.8693 -0.4871
 5837SOL     OW28972   3.063   3.055   2.697 -0.3701  0.1166 -0.2266
 5837SOL    HW128973   3.059   3.133   2.752 -3.6824 -0.6584  0.6184
 5837SOL    HW228974   3.151   3.061   2.658 -0.4775  1.2587 -0.2945
 5838SOL     OW28975   3.386   1.089   7.490 -0.0925  0.6468 -0.0216
 5838SOL    HW128976   3.428   1.030   7.427 -0.9054  1.8255 -1.6571
 5838SOL    HW228977   3.373   1.026   7.560 -0.3113  2.8769  1.9508
 5839SOL     OW28978   3.914   4.088   8.104 -0.0170 -0.1056 -0.9689
 5839SOL    HW128979   3.830   4.070   8.147  0.3163  1.9086  0.5465
 5839SOL    HW228980   3.921   4.021   8.036  0.4842  1.1835 -2.1740
 5840SOL     OW28981   4.399   3.566   9.241  0.1144 -0.9854 -0.3743
 5840SOL    HW128982   4.491   3.587   9.255 -0.2386 -0.2881  0.8842
 5840SOL    HW228983   4.349   3.615   9.307  0.6540 -1.8602  0.6969
 5841SOL     OW28984   3.139   0.312  15.103  0.2459 -0.4342 -0.3256
 5841SOL    HW128985   3.175   0.225  15.119  0.0371 -0.2703  1.0450
 5841SOL    HW228986   3.070   0.323  15.168  1.6028  2.1355  0.6808
 5842SOL     OW28987   3.560   0.817   2.963 -0.4997  0.8987 -0.2165
 5842SOL    HW128988   3.632   0.812   3.026 -0.7646 -1.8851 -0.1173
 5842SOL    HW228989   3.611   0.838   2.884  0.6006  0.2224  0.3069
 5843SOL     OW28990   3.775   3.063   6.615 -0.3137 -0.0369 -0.0907
 5843SOL    HW128991   3.680   3.060   6.624 -0.5808 -1.0720 -3.4201
 5843SOL    HW228992   3.779   3.135   6.552 -1.3113  0.3185  0.2665
 5844SOL     OW28993   4.635   0.549   3.939  0.1977 -0.3948 -0.7623
 5844SOL    HW128994   4.659   0.469   3.892 -1.4626 -1.0957 -0.4154
 5844SOL    HW228995   4.628   0.606   3.862  0.3539  1.7281  0.7944
 5845SOL     OW28996   2.467   0.476   7.304  0.0688 -0.2006  0.1110
 5845SOL    HW128997   2.392   0.466   7.245  0.8250  0.5188 -0.9859
 5845SOL    HW228998   2.530   0.422   7.256 -1.2973 -0.3880 -1.4464
 5846SOL     OW28999   1.901   1.691   7.087 -0.6384  0.4997 -0.1334
 5846SOL    HW129000   1.989   1.652   7.087 -1.8194 -2.2006 -0.6491
 5846SOL    HW229001   1.907   1.714   7.180  1.9602  1.3857 -0.5146
 5847SOL     OW29002   3.345   0.509  13.617 -0.1296  0.3274 -0.2682
 5847SOL    HW129003   3.420   0.554  13.577  1.2254  0.5261  2.5128
 5847SOL    HW229004   3.280   0.517  13.547 -1.3660  0.0110  0.8425
 5848SOL     OW29005   1.406   4.481   1.516 -0.1811 -0.2565 -0.0673
 5848SOL    HW129006   1.375   4.460   1.427 -0.3115 -1.0710  0.1730
 5848SOL    HW229007   1.323   4.501   1.559  0.6493 -1.0191  1.8645
 5849SOL     OW29008   2.486   0.739   4.156 -0.1516  0.8814  0.0975
 5849SOL    HW129009   2.554   0.793   4.118 -1.3321  0.8763 -2.0478
 5849SOL    HW229010   2.540   0.665   4.184 -1.5228  0.3357  1.3712
 5850SOL     OW29011   0.640   3.096   9.214  0.4920  0.5815  0.3745
 5850SOL    HW129012   0.664   3.170   9.159  0.6055  1.1012  1.1179
 5850SOL    HW229013   0.616   3.147   9.292 -1.0335  1.5179 -0.7124
 5851SOL     OW29014   1.262   2.651   7.483  0.2079  0.0912 -0.7951
 5851SOL    HW129015   1.195   2.684   7.543  1.0743  2.8817 -1.3725
 5851SOL    HW229016   1.303   2.590   7.545  0.2120  2.2839  1.3639
 5852SOL     OW29017   3.294   1.702   8.522 -0.1215  0.6262  0.4740
 5852SOL    HW129018   3.307   1.794   8.547 -3.1157  1.5111 -1.2572
 5852SOL    HW229019   3.256   1.709   8.435  0.5601  2.0781  0.2868
 5853SOL     OW29020   0.587   1.905   5.645 -0.4093 -0.2732  0.2253
 5853SOL    HW129021   0.586   1.947   5.559  0.8626 -0.1934  0.2520
 5853SOL    HW229022   0.558   1.974   5.705 -1.7836  1.0113 -1.9423
 5854SOL     OW29023   4.103   2.481   6.442 -0.7576  0.3756  0.4845
 5854SOL    HW129024   4.049   2.403   6.442  0.4671 -0.4782  0.5934
 5854SOL    HW229025   4.163   2.472   6.368 -0.6630  1.8350  0.3811
 5855SOL     OW29026   4.392   3.350   1.871  0.5372 -0.0343 -0.1827
 5855SOL    HW129027   4.411   3.275   1.928 -1.6281  1.0849  2.0585
 5855SOL    HW229028   4.379   3.415   1.941 -2.6868 -0.0469 -0.7841
 5856SOL     OW29029   1.989   3.007   9.567 -0.0437  0.3389 -0.3182
 5856SOL    HW129030   2.020   3.041   9.483 -0.0065  0.5697 -0.2099
 5856SOL    HW229031   2.040   3.054   9.633  2.4448 -1.2945 -1.0609
 5857SOL     OW29032   2.491   3.704   6.758 -0.5614 -0.0915 -0.0960
 5857SOL    HW129033   2.404   3.682   6.724 -0.7507  0.7067 -0.1297
 5857SOL    HW229034   2.474   3.786   6.805  0.0262  1.1402 -1.9954
 5858SOL     OW29035   4.701   0.326   3.805 -0.3169 -0.7693 -0.0335
 5858SOL    HW129036   0.073   0.330   3.787 -0.0829  2.2422  1.8417
 5858SOL    HW229037   4.669   0.263   3.741 -0.5622  0.2609 -0.9266
 5859SOL     OW29038   3.105   2.646   3.305  0.6706  0.4425 -0.0869
 5859SOL    HW129039   3.162   2.670   3.378 -0.0655 -0.6286  0.8343
 5859SOL    HW229040   3.139   2.560   3.279 -2.3341 -1.5495  2.4914
 5860SOL     OW29041   0.121   4.576  13.208 -0.4807  0.3765  0.0474
 5860SOL    HW129042   0.065   4.648  13.235 -0.5371 -0.0077  0.9780
 5860SOL    HW229043   0.134   4.589  13.114 -4.0435 -0.8702 -0.6208
 5861SOL     OW29044   0.930   1.997   7.806 -0.5609 -0.6231  0.4962
 5861SOL    HW129045   0.837   2.017   7.790  0.1697  2.2115 -0.1334
 5861SOL    HW229046   0.919   1.947   7.887  2.8756  0.3841  1.5588
 5862SOL     OW29047   2.714   1.702   7.708 -0.0470 -0.5283  0.1360
 5862SOL    HW129048   2.620   1.708   7.692 -0.3038  0.8570  2.0795
 5862SOL    HW229049   2.750   1.699   7.619 -1.7237 -1.2835 -0.5269
 5863SOL     OW29050   1.488   3.960   9.586  0.3429  0.5133  0.7459
 5863SOL    HW129051   1.569   3.938   9.633 -0.0726  1.1953  1.7887
 5863SOL    HW229052   1.481   4.055   9.585  1.8521  0.6092 -0.6732
 5864SOL     OW29053   2.117   1.034  17.148  0.4600 -0.6661 -0.3951
 5864SOL    HW129054   2.028   1.047  17.182  1.2296 -0.7463  1.6365
 5864SOL    HW229055   2.108   0.947  17.109  0.7341 -1.0454  0.3853
 5865SOL     OW29056   0.453   0.051   7.131 -0.8153  1.0607 -0.3291
 5865SOL    HW129057   0.366   0.015   7.150 -0.1867 -0.4655 -0.3620
 5865SOL    HW229058   0.520   0.007   7.184 -2.4586  0.5595  1.3285
 5866SOL     OW29059   3.942   3.712   9.245  0.0980  1.2051 -0.1583
 5866SOL    HW129060   3.996   3.679   9.317 -1.2716  1.6647  1.0659
 5866SOL    HW229061   3.995   3.789   9.221 -1.2169  2.3499  0.5937
 5867SOL     OW29062   1.837   2.372  10.020 -0.2582 -0.2408  0.2869
 5867SOL    HW129063   1.893   2.448  10.036 -0.1588  0.3835 -3.0086
 5867SOL    HW229064   1.887   2.318   9.960  0.4523 -1.5795  2.0802
 5868SOL     OW29065   2.222   4.174   3.996 -0.3908  0.0001 -0.1177
 5868SOL    HW129066   2.135   4.159   3.961 -0.5071  2.6934 -1.0365
 5868SOL    HW229067   2.274   4.176   3.915  0.7437 -2.0005  0.5637
 5869SOL     OW29068   3.664   0.490  12.540 -0.1336  0.1807  0.4345
 5869SOL    HW129069   3.753   0.492  12.575  0.3083 -0.3333 -0.6629
 5869SOL    HW229070   3.656   0.579  12.504 -0.5270  0.0175  0.1224
 5870SOL     OW29071   4.384   2.858  16.671  0.1454 -0.0904 -0.5515
 5870SOL    HW129072   4.431   2.940  16.685 -2.5200  0.8443  3.0164
 5870SOL    HW229073   4.298   2.899  16.673  0.4238  0.4580 -0.0950
 5871SOL     OW29074   2.888   0.657   3.292 -0.5241 -0.0831 -0.2664
 5871SOL    HW129075   2.947   0.582   3.284 -0.3053  0.2725 -1.9379
 5871SOL    HW229076   2.887   0.696   3.205  3.4802  1.6704  0.4528
 5872SOL     OW29077   3.753   3.363  10.523  0.6415 -0.1230 -0.2132
 5872SOL    HW129078   3.741   3.286  10.579  2.1143  0.6495  1.1710
 5872SOL    HW229079   3.826   3.407  10.566  0.3470  0.1692 -0.0155
 5873SOL     OW29080   3.387   0.335   4.282 -0.3587 -0.0715 -0.2962
 5873SOL    HW129081   3.385   0.402   4.214 -2.1403 -0.3725 -0.5376
 5873SOL    HW229082   3.323   0.276   4.243 -0.0756 -0.3909 -0.2811
 5874SOL     OW29083   1.006   3.325   3.534 -0.1594 -0.2056 -0.1341
 5874SOL    HW129084   0.944   3.372   3.590 -0.0377  1.8120 -1.7139
 5874SOL    HW229085   1.087   3.376   3.539  0.3632 -0.8305 -2.4987
 5875SOL     OW29086   3.097   3.198   3.455  0.4048  0.5291 -0.8708
 5875SOL    HW129087   3.056   3.184   3.370  0.3979  0.4329 -0.8524
 5875SOL    HW229088   3.053   3.137   3.515 -0.6364  0.4632 -1.6981
 5876SOL     OW29089   3.867   1.594   5.013  0.1737 -0.1018 -0.5823
 5876SOL    HW129090   3.815   1.632   5.084 -0.3158 -0.0087 -0.9849
 5876SOL    HW229091   3.890   1.510   5.052 -0.6960 -0.8655 -1.7218
 5877SOL     OW29092   4.642   3.228   2.613  0.1245 -0.2299  0.4844
 5877SOL    HW129093   4.702   3.263   2.679 -0.8225  1.6423  0.3409
 5877SOL    HW229094   4.704   3.213   2.541 -1.2619 -1.6236 -0.4150
 5878SOL     OW29095   0.155   0.363   7.634 -0.1866 -0.2055  0.2040
 5878SOL    HW129096   0.247   0.342   7.648 -0.5191 -0.4170  2.1081
 5878SOL    HW229097   0.115   0.355   7.721 -1.6383  1.4278 -0.3030
 5879SOL     OW29098   3.989   2.711   9.480 -0.9291 -0.5129 -0.4123
 5879SOL    HW129099   4.033   2.760   9.410 -2.0623 -0.4653 -1.0848
 5879SOL    HW229100   4.032   2.626   9.466  0.0500 -0.0203 -0.3826
 5880SOL     OW29101   1.493   3.320   4.984 -0.5430 -0.2274  0.6144
 5880SOL    HW129102   1.538   3.388   5.035  0.3436  0.1988 -0.7404
 5880SOL    HW229103   1.400   3.342   4.985 -0.4390  0.2044  0.8224
 5881SOL     OW29104   4.401   1.746   8.625 -0.2900 -0.3074  0.0772
 5881SOL    HW129105   4.416   1.731   8.719 -0.0403  3.7093  0.6472
 5881SOL    HW229106   4.340   1.673   8.611 -0.6596  0.2513 -1.1892
 5882SOL     OW29107   1.677   1.981  15.999 -0.3764 -0.2411  0.0613
 5882SOL    HW129108   1.612   1.941  16.057  0.1748  1.5949  1.9252
 5882SOL    HW229109   1.669   2.071  16.030 -2.0638 -0.3189 -0.1100
 5883SOL     OW29110   2.196   3.222   5.762  0.0688  0.2934 -0.7734
 5883SOL    HW129111   2.149   3.305   5.769  0.1559  0.3627 -0.9916
 5883SOL    HW229112   2.267   3.229   5.826  0.9588 -0.5198 -1.6600
 5884SOL     OW29113   0.946   3.592   4.132  0.1364 -0.1314  0.2852
 5884SOL    HW129114   0.930   3.680   4.165  1.2474  0.0556  0.3122
 5884SOL    HW229115   0.858   3.564   4.106 -0.4593  1.4949  0.5669
 5885SOL     OW29116   3.717   1.225   6.719  0.6412  0.0298 -0.1921
 5885SOL    HW129117   3.668   1.197   6.796  0.8790  0.4142  0.1025
 5885SOL    HW229118   3.743   1.146   6.672 -0.4219  0.3166 -1.2629
 5886SOL     OW29119   2.096   2.979   4.103 -0.0261 -0.0545  0.2718
 5886SOL    HW129120   2.058   3.067   4.098  1.6874  0.7488  1.4797
 5886SOL    HW229121   2.081   2.955   4.195  3.3243  1.4064  1.1790
 5887SOL     OW29122   4.477   4.253   8.500 -1.1409 -0.3621 -0.1478
 5887SOL    HW129123   4.564   4.289   8.482 -1.4181  1.0618  1.4160
 5887SOL    HW229124   4.481   4.241   8.595  1.5607  2.1318  0.0429
 5888SOL     OW29125   0.261   1.411  10.190 -0.3114 -0.1302 -0.2722
 5888SOL    HW129126   0.325   1.345  10.160  1.3396  1.1441  0.4723
 5888SOL    HW229127   0.197   1.347  10.220 -0.5488 -0.6278 -1.7856
 5889SOL     OW29128   0.469   4.091   3.812  0.3349 -0.2251  0.0904
 5889SOL    HW129129   0.430   4.129   3.734  0.4651  0.8420  0.5464
 5889SOL    HW229130   0.552   4.136   3.827 -0.6038  1.6261 -0.2779
 5890SOL     OW29131   3.179   2.780   0.879  0.6099  0.2180 -0.2920
 5890SOL    HW129132   3.244   2.776   0.809  2.7959 -1.2371  1.8400
 5890SOL    HW229133   3.219   2.715   0.936  1.5015 -0.5595 -1.7969
 5891SOL     OW29134   4.256   2.625  13.341 -0.1307 -0.0571 -0.6617
 5891SOL    HW129135   4.223   2.646  13.428 -1.6237 -1.0507 -0.9828
 5891SOL    HW229136   4.351   2.617  13.349 -0.1045  0.1205 -0.7897
 5892SOL     OW29137   1.511   2.362   6.848  0.4191  0.2132  0.0729
 5892SOL    HW129138   1.463   2.281   6.862  0.5662  0.1974  0.4891
 5892SOL    HW229139   1.544   2.354   6.758 -1.3579  2.5811 -0.8019
 5893SOL     OW29140   0.963   4.516   2.462  0.2490  0.0314  0.1252
 5893SOL    HW129141   1.001   4.561   2.538  0.7485 -0.4138  0.1425
 5893SOL    HW229142   1.039   4.470   2.425  0.6645 -0.7600  1.9273
 5894SOL     OW29143   1.929   1.885   5.375 -0.5934 -0.5134 -0.0078
 5894SOL    HW129144   1.998   1.822   5.396  1.8461  1.6730 -1.4907
 5894SOL    HW229145   1.959   1.918   5.290  0.9402  0.2632  0.8406
 5895SOL     OW29146   2.328   0.435   7.547 -0.6060  0.7177  0.0495
 5895SOL    HW129147   2.381   0.479   7.614  1.4640  0.5984 -1.5182
 5895SOL    HW229148   2.370   0.442   7.461  0.9711  1.9267  0.9196
 5896SOL     OW29149   2.865   1.873   8.669 -0.4366  0.4003  0.2753
 5896SOL    HW129150   2.913   1.866   8.586 -1.9580  0.2216 -0.6051
 5896SOL    HW229151   2.926   1.845   8.737  1.2265 -0.5708 -1.6005
 5897SOL     OW29152   2.013   1.512   4.766  0.0577 -0.5954 -0.0228
 5897SOL    HW129153   1.925   1.514   4.804  0.3052  2.0274  0.4372
 5897SOL    HW229154   2.045   1.437   4.817 -1.7028 -1.6182 -0.4355
 5898SOL     OW29155   1.924   0.707  15.565 -0.3696 -0.1225  0.6661
 5898SOL    HW129156   1.866   0.643  15.608 -0.6362 -1.0424 -1.0827
 5898SOL    HW229157   1.930   0.775  15.632 -2.2976  0.3907  0.3363
 5899SOL     OW29158   3.179   4.511  15.230 -0.3863 -0.0293  0.0471
 5899SOL    HW129159   3.229   4.432  15.208  0.2167 -0.2195  2.1492
 5899SOL    HW229160   3.096   4.463  15.232  0.3715 -1.2022  2.7160
 5900SOL     OW29161   2.487   2.869   5.723  0.0213 -0.1256  0.4230
 5900SOL    HW129162   2.515   2.956   5.694 -2.4580  0.5527  0.0266
 5900SOL    HW229163   2.395   2.887   5.744  0.3906  0.5153  1.4614
 5901SOL     OW29164   3.365   4.068   3.021  0.0365 -0.2205  0.2428
 5901SOL    HW129165   3.455   4.085   3.049  0.4243 -1.1666 -0.4133
 5901SOL    HW229166   3.358   4.127   2.946 -0.2775  0.7456  1.0323
 5902SOL     OW29167   4.281   3.427   4.902  0.5932 -0.0640  0.6508
 5902SOL    HW129168   4.292   3.420   4.997  2.7741 -1.3438  0.3059
 5902SOL    HW229169   4.198   3.382   4.886  0.9992 -0.2537 -0.9097
 5903SOL     OW29170   1.845   3.569   5.900  0.1273  0.1401  0.2282
 5903SOL    HW129171   1.887   3.511   5.963  0.7190 -0.5576 -0.8217
 5903SOL    HW229172   1.784   3.504   5.864  0.6678 -0.3282  0.1600
 5904SOL     OW29173   0.258   2.472  15.213  0.5172  0.1669  0.1990
 5904SOL    HW129174   0.192   2.437  15.153  1.4373 -2.0180  0.4394
 5904SOL    HW229175   0.334   2.423  15.183  0.6435 -0.0186  0.8218
 5905SOL     OW29176   3.037   2.901   3.140 -0.1374  0.0206 -0.6418
 5905SOL    HW129177   2.975   2.832   3.116  1.0338 -0.7613 -1.4311
 5905SOL    HW229178   3.104   2.846   3.179  1.1160  1.8211 -0.2424
 5906SOL     OW29179   1.334   3.787   1.252  0.1592 -0.0468  0.3787
 5906SOL    HW129180   1.265   3.831   1.302 -0.3754  2.1171 -2.2821
 5906SOL    HW229181   1.358   3.718   1.314 -0.4375 -1.7087 -1.2163
 5907SOL     OW29182   0.954   2.996  11.556 -0.3875 -0.3249 -0.2176
 5907SOL    HW129183   0.998   3.050  11.489 -1.8079  1.1492  0.0211
 5907SOL    HW229184   0.999   2.913  11.544 -3.5072 -1.8322 -1.4861
 5908SOL     OW29185   1.554   0.976   6.521 -0.4140 -0.2557  0.2361
 5908SOL    HW129186   1.463   0.981   6.494 -0.3966 -0.4873  0.1306
 5908SOL    HW229187   1.581   0.901   6.467  0.4097  0.5354 -0.4566
 5909SOL     OW29188   1.552   4.692  13.274  0.0487  0.3215  0.6520
 5909SOL    HW129189   1.522   4.603  13.259  0.3576  0.5037 -1.1451
 5909SOL    HW229190   1.504   0.011  13.202  0.3142 -0.1966  0.1797
 5910SOL     OW29191   0.975   2.135   8.971  0.2194 -0.0151 -0.3304
 5910SOL    HW129192   0.934   2.159   9.054  0.5296 -0.9446  0.0862
 5910SOL    HW229193   1.068   2.128   8.989  0.4792  1.1046 -1.2076
 5911SOL     OW29194   0.952   4.254   4.529  0.0559  0.0192  0.6900
 5911SOL    HW129195   0.879   4.312   4.508  1.1780  1.8405  1.7911
 5911SOL    HW229196   1.000   4.312   4.589 -0.1821  0.6457  0.2705
 5912SOL     OW29197   4.222   2.236   6.062 -0.1555  0.0604 -0.0406
 5912SOL    HW129198   4.134   2.199   6.056 -1.0141  2.1808 -0.4546
 5912SOL    HW229199   4.274   2.170   6.015  4.2367  1.4252  2.8800
 5913SOL     OW29200   4.554   2.461   3.075 -0.0009  0.1525  0.2213
 5913SOL    HW129201   4.536   2.420   2.990 -1.2394  2.7065 -0.7693
 5913SOL    HW229202   4.614   2.528   3.041  0.5529 -0.7995 -0.6694
 5914SOL     OW29203   2.362   2.669  13.180 -0.0249 -0.2208  0.2029
 5914SOL    HW129204   2.307   2.680  13.258 -0.5902  0.7472 -0.3399
 5914SOL    HW229205   2.405   2.754  13.191 -1.0125  0.3244 -0.2154
 5915SOL     OW29206   3.169   0.456   6.176 -0.6438  0.1884 -0.6689
 5915SOL    HW129207   3.190   0.368   6.207  0.7207  0.8888  0.3552
 5915SOL    HW229208   3.185   0.446   6.082  2.1201 -2.1040  0.0599
 5916SOL     OW29209   2.540   1.242   2.671 -0.1406  0.5566 -0.1785
 5916SOL    HW129210   2.608   1.223   2.606 -2.5733 -2.9607 -1.7077
 5916SOL    HW229211   2.481   1.297   2.620  0.2909  0.5228 -0.7207
 5917SOL     OW29212   1.091   1.260   5.486 -0.3189  0.5152 -0.1546
 5917SOL    HW129213   1.182   1.230   5.481 -1.5200 -2.7191 -3.1406
 5917SOL    HW229214   1.078   1.304   5.402 -1.2310  2.8272  1.2087
 5918SOL     OW29215   0.342   1.879   3.463 -0.3068 -0.3507  0.1230
 5918SOL    HW129216   0.394   1.819   3.410 -0.4883  1.1749 -1.7805
 5918SOL    HW229217   0.390   1.958   3.435 -0.8365 -0.1764 -0.2850
 5919SOL     OW29218   0.384   4.715   6.254 -0.2955  0.0008 -0.3656
 5919SOL    HW129219   0.434   0.022   6.177 -0.1131 -1.9486 -0.9981
 5919SOL    HW229220   0.373   0.074   6.303  1.7953 -0.7716  1.4254
 5920SOL     OW29221   1.289   2.042   5.671 -0.0517 -0.3367  0.1305
 5920SOL    HW129222   1.294   2.004   5.583 -0.7177  0.4669 -0.2547
 5920SOL    HW229223   1.204   2.083   5.683 -0.7679 -1.6804 -0.3962
 5921SOL     OW29224   0.636   2.661   6.090  0.4881  0.3943 -0.3314
 5921SOL    HW129225   0.668   2.664   6.180  0.2719  0.2212 -0.2483
 5921SOL    HW229226   0.702   2.704   6.036  0.6936 -0.0969 -0.4731
 5922SOL     OW29227   4.259   3.320  10.905 -0.1646  0.1454 -0.6329
 5922SOL    HW129228   4.351   3.299  10.921 -0.6323  0.0441  1.8987
 5922SOL    HW229229   4.244   3.236  10.862  1.1010  0.6887 -2.1068
 5923SOL     OW29230   0.956   3.747   4.573 -0.2900 -0.2486 -0.3531
 5923SOL    HW129231   0.942   3.674   4.512 -0.6639 -0.8307  0.4085
 5923SOL    HW229232   1.030   3.718   4.626  0.9586  2.5256 -0.6286
 5924SOL     OW29233   4.067   3.663  11.300  0.5110  0.1271  0.4871
 5924SOL    HW129234   3.998   3.625  11.354  0.7030  2.6156  2.4757
 5924SOL    HW229235   4.054   3.648  11.207  2.6347 -1.1342  0.3770
 5925SOL     OW29236   3.134   1.056   4.681  0.5180  0.6680  0.0438
 5925SOL    HW129237   3.076   1.018   4.747 -0.1128  1.8715  0.1799
 5925SOL    HW229238   3.077   1.057   4.604 -1.8890  1.9947  1.8104
 5926SOL     OW29239   2.735   0.406   2.007 -0.0612 -1.1574 -0.3590
 5926SOL    HW129240   2.828   0.416   1.990 -0.3265  2.8461  0.6313
 5926SOL    HW229241   2.724   0.311   2.013 -0.2915 -1.0658  0.6912
 5927SOL     OW29242   4.181   2.089   5.254 -0.2347  0.2309 -0.0118
 5927SOL    HW129243   4.252   2.060   5.197  2.1456  1.5691  2.2748
 5927SOL    HW229244   4.107   2.110   5.198 -1.3322 -0.5802  1.1470
 5928SOL     OW29245   3.655   1.530  15.458  0.8065  0.7070 -0.2758
 5928SOL    HW129246   3.664   1.622  15.482  0.8933  0.4813  0.5580
 5928SOL    HW229247   3.565   1.526  15.425  1.0676  1.1456 -1.0285
 5929SOL     OW29248   3.014   0.261   5.924  0.2856 -0.1162 -0.5661
 5929SOL    HW129249   2.946   0.256   5.857 -1.3204  0.9998  0.9916
 5929SOL    HW229250   3.087   0.254   5.863  1.1534 -0.3444  0.4833
 5930SOL     OW29251   3.216   0.446  15.958  0.1665  0.4439 -0.1593
 5930SOL    HW129252   3.266   0.396  15.894 -1.0855  0.4919 -1.1831
 5930SOL    HW229253   3.177   0.518  15.907  0.8800  0.9426  0.0022
 5931SOL     OW29254   1.721   0.728   6.870  0.1438  0.2221 -0.3471
 5931SOL    HW129255   1.774   0.805   6.853  0.4560 -0.2133 -1.3378
 5931SOL    HW229256   1.638   0.755   6.830 -0.5734  0.6566  1.4605
 5932SOL     OW29257   2.371   1.951   9.909  0.2559 -0.2198 -0.1472
 5932SOL    HW129258   2.417   1.869   9.925  3.5222  1.6448  0.1994
 5932SOL    HW229259   2.286   1.913   9.890  1.0492 -0.8446 -2.5048
 5933SOL     OW29260   1.340   4.687  11.359  0.1400  0.8621  0.1990
 5933SOL    HW129261   1.368   0.034  11.298 -0.0745  0.6709 -0.1122
 5933SOL    HW229262   1.384   4.701  11.443 -0.3102  0.7234  0.4581
 5934SOL     OW29263   3.944   0.479   8.801 -0.1021  0.1248 -0.2123
 5934SOL    HW129264   3.901   0.393   8.804 -0.4383  0.2811 -0.7894
 5934SOL    HW229265   3.941   0.501   8.708  2.6693 -0.5843 -0.4902
 5935SOL     OW29266   4.009   3.024   8.257  0.2092 -0.0589 -0.2008
 5935SOL    HW129267   3.990   2.962   8.187  2.1272 -2.1215  1.1031
 5935SOL    HW229268   3.928   3.075   8.260  0.1525 -0.1614 -0.0177
 5936SOL     OW29269   0.481   1.846   4.473 -0.1530 -0.5793  0.9755
 5936SOL    HW129270   0.444   1.874   4.389 -0.6240 -0.1935  1.3151
 5936SOL    HW229271   0.410   1.842   4.537 -0.3138  0.2705  0.8446
 5937SOL     OW29272   3.783   3.328  14.732 -0.2260  0.1467  0.3985
 5937SOL    HW129273   3.752   3.266  14.797  0.2243 -1.0417 -0.5173
 5937SOL    HW229274   3.867   3.287  14.710 -0.4202  0.6907 -1.4157
 5938SOL     OW29275   2.172   3.618  16.096  0.0383 -0.3371  0.0978
 5938SOL    HW129276   2.148   3.645  16.008 -2.3676  1.0214  1.1579
 5938SOL    HW229277   2.145   3.527  16.107  1.1492 -0.9317 -2.2098
 5939SOL     OW29278   3.171   2.021   1.941 -0.0441  0.2495 -0.4098
 5939SOL    HW129279   3.189   2.108   1.904 -0.1168  1.1946  1.7784
 5939SOL    HW229280   3.253   1.975   1.928  0.4485  1.1280 -0.4224
 5940SOL     OW29281   4.133   4.521   8.814 -0.7742 -0.0462 -0.6478
 5940SOL    HW129282   4.203   4.583   8.836  0.9051 -1.9483 -0.6466
 5940SOL    HW229283   4.160   4.450   8.872 -1.3429  0.6243  0.4277
 5941SOL     OW29284   2.484   2.502   3.783  0.4059 -0.5816  0.0386
 5941SOL    HW129285   2.476   2.495   3.878 -1.7441  1.0328 -0.0354
 5941SOL    HW229286   2.528   2.422   3.753 -1.7215 -1.6734 -0.1921
 5942SOL     OW29287   3.841   2.893   2.066 -0.0453  0.0939 -0.2497
 5942SOL    HW129288   3.772   2.956   2.043 -0.8725 -0.8741 -0.4134
 5942SOL    HW229289   3.796   2.857   2.142  1.2098  0.4841  0.6716
 5943SOL     OW29290   0.739   4.043   4.550  0.5318  0.1875 -0.0974
 5943SOL    HW129291   0.789   4.125   4.540 -1.0169  1.1585  0.1907
 5943SOL    HW229292   0.765   3.986   4.478 -0.4820  0.1263 -0.4095
 5944SOL     OW29293   3.219   2.149   7.520  0.1842  0.0747 -0.1904
 5944SOL    HW129294   3.135   2.138   7.564  0.7121  0.3013  0.8844
 5944SOL    HW229295   3.253   2.202   7.593  1.6969  0.8977 -1.4934
 5945SOL     OW29296   3.867   2.243   4.934  0.6010 -0.0019  0.4328
 5945SOL    HW129297   3.901   2.332   4.940 -0.6698  0.5330 -0.2794
 5945SOL    HW229298   3.794   2.264   4.876  0.4280  1.4521  1.2035
 5946SOL     OW29299   2.867   1.087   1.547 -0.0088 -0.7255 -0.3260
 5946SOL    HW129300   2.854   1.181   1.533 -1.8022 -0.9666 -0.3708
 5946SOL    HW229301   2.773   1.069   1.545 -0.1682  0.1698 -0.6852
 5947SOL     OW29302   3.097   3.029   0.925 -0.0433 -0.0833 -0.1706
 5947SOL    HW129303   3.134   2.946   0.896 -1.2132 -0.8872  0.6761
 5947SOL    HW229304   3.171   3.086   0.901  1.2028 -1.1829  1.0391
 5948SOL     OW29305   3.164   0.845   6.578 -0.0903 -0.5124  0.6433
 5948SOL    HW129306   3.121   0.930   6.592  0.6535  0.1675 -1.1833
 5948SOL    HW229307   3.166   0.842   6.483  0.3026 -0.9686  0.6674
 5949SOL     OW29308   1.898   0.205   6.044 -0.4176 -0.2401  0.4615
 5949SOL    HW129309   1.872   0.162   6.125 -1.5556 -0.3494  0.0417
 5949SOL    HW229310   1.879   0.140   5.977  0.1126  1.5087 -1.3912
 5950SOL     OW29311   0.900   3.955  14.840  0.5010  0.5286 -0.3264
 5950SOL    HW129312   0.933   4.012  14.770 -1.3881  2.6027  0.4562
 5950SOL    HW229313   0.931   4.004  14.916 -1.7590  1.5239 -0.0546
 5951SOL     OW29314   1.192   2.866   1.724  0.2096  0.2436 -0.2211
 5951SOL    HW129315   1.207   2.957   1.697  1.5020  0.3580  0.9322
 5951SOL    HW229316   1.139   2.833   1.651 -1.1904 -0.9147  1.3472
 5952SOL     OW29317   1.417   4.466   5.239 -0.2150 -0.2123  0.2148
 5952SOL    HW129318   1.510   4.445   5.244 -0.4608 -1.2869  0.2144
 5952SOL    HW229319   1.372   4.395   5.284  1.7838  0.0971  2.6914
 5953SOL     OW29320   0.378   1.068  15.590 -0.1974 -0.0562  0.4038
 5953SOL    HW129321   0.301   1.104  15.547 -1.5426 -0.8886  2.1232
 5953SOL    HW229322   0.455   1.119  15.564 -0.2920 -1.8321 -3.4360
 5954SOL     OW29323   1.528   1.851   2.907 -0.1602  0.1118 -0.5050
 5954SOL    HW129324   1.569   1.862   2.993 -2.4333  1.1299  0.4204
 5954SOL    HW229325   1.552   1.934   2.866  2.3042 -0.3177  0.0315
 5955SOL     OW29326   1.553   2.541   4.583  0.5929 -0.0889  0.1028
 5955SOL    HW129327   1.624   2.501   4.634  0.2925  0.3255  0.8416
 5955SOL    HW229328   1.606   2.595   4.524  1.1998 -0.0274  0.7049
 5956SOL     OW29329   0.366   0.475   6.944 -0.3220 -0.2157 -0.2239
 5956SOL    HW129330   0.337   0.438   7.028  0.2379 -4.2671 -1.7859
 5956SOL    HW229331   0.455   0.504   6.967 -0.0652 -0.7763 -0.5172
 5957SOL     OW29332   2.177   1.440  17.410 -0.2050 -0.3588 -0.1054
 5957SOL    HW129333   2.253   1.492  17.437 -1.2673  0.9024  0.4544
 5957SOL    HW229334   2.209   1.396  17.331  1.0539 -0.6388  0.5541
 5958SOL     OW29335   4.514   2.641  13.760 -0.4439  0.1604 -0.3084
 5958SOL    HW129336   4.504   2.552  13.726 -0.8474  1.6904 -4.1746
 5958SOL    HW229337   4.439   2.648  13.819  1.2489 -0.6241  1.9314
 5959SOL     OW29338   2.751   3.205   1.491  0.0582  0.3433  0.2137
 5959SOL    HW129339   2.716   3.293   1.506 -0.3195  0.2710 -0.2331
 5959SOL    HW229340   2.676   3.165   1.446  3.0178 -2.7666 -1.9307
 5960SOL     OW29341   3.379   2.679  16.067 -0.4785  0.4091 -0.6319
 5960SOL    HW129342   3.345   2.616  16.003  0.2180  1.6755 -2.2430
 5960SOL    HW229343   3.437   2.731  16.012 -0.6790 -0.8668 -2.0720
 5961SOL     OW29344   4.198   1.399   4.212  0.1346 -0.2724 -0.2282
 5961SOL    HW129345   4.173   1.306   4.213 -4.6322  0.9760 -2.6168
 5961SOL    HW229346   4.202   1.422   4.305 -2.5106 -0.8430  0.0278
 5962SOL     OW29347   3.407   4.002   9.981 -0.1250 -0.9478 -0.3156
 5962SOL    HW129348   3.328   4.000   9.927  0.0337  0.2964 -0.5914
 5962SOL    HW229349   3.441   3.913   9.972 -2.3584 -1.6557 -1.8469
 5963SOL     OW29350   2.166   2.093   6.356  0.5998 -0.4855  0.1948
 5963SOL    HW129351   2.112   2.092   6.435 -1.2311 -0.5309 -1.0581
 5963SOL    HW229352   2.251   2.088   6.400  0.8150 -0.4937 -0.2221
 5964SOL     OW29353   2.092   2.804   6.038 -0.2583  0.2465 -0.2273
 5964SOL    HW129354   2.058   2.715   6.031  0.5743 -0.0423 -0.5381
 5964SOL    HW229355   2.033   2.841   6.104 -0.9352 -0.0402 -0.6788
 5965SOL     OW29356   3.499   4.562   2.607 -0.3872 -0.3118  0.7757
 5965SOL    HW129357   3.521   4.524   2.692  0.8535 -0.6938  0.2871
 5965SOL    HW229358   3.533   4.652   2.614 -0.2062 -0.3171 -0.1383
 5966SOL     OW29359   3.178   1.328   4.715  0.4717  0.4310 -0.0577
 5966SOL    HW129360   3.222   1.374   4.644 -1.1778  1.4819 -0.3734
 5966SOL    HW229361   3.149   1.246   4.676  1.7318  0.4420 -1.0387
 5967SOL     OW29362   1.950   1.941  11.955  0.1444  0.2461  0.1488
 5967SOL    HW129363   2.006   1.975  11.886  0.0022 -0.6414 -0.4058
 5967SOL    HW229364   1.931   2.019  12.007  1.4543 -0.5691  1.8527
 5968SOL     OW29365   4.044   2.179   6.709 -0.5104  0.4955  0.0426
 5968SOL    HW129366   4.086   2.246   6.763 -0.7626  0.6746  0.0184
 5968SOL    HW229367   4.116   2.116   6.700 -2.2050 -1.3716 -0.5966
 5969SOL     OW29368   3.947   2.625   8.406 -0.3313 -0.4386 -0.0147
 5969SOL    HW129369   3.856   2.654   8.400 -0.4920 -0.9903 -0.1959
 5969SOL    HW229370   3.941   2.538   8.366  0.3787 -0.6452  0.3184
 5970SOL     OW29371   1.605   3.861   3.918  0.0690 -0.0713  0.0101
 5970SOL    HW129372   1.614   3.955   3.899  0.2585 -0.0613  0.1427
 5970SOL    HW229373   1.518   3.867   3.957 -0.0600 -1.5079 -0.0701
 5971SOL     OW29374   0.537   4.446   2.398 -0.0599  0.1432  0.4488
 5971SOL    HW129375   0.495   4.531   2.408 -4.6842 -2.3183  2.2653
 5971SOL    HW229376   0.461   4.398   2.365 -1.3043  1.4087  1.4478
 5972SOL     OW29377   0.593   3.676  15.197  0.2497 -0.6834 -0.2505
 5972SOL    HW129378   0.574   3.607  15.134 -2.1741  0.1030 -0.3596
 5972SOL    HW229379   0.641   3.737  15.140 -0.8447 -0.0887 -0.5437
 5973SOL     OW29380   2.070   0.441  13.677 -0.6030  0.0220 -0.5619
 5973SOL    HW129381   2.045   0.365  13.625 -0.8664  0.5672 -1.2278
 5973SOL    HW229382   2.163   0.451  13.654 -0.5679  0.1192 -0.3818
 5974SOL     OW29383   0.053   1.394   4.110 -0.2824 -0.0287  0.0066
 5974SOL    HW129384   4.712   1.375   4.041  0.4121  2.2001 -1.2360
 5974SOL    HW229385   0.106   1.462   4.068  0.2840  0.3515  1.3304
 5975SOL     OW29386   0.489   1.991  16.682 -0.2141  0.3078  0.4864
 5975SOL    HW129387   0.513   2.058  16.617  2.3657 -0.3050  0.7914
 5975SOL    HW229388   0.395   1.993  16.662 -0.2341  1.0795  0.6636
 5976SOL     OW29389   0.505   0.662   7.411  0.3306  0.1259 -0.4556
 5976SOL    HW129390   0.482   0.728   7.345 -1.1989 -1.8934 -1.9476
 5976SOL    HW229391   0.415   0.633   7.424  0.7535 -0.7304  0.5065
 5977SOL     OW29392   1.871   1.286  11.725 -0.4833  0.1109  0.0347
 5977SOL    HW129393   1.783   1.281  11.687 -0.4307  0.6823 -0.1657
 5977SOL    HW229394   1.901   1.199  11.700 -1.7501 -1.4779  3.9322
 5978SOL     OW29395   0.619   2.353   1.885 -0.3404 -0.2754  0.3528
 5978SOL    HW129396   0.707   2.353   1.847 -0.3442 -1.4901  0.3493
 5978SOL    HW229397   0.649   2.350   1.976  2.3852 -0.2887 -0.5285
 5979SOL     OW29398   1.888   2.435   6.710  0.5698  0.4186 -0.1728
 5979SOL    HW129399   1.816   2.432   6.647  1.7116  1.7331 -1.5550
 5979SOL    HW229400   1.885   2.525   6.741 -1.4309  1.0559 -2.1790
 5980SOL     OW29401   1.871   1.085  11.408 -0.0052  0.5490  0.1956
 5980SOL    HW129402   1.939   1.065  11.472 -1.3169 -3.2902  0.3505
 5980SOL    HW229403   1.810   1.138  11.460 -0.9700 -2.7153  2.3744
 5981SOL     OW29404   2.975   2.131   7.670  0.2176  0.3840 -0.3469
 5981SOL    HW129405   2.942   2.077   7.598 -0.1641 -0.4918  0.4784
 5981SOL    HW229406   2.894   2.178   7.692  0.1037 -0.4702  1.0202
 5982SOL     OW29407   2.117   0.643   4.454 -0.1664 -0.3132 -0.2944
 5982SOL    HW129408   2.204   0.681   4.444  0.9751 -3.5942 -2.6898
 5982SOL    HW229409   2.058   0.704   4.499 -1.8458  0.6110 -3.7412
 5983SOL     OW29410   4.517   1.959  10.952  0.1063  0.3272  0.5209
 5983SOL    HW129411   4.442   1.940  11.008 -1.4353 -0.2327 -1.7315
 5983SOL    HW229412   4.502   1.904  10.875 -1.8661  0.8140  0.5540
 5984SOL     OW29413   2.773   2.758  10.565  0.7705  0.2624  0.4073
 5984SOL    HW129414   2.820   2.801  10.637 -0.3354  0.8066  0.8033
 5984SOL    HW229415   2.773   2.669  10.598 -1.0539  0.1095  0.0149
 5985SOL     OW29416   4.431   1.791  17.380 -0.0436  0.2108  0.2726
 5985SOL    HW129417   4.496   1.840  17.428  1.7786 -1.0668 -0.8935
 5985SOL    HW229418   4.354   1.819  17.429  0.0922  4.5306 -1.9647
 5986SOL     OW29419   2.628   0.448   5.297  0.4053 -0.0914  0.0344
 5986SOL    HW129420   2.626   0.374   5.358  1.3678  0.2346  0.4665
 5986SOL    HW229421   2.543   0.486   5.319 -1.8442 -3.1159 -3.4219
 5987SOL     OW29422   2.709   1.674   0.029 -0.0253  0.4763  0.0719
 5987SOL    HW129423   2.791   1.662  17.671  0.1593  1.3390  0.1765
 5987SOL    HW229424   2.726   1.616   0.104  0.5059 -0.7059 -0.9532
 5988SOL     OW29425   3.946   1.510  15.678  0.0461  0.6510  0.0123
 5988SOL    HW129426   4.016   1.493  15.740 -2.4942 -2.6093  2.0070
 5988SOL    HW229427   3.902   1.584  15.719 -0.2844  0.6152 -0.2781
 5989SOL     OW29428   0.856   0.715   7.861 -0.8100 -0.1043  0.3467
 5989SOL    HW129429   0.864   0.649   7.793  0.1613 -0.5740  0.9215
 5989SOL    HW229430   0.889   0.798   7.827  2.0972 -0.7607  1.5389
 5990SOL     OW29431   3.941   4.049   5.348 -0.5266 -0.1445  0.5163
 5990SOL    HW129432   3.858   4.094   5.337 -1.2954 -1.7160 -0.1568
 5990SOL    HW229433   3.958   4.085   5.435  0.7484 -0.7960  0.5508
 5991SOL     OW29434   1.598   4.057   1.957  0.0374  0.0518 -0.1645
 5991SOL    HW129435   1.557   4.116   1.894  1.2206 -0.0914 -1.0692
 5991SOL    HW229436   1.539   3.983   1.951 -1.0506  0.7936  1.4283
 5992SOL     OW29437   3.626   1.885  15.897 -0.2576  0.5584  0.2429
 5992SOL    HW129438   3.582   1.860  15.816  2.1069  0.5146 -1.0215
 5992SOL    HW229439   3.583   1.827  15.959 -0.6001  0.1513 -0.3741
 5993SOL     OW29440   2.237   2.348   5.184 -0.7764 -0.5914  0.4422
 5993SOL    HW129441   2.252   2.258   5.213  1.6947  0.0639  1.2098
 5993SOL    HW229442   2.269   2.395   5.261  3.0868  0.4853 -1.7957
 5994SOL     OW29443   0.303   1.032   7.264 -0.6941  0.1703 -0.3216
 5994SOL    HW129444   0.342   0.947   7.249 -1.0596  0.1400 -1.1036
 5994SOL    HW229445   0.370   1.074   7.319 -1.1429  1.3858 -0.6937
 5995SOL     OW29446   4.009   2.375   0.886  0.1827  0.3428 -0.4440
 5995SOL    HW129447   4.015   2.285   0.855 -0.4725  0.8215 -1.9457
 5995SOL    HW229448   4.001   2.429   0.807  1.0991  0.4073 -0.4878
 5996SOL     OW29449   1.634   1.138   1.258 -0.9252 -0.8540  0.6021
 5996SOL    HW129450   1.549   1.101   1.282 -0.6358 -1.0875  1.2822
 5996SOL    HW229451   1.687   1.059   1.269 -0.2491 -0.3576  0.8932
 5997SOL     OW29452   3.948   1.527   6.484  0.2519 -0.6895  0.5089
 5997SOL    HW129453   3.860   1.523   6.523  0.6759 -1.6497  1.3891
 5997SOL    HW229454   3.949   1.607   6.432 -0.3544 -1.1883 -0.2645
 5998SOL     OW29455   0.201   1.192   4.353  0.0513  0.1740  0.1919
 5998SOL    HW129456   0.112   1.202   4.388  0.1547  2.1623 -0.1076
 5998SOL    HW229457   0.208   1.099   4.371 -0.6580 -0.0947 -0.9535
 5999SOL     OW29458   0.874   0.058  13.109  0.0750  0.7692 -0.5098
 5999SOL    HW129459   0.886   0.146  13.072  1.8172  0.0495 -1.6674
 5999SOL    HW229460   0.957   0.021  13.080 -0.1091 -0.1031  0.0845
 6000SOL     OW29461   2.612   4.188  17.436  0.3950  0.1021  0.0497
 6000SOL    HW129462   2.682   4.141  17.391  0.0952 -0.6182  0.3450
 6000SOL    HW229463   2.556   4.123  17.478  0.6183 -0.9120 -1.2230
 6001SOL     OW29464   1.639   2.673   8.976 -0.3350  0.4320 -0.0514
 6001SOL    HW129465   1.553   2.678   9.019  0.7056 -1.2264  2.2656
 6001SOL    HW229466   1.625   2.729   8.900 -1.5001 -2.0694 -1.6824
 6002SOL     OW29467   2.693   3.591  13.487  0.3010 -0.0347  0.1955
 6002SOL    HW129468   2.741   3.591  13.404  0.7894 -0.9735  0.4804
 6002SOL    HW229469   2.604   3.583  13.452  1.1771 -2.4292 -1.4642
 6003SOL     OW29470   3.967   1.220  12.173  0.3626  0.4509  0.3060
 6003SOL    HW129471   4.061   1.214  12.185 -0.0877 -0.1814  3.7688
 6003SOL    HW229472   3.948   1.309  12.145 -1.3420  0.1006  0.3321
 6004SOL     OW29473   0.043   3.951   6.001  0.9253 -0.1228 -0.3773
 6004SOL    HW129474   0.016   4.033   6.042  0.4620  0.1946 -1.3111
 6004SOL    HW229475   0.020   3.896   6.076  0.6447 -0.5525 -0.7775
 6005SOL     OW29476   0.500   1.345   5.346  0.4978  0.2207 -0.0094
 6005SOL    HW129477   0.508   1.306   5.259 -3.3188  0.5325 -0.4988
 6005SOL    HW229478   0.406   1.332   5.358  0.7963 -1.5038  0.5023
 6006SOL     OW29479   1.114   2.356   2.356  0.4269  0.4519  0.3182
 6006SOL    HW129480   1.144   2.447   2.362 -0.6157  0.7798  0.4976
 6006SOL    HW229481   1.085   2.353   2.264  0.2542 -1.8648  0.4430
 6007SOL     OW29482   0.406   3.399  12.442  0.2060 -0.0051  0.0701
 6007SOL    HW129483   0.313   3.405  12.466  0.2629 -0.7345  0.4823
 6007SOL    HW229484   0.422   3.478  12.390  1.0996 -0.7692 -0.8262
 6008SOL     OW29485   4.467   2.954   7.285 -0.2840  0.4977 -0.2762
 6008SOL    HW129486   4.539   2.973   7.344  0.2692  1.0036 -1.1210
 6008SOL    HW229487   4.518   2.948   7.205 -0.4242 -1.0597 -0.2566
 6009SOL     OW29488   0.699   0.421   8.993 -0.2799  0.0197 -0.1624
 6009SOL    HW129489   0.653   0.450   8.914  0.2895 -1.2812 -0.9596
 6009SOL    HW229490   0.764   0.491   9.003 -0.3975  0.1225 -0.1035
 6010SOL     OW29491   3.463   0.088   7.553  0.3561 -0.2748 -0.0658
 6010SOL    HW129492   3.377   0.127   7.541  1.5154  2.3029 -0.0717
 6010SOL    HW229493   3.516   0.139   7.491  0.4232 -1.7909 -1.2604
 6011SOL     OW29494   1.935   4.400   9.791  0.1381 -0.3208  0.6986
 6011SOL    HW129495   2.011   4.417   9.847 -1.3556 -1.6659  3.1530
 6011SOL    HW229496   1.946   4.485   9.748  0.3305 -1.5233 -1.6026
 6012SOL     OW29497   3.900   0.993   3.602 -0.2055 -0.4654  0.3573
 6012SOL    HW129498   3.880   0.915   3.654  2.8866 -0.9670  0.8057
 6012SOL    HW229499   3.995   0.991   3.591 -0.3774 -3.5272 -0.5855
 6013SOL     OW29500   1.424   4.058   5.165 -0.0516  0.2993 -0.8864
 6013SOL    HW129501   1.475   4.034   5.088  2.1191 -1.5191  1.1172
 6013SOL    HW229502   1.455   4.146   5.186 -0.5576 -0.0201  1.2692
 6014SOL     OW29503   4.128   1.060   9.489  0.0077 -0.6101 -0.1343
 6014SOL    HW129504   4.193   1.013   9.436  0.1165 -1.4998  0.7807
 6014SOL    HW229505   4.177   1.140   9.508 -2.0064  0.3157  1.1135
 6015SOL     OW29506   4.334   2.268  13.485 -0.5763 -0.1985 -0.4269
 6015SOL    HW129507   4.373   2.300  13.404 -1.1276 -0.0692 -0.6380
 6015SOL    HW229508   4.364   2.339  13.541  0.3051 -1.3869  0.6186
 6016SOL     OW29509   0.180   4.059   6.320 -0.3023  0.0525  0.0767
 6016SOL    HW129510   0.099   4.089   6.280  0.0380 -0.2373 -0.8306
 6016SOL    HW229511   0.183   4.116   6.397 -1.7091 -2.3770  1.9316
 6017SOL     OW29512   3.332   2.584   2.749  0.4819  0.0877  0.4634
 6017SOL    HW129513   3.330   2.621   2.837  0.6979  1.2990 -0.0389
 6017SOL    HW229514   3.355   2.492   2.767  1.2336  0.7622  2.9937
 6018SOL     OW29515   2.853   2.472  16.679  0.8807 -0.3079 -0.0339
 6018SOL    HW129516   2.826   2.404  16.741  0.5506 -2.1310 -2.1632
 6018SOL    HW229517   2.772   2.498  16.636  1.1419 -0.5923 -0.7116
 6019SOL     OW29518   1.113   2.032  11.109  0.8503  0.2112  0.2310
 6019SOL    HW129519   1.045   1.970  11.138 -0.0332  0.5622 -1.0665
 6019SOL    HW229520   1.071   2.056  11.026  0.1587 -0.2836  0.4327
 6020SOL     OW29521   1.412   3.828  11.416  0.1121 -0.2091 -0.3649
 6020SOL    HW129522   1.435   3.921  11.410 -1.1199 -0.0157 -2.3834
 6020SOL    HW229523   1.373   3.819  11.329  1.2930  2.8775 -1.2288
 6021SOL     OW29524   0.492   0.305   2.310 -0.1602 -0.1147 -0.2030
 6021SOL    HW129525   0.471   0.352   2.390  2.5783  0.5738  0.1212
 6021SOL    HW229526   0.576   0.262   2.328  0.3599  0.5022 -1.1640
 6022SOL     OW29527   3.099   2.679   2.111  0.1671 -0.3967  0.5100
 6022SOL    HW129528   3.171   2.742   2.117 -1.8669  2.0037  0.0589
 6022SOL    HW229529   3.035   2.737   2.070  0.5973  0.0643  0.4881
 6023SOL     OW29530   1.228   1.696  12.556 -0.3942  0.6036  0.0941
 6023SOL    HW129531   1.306   1.743  12.585  0.0956 -0.4780  0.5560
 6023SOL    HW229532   1.192   1.752  12.487  1.4814  2.1218  0.3522
 6024SOL     OW29533   1.828   0.599  11.120 -0.0498 -0.5914  0.1199
 6024SOL    HW129534   1.788   0.627  11.202  0.1132 -1.3536  0.4580
 6024SOL    HW229535   1.816   0.675  11.063 -1.1429 -0.2819  0.7718
 6025SOL     OW29536   2.773   3.072  10.284 -0.8803 -0.5138 -0.0190
 6025SOL    HW129537   2.705   3.054  10.349 -0.1572 -2.4883  0.1918
 6025SOL    HW229538   2.818   3.145  10.326  0.4491 -2.0817  1.3007
 6026SOL     OW29539   1.527   0.953   7.603 -0.1876 -0.2889  0.9679
 6026SOL    HW129540   1.613   0.976   7.640  0.7477  0.6146 -1.7592
 6026SOL    HW229541   1.482   1.036   7.617 -1.9668 -1.0126 -0.5222
 6027SOL     OW29542   2.674   1.081   2.483  0.6017  0.2462 -0.5184
 6027SOL    HW129543   2.727   1.050   2.557 -0.7191  1.0677  0.7607
 6027SOL    HW229544   2.629   1.000   2.459  0.3789 -0.2722  1.6492
 6028SOL     OW29545   3.818   4.654   2.149  0.0967  0.2423 -0.0532
 6028SOL    HW129546   3.760   4.653   2.225  0.1886  0.6620  0.0248
 6028SOL    HW229547   3.776   4.721   2.095 -2.7454 -0.3585  1.4259
 6029SOL     OW29548   1.856   0.040   0.941  0.2407 -0.1982 -0.5365
 6029SOL    HW129549   1.801   0.060   1.017  0.1147  0.5937 -0.8286
 6029SOL    HW229550   1.797   4.716   0.881 -0.1860 -0.1704 -0.1360
 6030SOL     OW29551   3.412   2.512   0.819  0.2893 -0.6181  0.8647
 6030SOL    HW129552   3.422   2.583   0.883 -1.2770  2.3108 -2.1145
 6030SOL    HW229553   3.495   2.464   0.826 -1.0550 -3.0456 -0.0969
 6031SOL     OW29554   3.167   2.856   5.768 -0.0311 -0.2333  0.4804
 6031SOL    HW129555   3.125   2.850   5.682 -0.7818 -2.3311  0.9850
 6031SOL    HW229556   3.251   2.816   5.744  0.4011  1.6667 -1.1375
 6032SOL     OW29557   2.782   1.482   8.149 -0.1296  0.2935 -0.0378
 6032SOL    HW129558   2.714   1.432   8.103 -1.0505  0.3782  1.2392
 6032SOL    HW229559   2.817   1.531   8.075  0.4403 -0.8007 -0.4888
 6033SOL     OW29560   2.650   3.170   7.085 -0.2207 -0.6786  0.6321
 6033SOL    HW129561   2.651   3.265   7.078 -1.7521 -0.9660 -2.9772
 6033SOL    HW229562   2.689   3.145   7.169  1.9187  0.7669  0.0531
 6034SOL     OW29563   0.590   1.511  16.508  0.6056 -0.0172  0.0638
 6034SOL    HW129564   0.623   1.577  16.570  2.6960  0.1196 -1.2060
 6034SOL    HW229565   0.496   1.517  16.525  0.5730 -1.0349  0.2394
 6035SOL     OW29566   4.219   4.480   3.509  0.2357  0.5294 -0.0989
 6035SOL    HW129567   4.292   4.539   3.494  0.0337  0.9056  0.4184
 6035SOL    HW229568   4.244   4.402   3.459 -0.3646 -0.9595  1.8927
 6036SOL     OW29569   1.402   0.194   6.228 -0.7146 -0.1814 -0.6014
 6036SOL    HW129570   1.443   0.168   6.145  0.3298  0.0122 -0.1439
 6036SOL    HW229571   1.483   0.191   6.279 -0.3351  3.6561 -1.0211
 6037SOL     OW29572   1.098   4.631   4.334 -0.0119 -0.3794  0.1012
 6037SOL    HW129573   1.055   4.691   4.396  2.6650  0.7561  0.8724
 6037SOL    HW229574   1.041   4.641   4.258 -0.1338  0.5751  0.3162
 6038SOL     OW29575   3.166   1.249   9.088 -0.2637  0.8164 -0.2201
 6038SOL    HW129576   3.156   1.178   9.024 -2.1226 -0.1963  1.1940
 6038SOL    HW229577   3.091   1.304   9.065 -0.9915  0.1183  0.4805
 6039SOL     OW29578   3.658   3.878  12.193  0.1225 -0.3100  0.2184
 6039SOL    HW129579   3.639   3.956  12.244  3.1806  1.7929 -1.8177
 6039SOL    HW229580   3.641   3.910  12.105  2.1176 -2.4659 -0.9595
 6040SOL     OW29581   1.816   2.758   2.379  0.4392 -0.0673 -0.7893
 6040SOL    HW129582   1.816   2.853   2.384  1.1200 -0.1633  0.9864
 6040SOL    HW229583   1.876   2.737   2.451  1.3996  0.8763 -1.3074
 6041SOL     OW29584   3.069   0.504   1.180 -0.0544  0.0008  0.2239
 6041SOL    HW129585   3.141   0.486   1.120  0.7603 -0.9958  1.5023
 6041SOL    HW229586   3.068   0.413   1.211 -2.0882  0.8785  2.7515
 6042SOL     OW29587   3.788   0.874  12.248  0.4080 -0.0756  0.0429
 6042SOL    HW129588   3.844   0.923  12.309  1.8685  0.1991 -1.5120
 6042SOL    HW229589   3.745   0.948  12.205  0.3895  1.5426  2.8228
 6043SOL     OW29590   1.080   0.871   4.215  0.1338 -0.5498 -0.1126
 6043SOL    HW129591   1.108   0.929   4.144 -0.2790 -0.1196  0.0722
 6043SOL    HW229592   1.077   0.790   4.164 -0.5670 -1.2610  1.0767
 6044SOL     OW29593   2.537   3.152   5.674 -0.1710  0.1864 -0.1474
 6044SOL    HW129594   2.628   3.149   5.702 -0.0751  1.3463 -0.3304
 6044SOL    HW229595   2.493   3.189   5.751 -1.4256  0.1711 -0.8511
 6045SOL     OW29596   3.788   4.117  14.829 -0.2224 -0.7360  0.0118
 6045SOL    HW129597   3.770   4.115  14.735 -0.1919 -0.7298  0.0059
 6045SOL    HW229598   3.775   4.210  14.846  0.5213 -0.8583  1.1913
 6046SOL     OW29599   2.889   1.741   9.138  0.5330 -0.2032 -0.2671
 6046SOL    HW129600   2.971   1.783   9.163  0.9428 -1.1606 -0.0182
 6046SOL    HW229601   2.922   1.721   9.050 -0.1804 -0.9331 -0.3694
 6047SOL     OW29602   2.016   1.427   2.578 -0.2676  0.5281  0.3057
 6047SOL    HW129603   2.073   1.504   2.574  0.9906 -0.4363 -0.2969
 6047SOL    HW229604   1.938   1.456   2.530  1.2227 -0.2464 -2.6027
 6048SOL     OW29605   1.057   0.686   6.049 -0.1208  0.2961 -0.5007
 6048SOL    HW129606   1.123   0.737   6.094 -0.8763  0.3520  0.5396
 6048SOL    HW229607   1.110   0.607   6.034 -0.8198 -0.3552  0.4551
 6049SOL     OW29608   2.532   3.182   0.690 -0.1191  0.6399  0.2910
 6049SOL    HW129609   2.582   3.198   0.770  0.5780  0.3373 -0.0923
 6049SOL    HW229610   2.502   3.271   0.668  0.5222  0.0041 -3.2167
 6050SOL     OW29611   3.292   2.613   1.074  0.3280 -0.9556 -0.2027
 6050SOL    HW129612   3.337   2.543   1.121  1.2556  0.1588  0.5739
 6050SOL    HW229613   3.290   2.674   1.147 -2.0743 -2.3850  0.9080
 6051SOL     OW29614   2.039   4.304   7.409 -0.2935 -0.3537 -0.2028
 6051SOL    HW129615   2.053   4.226   7.464  0.1623 -1.1968 -1.5276
 6051SOL    HW229616   2.015   4.361   7.482  0.3536 -0.1195 -0.1747
 6052SOL     OW29617   4.376   3.021   2.320  0.1368  0.1732  0.3216
 6052SOL    HW129618   4.321   2.943   2.319  1.8529 -1.0175 -0.2008
 6052SOL    HW229619   4.451   2.990   2.371  1.3845 -1.8091 -2.7581
 6053SOL     OW29620   2.388   1.705   0.782 -0.5650  0.2758 -0.2812
 6053SOL    HW129621   2.300   1.739   0.802 -0.6137  0.6204 -1.0938
 6053SOL    HW229622   2.373   1.667   0.696 -0.6793 -0.8310  0.2253
 6054SOL     OW29623   4.397   1.488  14.162  0.5957 -0.4530  0.7139
 6054SOL    HW129624   4.377   1.571  14.206  4.1184  1.0140 -0.4321
 6054SOL    HW229625   4.374   1.510  14.071 -0.0998 -1.8519  0.5557
 6055SOL     OW29626   3.416   0.979   1.928  0.7596 -0.4900  0.1285
 6055SOL    HW129627   3.425   0.904   1.870  1.8111 -0.3320  0.0962
 6055SOL    HW229628   3.508   1.000   1.942  0.6677 -1.3072  1.9442
 6056SOL     OW29629   1.189   4.283   6.153  0.3577  0.3779 -0.3253
 6056SOL    HW129630   1.279   4.289   6.121  0.1350  1.3445 -0.7643
 6056SOL    HW229631   1.198   4.247   6.241  0.7663  0.9698 -0.1248
 6057SOL     OW29632   0.528   4.264   4.326  0.1797  0.2043  0.3113
 6057SOL    HW129633   0.593   4.312   4.376 -0.9284  0.3416  1.6059
 6057SOL    HW229634   0.498   4.322   4.255  0.6303  1.3318  1.0523
 6058SOL     OW29635   0.410   2.716   7.806  0.2190 -0.3231  0.4728
 6058SOL    HW129636   0.329   2.733   7.854 -1.3544 -4.6230 -0.6674
 6058SOL    HW229637   0.403   2.621   7.793 -1.4472 -0.0939 -0.3414
 6059SOL     OW29638   2.764   2.438   8.276 -0.3661 -0.3831 -0.1930
 6059SOL    HW129639   2.850   2.412   8.241  0.4630  2.9060 -0.5600
 6059SOL    HW229640   2.800   2.493   8.346 -2.7391 -0.5944  1.1670
 6060SOL     OW29641   3.885   3.774   4.943 -0.5957  0.0250 -0.5141
 6060SOL    HW129642   3.924   3.850   4.901 -1.2367  2.1390  2.7554
 6060SOL    HW229643   3.805   3.757   4.893  0.4200  3.0682 -3.1685
 6061SOL     OW29644   0.091   0.407   4.319  0.1861  0.3067  0.8814
 6061SOL    HW129645   0.061   0.482   4.267  1.3784 -1.1764 -1.9632
 6061SOL    HW229646   0.067   0.333   4.263  1.6384  1.0816 -0.7525
 6062SOL     OW29647   1.564   4.006   6.302  0.1962 -0.3650  0.3218
 6062SOL    HW129648   1.612   3.924   6.313 -0.3490 -0.7023  0.2014
 6062SOL    HW229649   1.492   3.977   6.358 -1.2595  0.4904 -1.0936
 6063SOL     OW29650   0.180   1.380  12.577 -0.0162 -0.4236  0.4233
 6063SOL    HW129651   0.150   1.408  12.491  1.0511 -0.7946 -0.0740
 6063SOL    HW229652   0.107   1.398  12.636 -0.6019 -0.5305 -0.2733
 6064SOL     OW29653   2.843   3.610  13.232  0.4857 -0.7423 -0.2306
 6064SOL    HW129654   2.849   3.637  13.140 -0.1084 -0.4297 -0.1783
 6064SOL    HW229655   2.892   3.679  13.275  2.4060  0.0014 -3.6228
 6065SOL     OW29656   4.152   0.301   7.058  0.0897 -0.2958  0.1213
 6065SOL    HW129657   4.112   0.284   6.973 -1.9025 -1.7285  1.3307
 6065SOL    HW229658   4.134   0.219   7.105  0.1359 -0.3173  0.1021
 6066SOL     OW29659   3.354   3.310   5.417 -0.6671 -0.1265 -0.3658
 6066SOL    HW129660   3.364   3.298   5.322  1.5553 -2.1848  0.1521
 6066SOL    HW229661   3.290   3.381   5.412  0.3517  0.7796 -0.6163
 6067SOL     OW29662   4.656   1.389   0.946 -0.1376 -0.2406  0.5344
 6067SOL    HW129663   4.635   1.414   0.856  1.6365 -2.3502 -0.4784
 6067SOL    HW229664   0.016   1.437   0.953 -0.1503 -0.0623 -0.6901
 6068SOL     OW29665   3.112   1.410  16.365 -0.1920  0.1418  0.1793
 6068SOL    HW129666   3.019   1.424  16.347  0.0027 -0.0027 -0.9253
 6068SOL    HW229667   3.103   1.375  16.454  2.1145 -4.4002 -1.4378
 6069SOL     OW29668   4.458   2.588  12.519 -0.0643  0.4783  0.0399
 6069SOL    HW129669   4.409   2.635  12.451  1.2955  3.3398  1.0181
 6069SOL    HW229670   4.490   2.660  12.573 -0.6292  1.3347 -0.7527
 6070SOL     OW29671   2.868   1.839  14.789 -0.2176 -0.2930 -0.2934
 6070SOL    HW129672   2.845   1.791  14.710  2.6713  2.7644 -2.9468
 6070SOL    HW229673   2.935   1.785  14.832 -1.4591 -2.3743 -0.9781
 6071SOL     OW29674   2.510   2.072   4.067  0.3471 -0.0530 -0.4795
 6071SOL    HW129675   2.526   2.000   4.127 -0.6215 -0.2493 -0.4567
 6071SOL    HW229676   2.600   2.085   4.039  0.1963  0.4730 -0.7228
 6072SOL     OW29677   2.861   1.888   3.505  0.1252 -0.3026  0.3907
 6072SOL    HW129678   2.926   1.954   3.529  1.1409 -1.8126  1.8309
 6072SOL    HW229679   2.807   1.897   3.584 -2.8055 -0.9081 -1.5537
 6073SOL     OW29680   3.157   3.966   7.584  0.3930 -0.5157  0.0109
 6073SOL    HW129681   3.191   3.971   7.494  0.1935  0.1172 -0.0286
 6073SOL    HW229682   3.152   4.061   7.591 -0.8441 -0.5931  0.2302
 6074SOL     OW29683   2.764   2.186   6.722 -0.5455  0.0011 -0.1282
 6074SOL    HW129684   2.776   2.274   6.759 -0.3652  0.4758 -1.3070
 6074SOL    HW229685   2.808   2.190   6.637 -1.7711 -0.7412 -0.7989
 6075SOL     OW29686   3.999   0.719   9.494  0.5509 -0.1912  0.1152
 6075SOL    HW129687   3.915   0.756   9.468 -0.1127 -0.5230  1.7973
 6075SOL    HW229688   3.986   0.701   9.587  2.9712 -0.0739  0.4759
 6076SOL     OW29689   0.308   1.928   3.763  0.3495 -0.2244  0.1980
 6076SOL    HW129690   0.306   1.901   3.671  1.3099 -2.4906  0.8304
 6076SOL    HW229691   0.218   1.912   3.792 -0.5359 -0.7089 -2.7633
 6077SOL     OW29692   4.480   3.231   8.806 -0.0893 -0.4543 -0.7639
 6077SOL    HW129693   4.490   3.276   8.722  1.3892  1.1414  0.2598
 6077SOL    HW229694   4.559   3.257   8.854 -1.6628 -0.8432  2.0230
 6078SOL     OW29695   0.722   0.170   5.145 -0.0862  0.1191  0.3838
 6078SOL    HW129696   0.704   0.263   5.127 -1.7940 -0.6871 -2.0952
 6078SOL    HW229697   0.695   0.169   5.237  2.9073 -2.4211  1.2041
 6079SOL     OW29698   1.301   4.373   7.102  0.1553  0.3638  0.2671
 6079SOL    HW129699   1.358   4.379   7.025  0.2576 -1.2080  0.2114
 6079SOL    HW229700   1.340   4.446   7.151 -0.4203  0.4904  0.5297
 6080SOL     OW29701   0.104   1.426   6.580 -0.1186 -0.1693  0.0050
 6080SOL    HW129702   0.153   1.496   6.536 -1.5362 -0.4926 -2.0842
 6080SOL    HW229703   0.181   1.371   6.592  1.1577  1.5505 -0.1676
 6081SOL     OW29704   3.535   1.482   4.420  0.1526 -0.2493 -0.0599
 6081SOL    HW129705   3.538   1.466   4.325  1.6881  1.0321 -0.2160
 6081SOL    HW229706   3.588   1.413   4.459 -0.1331 -0.2514  0.3309
 6082SOL     OW29707   1.426   2.355  11.887 -0.1503  0.1747  0.1727
 6082SOL    HW129708   1.497   2.410  11.921  0.0875  0.7790 -1.2908
 6082SOL    HW229709   1.347   2.379  11.935 -0.6895  1.5687 -1.4137
 6083SOL     OW29710   1.319   0.442  10.308  0.2707 -0.2997 -0.1201
 6083SOL    HW129711   1.365   0.526  10.296  2.2394 -1.3284  0.2678
 6083SOL    HW229712   1.315   0.445  10.404  0.1471  2.5380 -0.2123
 6084SOL     OW29713   3.070   0.340   9.480  0.3684 -1.1927 -0.0679
 6084SOL    HW129714   3.041   0.417   9.431  0.8762 -0.0914  1.3694
 6084SOL    HW229715   3.105   0.284   9.411 -0.8391 -0.1963 -1.5018
 6085SOL     OW29716   1.981   4.217  10.776 -0.3617 -0.4935  0.1317
 6085SOL    HW129717   1.933   4.142  10.812 -1.1189 -1.0669 -2.0728
 6085SOL    HW229718   1.955   4.279  10.845  0.1548  0.7261 -0.7874
 6086SOL     OW29719   0.229   4.429   3.427 -0.0275 -0.3223  0.0704
 6086SOL    HW129720   0.215   4.477   3.509  1.2307 -0.7463  0.5482
 6086SOL    HW229721   0.143   4.424   3.385  0.3498 -3.1542 -0.3616
 6087SOL     OW29722   2.240   0.934   0.645  0.5592 -0.1981 -0.4786
 6087SOL    HW129723   2.282   0.851   0.669 -0.8124 -0.9837 -0.8397
 6087SOL    HW229724   2.161   0.898   0.606  1.0095 -2.5213  0.7166
 6088SOL     OW29725   0.314   1.291   4.102 -0.0761  0.0257 -0.1518
 6088SOL    HW129726   0.271   1.267   4.183  2.6566  3.2347  2.2455
 6088SOL    HW229727   0.244   1.317   4.041 -0.3829 -0.5016 -0.0249
 6089SOL     OW29728   0.470   3.423  12.912 -0.0104  0.1486  0.6346
 6089SOL    HW129729   0.429   3.345  12.874 -0.3439  0.7771 -0.3007
 6089SOL    HW229730   0.483   3.467  12.828 -1.0123  0.0059  0.4085
 6090SOL     OW29731   0.720   3.286   9.026 -0.4226  0.2224  0.1795
 6090SOL    HW129732   0.637   3.278   8.979 -0.0993 -2.2448  0.0260
 6090SOL    HW229733   0.775   3.336   8.965  2.5730 -1.1832  1.7391
 6091SOL     OW29734   1.990   2.622  11.834 -0.3117  0.0315  0.0462
 6091SOL    HW129735   1.989   2.534  11.798  1.1180 -1.9356  4.7800
 6091SOL    HW229736   2.034   2.613  11.919  0.7218  0.1725 -0.4736
 6092SOL     OW29737   0.449   2.987  10.911  0.2531 -0.0115  0.4975
 6092SOL    HW129738   0.535   3.024  10.895 -0.6087  1.7139 -0.2124
 6092SOL    HW229739   0.467   2.897  10.885 -0.7997  0.1789 -0.9185
 6093SOL     OW29740   1.751   3.660   0.514  0.1350 -0.8943 -0.4335
 6093SOL    HW129741   1.835   3.641   0.555 -0.6008  0.2175  1.5566
 6093SOL    HW229742   1.776   3.708   0.435  0.3402  1.2622  0.9514
 6094SOL     OW29743   2.953   0.959  15.019 -0.4103 -0.3461 -0.3212
 6094SOL    HW129744   2.923   0.872  15.043  2.0438 -1.2776 -0.6796
 6094SOL    HW229745   2.897   1.022  15.066  1.9240  1.2661  0.3352
 6095SOL     OW29746   3.257   3.039   5.336  0.5611 -0.5966 -0.5995
 6095SOL    HW129747   3.265   3.073   5.247  0.6012  1.5268  0.2218
 6095SOL    HW229748   3.290   3.110   5.393 -1.2245 -1.1299  1.0823
 6096SOL     OW29749   2.922   3.275   2.159  0.0214  0.3038  0.5179
 6096SOL    HW129750   2.845   3.300   2.107  0.6650  1.7617  0.2763
 6096SOL    HW229751   2.898   3.187   2.189  1.4712 -0.5226 -0.7677
 6097SOL     OW29752   1.598   1.307   9.480  0.2250  0.3822  0.1107
 6097SOL    HW129753   1.561   1.230   9.435  0.5704  0.1032  0.2974
 6097SOL    HW229754   1.675   1.268   9.522  1.3520 -1.1040 -3.2911
 6098SOL     OW29755   0.744   3.520  14.773  0.0411 -0.0896 -0.0002
 6098SOL    HW129756   0.768   3.570  14.851  0.8171  0.0003 -0.2934
 6098SOL    HW229757   0.802   3.563  14.710  2.7231 -1.3871  1.6211
 6099SOL     OW29758   2.562   3.269   9.569  0.6409  0.1092 -0.4151
 6099SOL    HW129759   2.490   3.315   9.527 -0.8293 -0.2857  1.7122
 6099SOL    HW229760   2.636   3.306   9.520 -0.5592  0.5627 -1.8754
 6100SOL     OW29761   0.184   3.829   2.540  0.3568  0.1175  0.0996
 6100SOL    HW129762   0.182   3.734   2.553  1.4324 -0.4400 -3.7586
 6100SOL    HW229763   0.273   3.850   2.566  0.2992  2.1663 -1.3248
 6101SOL     OW29764   2.556   2.591   1.207 -0.0814  0.2001 -0.4829
 6101SOL    HW129765   2.573   2.503   1.174  2.0627  0.0792  0.9118
 6101SOL    HW229766   2.564   2.633   1.122 -1.6055 -1.0936 -1.2476
 6102SOL     OW29767   4.659   1.170   4.496  0.2790 -0.4391  0.3028
 6102SOL    HW129768   4.616   1.107   4.439  1.6268 -2.3064  1.3411
 6102SOL    HW229769   4.638   1.251   4.449  0.9568 -1.2162 -1.3746
 6103SOL     OW29770   4.096   4.267  14.155 -0.1470 -0.1200  0.7478
 6103SOL    HW129771   4.002   4.255  14.149 -0.5362  2.5724  1.1376
 6103SOL    HW229772   4.106   4.351  14.202 -0.5503  0.6252 -0.5023
 6104SOL     OW29773   1.441   1.519   0.900 -0.3354 -0.6188 -0.0760
 6104SOL    HW129774   1.471   1.455   0.964  1.1725 -0.6542 -0.8238
 6104SOL    HW229775   1.499   1.503   0.826 -0.2140 -0.9836  0.0964
 6105SOL     OW29776   4.201   1.479  15.138  0.6644 -0.1598  0.0608
 6105SOL    HW129777   4.171   1.410  15.198 -3.1423  1.4804  0.0803
 6105SOL    HW229778   4.118   1.488  15.090  1.4472 -0.3698 -1.3205
 6106SOL     OW29779   2.882   2.294  14.696  0.0698  0.0737 -0.2754
 6106SOL    HW129780   2.940   2.219  14.709 -2.0982 -1.3989  0.8904
 6106SOL    HW229781   2.813   2.247  14.650  0.6064  1.0897 -2.1060
 6107SOL     OW29782   1.315   2.615   4.648 -0.0422 -0.5315 -0.1191
 6107SOL    HW129783   1.323   2.621   4.743  1.0984  1.6211 -0.3450
 6107SOL    HW229784   1.397   2.572   4.626 -0.0261 -0.2879 -0.5284
 6108SOL     OW29785   0.684   0.445   8.527 -0.6635 -0.1854 -0.0920
 6108SOL    HW129786   0.636   0.392   8.464  1.1648 -0.8797 -0.8984
 6108SOL    HW229787   0.638   0.529   8.527  0.3961  0.3982 -0.3767
 6109SOL     OW29788   1.619   2.399   7.602 -0.6942 -0.3154 -0.3747
 6109SOL    HW129789   1.682   2.426   7.669 -2.2105  1.2839  0.4158
 6109SOL    HW229790   1.627   2.476   7.546 -0.6275  0.9758  1.4213
 6110SOL     OW29791   0.036   3.326   8.847  0.5547  0.4649  0.2197
 6110SOL    HW129792   0.122   3.295   8.818  0.7862  1.1862  0.1489
 6110SOL    HW229793   0.061   3.399   8.904  1.0459 -0.1035  0.7442
 6111SOL     OW29794   0.896   1.742  14.359 -0.5652  0.4839  0.0671
 6111SOL    HW129795   0.917   1.754  14.266 -1.4078 -0.2869 -0.2222
 6111SOL    HW229796   0.833   1.670  14.360  0.8100 -0.7305 -0.9589
 6112SOL     OW29797   1.570   2.894   1.882  0.4160 -0.5222  0.1251
 6112SOL    HW129798   1.638   2.917   1.945 -0.1149 -1.7359  1.1527
 6112SOL    HW229799   1.582   2.799   1.887  1.3619 -0.4523 -0.9431
 6113SOL     OW29800   0.301   1.459  10.471  0.0225 -0.8956  0.0814
 6113SOL    HW129801   0.299   1.438  10.378 -1.0700 -2.4287  0.4569
 6113SOL    HW229802   0.212   1.489  10.489 -0.6406 -3.7995  1.6662
 6114SOL     OW29803   1.218   1.590   3.288 -0.2358  0.0272 -0.4562
 6114SOL    HW129804   1.311   1.587   3.308 -0.5979 -2.7805  0.7395
 6114SOL    HW229805   1.182   1.580   3.376  0.3086 -1.3675 -0.3993
 6115SOL     OW29806   2.497   0.483   2.634  0.4700  0.2559 -0.1806
 6115SOL    HW129807   2.564   0.442   2.579  0.2498 -0.9042  0.4189
 6115SOL    HW229808   2.531   0.572   2.621 -0.4494  0.2197 -2.9306
 6116SOL     OW29809   2.051   2.618   4.442 -0.4448  0.2609 -0.3743
 6116SOL    HW129810   2.057   2.532   4.485  3.2081  0.9242  0.4303
 6116SOL    HW229811   2.083   2.607   4.353  1.9630 -0.8934  0.6373
 6117SOL     OW29812   2.474   0.894  10.066  0.3979 -0.1945  0.6396
 6117SOL    HW129813   2.414   0.966  10.045  1.0876 -0.3545 -1.8637
 6117SOL    HW229814   2.550   0.932  10.022  1.3658 -1.7082  1.0119
 6118SOL     OW29815   2.898   2.006  17.236  0.1032  0.1651 -0.3625
 6118SOL    HW129816   2.926   1.930  17.288 -0.4952 -0.8377 -1.5000
 6118SOL    HW229817   2.973   2.024  17.180 -1.1917  2.5258 -1.3213
 6119SOL     OW29818   1.594   3.680   2.046 -0.1699  0.2779 -0.1758
 6119SOL    HW129819   1.537   3.733   1.991  0.7627  0.5179 -0.9041
 6119SOL    HW229820   1.540   3.687   2.125  0.3480 -0.1672  0.2242
 6120SOL     OW29821   0.291   2.133  12.553  0.4609 -0.2411 -1.0903
 6120SOL    HW129822   0.339   2.062  12.596  1.8249  1.6513  0.4900
 6120SOL    HW229823   0.339   2.213  12.576  0.6410 -0.6380 -0.0883
 6121SOL     OW29824   1.438   4.378   2.775  0.1531  0.7065 -0.2332
 6121SOL    HW129825   1.507   4.368   2.709  0.1540 -0.1541 -0.1019
 6121SOL    HW229826   1.488   4.401   2.854 -0.4019  0.2603  0.2456
 6122SOL     OW29827   3.643   4.518   3.826  0.0002 -0.7699 -0.2621
 6122SOL    HW129828   3.570   4.548   3.879 -0.4246 -1.0096 -0.7175
 6122SOL    HW229829   3.691   4.470   3.893 -0.9236 -1.1343  0.1332
 6123SOL     OW29830   3.272   0.081  10.431 -0.3794 -0.2551  0.1242
 6123SOL    HW129831   3.340   0.129  10.384 -1.7845  0.9833 -0.6537
 6123SOL    HW229832   3.282   0.001  10.380  2.4914 -1.0311  1.9123
 6124SOL     OW29833   2.691   3.964   3.061 -0.1733  0.0601  0.3205
 6124SOL    HW129834   2.769   3.910   3.071 -1.1035 -1.1867  0.9108
 6124SOL    HW229835   2.725   4.053   3.068  2.2751 -0.9299  1.1935
 6125SOL     OW29836   0.437   2.449  10.643  0.2170 -0.2804 -0.2679
 6125SOL    HW129837   0.348   2.483  10.631  0.4267 -0.8926 -3.4418
 6125SOL    HW229838   0.445   2.418  10.733  0.6940  0.0698 -0.1909
 6126SOL     OW29839   2.396   4.059   7.304 -0.2159  0.0546 -0.1249
 6126SOL    HW129840   2.395   3.981   7.360  1.6674  0.6345  0.7221
 6126SOL    HW229841   2.464   4.025   7.246  0.1592  1.2732 -0.3798
 6127SOL     OW29842   3.547   3.898   6.393  0.3479  0.2262 -0.1457
 6127SOL    HW129843   3.603   3.887   6.469 -1.0105  0.7204  0.9161
 6127SOL    HW229844   3.595   3.847   6.327  1.5976 -2.4427  2.8530
 6128SOL     OW29845   3.587   2.207   5.545 -0.2148  0.4988 -0.0296
 6128SOL    HW129846   3.598   2.288   5.496  2.6685  0.2319  0.1541
 6128SOL    HW229847   3.558   2.147   5.476  3.0287 -0.2508 -0.7542
 6129SOL     OW29848   0.289   3.443  13.314  0.5855  0.0852  0.2793
 6129SOL    HW129849   0.260   3.397  13.236  0.8550 -0.5883  0.5738
 6129SOL    HW229850   0.362   3.498  13.285 -1.7640  3.8504  1.4543
 6130SOL     OW29851   1.952   0.206   2.267 -0.1832 -0.2360  0.2852
 6130SOL    HW129852   1.905   0.134   2.224 -0.3326  1.8152 -3.0165
 6130SOL    HW229853   2.046   0.193   2.256 -0.1435 -0.4403  0.8498
 6131SOL     OW29854   3.654   0.147   9.660  0.1305 -0.2336 -0.4194
 6131SOL    HW129855   3.602   0.185   9.730  0.9810  0.3409 -0.1069
 6131SOL    HW229856   3.629   0.197   9.582 -0.2007  0.5506  0.1923
 6132SOL     OW29857   1.415   1.437   7.192  0.1653 -0.3885 -0.6754
 6132SOL    HW129858   1.438   1.404   7.279 -0.2269  0.3906 -0.2811
 6132SOL    HW229859   1.433   1.530   7.200 -1.0642 -0.2604  0.5558
 6133SOL     OW29860   2.774   2.920   8.403 -0.1807  0.5674  0.2862
 6133SOL    HW129861   2.748   2.998   8.453 -0.1035  1.9140 -1.7766
 6133SOL    HW229862   2.711   2.923   8.331  0.1634 -2.7070 -0.1077
 6134SOL     OW29863   1.806   2.363  16.074 -0.1043  0.1028  0.1717
 6134SOL    HW129864   1.865   2.398  16.007  1.6503 -1.0667  1.0831
 6134SOL    HW229865   1.758   2.440  16.105  0.5104  0.2701  0.7082
 6135SOL     OW29866   4.372   4.021  10.873  0.5946  0.0259 -0.1527
 6135SOL    HW129867   4.375   4.101  10.820  0.1470  0.2395  0.1352
 6135SOL    HW229868   4.346   4.067  10.953  0.2374  1.0644 -0.8605
 6136SOL     OW29869   1.878   3.967  11.491  0.1454  0.0806  0.2217
 6136SOL    HW129870   1.833   3.894  11.533 -0.8824  0.5097 -0.1330
 6136SOL    HW229871   1.964   3.933  11.465  0.6923  0.8803  1.0224
 6137SOL     OW29872   1.833   2.420  15.166  0.5648  0.0817  0.0352
 6137SOL    HW129873   1.876   2.391  15.085  0.9684  0.0059  0.2792
 6137SOL    HW229874   1.808   2.338  15.207  1.4112  0.8143  2.0173
 6138SOL     OW29875   4.189   1.518  13.535  0.1605 -0.3991  0.0808
 6138SOL    HW129876   4.126   1.589  13.545  0.2310 -0.2146 -0.8043
 6138SOL    HW229877   4.268   1.565  13.509 -0.0236  0.9103  1.9091
 6139SOL     OW29878   4.132   2.788  10.160 -0.0052 -0.2234  0.0517
 6139SOL    HW129879   4.108   2.851  10.092 -0.2834 -2.2366 -1.7173
 6139SOL    HW229880   4.180   2.846  10.219  1.8373 -0.3757 -1.2856
 6140SOL     OW29881   2.272   2.198   3.982 -0.1463  0.4737 -0.3349
 6140SOL    HW129882   2.246   2.164   3.896 -1.2684  0.8949 -0.1524
 6140SOL    HW229883   2.328   2.126   4.012 -0.6155 -0.6015 -1.9815
 6141SOL     OW29884   2.263   2.872   1.849  0.1269  0.0241  0.7941
 6141SOL    HW129885   2.194   2.850   1.786  0.6550  0.0715  0.1932
 6141SOL    HW229886   2.340   2.905   1.802 -1.6149 -2.0886 -3.5439
 6142SOL     OW29887   4.433   2.204   9.015 -0.5225  0.0706 -0.2013
 6142SOL    HW129888   4.411   2.242   8.930 -1.4285 -1.4194 -0.6455
 6142SOL    HW229889   4.507   2.258   9.042  0.6807 -1.6561 -0.0185
 6143SOL     OW29890   1.705   3.591   1.334 -0.5160 -0.2320  1.1687
 6143SOL    HW129891   1.792   3.612   1.367 -0.8350  0.2261  1.7189
 6143SOL    HW229892   1.678   3.507   1.372 -0.7352 -1.1212 -0.9948
 6144SOL     OW29893   4.427   0.465   1.779 -0.3662 -0.6696  0.8394
 6144SOL    HW129894   4.428   0.489   1.871 -0.8641  0.0738  0.6572
 6144SOL    HW229895   4.518   0.445   1.758 -0.6247  0.9562 -1.8486
 6145SOL     OW29896   1.980   3.062  12.663  0.4062  0.2248 -0.0330
 6145SOL    HW129897   1.890   3.061  12.696  1.2900  1.8301  2.4882
 6145SOL    HW229898   1.997   3.156  12.662  0.3645  0.2505  1.1480
 6146SOL     OW29899   1.815   4.686   1.580  0.0695  0.0484  1.0335
 6146SOL    HW129900   1.792   0.053   1.604 -0.4045  0.5475 -1.3529
 6146SOL    HW229901   1.747   4.675   1.514  0.7292  0.7791  0.2436
 6147SOL     OW29902   4.036   0.610   4.656 -0.6211  0.4569  0.6054
 6147SOL    HW129903   3.954   0.577   4.619 -0.2980  0.5005 -0.1511
 6147SOL    HW229904   4.055   0.536   4.714  1.1557  2.3912  2.4674
 6148SOL     OW29905   3.630   1.540   2.681 -1.2050 -0.5614 -0.0282
 6148SOL    HW129906   3.674   1.557   2.598 -0.1128 -2.2601  0.2190
 6148SOL    HW229907   3.592   1.458   2.652  0.9896 -1.6029  0.0194
 6149SOL     OW29908   3.313   3.893  10.897 -0.2843  0.4552 -0.2422
 6149SOL    HW129909   3.296   3.843  10.977  2.3852 -1.6422 -0.9824
 6149SOL    HW229910   3.235   3.948  10.896 -1.1719 -0.7795  0.8311
 6150SOL     OW29911   3.525   0.447   6.542  0.4817 -0.0752 -0.2919
 6150SOL    HW129912   3.586   0.492   6.484  1.6836  0.5318  1.4447
 6150SOL    HW229913   3.491   0.518   6.597 -0.6827 -2.6219  2.2977
 6151SOL     OW29914   3.280   2.615  17.462 -0.3328 -0.4704 -0.3277
 6151SOL    HW129915   3.358   2.565  17.487  0.8152  1.4033 -0.1616
 6151SOL    HW229916   3.292   2.684  17.527 -3.3589  2.7231 -3.2069
 6152SOL     OW29917   0.562   0.752   4.085 -0.0750  0.0924  0.1730
 6152SOL    HW129918   0.603   0.826   4.041  0.2606  0.9303  1.9284
 6152SOL    HW229919   0.469   0.759   4.066 -0.4167 -0.7170  1.5268
 6153SOL     OW29920   0.612   1.324   9.515  0.6575 -0.6753 -0.1802
 6153SOL    HW129921   0.652   1.402   9.553 -1.4042  1.4080 -2.2665
 6153SOL    HW229922   0.533   1.369   9.484 -0.5386 -1.9076  1.0962
 6154SOL     OW29923   0.299   3.382  10.902 -0.0496 -0.6790 -0.1900
 6154SOL    HW129924   0.331   3.344  10.983 -1.1824  1.2314  1.1449
 6154SOL    HW229925   0.225   3.433  10.932  0.8575  0.3373  0.3089
 6155SOL     OW29926   2.875   3.715  15.252 -0.6223 -0.3574 -0.7486
 6155SOL    HW129927   2.841   3.691  15.165  0.0784 -3.1352 -0.2680
 6155SOL    HW229928   2.965   3.685  15.239 -0.1492  0.4428  0.6449
 6156SOL     OW29929   1.551   2.125   3.239  0.0730  0.2152 -0.0186
 6156SOL    HW129930   1.557   2.183   3.315  2.0180 -0.9153  0.6822
 6156SOL    HW229931   1.631   2.076   3.256  0.7321  1.2486 -0.1323
 6157SOL     OW29932   0.406   0.619   5.366 -0.2871 -0.2482  0.1663
 6157SOL    HW129933   0.468   0.683   5.401  1.6540 -2.6231  1.0414
 6157SOL    HW229934   0.337   0.637   5.431 -0.6484  0.2136 -0.3453
 6158SOL     OW29935   2.658   1.881  15.360  0.4456 -1.0590 -0.5001
 6158SOL    HW129936   2.685   1.880  15.268  0.4709 -1.2863 -0.4909
 6158SOL    HW229937   2.563   1.882  15.351  0.4237 -1.1002 -0.2749
 6159SOL     OW29938   4.022   3.547  17.216 -0.2110  0.7559 -0.5510
 6159SOL    HW129939   3.992   3.546  17.125  1.3255 -0.5846 -1.0216
 6159SOL    HW229940   3.983   3.632  17.240  1.4336  1.6061 -0.8655
 6160SOL     OW29941   3.319   4.310   3.990 -0.3051 -0.1707 -0.2084
 6160SOL    HW129942   3.266   4.259   4.052 -0.8951  0.0462 -0.5302
 6160SOL    HW229943   3.397   4.254   3.985 -0.8010 -0.9180  0.3153
 6161SOL     OW29944   3.586   1.338   2.477 -0.4826  0.3393 -0.7259
 6161SOL    HW129945   3.640   1.259   2.482  0.4706  1.0674  0.5155
 6161SOL    HW229946   3.501   1.296   2.465 -0.2634  0.0203 -1.1468
 6162SOL     OW29947   3.545   3.516   7.796 -0.0748  0.6958 -0.5892
 6162SOL    HW129948   3.604   3.589   7.778 -0.8549  1.1913 -1.1287
 6162SOL    HW229949   3.603   3.447   7.827 -1.2064  0.2817  0.5968
 6163SOL     OW29950   4.182   3.172   7.214  0.4956  0.0765  0.1685
 6163SOL    HW129951   4.241   3.130   7.277  2.6926  0.1158 -1.8619
 6163SOL    HW229952   4.138   3.096   7.174  0.2168  0.0915  0.4509
 6164SOL     OW29953   3.977   0.228   5.543 -0.5203 -0.0780 -0.4108
 6164SOL    HW129954   3.881   0.222   5.545 -0.5507  0.5063  0.0062
 6164SOL    HW229955   3.988   0.143   5.501 -2.3646 -0.1290 -0.8106
 6165SOL     OW29956   4.223   4.012   7.608 -0.2881  0.1138 -0.0473
 6165SOL    HW129957   4.291   4.078   7.596 -0.5550  0.8059  2.2419
 6165SOL    HW229958   4.256   3.960   7.681 -1.0104 -1.3376 -0.7346
 6166SOL     OW29959   1.051   1.785   8.684 -0.3645 -0.8158 -0.2293
 6166SOL    HW129960   0.992   1.850   8.722  2.9531  1.9416  0.2502
 6166SOL    HW229961   1.041   1.714   8.748  0.5464 -0.0431  0.7848
 6167SOL     OW29962   0.363   3.877   5.181 -0.4316 -0.3040 -0.6724
 6167SOL    HW129963   0.408   3.805   5.224  0.7469 -0.2835 -1.8769
 6167SOL    HW229964   0.325   3.919   5.258  2.9184  2.7883 -0.7448
 6168SOL     OW29965   4.651   1.158  11.306 -0.1562 -0.3309 -0.9270
 6168SOL    HW129966   4.561   1.179  11.284 -0.2587  1.0945  0.7896
 6168SOL    HW229967   4.645   1.078  11.358  0.5700 -0.2156 -0.6659
 6169SOL     OW29968   3.586   2.541   0.547 -0.2909  0.4125  0.3521
 6169SOL    HW129969   3.646   2.493   0.604 -1.6751 -1.3878  0.2998
 6169SOL    HW229970   3.506   2.536   0.600 -0.1866 -0.4428  0.4230
 6170SOL     OW29971   1.317   2.103   2.173 -0.2125  0.0923 -0.7120
 6170SOL    HW129972   1.339   2.195   2.160  1.1099 -0.1198  0.0857
 6170SOL    HW229973   1.273   2.082   2.090 -2.9203  0.6369  0.6090
 6171SOL     OW29974   2.147   1.854   6.209  0.2459  0.4362  0.0331
 6171SOL    HW129975   2.235   1.848   6.173  1.1402  2.4977  1.8590
 6171SOL    HW229976   2.153   1.944   6.242  0.6708  0.0366  1.0509
 6172SOL     OW29977   3.935   0.645  14.647 -0.7417 -0.1102 -0.3168
 6172SOL    HW129978   3.842   0.631  14.668 -0.3488 -2.0622  0.1225
 6172SOL    HW229979   3.918   0.725  14.597  0.7889 -0.5209 -1.4780
 6173SOL     OW29980   1.679   2.663   3.932  0.0394  0.1013 -0.1790
 6173SOL    HW129981   1.710   2.734   3.875  1.6741 -0.6973 -0.2648
 6173SOL    HW229982   1.642   2.599   3.871  0.6824  0.0764 -0.5425
 6174SOL     OW29983   0.453   2.369   3.483 -0.2724 -0.2412 -0.0526
 6174SOL    HW129984   0.442   2.462   3.502  2.7551  0.3474 -1.2034
 6174SOL    HW229985   0.423   2.362   3.393  0.7606 -0.1572 -0.4056
 6175SOL     OW29986   4.039   3.163  14.424  0.4265  0.2045  0.3524
 6175SOL    HW129987   3.963   3.164  14.366 -0.9045  2.3561  2.1502
 6175SOL    HW229988   4.063   3.072  14.439  0.4356 -0.3530 -2.9441
 6176SOL     OW29989   0.765   2.445   5.970  0.3122 -0.0683 -0.0302
 6176SOL    HW129990   0.673   2.431   5.946  0.3845 -0.0470 -0.3292
 6176SOL    HW229991   0.744   2.488   6.053 -2.9514 -1.7605 -0.0038
 6177SOL     OW29992   3.896   3.980   4.545  0.5286 -0.1780 -0.8061
 6177SOL    HW129993   3.882   4.026   4.462 -3.5295  0.3935  0.2116
 6177SOL    HW229994   3.953   3.909   4.514  0.4507 -1.1000  1.2083
 6178SOL     OW29995   4.302   3.266   6.512 -0.0854 -0.1716 -0.2967
 6178SOL    HW129996   4.277   3.192   6.567 -1.7907  0.3398 -0.3940
 6178SOL    HW229997   4.394   3.242   6.496  0.0239  0.1008 -0.0868
 6179SOL     OW29998   3.161   0.258   7.144 -0.7994  0.1247 -0.0948
 6179SOL    HW129999   3.135   0.347   7.121 -1.6777 -0.3281 -0.8548
 6179SOL    HW230000   3.251   0.272   7.174 -0.9487  0.3502  0.2442
 6180SOL     OW30001   0.112   1.380   5.104 -0.1036  0.2939  0.2236
 6180SOL    HW130002   0.036   1.438   5.110  1.5239  2.0921  2.8630
 6180SOL    HW230003   0.155   1.409   5.024 -1.6728 -0.2216 -0.8243
 6181SOL     OW30004   3.678   0.869   6.103  0.0407  0.0425  0.3197
 6181SOL    HW130005   3.618   0.817   6.156 -0.0130 -0.0549  0.1631
 6181SOL    HW230006   3.672   0.955   6.145  3.3235  0.9463 -1.0189
 6182SOL     OW30007   1.795   2.819   3.763  0.1482 -0.8981  0.3104
 6182SOL    HW130008   1.885   2.787   3.770  0.1580 -0.8545  0.3869
 6182SOL    HW230009   1.797   2.915   3.758  0.1307 -0.8504  1.2050
 6183SOL     OW30010   1.184   0.470   1.567  0.2831  0.0783  0.6804
 6183SOL    HW130011   1.118   0.448   1.500 -1.3939  1.0302  2.0105
 6183SOL    HW230012   1.149   0.411   1.634 -0.0258 -1.0540 -0.4607
 6184SOL     OW30013   1.030   1.854   0.740 -0.4513 -0.5696 -0.0052
 6184SOL    HW130014   1.098   1.862   0.673 -1.7787 -0.0396 -1.2764
 6184SOL    HW230015   0.953   1.897   0.703  0.4647  1.7899  0.8147
 6185SOL     OW30016   2.803   4.083  16.119  0.6627  0.5540  0.0924
 6185SOL    HW130017   2.816   3.988  16.131 -1.0960  0.2624 -0.3011
 6185SOL    HW230018   2.787   4.109  16.209  0.8431 -3.1348  1.2191
 6186SOL     OW30019   4.242   2.515   8.414 -0.0907 -0.2286 -0.0139
 6186SOL    HW130020   4.299   2.581   8.374 -1.4951  0.7749 -0.3667
 6186SOL    HW230021   4.189   2.578   8.462  1.9373 -0.2572  2.2917
 6187SOL     OW30022   2.735   3.371   2.544  0.7825 -0.5597 -0.6798
 6187SOL    HW130023   2.742   3.276   2.559  0.5307 -0.2594  1.3320
 6187SOL    HW230024   2.763   3.396   2.632 -1.3095 -3.3228  0.7679
 6188SOL     OW30025   4.072   3.534  11.010 -0.5469 -0.0183  0.7270
 6188SOL    HW130026   4.000   3.517  10.950 -0.6133  1.1516  0.4591
 6188SOL    HW230027   4.127   3.457  10.993 -1.6886 -0.6146 -0.2423
 6189SOL     OW30028   0.171   2.996   6.496 -0.1073  0.0161 -0.0581
 6189SOL    HW130029   0.126   2.961   6.420 -0.6503 -1.0373  0.7466
 6189SOL    HW230030   0.157   3.090   6.506  1.6506  0.2133  0.5617
 6190SOL     OW30031   3.814   0.554  16.881 -0.1297 -0.0685  0.3973
 6190SOL    HW130032   3.807   0.587  16.971 -0.7578 -0.2149  0.4000
 6190SOL    HW230033   3.906   0.570  16.860  0.0320  1.2926  2.0614
 6191SOL     OW30034   3.843   1.748   9.740 -0.3025  0.1225  0.4795
 6191SOL    HW130035   3.934   1.724   9.761  0.4095  1.5284 -1.0024
 6191SOL    HW230036   3.851   1.841   9.763 -1.0254  0.2448  0.2042
 6192SOL     OW30037   3.677   0.517   1.399  0.4063  0.1306  0.0321
 6192SOL    HW130038   3.631   0.461   1.336  2.2033  1.0983 -2.1423
 6192SOL    HW230039   3.763   0.475   1.404 -1.0080 -2.4238  2.6061
 6193SOL     OW30040   1.367   0.943   3.202 -0.2210 -0.4022  0.7089
 6193SOL    HW130041   1.287   0.982   3.240 -1.9146 -2.5528 -0.6292
 6193SOL    HW230042   1.393   0.881   3.271  1.5285 -0.4233  0.0249
 6194SOL     OW30043   0.538   1.259   3.840  0.0416  0.2864 -0.2231
 6194SOL    HW130044   0.451   1.223   3.854 -0.1092  0.7852  0.1299
 6194SOL    HW230045   0.563   1.265   3.932 -0.2687 -3.5443  0.1144
 6195SOL     OW30046   2.743   0.820   5.563 -0.0843 -0.3147  0.1085
 6195SOL    HW130047   2.817   0.832   5.504 -0.6400  0.3433 -0.4435
 6195SOL    HW230048   2.769   0.735   5.599 -1.4309  0.8960  4.0114
 6196SOL     OW30049   3.142   1.214   7.477  0.0728 -0.1048 -0.1571
 6196SOL    HW130050   3.225   1.167   7.480 -0.9520 -1.8097  1.0562
 6196SOL    HW230051   3.090   1.149   7.430 -0.0656 -0.6193  0.6979
 6197SOL     OW30052   3.701   3.408   3.833  0.0759 -0.0647  0.5534
 6197SOL    HW130053   3.730   3.353   3.906  1.1934  0.0743  0.2181
 6197SOL    HW230054   3.730   3.358   3.757  2.1604  0.5496  0.9510
 6198SOL     OW30055   0.400   2.949   3.567 -0.3812  0.5027 -0.0466
 6198SOL    HW130056   0.456   2.930   3.491  0.7341  0.9810  0.6602
 6198SOL    HW230057   0.315   2.925   3.530  0.8985 -0.8608 -2.1229
 6199SOL     OW30058   1.551   2.693   2.222 -0.3772  0.3377 -0.0650
 6199SOL    HW130059   1.607   2.769   2.209 -1.4583  1.0308 -0.6231
 6199SOL    HW230060   1.522   2.664   2.135  1.1979 -1.1499 -0.1052
 6200SOL     OW30061   2.341   3.517   5.443  0.6608  0.5768 -0.0600
 6200SOL    HW130062   2.311   3.442   5.392 -0.2070 -0.4143  1.8868
 6200SOL    HW230063   2.425   3.483   5.476  1.1926 -0.5480 -2.5776
 6201SOL     OW30064   3.022   3.995  14.214  0.6344  0.1459 -0.2324
 6201SOL    HW130065   3.095   3.974  14.155  1.3808  1.8891  0.0720
 6201SOL    HW230066   3.075   4.011  14.291 -1.2900  1.7485  0.7654
 6202SOL     OW30067   2.830   2.510  16.262 -0.1317 -0.3506  0.4347
 6202SOL    HW130068   2.813   2.554  16.345  0.3122  0.4066  0.1168
 6202SOL    HW230069   2.881   2.435  16.294 -0.4079 -0.6024  0.2849
 6203SOL     OW30070   1.656   3.982   2.326 -0.2867  0.2215  0.2079
 6203SOL    HW130071   1.617   3.942   2.403 -0.0673 -0.1475  0.1315
 6203SOL    HW230072   1.731   4.023   2.367 -0.8869  0.5176  1.0101
 6204SOL     OW30073   3.541   1.917  13.734 -0.6734  0.3250 -0.0844
 6204SOL    HW130074   3.477   1.858  13.773  0.6117 -1.8300 -1.2317
 6204SOL    HW230075   3.623   1.869  13.751 -0.2057  0.9662 -0.5102
 6205SOL     OW30076   4.272   2.258   4.584  0.4252  0.1146  0.3148
 6205SOL    HW130077   4.188   2.259   4.538  0.9216 -3.3325 -0.6060
 6205SOL    HW230078   4.238   2.284   4.670 -2.3503 -0.4631 -0.6023
 6206SOL     OW30079   1.298   3.911   3.041 -0.5708 -0.9398  0.2389
 6206SOL    HW130080   1.274   3.900   2.949 -1.1322 -1.1910  0.4154
 6206SOL    HW230081   1.394   3.909   3.038 -0.5652  0.8902 -0.7354
 6207SOL     OW30082   0.508   3.195  12.735  0.2845  0.1483 -0.2023
 6207SOL    HW130083   0.492   3.134  12.663  0.5550 -2.1614  1.6917
 6207SOL    HW230084   0.596   3.221  12.707 -0.1488  2.0542  0.2164
 6208SOL     OW30085   0.724   0.626  15.999  0.7654 -0.1508 -0.2206
 6208SOL    HW130086   0.710   0.704  16.053 -0.8114  0.1495 -1.0521
 6208SOL    HW230087   0.810   0.644  15.962 -0.3545  0.4188 -2.5751
 6209SOL     OW30088   0.765   1.257   0.800 -0.3390 -0.2779  0.4240
 6209SOL    HW130089   0.781   1.180   0.746  0.6834 -0.8686  1.5717
 6209SOL    HW230090   0.818   1.226   0.873  2.8424  1.5611 -1.0473
 6210SOL     OW30091   0.763   0.846  12.982  0.0504  0.2702  0.4588
 6210SOL    HW130092   0.689   0.899  12.952  0.6786  1.7159  1.3970
 6210SOL    HW230093   0.810   0.907  13.041  2.1086 -0.6915 -0.1864
 6211SOL     OW30094   3.717   3.859   8.195  0.8683 -0.3203 -0.0776
 6211SOL    HW130095   3.804   3.824   8.216  1.3326  2.2097  2.0396
 6211SOL    HW230096   3.673   3.777   8.171 -0.0484  0.3005 -0.5021
 6212SOL     OW30097   4.093   0.611   7.831  0.2573  0.2532  0.8182
 6212SOL    HW130098   4.140   0.558   7.896  0.0059  0.1254  0.8956
 6212SOL    HW230099   4.068   0.681   7.892  1.0199 -0.5032  1.9882
 6213SOL     OW30100   0.082   1.340  16.226 -0.2460 -0.3716  0.0252
 6213SOL    HW130101   0.149   1.325  16.160  1.5935  1.5252  1.4557
 6213SOL    HW230102   0.005   1.355  16.171  2.3317  1.0703 -3.2368
 6214SOL     OW30103   0.484   1.684  12.335  0.0566  0.6625  0.0731
 6214SOL    HW130104   0.531   1.767  12.328 -1.8706  1.5866 -2.1619
 6214SOL    HW230105   0.393   1.715  12.327  0.1346  1.1602  1.1175
 6215SOL     OW30106   1.553   4.191  16.964  0.4525  0.2786  0.3671
 6215SOL    HW130107   1.514   4.175  17.050  0.5574  0.4388  0.4430
 6215SOL    HW230108   1.545   4.102  16.930 -0.7436  1.3999 -2.3166
 6216SOL     OW30109   0.857   2.009   2.384 -0.0941  0.1818  0.6397
 6216SOL    HW130110   0.944   1.985   2.353 -0.4473 -1.3134  0.7888
 6216SOL    HW230111   0.867   2.092   2.430  2.6294 -0.4178  1.1227
 6217SOL     OW30112   3.417   2.378   1.912  0.2577  0.0250 -0.5532
 6217SOL    HW130113   3.452   2.420   1.990 -0.6625 -0.1420 -0.0522
 6217SOL    HW230114   3.503   2.356   1.876 -0.1353  1.3209 -2.2874
 6218SOL     OW30115   0.650   4.242   9.799 -0.2238  0.1794  0.0720
 6218SOL    HW130116   0.594   4.176   9.757  1.0968 -1.5308  1.0075
 6218SOL    HW230117   0.716   4.261   9.733 -0.0015 -0.5025  0.0976
 6219SOL     OW30118   0.893   0.301  13.991 -0.3340  0.5046 -0.4961
 6219SOL    HW130119   0.921   0.352  14.067 -1.2645  0.4535 -0.1153
 6219SOL    HW230120   0.931   0.358  13.924  1.5785  0.7220  0.7837
 6220SOL     OW30121   0.367   1.784  16.224 -0.4918 -0.4292 -0.1092
 6220SOL    HW130122   0.311   1.798  16.300 -0.9565 -1.3019 -0.2912
 6220SOL    HW230123   0.356   1.878  16.208 -0.8090  0.1743  3.6076
 6221SOL     OW30124   1.648   2.740   6.417  0.1789  0.2484  0.5766
 6221SOL    HW130125   1.674   2.680   6.347  0.8040  1.1979  0.0007
 6221SOL    HW230126   1.581   2.785   6.365 -0.8323 -1.0158  0.7795
 6222SOL     OW30127   1.009   4.519   6.489  0.6967 -0.3859  0.2517
 6222SOL    HW130128   1.067   4.537   6.563  0.5216  0.1301  0.2630
 6222SOL    HW230129   1.035   4.430   6.465 -0.1967 -0.2620 -1.1673
 6223SOL     OW30130   3.209   1.521   1.588  0.1018  0.0186  0.3604
 6223SOL    HW130131   3.162   1.599   1.618  1.0857  0.6247  0.3073
 6223SOL    HW230132   3.183   1.506   1.497 -0.1965  0.5508  0.3588
 6224SOL     OW30133   1.230   4.436   4.193  0.7645 -0.3925  0.2091
 6224SOL    HW130134   1.164   4.492   4.233  1.3722  1.1360 -0.9281
 6224SOL    HW230135   1.237   4.360   4.251  0.1879 -1.9700 -1.7750
 6225SOL     OW30136   2.803   4.146  13.382 -0.3293 -0.2980  0.1937
 6225SOL    HW130137   2.897   4.130  13.368 -0.4992 -0.3439 -0.8594
 6225SOL    HW230138   2.776   4.063  13.420 -0.6313  0.4783  1.6882
 6226SOL     OW30139   0.035   1.336  11.505 -0.7175  0.4928 -0.1073
 6226SOL    HW130140   0.107   1.398  11.491  0.1093 -0.5211 -0.3726
 6226SOL    HW230141   0.017   1.295  11.420 -1.0542 -0.1290  0.2624
 6227SOL     OW30142   0.452   0.858  11.207  0.4875  0.8125 -0.1700
 6227SOL    HW130143   0.393   0.791  11.172  0.7590  0.9382 -0.8879
 6227SOL    HW230144   0.531   0.812  11.236 -0.1852  0.4033  0.9823
 6228SOL     OW30145   0.844   3.669   9.370  0.4248  0.1704  0.1885
 6228SOL    HW130146   0.750   3.661   9.355  0.2078  0.1644  1.5131
 6228SOL    HW230147   0.881   3.595   9.322  1.7710  0.1083  1.3087
 6229SOL     OW30148   3.384   3.754   9.725  0.0356 -0.2123  0.0990
 6229SOL    HW130149   3.427   3.683   9.677  0.3457 -0.4085  0.6709
 6229SOL    HW230150   3.438   3.749   9.804 -0.4145 -0.5120  0.3820
 6230SOL     OW30151   1.235   2.795   6.180  0.0347 -0.0284 -0.2474
 6230SOL    HW130152   1.227   2.887   6.205  0.6252 -0.1459  0.3708
 6230SOL    HW230153   1.142   2.778   6.188 -0.3075  1.4935 -0.9787
 6231SOL     OW30154   2.611   4.497  17.458  0.5951  0.1319  0.0228
 6231SOL    HW130155   2.615   4.414  17.409 -2.1488 -0.4712  0.8130
 6231SOL    HW230156   2.547   4.550  17.410 -0.9559 -0.0605  1.8955
 6232SOL     OW30157   1.015   2.670   5.778  0.2262 -0.6460  0.5290
 6232SOL    HW130158   1.035   2.585   5.739  1.2740 -0.5266  0.8248
 6232SOL    HW230159   1.102   2.707   5.772  0.3902 -1.2293 -0.6823
 6233SOL     OW30160   4.626   3.901  16.887  0.1067 -0.1580 -0.4442
 6233SOL    HW130161   4.701   3.842  16.900  0.2645 -0.1670 -1.4197
 6233SOL    HW230162   4.666   3.945  16.813 -0.7044  1.1130 -0.1256
 6234SOL     OW30163   0.214   1.660  10.019 -0.6582 -0.2041  0.4737
 6234SOL    HW130164   0.214   1.733  10.081  0.6088 -1.3442  1.8078
 6234SOL    HW230165   0.176   1.595  10.078 -0.6506  0.6552  1.4165
 6235SOL     OW30166   0.203   0.711   4.438  0.2718  0.3494  0.4190
 6235SOL    HW130167   0.118   0.684   4.405  0.6925 -1.5627  0.9272
 6235SOL    HW230168   0.219   0.653   4.512 -2.3190  0.2275  0.8755
 6236SOL     OW30169   3.468   1.924  16.427  1.0270 -0.8743  0.5322
 6236SOL    HW130170   3.555   1.889  16.409  0.4466 -0.9283 -2.0399
 6236SOL    HW230171   3.408   1.873  16.374  0.2696  0.0882  0.4630
 6237SOL     OW30172   4.441   2.002  14.176  0.0636  0.0636  0.4235
 6237SOL    HW130173   4.507   2.057  14.217 -0.7161  2.2147 -1.2438
 6237SOL    HW230174   4.494   1.966  14.105 -1.0088 -0.3119 -0.1904
 6238SOL     OW30175   3.919   0.400   1.366 -0.1174 -0.2135  0.5033
 6238SOL    HW130176   4.004   0.384   1.409  0.3676 -1.0423 -0.7668
 6238SOL    HW230177   3.915   0.333   1.299 -0.8777  1.7622 -1.4177
 6239SOL     OW30178   4.148   0.078   5.882  0.3940 -0.0902  0.4840
 6239SOL    HW130179   4.231   0.082   5.835 -0.1918 -3.1422 -0.8635
 6239SOL    HW230180   4.086   0.127   5.828  2.1984 -0.5416 -2.0050
 6240SOL     OW30181   2.737   1.755   4.620 -0.1729 -0.6059 -0.3162
 6240SOL    HW130182   2.710   1.688   4.557  0.1717 -0.8319 -0.2233
 6240SOL    HW230183   2.656   1.801   4.641 -0.0732  1.0368 -3.4702
 6241SOL     OW30184   1.296   1.044   4.849  0.1794  0.1013  0.0999
 6241SOL    HW130185   1.265   0.962   4.811  0.4790  1.3270 -2.8480
 6241SOL    HW230186   1.390   1.028   4.848  0.6217  2.5285  0.8679
 6242SOL     OW30187   3.512   2.660   0.326  0.2357  0.9088 -0.2546
 6242SOL    HW130188   3.592   2.687   0.280  1.5686 -0.3739  1.2978
 6242SOL    HW230189   3.548   2.622   0.406 -2.2040 -1.6948 -0.3720
 6243SOL     OW30190   1.000   0.789  15.587  0.7722 -0.4182 -0.7039
 6243SOL    HW130191   1.077   0.814  15.536 -0.3892  1.9317 -1.3008
 6243SOL    HW230192   0.962   0.730  15.522  1.1354  1.8134 -2.9333
 6244SOL     OW30193   4.422   4.340   2.283  0.0167 -0.0008 -0.7949
 6244SOL    HW130194   4.429   4.436   2.284 -0.3276  0.0192  0.1985
 6244SOL    HW230195   4.329   4.323   2.271 -0.2590  0.3732  0.8230
 6245SOL     OW30196   3.042   0.106   0.056 -0.4992 -0.0337 -0.2450
 6245SOL    HW130197   2.979   0.118   0.126  1.3249 -0.2977  1.4418
 6245SOL    HW230198   3.126   0.117   0.101 -0.2959  0.7727 -0.8073
 6246SOL     OW30199   3.234   3.195   0.643 -0.8705 -0.7157 -0.1984
 6246SOL    HW130200   3.156   3.225   0.690  0.2333  1.0151  0.5141
 6246SOL    HW230201   3.214   3.181   0.550  0.2229  0.5658 -0.6152
 6247SOL     OW30202   3.787   1.354   7.106  0.1239  0.9303  0.5433
 6247SOL    HW130203   3.718   1.415   7.082  1.3566  3.1617  2.6488
 6247SOL    HW230204   3.774   1.337   7.199 -1.5191  1.8845  0.4827
 6248SOL     OW30205   2.443   4.537  10.670 -0.0841  0.7851  0.2394
 6248SOL    HW130206   2.377   4.604  10.688 -0.7940  0.4417 -1.1056
 6248SOL    HW230207   2.527   4.564  10.706 -0.4163  1.7722  0.2636
 6249SOL     OW30208   2.276   3.962   2.440 -0.0924 -0.8442 -0.0535
 6249SOL    HW130209   2.367   3.993   2.450  0.3682 -2.2647  0.2247
 6249SOL    HW230210   2.246   4.030   2.380  4.1293  1.5138  0.4456
 6250SOL     OW30211   3.550   3.313   6.113  0.3515 -0.4620 -0.4675
 6250SOL    HW130212   3.544   3.295   6.019 -0.1311 -0.6674 -0.3999
 6250SOL    HW230213   3.459   3.323   6.143  0.4534 -1.2059  0.0915
 6251SOL     OW30214   3.754   1.100   8.292 -0.0376  0.1229  0.2630
 6251SOL    HW130215   3.713   1.160   8.354 -1.7923 -0.0879 -0.7071
 6251SOL    HW230216   3.826   1.066   8.345  0.6669 -0.7353 -1.2425
 6252SOL     OW30217   1.954   4.139   3.470 -0.5776 -0.1069 -0.2634
 6252SOL    HW130218   1.983   4.136   3.379  3.4278  0.2456  1.0094
 6252SOL    HW230219   1.903   4.058   3.470 -1.6449  0.5618  0.4835
 6253SOL     OW30220   4.385   2.864   8.524  0.5617 -0.2209  0.2820
 6253SOL    HW130221   4.409   2.777   8.556 -0.5347 -0.1548  1.2982
 6253SOL    HW230222   4.294   2.856   8.496  0.4429  0.3875  0.4756
 6254SOL     OW30223   1.761   0.958   7.767 -0.1730 -0.5968  0.3985
 6254SOL    HW130224   1.830   0.892   7.760  0.8438  0.3949  0.8466
 6254SOL    HW230225   1.776   0.991   7.856 -1.3524  0.7430  0.1002
 6255SOL     OW30226   3.064   1.207   4.268 -0.0600 -0.0035 -0.3973
 6255SOL    HW130227   3.140   1.213   4.326 -1.2864 -1.1687  1.3399
 6255SOL    HW230228   3.024   1.123   4.292 -1.5452  0.7466 -0.3053
 6256SOL     OW30229   0.431   0.602   8.033  0.4474  0.1033  0.1590
 6256SOL    HW130230   0.467   0.684   7.998  0.9239 -0.4231 -0.5849
 6256SOL    HW230231   0.351   0.637   8.073  0.1119 -0.9539  0.4145
 6257SOL     OW30232   1.170   3.287  17.311 -0.0145  0.3322  0.0645
 6257SOL    HW130233   1.097   3.312  17.368  1.3599  1.5805  1.2753
 6257SOL    HW230234   1.146   3.321  17.224 -0.4063  1.5582  0.6494
 6258SOL     OW30235   2.040   2.455   0.518 -0.5597 -0.3883  0.0948
 6258SOL    HW130236   2.061   2.411   0.601  0.7116  0.5496  0.2573
 6258SOL    HW230237   1.948   2.476   0.535 -0.1475  0.4019  1.3424
 6259SOL     OW30238   2.911   0.957  11.376 -0.1045 -0.0804 -0.3657
 6259SOL    HW130239   2.845   0.905  11.422 -2.4149  0.9414 -2.5838
 6259SOL    HW230240   2.966   0.891  11.335  0.2722  0.5891 -0.9402
 6260SOL     OW30241   0.420   4.636  14.332  0.6816 -0.6882  0.4419
 6260SOL    HW130242   0.513   4.629  14.355  0.9116 -2.1546 -0.9358
 6260SOL    HW230243   0.407   0.004  14.362  1.3326 -0.4716  0.0832
 6261SOL     OW30244   3.535   3.187   3.257 -0.0344  0.5844  0.2622
 6261SOL    HW130245   3.549   3.096   3.285 -0.0575  0.1694 -1.0588
 6261SOL    HW230246   3.480   3.210   3.331  0.4889  0.9852  0.5290
 6262SOL     OW30247   1.897   1.120   9.289 -0.1561  0.9674 -0.5004
 6262SOL    HW130248   1.881   1.170   9.209  0.6331 -0.7638 -1.7230
 6262SOL    HW230249   1.808   1.089   9.305  0.3832 -0.5856 -0.5656
 6263SOL     OW30250   3.093   1.429   8.017 -0.2161  0.1280  0.1029
 6263SOL    HW130251   3.133   1.374   7.949  0.0698 -0.6294  0.8942
 6263SOL    HW230252   3.014   1.452   7.968 -0.3189  2.4636  1.3722
 6264SOL     OW30253   2.750   2.556   8.699  0.3199 -0.3375 -0.1735
 6264SOL    HW130254   2.829   2.524   8.743 -0.3714  0.4250  1.6470
 6264SOL    HW230255   2.706   2.606   8.769  1.7270 -0.7224  0.9837
 6265SOL     OW30256   0.559   0.807   7.871  0.8652 -0.2336 -0.1820
 6265SOL    HW130257   0.652   0.801   7.892  0.3510  1.3763  2.4907
 6265SOL    HW230258   0.564   0.796   7.776 -1.1263 -0.9573 -0.2180
 6266SOL     OW30259   3.965   3.023   6.272  0.1408 -0.1209 -0.0869
 6266SOL    HW130260   4.032   3.091   6.283  1.3829 -1.1744 -1.2415
 6266SOL    HW230261   3.997   2.962   6.337 -0.4089  0.2532  0.5348
 6267SOL     OW30262   1.511   4.326   9.061  0.1752 -0.0526 -0.0574
 6267SOL    HW130263   1.520   4.404   9.116 -2.1618  0.1103  0.1294
 6267SOL    HW230264   1.558   4.262   9.115 -2.0703 -1.0180  0.8007
 6268SOL     OW30265   1.086   3.755   7.263  0.5162  0.4081 -0.3137
 6268SOL    HW130266   1.163   3.810   7.247  0.5721  0.7268  1.0220
 6268SOL    HW230267   1.092   3.741   7.358  0.1635  0.4252 -0.2899
 6269SOL     OW30268   3.617   0.768   9.188  0.2440 -1.0865 -0.1869
 6269SOL    HW130269   3.608   0.847   9.134 -1.8268  1.1109  3.4155
 6269SOL    HW230270   3.656   0.715   9.118  1.1129 -2.3160  1.2547
 6270SOL     OW30271   4.240   1.306   8.304 -0.3387  0.1502 -0.4251
 6270SOL    HW130272   4.148   1.296   8.330  0.1061 -1.2328  0.6163
 6270SOL    HW230273   4.230   1.394   8.267 -0.0838 -0.1295 -1.1578
 6271SOL     OW30274   3.131   2.625  10.269  0.3415  0.2240 -0.0330
 6271SOL    HW130275   3.117   2.615  10.175 -0.0730 -2.8244  0.3523
 6271SOL    HW230276   3.051   2.671  10.296 -0.5770 -0.5722 -1.4176
 6272SOL     OW30277   4.179   0.548  17.048  0.7375  0.1787  0.5212
 6272SOL    HW130278   4.155   0.640  17.055  1.3235  0.7009 -3.8623
 6272SOL    HW230279   4.167   0.546  16.953 -2.5457  2.5116  0.8851
 6273SOL     OW30280   2.300   1.095  14.557  0.0388  0.4395 -0.2713
 6273SOL    HW130281   2.275   1.073  14.467 -0.3531 -0.2557  0.0116
 6273SOL    HW230282   2.365   1.028  14.579  0.3108  0.4876 -0.9225
 6274SOL     OW30283   0.957   1.642  16.759  0.0932  0.4193  0.3420
 6274SOL    HW130284   0.958   1.699  16.683 -0.8339 -0.0727 -0.0295
 6274SOL    HW230285   0.924   1.712  16.815 -0.7297 -0.1860  0.6140
 6275SOL     OW30286   0.715   2.578   7.659 -0.1957  0.0412 -0.5172
 6275SOL    HW130287   0.708   2.607   7.751 -2.7681  1.6513 -1.2067
 6275SOL    HW230288   0.637   2.623   7.626 -0.5721 -1.5793 -1.8245
 6276SOL     OW30289   2.461   4.338   5.995 -0.6128  0.3068  0.0276
 6276SOL    HW130290   2.533   4.307   6.050 -0.9974 -2.8720 -1.2372
 6276SOL    HW230291   2.477   4.278   5.922  1.1018  1.8177 -0.8523
 6277SOL     OW30292   0.939   1.072  16.027  0.3332  0.1684 -0.2664
 6277SOL    HW130293   0.849   1.082  16.058  0.4005 -0.5475  0.1704
 6277SOL    HW230294   0.928   1.028  15.943  1.2507  0.7165 -0.6789
 6278SOL     OW30295   0.673   1.977   5.105  0.3956 -0.6637 -0.1972
 6278SOL    HW130296   0.631   2.005   5.187 -0.6253  2.7308 -1.8770
 6278SOL    HW230297   0.677   2.065   5.068  3.8133 -0.2587  1.1877
 6279SOL     OW30298   1.892   3.353   9.025  0.5440 -0.1969 -0.6637
 6279SOL    HW130299   1.839   3.432   9.033 -0.3948 -0.8943 -0.0950
 6279SOL    HW230300   1.838   3.292   9.075 -1.0139  0.4166 -1.6388
 6280SOL     OW30301   3.125   0.806   7.329  0.4402  0.5179  0.3871
 6280SOL    HW130302   3.065   0.747   7.283 -1.9066  2.4859  0.8994
 6280SOL    HW230303   3.205   0.777   7.285 -1.7134 -0.2725 -3.0372
 6281SOL     OW30304   1.456   4.158   6.666  0.4716  0.0969  0.6307
 6281SOL    HW130305   1.424   4.097   6.732 -0.9263  0.9527  0.7229
 6281SOL    HW230306   1.418   4.240   6.696 -1.2900 -0.2982 -0.5287
 6282SOL     OW30307   1.226   4.056   5.686 -0.0161 -0.0614  0.1910
 6282SOL    HW130308   1.231   3.978   5.630 -3.3075 -0.7047  0.7583
 6282SOL    HW230309   1.255   4.013   5.767 -0.5752 -0.1687  0.3424
 6283SOL     OW30310   2.984   0.111   0.681 -0.2563  0.1087 -0.3655
 6283SOL    HW130311   3.060   0.100   0.737 -0.4725 -0.8827 -0.2778
 6283SOL    HW230312   2.971   0.019   0.659 -1.5346  0.4687 -1.1630
 6284SOL     OW30313   3.689   3.905   3.715 -1.1409  0.0401 -0.3136
 6284SOL    HW130314   3.641   3.827   3.687 -2.6994  0.9430 -0.1390
 6284SOL    HW230315   3.775   3.895   3.673 -1.3070  2.6811 -1.3008
 6285SOL     OW30316   1.779   3.080  14.921  0.7535  0.0510 -0.2281
 6285SOL    HW130317   1.767   3.092  15.015  1.9898  0.6043 -0.1317
 6285SOL    HW230318   1.813   2.990  14.928 -1.4539 -0.7796 -0.4301
 6286SOL     OW30319   2.559   2.698   7.553  0.0098 -0.4466  0.6673
 6286SOL    HW130320   2.607   2.772   7.591 -0.7898 -0.2041  1.2138
 6286SOL    HW230321   2.619   2.675   7.482 -0.1353  1.1965  0.0024
 6287SOL     OW30322   3.546   2.492   3.846 -0.4756 -0.0897 -0.1251
 6287SOL    HW130323   3.526   2.399   3.836  0.6088 -0.3163 -0.2120
 6287SOL    HW230324   3.554   2.519   3.754 -1.5558 -0.8621 -0.4454
 6288SOL     OW30325   2.599   3.283   4.697  0.1171 -0.0303 -0.3020
 6288SOL    HW130326   2.565   3.366   4.663 -1.8834 -0.1647  1.3913
 6288SOL    HW230327   2.577   3.213   4.636 -0.8023 -0.8852  1.0231
 6289SOL     OW30328   1.801   1.598   6.067  0.4982  0.0260 -0.1928
 6289SOL    HW130329   1.806   1.539   5.992  1.3822 -0.8406  0.5424
 6289SOL    HW230330   1.891   1.602   6.101  0.0354  0.8160  0.9643
 6290SOL     OW30331   0.473   3.174  13.750 -0.4525 -0.4132  0.0514
 6290SOL    HW130332   0.480   3.230  13.827  0.3234  1.0501 -1.0783
 6290SOL    HW230333   0.428   3.228  13.686  0.9289 -0.4707 -0.9681
 6291SOL     OW30334   2.422   4.113   5.794 -0.1262 -0.1477 -0.2935
 6291SOL    HW130335   2.406   4.058   5.717  2.2838 -0.2463 -0.7346
 6291SOL    HW230336   2.347   4.086   5.847 -0.6078  0.9697 -0.4063
 6292SOL     OW30337   3.135   1.791   0.298 -0.3867 -0.3365 -0.3642
 6292SOL    HW130338   3.040   1.799   0.302 -0.2087  1.7911 -0.4425
 6292SOL    HW230339   3.153   1.699   0.321  0.7726  0.1105  0.5209
 6293SOL     OW30340   1.649   0.170   4.188  0.5463  0.3842 -0.1836
 6293SOL    HW130341   1.586   0.168   4.117 -0.1823 -1.4308  0.4997
 6293SOL    HW230342   1.623   0.252   4.229  0.9701 -0.9444  2.7978
 6294SOL     OW30343   1.288   1.285   4.397  0.4088 -0.5656  0.7101
 6294SOL    HW130344   1.311   1.308   4.486 -0.6760 -1.3138  1.1900
 6294SOL    HW230345   1.300   1.190   4.395 -2.2607 -0.8585 -2.1930
 6295SOL     OW30346   2.449   1.478   6.129  0.4312  0.0159  0.3349
 6295SOL    HW130347   2.384   1.521   6.073 -0.5153 -0.7251  0.8641
 6295SOL    HW230348   2.478   1.405   6.074  1.2028  0.5841 -0.0057
 6296SOL     OW30349   1.695   2.788   3.023 -0.4613 -0.6228  0.1225
 6296SOL    HW130350   1.697   2.711   2.967  2.3327 -0.5873  0.1655
 6296SOL    HW230351   1.710   2.749   3.109 -0.8716 -2.8403 -0.8244
 6297SOL     OW30352   1.202   4.088  10.909 -0.0054 -0.4503  0.3981
 6297SOL    HW130353   1.180   4.121  10.996 -0.1765 -2.1565  0.9983
 6297SOL    HW230354   1.121   4.113  10.864  0.5456 -1.5066 -1.1906
 6298SOL     OW30355   3.459   4.351   5.435  0.5900  0.1326  0.3803
 6298SOL    HW130356   3.494   4.347   5.524 -0.0574 -1.1387  0.5797
 6298SOL    HW230357   3.522   4.406   5.389  1.2729 -0.8101  0.1804
 6299SOL     OW30358   2.833   2.841   3.576  0.5420  0.4323  0.4826
 6299SOL    HW130359   2.836   2.796   3.492 -1.6073 -0.3207  0.7982
 6299SOL    HW230360   2.786   2.784   3.638  0.7769 -0.3857 -0.1063
 6300SOL     OW30361   4.612   4.046   7.388  0.3506 -0.1952  0.8030
 6300SOL    HW130362   4.563   4.101   7.326  0.2453 -0.1132  0.9594
 6300SOL    HW230363   4.675   4.013   7.324  1.9007  1.3188  1.5460
 6301SOL     OW30364   0.306   2.373   0.169  0.5777  0.0354  0.4479
 6301SOL    HW130365   0.371   2.443   0.167 -1.3521  1.8734  1.4209
 6301SOL    HW230366   0.333   2.312   0.238  1.0877 -0.0353  0.1796
 6302SOL     OW30367   1.464   3.550  11.436 -0.2945  0.1095 -0.1200
 6302SOL    HW130368   1.448   3.639  11.468 -0.7465 -0.9593  2.6268
 6302SOL    HW230369   1.542   3.563  11.383  1.0390 -0.1824  1.7485
 6303SOL     OW30370   3.454   1.397   4.146  0.4559  0.3164  0.0877
 6303SOL    HW130371   3.499   1.467   4.098 -1.4721  0.4372 -1.5337
 6303SOL    HW230372   3.379   1.369   4.093 -0.5051 -1.6531  2.5062
 6304SOL     OW30373   1.969   0.742  10.882  0.1348 -0.3176 -0.2500
 6304SOL    HW130374   2.019   0.750  10.801  0.9096 -0.1819  0.2477
 6304SOL    HW230375   1.880   0.735  10.847  0.3641 -0.2679 -0.8564
 6305SOL     OW30376   2.201   0.817  10.222 -0.4343  0.5135  0.1241
 6305SOL    HW130377   2.232   0.869  10.297  0.5541 -0.1413  0.1780
 6305SOL    HW230378   2.272   0.821  10.158 -0.0522 -0.3998  0.4761
 6306SOL     OW30379   1.135   0.154   3.236 -0.1300 -0.2930  0.1700
 6306SOL    HW130380   1.151   0.064   3.263 -0.1838 -0.5917 -0.7864
 6306SOL    HW230381   1.205   0.204   3.278 -2.0679  0.8620  2.0319
 6307SOL     OW30382   3.002   3.659   6.908 -0.3369  0.1848 -0.3874
 6307SOL    HW130383   2.958   3.743   6.925  0.8725  0.7868 -0.2146
 6307SOL    HW230384   3.021   3.679   6.816 -1.0488 -0.6690 -0.7177
 6308SOL     OW30385   1.830   3.271   1.237  0.4077  0.0731  0.1536
 6308SOL    HW130386   1.914   3.290   1.195  0.1622 -0.7659 -0.6994
 6308SOL    HW230387   1.856   3.239   1.324 -3.4950 -1.7783  0.6622
 6309SOL     OW30388   1.907   4.652   2.147 -0.1200  0.4964 -0.1069
 6309SOL    HW130389   1.873   4.573   2.104 -1.2090 -1.4669  4.3490
 6309SOL    HW230390   1.988   4.607   2.170 -1.4507  0.0348  3.7692
 6310SOL     OW30391   0.037   3.771   9.694 -0.1919  0.0962 -0.4073
 6310SOL    HW130392   0.006   3.682   9.708  0.2958  0.5543  3.5848
 6310SOL    HW230393   4.684   3.831   9.699 -0.7381 -0.6821  0.6025
 6311SOL     OW30394   3.639   0.271   6.199 -0.3301 -0.0602 -0.3515
 6311SOL    HW130395   3.635   0.365   6.181 -0.7653  0.4772  2.5352
 6311SOL    HW230396   3.546   0.248   6.195 -0.2241 -0.6761  0.6273
 6312SOL     OW30397   4.602   3.022  11.674 -0.0851 -0.2725  0.7578
 6312SOL    HW130398   4.648   3.058  11.598  0.8046 -3.4982 -0.2332
 6312SOL    HW230399   4.631   2.934  11.653  0.8100 -0.1018  1.2926
 6313SOL     OW30400   2.784   1.780   5.729 -0.1810  0.4421 -0.0140
 6313SOL    HW130401   2.708   1.824   5.766  1.1349  3.9616 -1.4951
 6313SOL    HW230402   2.856   1.776   5.792 -1.4569  3.1575  1.5862
 6314SOL     OW30403   2.651   1.271   3.064 -0.4899 -0.4004  0.8829
 6314SOL    HW130404   2.649   1.196   3.005  0.5942  0.2012  0.0588
 6314SOL    HW230405   2.716   1.322   3.015 -1.6493  1.0997  0.8808
 6315SOL     OW30406   2.722   0.143   4.091  0.1129 -0.1814  0.2729
 6315SOL    HW130407   2.638   0.188   4.081  0.8638  1.2237  0.2904
 6315SOL    HW230408   2.774   0.210   4.136  0.7158 -0.4121 -0.0870
 6316SOL     OW30409   1.110   3.021   9.274  0.7076  0.2556  0.2878
 6316SOL    HW130410   1.122   3.030   9.368  0.8128  0.6053  0.2403
 6316SOL    HW230411   1.017   2.996   9.268  0.2538  2.3737 -1.8195
 6317SOL     OW30412   3.242   4.411   5.882 -0.4159 -0.2340 -0.4952
 6317SOL    HW130413   3.201   4.497   5.869  1.7380  0.6474 -1.4470
 6317SOL    HW230414   3.232   4.401   5.977 -1.5689 -0.1771 -0.6064
 6318SOL     OW30415   4.058   1.873  15.589 -0.4796 -0.1111 -0.1425
 6318SOL    HW130416   4.152   1.873  15.608 -0.0145 -0.8782 -2.4572
 6318SOL    HW230417   4.047   1.840  15.500 -2.0137  2.3323 -0.8477
 6319SOL     OW30418   3.085   1.802   6.524  0.4602 -0.4927  0.1976
 6319SOL    HW130419   3.089   1.897   6.533 -2.6637 -0.2010 -1.4687
 6319SOL    HW230420   3.037   1.795   6.441  2.2659 -1.5719 -0.7648
 6320SOL     OW30421   1.981   3.238   2.978  0.2377  0.1458 -0.1640
 6320SOL    HW130422   1.930   3.293   2.919 -1.9828 -2.0653 -0.2910
 6320SOL    HW230423   1.926   3.160   2.972  0.3745  0.0901 -0.6472
 6321SOL     OW30424   1.944   3.452  15.512 -0.5253 -0.0157 -0.0053
 6321SOL    HW130425   1.981   3.540  15.514 -0.9783  0.1410  2.2691
 6321SOL    HW230426   1.885   3.454  15.588 -0.9676  1.7202 -0.3978
 6322SOL     OW30427   1.946   1.586  17.314 -0.5095  0.1004  0.0750
 6322SOL    HW130428   2.027   1.575  17.364 -0.1653  0.2802 -0.4506
 6322SOL    HW230429   1.917   1.495  17.303 -2.2647  0.5424  1.0996
 6323SOL     OW30430   1.294   1.003   6.022  0.3576  0.6368 -0.4157
 6323SOL    HW130431   1.266   0.924   6.069 -0.2539  0.0321 -1.8024
 6323SOL    HW230432   1.325   1.061   6.091 -1.0159  0.4084  0.3811
 6324SOL     OW30433   4.095   0.296   3.779  0.3245  0.2310  0.7235
 6324SOL    HW130434   4.050   0.327   3.700  0.1207  0.1115  0.7939
 6324SOL    HW230435   4.030   0.331   3.839 -1.2706  2.9681 -2.5781
 6325SOL     OW30436   0.032   4.039  16.704  0.4711 -0.7517 -0.3649
 6325SOL    HW130437   0.057   4.116  16.755 -0.8578 -1.9211  2.0827
 6325SOL    HW230438   0.093   4.049  16.631 -0.8240 -2.8947 -1.7014
 6326SOL     OW30439   1.460   4.659   6.731 -0.0555 -0.2803 -0.0173
 6326SOL    HW130440   1.531   4.657   6.666  0.1561  0.9443  0.1786
 6326SOL    HW230441   1.506   4.713   6.796 -1.3966  0.9918 -0.1318
 6327SOL     OW30442   0.993   2.346  16.921  0.9966 -0.0979 -0.4176
 6327SOL    HW130443   1.027   2.434  16.942  1.9953 -0.0039 -2.4385
 6327SOL    HW230444   1.075   2.299  16.907  1.3964  1.3184 -2.8283
 6328SOL     OW30445   3.992   0.001   2.832  0.1408  0.1042  0.0784
 6328SOL    HW130446   3.923   4.659   2.814 -0.9971  0.9914  1.2825
 6328SOL    HW230447   3.980   0.053   2.752 -1.3438 -2.2307 -1.2285
 6329SOL     OW30448   0.165   2.355   9.091 -0.2158  0.6685 -0.2847
 6329SOL    HW130449   0.227   2.428   9.094 -0.2492  0.6420  1.1857
 6329SOL    HW230450   0.207   2.301   9.024  1.5325  0.6052  0.8817
 6330SOL     OW30451   0.361   3.280   9.001 -0.3251  0.0320 -0.2313
 6330SOL    HW130452   0.411   3.362   9.005 -0.4479  0.0655  0.7394
 6330SOL    HW230453   0.354   3.260   8.908 -2.0099 -0.0392 -0.0854
 6331SOL     OW30454   0.436   2.831   7.262 -0.2775 -0.0038  0.1291
 6331SOL    HW130455   0.525   2.811   7.232 -1.3159 -2.2578 -1.4657
 6331SOL    HW230456   0.397   2.859   7.179  1.4144 -1.6827 -1.2579
 6332SOL     OW30457   3.455   0.958   8.171 -0.0305 -0.3815  0.4454
 6332SOL    HW130458   3.507   0.911   8.236 -2.1583 -1.5259  1.3329
 6332SOL    HW230459   3.368   0.921   8.188  0.6586 -3.0037 -1.6573
 6333SOL     OW30460   4.630   4.253   2.561  0.1957 -0.4688 -0.3420
 6333SOL    HW130461   4.712   4.226   2.519  0.1444 -2.3903  0.8250
 6333SOL    HW230462   4.650   4.347   2.566 -0.4310 -0.2755 -1.6230
 6334SOL     OW30463   1.055   3.721  15.012  0.3432  0.3324  0.1318
 6334SOL    HW130464   1.124   3.665  14.975  0.9909  2.0920 -1.3399
 6334SOL    HW230465   1.094   3.802  14.978 -1.2993  1.8735  1.9177
 6335SOL     OW30466   3.064   0.692   4.593 -0.1472 -0.5535 -0.0228
 6335SOL    HW130467   3.077   0.645   4.675  0.4925 -0.1921  0.0886
 6335SOL    HW230468   3.133   0.656   4.537  1.4337  0.8201  1.0145
 6336SOL     OW30469   1.505   4.254   9.530 -0.1753 -0.2470 -0.5827
 6336SOL    HW130470   1.572   4.273   9.464  2.4426  0.9993  2.4185
 6336SOL    HW230471   1.562   4.282   9.601 -1.4214 -2.3334  1.2506
 6337SOL     OW30472   2.973   2.669   1.281 -0.8897  0.0382 -0.0720
 6337SOL    HW130473   2.957   2.607   1.353  0.8755 -1.3989 -0.9147
 6337SOL    HW230474   2.895   2.724   1.284 -1.0145 -0.1624  0.3794
 6338SOL     OW30475   1.544   3.535  13.748  0.6380  0.3887  0.1079
 6338SOL    HW130476   1.565   3.508  13.837 -0.4090  0.5748  0.4157
 6338SOL    HW230477   1.495   3.457  13.719  0.3444  1.3781 -2.0929
 6339SOL     OW30478   0.000   2.411   6.259  0.3830 -0.2390  0.0944
 6339SOL    HW130479   0.058   2.452   6.195  1.5023 -0.7357  0.7830
 6339SOL    HW230480   4.679   2.343   6.207  2.1739 -1.0727 -0.3278
 6340SOL     OW30481   3.770   4.151   6.615 -0.1183  0.4879 -0.0362
 6340SOL    HW130482   3.847   4.101   6.588 -0.0842  0.9270 -0.7405
 6340SOL    HW230483   3.802   4.197   6.693  0.1819  0.8426 -0.3714
 6341SOL     OW30484   3.327   1.655   0.071  0.0406  0.3447  0.3652
 6341SOL    HW130485   3.353   1.590   0.006 -1.4817  0.2452 -0.1413
 6341SOL    HW230486   3.276   1.608   0.137 -0.7193 -0.6258 -0.9256
 6342SOL     OW30487   0.132   1.190   0.765 -0.0510 -0.1197 -0.0607
 6342SOL    HW130488   0.152   1.270   0.814  0.5647 -0.8827  0.9314
 6342SOL    HW230489   0.199   1.141   0.813  0.7938  1.5859  0.5210
 6343SOL     OW30490   2.409   4.435   6.620 -0.1082  0.4726 -0.5938
 6343SOL    HW130491   2.376   4.360   6.571  0.1821 -0.9648  1.4072
 6343SOL    HW230492   2.438   4.398   6.703 -1.2168 -1.4309 -1.0494
 6344SOL     OW30493   3.479   2.814  10.933  0.3101  0.2342 -0.3318
 6344SOL    HW130494   3.413   2.784  10.996  0.7907 -0.3068 -0.0846
 6344SOL    HW230495   3.428   2.789  10.856 -1.7018 -1.3001  1.5102
 6345SOL     OW30496   3.417   1.047   2.278  0.1386 -0.3023 -0.2612
 6345SOL    HW130497   3.432   0.956   2.305  1.8868 -0.6135 -2.2923
 6345SOL    HW230498   3.362   1.071   2.353  2.5062  1.5664  0.8697
 6346SOL     OW30499   4.181   0.334  11.810 -0.1922  0.6130 -0.5184
 6346SOL    HW130500   4.264   0.370  11.842  0.9465 -2.3124 -0.2579
 6346SOL    HW230501   4.119   0.346  11.883  0.8478  0.4498  0.3954
 6347SOL     OW30502   1.817   2.994   8.550  0.0940 -0.3621  0.2755
 6347SOL    HW130503   1.907   2.963   8.540 -0.1051 -0.9017  0.1457
 6347SOL    HW230504   1.821   3.043   8.468 -0.9554  1.2899  1.2168
 6348SOL     OW30505   1.899   3.731   8.445 -0.0558 -0.5825 -0.0730
 6348SOL    HW130506   1.840   3.673   8.493 -0.3096 -1.5622 -1.5587
 6348SOL    HW230507   1.852   3.740   8.362 -0.0801  1.5041  0.1776
 6349SOL     OW30508   0.334   0.902   5.616 -0.3037  0.3417  0.0134
 6349SOL    HW130509   0.356   0.905   5.709  0.9240 -0.4351 -0.2592
 6349SOL    HW230510   0.381   0.968   5.564  0.7661 -2.2016 -2.2210
 6350SOL     OW30511   3.798   1.283   4.758  0.4990  0.1236  0.0509
 6350SOL    HW130512   3.891   1.270   4.739  0.5327  0.3642  0.0514
 6350SOL    HW230513   3.764   1.277   4.668  0.1125  2.5132  0.0444
 6351SOL     OW30514   2.801   1.132   8.339  0.1284 -0.1939 -0.3509
 6351SOL    HW130515   2.709   1.155   8.326  0.2654 -0.3565 -1.5714
 6351SOL    HW230516   2.803   1.036   8.333  0.2958 -0.2404  0.4366
 6352SOL     OW30517   2.867   3.394   9.036  0.0954 -0.3143  0.1713
 6352SOL    HW130518   2.795   3.333   9.021  0.0497  0.1520 -1.5653
 6352SOL    HW230519   2.947   3.343   9.020  0.4668  0.8859 -1.8518
 6353SOL     OW30520   1.986   4.679   9.349  0.8337  0.0758  0.7348
 6353SOL    HW130521   2.045   0.022   9.311 -2.9493  1.4133 -2.8947
 6353SOL    HW230522   1.906   4.691   9.298  1.6792  0.6132 -0.4667
 6354SOL     OW30523   3.375   0.307   5.136 -0.1191  0.0511 -0.1856
 6354SOL    HW130524   3.290   0.298   5.093  0.2310 -2.0525 -0.4327
 6354SOL    HW230525   3.409   0.382   5.087  0.0547 -0.2211 -0.4892
 6355SOL     OW30526   3.828   3.292   1.910  0.2947  0.3506 -0.6960
 6355SOL    HW130527   3.853   3.294   1.817  1.1387 -0.5747 -0.4822
 6355SOL    HW230528   3.749   3.345   1.916 -0.4507 -0.8652 -0.0263
 6356SOL     OW30529   4.531   4.155   8.063 -0.3026  0.2731 -0.1000
 6356SOL    HW130530   4.569   4.109   7.988  1.3356  1.3303  0.0703
 6356SOL    HW230531   4.501   4.088   8.125 -3.3890  2.6129  0.9455
 6357SOL     OW30532   3.449   3.213   1.826 -0.2565 -0.2049 -0.1753
 6357SOL    HW130533   3.465   3.167   1.743 -1.0425 -1.2341  0.2428
 6357SOL    HW230534   3.359   3.245   1.825 -0.0517  0.3391 -0.9835
 6358SOL     OW30535   2.222   0.722   4.122 -0.4609 -0.2616 -0.3590
 6358SOL    HW130536   2.194   0.796   4.175  0.2048 -1.0875  1.1458
 6358SOL    HW230537   2.316   0.729   4.138  0.2907 -2.1790 -3.7525
 6359SOL     OW30538   3.162   2.517   0.708 -0.6519 -0.0246 -0.3468
 6359SOL    HW130539   3.247   2.526   0.750 -0.6695  0.8011 -0.4904
 6359SOL    HW230540   3.129   2.607   0.715 -0.8005 -0.2740  2.1783
 6360SOL     OW30541   1.049   3.623   0.848  0.3709 -0.2908 -0.1921
 6360SOL    HW130542   1.113   3.569   0.802  0.8930 -0.7039  1.0137
 6360SOL    HW230543   1.103   3.675   0.907  1.6732 -0.4746 -1.2274
 6361SOL     OW30544   3.983   2.290  16.260 -0.1276 -0.2548 -0.1368
 6361SOL    HW130545   4.024   2.238  16.329 -0.4183  0.5077  0.6242
 6361SOL    HW230546   3.933   2.355  16.310  1.8275  0.4778  0.8655
 6362SOL     OW30547   3.075   2.604  15.421  0.1452 -0.1798  0.5187
 6362SOL    HW130548   3.091   2.576  15.511 -2.3141 -0.6622  0.8140
 6362SOL    HW230549   3.063   2.521  15.376 -1.5527 -1.0675  2.6307
 6363SOL     OW30550   2.984   1.305   0.858  0.6676  0.1408 -0.1953
 6363SOL    HW130551   2.953   1.275   0.944  0.7109 -0.9917 -0.5797
 6363SOL    HW230552   2.954   1.393   0.880 -1.3188 -0.1980 -1.5154
 6364SOL     OW30553   2.375   1.765   5.184 -0.1327 -0.6293 -0.0563
 6364SOL    HW130554   2.327   1.773   5.102 -3.3703 -1.9845  1.7262
 6364SOL    HW230555   2.417   1.681   5.166 -1.2573 -1.2147  0.0487
 6365SOL     OW30556   1.317   1.184   9.093  0.0721 -0.1945 -0.1573
 6365SOL    HW130557   1.391   1.145   9.138 -1.3546 -1.0418  1.4659
 6365SOL    HW230558   1.278   1.105   9.056  0.8551 -0.1145 -1.1461
 6366SOL     OW30559   3.012   4.634   0.464  0.1165 -0.2821 -0.0240
 6366SOL    HW130560   2.929   4.680   0.449  0.8366  1.3738  1.1695
 6366SOL    HW230561   3.013   4.592   0.378 -0.8196  1.2769 -0.8095
 6367SOL     OW30562   1.699   3.633   4.083 -0.1675  0.0105  0.1349
 6367SOL    HW130563   1.634   3.612   4.150  0.0599  0.3068  0.4423
 6367SOL    HW230564   1.651   3.703   4.038 -0.8707 -0.6526 -0.1563
 6368SOL     OW30565   2.951   3.256   0.638 -0.2670  0.5543 -0.2308
 6368SOL    HW130566   2.982   3.346   0.652 -2.3700  1.2505 -0.0556
 6368SOL    HW230567   2.876   3.274   0.582 -1.4587  0.5099  1.3500
 6369SOL     OW30568   4.293   4.062   6.437 -0.0811  0.6239 -0.2744
 6369SOL    HW130569   4.265   4.014   6.514  0.5527 -1.3592 -1.2926
 6369SOL    HW230570   4.222   4.127   6.435  0.0222  0.7358 -0.3492
 6370SOL     OW30571   4.255   1.032   9.228  0.5189 -0.2206  0.1591
 6370SOL    HW130572   4.302   0.987   9.158 -0.1888 -0.1330 -0.3730
 6370SOL    HW230573   4.274   1.125   9.221 -0.2861 -0.0588  0.0623
 6371SOL     OW30574   3.265   4.059   8.479  0.3283 -0.0305 -0.5160
 6371SOL    HW130575   3.174   4.042   8.503  1.3931 -2.0414  2.1178
 6371SOL    HW230576   3.282   3.997   8.408 -4.8779 -1.4351 -0.5032
 6372SOL     OW30577   1.177   0.244   7.768  0.2447  0.4176 -0.3429
 6372SOL    HW130578   1.149   0.296   7.843  0.8448  1.2253 -0.6825
 6372SOL    HW230579   1.261   0.285   7.748 -0.1432  0.5995 -1.6050
 6373SOL     OW30580   0.155   2.487  10.344  0.1411  0.0485 -0.0183
 6373SOL    HW130581   0.154   2.521  10.434  2.2872 -0.9874  0.4024
 6373SOL    HW230582   0.132   2.398  10.368  1.3097 -0.2927 -0.1755
 6374SOL     OW30583   0.248   4.281   9.153 -0.1005 -0.1702  0.6670
 6374SOL    HW130584   0.293   4.277   9.237 -0.6242  2.4920  1.0783
 6374SOL    HW230585   0.176   4.342   9.169 -1.2534 -1.5083  0.6209
 6375SOL     OW30586   3.716   0.347   1.103  0.8412 -0.1729 -0.4081
 6375SOL    HW130587   3.664   0.284   1.154 -1.8431  1.2279 -1.4058
 6375SOL    HW230588   3.655   0.420   1.099  1.9390  0.6331 -2.0562
 6376SOL     OW30589   1.521   1.432   6.175 -0.1377  0.2082 -0.0201
 6376SOL    HW130590   1.573   1.488   6.233  0.9900  0.1254 -0.9551
 6376SOL    HW230591   1.576   1.354   6.163 -1.0092 -0.6503  1.5252
 6377SOL     OW30592   3.388   1.797   6.140 -0.4138 -0.1431  0.3237
 6377SOL    HW130593   3.408   1.709   6.107  1.1343 -0.4989  2.1447
 6377SOL    HW230594   3.439   1.794   6.221  1.5355  1.1849 -0.8739
 6378SOL     OW30595   1.597   3.982  14.335 -0.4877 -1.0615  0.1540
 6378SOL    HW130596   1.625   3.894  14.311 -2.5144 -1.1992 -1.6954
 6378SOL    HW230597   1.506   3.962  14.356 -1.5360  2.7952 -0.7565
 6379SOL     OW30598   4.460   0.184  10.623 -0.6824 -0.5140 -0.2756
 6379SOL    HW130599   4.457   0.116  10.555  0.8871 -0.7362 -0.1255
 6379SOL    HW230600   4.516   0.132  10.680  1.1655  0.0167 -1.6429
 6380SOL     OW30601   0.833   2.771   5.951 -0.2098  0.5014  0.2141
 6380SOL    HW130602   0.880   2.707   5.897 -2.2669 -2.3787  1.8970
 6380SOL    HW230603   0.866   2.847   5.902  0.7659  0.5118  0.8887
 6381SOL     OW30604   2.606   1.106   9.599 -0.3438  0.0290  0.5858
 6381SOL    HW130605   2.677   1.048   9.572  1.0701  1.1450  1.9053
 6381SOL    HW230606   2.564   1.145   9.522  1.1202 -1.6515 -1.0574
 6382SOL     OW30607   0.203   3.414   8.318  0.4255 -0.5348 -0.2098
 6382SOL    HW130608   0.204   3.503   8.282  0.1433 -0.5208 -0.1866
 6382SOL    HW230609   0.205   3.373   8.232 -1.5171  0.1500 -0.5829
 6383SOL     OW30610   2.152   3.469   3.428  0.0083 -0.4687  0.4139
 6383SOL    HW130611   2.118   3.493   3.342 -0.7354 -0.5396  0.6931
 6383SOL    HW230612   2.136   3.375   3.420  0.3877 -0.4226 -0.9692
 6384SOL     OW30613   4.090   3.274   3.301 -0.0251 -0.1472 -0.2104
 6384SOL    HW130614   4.155   3.267   3.230  0.3336  0.8670  0.0237
 6384SOL    HW230615   4.138   3.294   3.381 -4.7327  0.3566  2.4247
 6385SOL     OW30616   3.211   1.299   2.657 -0.3462 -0.0778  0.2176
 6385SOL    HW130617   3.252   1.314   2.742 -0.8472  1.7531  0.1465
 6385SOL    HW230618   3.239   1.211   2.633 -0.5450 -0.8194  2.7373
 6386SOL     OW30619   3.149   2.356  12.968 -0.3226  0.0116 -0.0748
 6386SOL    HW130620   3.123   2.400  13.048  0.7526 -0.9010  0.7835
 6386SOL    HW230621   3.138   2.261  12.971  1.9764 -0.2658 -0.2617
 6387SOL     OW30622   4.014   3.553   2.077  0.4194 -0.4798 -0.4999
 6387SOL    HW130623   3.947   3.620   2.068  0.9592  0.4626  2.3953
 6387SOL    HW230624   4.095   3.605   2.073  0.6165 -0.7835 -0.4381
 6388SOL     OW30625   2.684   2.500   7.094  0.7008 -0.1067 -0.0759
 6388SOL    HW130626   2.692   2.449   7.175  1.2713 -0.2303 -0.2127
 6388SOL    HW230627   2.594   2.480   7.069  0.2569  0.7717  0.8320
 6389SOL     OW30628   3.216   4.297   1.764 -0.1994 -0.3525  0.2992
 6389SOL    HW130629   3.300   4.269   1.728  1.4801  2.1250  2.3151
 6389SOL    HW230630   3.160   4.291   1.686  0.1531 -1.4448  0.1258
 6390SOL     OW30631   0.356   2.373   6.238  0.2887  0.7018  0.0964
 6390SOL    HW130632   0.309   2.294   6.214  0.9960  0.1210  0.6343
 6390SOL    HW230633   0.325   2.369   6.328  1.1720  1.6878  0.4484
 6391SOL     OW30634   3.854   3.429   3.298 -0.0055  0.2365 -0.0234
 6391SOL    HW130635   3.920   3.361   3.309 -0.5614  0.0709  2.2195
 6391SOL    HW230636   3.809   3.386   3.225  1.7501 -0.4819 -0.6769
 6392SOL     OW30637   4.383   4.561   0.310 -0.2473 -0.0232 -0.3074
 6392SOL    HW130638   4.358   4.484   0.361 -2.3508  0.7920 -0.1025
 6392SOL    HW230639   4.465   4.526   0.274 -0.8034  0.4613 -2.0527
 6393SOL     OW30640   1.031   4.368   5.204 -0.0947  0.1564 -0.8111
 6393SOL    HW130641   1.094   4.335   5.140 -0.3909  0.8195 -1.4488
 6393SOL    HW230642   1.024   4.287   5.255 -0.8502  0.3539 -0.6049
 6394SOL     OW30643   0.528   3.654  17.060 -0.0585 -0.4958 -0.4447
 6394SOL    HW130644   0.528   3.558  17.063 -0.3938 -0.4070  2.4880
 6394SOL    HW230645   0.569   3.671  16.976  1.7917  1.8568  0.9377
 6395SOL     OW30646   2.497   3.440   6.848  0.1175  0.3623  0.3372
 6395SOL    HW130647   2.499   3.535   6.836  0.5786  0.5754  2.0596
 6395SOL    HW230648   2.592   3.432   6.850  0.2303  2.2050  1.9003
 6396SOL     OW30649   2.364   1.161  13.881  0.0410  0.4278 -0.1568
 6396SOL    HW130650   2.446   1.173  13.834  0.2696 -1.8335 -0.3183
 6396SOL    HW230651   2.389   1.074  13.913 -1.9373  0.1410  0.6265
 6397SOL     OW30652   0.785   0.023   4.806  0.0995 -0.5412  0.4162
 6397SOL    HW130653   0.777   4.652   4.824  1.2529 -1.1384 -2.1087
 6397SOL    HW230654   0.699   0.060   4.825  0.4902 -0.5486  2.2296
 6398SOL     OW30655   0.351   3.050   3.064 -0.2829 -0.1884  0.0909
 6398SOL    HW130656   0.350   3.119   2.998  0.0522 -1.0717 -0.8500
 6398SOL    HW230657   0.445   3.038   3.046 -0.3344  0.9238 -0.9103
 6399SOL     OW30658   2.411   0.133   2.659 -0.1123 -0.0450 -0.5668
 6399SOL    HW130659   2.486   0.075   2.644  0.3861  0.2251  0.9046
 6399SOL    HW230660   2.345   0.065   2.648 -1.0358  0.2355  3.3428
 6400SOL     OW30661   1.857   3.794   0.844 -0.2950 -0.3404  0.0011
 6400SOL    HW130662   1.775   3.839   0.824 -0.2085  1.6167  3.8454
 6400SOL    HW230663   1.923   3.861   0.824  0.5029 -0.7378  1.2674
 6401SOL     OW30664   0.537   0.947  10.960 -0.1914 -0.1673 -0.0094
 6401SOL    HW130665   0.485   0.871  10.935  1.5622 -0.6328 -2.2621
 6401SOL    HW230666   0.496   0.948  11.046  1.9047 -1.1075  0.9848
 6402SOL     OW30667   2.838   0.340   2.863  0.3806 -0.8290 -0.0337
 6402SOL    HW130668   2.899   0.400   2.820 -1.6637  2.0166  0.9850
 6402SOL    HW230669   2.820   0.277   2.793  0.5278 -1.2374  0.2984
 6403SOL     OW30670   4.461   3.831   7.249  0.0125 -0.2604  0.2574
 6403SOL    HW130671   4.516   3.846   7.326 -0.8890  0.0447  0.8346
 6403SOL    HW230672   4.527   3.855   7.183  0.1772  0.7522  0.7949
 6404SOL     OW30673   3.308   2.829   7.801 -0.5285  0.3364 -0.6624
 6404SOL    HW130674   3.235   2.767   7.802 -0.7417  0.5691 -1.5140
 6404SOL    HW230675   3.369   2.780   7.855 -0.2671  1.2087 -0.1627
 6405SOL     OW30676   0.337   3.524   1.573  0.1028  0.2105 -0.1243
 6405SOL    HW130677   0.382   3.495   1.494 -0.6953  0.6679 -0.7508
 6405SOL    HW230678   0.246   3.520   1.544  0.1525  2.0239 -0.5779
 6406SOL     OW30679   2.998   0.300  13.759 -0.1092 -0.1219  0.3405
 6406SOL    HW130680   2.934   0.330  13.693 -2.5366 -0.6856  2.4381
 6406SOL    HW230681   3.008   0.382  13.808  0.7927 -0.6492  1.0172
 6407SOL     OW30682   2.212   2.235   8.963  0.3981 -0.2580 -0.5313
 6407SOL    HW130683   2.300   2.271   8.952  0.7227 -1.3573 -1.4555
 6407SOL    HW230684   2.172   2.217   8.878 -0.2230  0.8811 -0.4767
 6408SOL     OW30685   3.465   1.911  11.409 -0.6652  0.2509  0.2007
 6408SOL    HW130686   3.475   1.921  11.314 -0.1273 -1.3636  0.0839
 6408SOL    HW230687   3.370   1.924  11.413 -0.4557  1.5367  1.0736
 6409SOL     OW30688   0.125   1.849   2.452  0.3838  0.0326  0.4177
 6409SOL    HW130689   0.104   1.904   2.376 -2.2821 -0.2169  0.9855
 6409SOL    HW230690   0.041   1.834   2.496  1.1167 -1.7215  1.2123
 6410SOL     OW30691   3.873   2.810   6.585 -0.4454 -0.1614 -0.1521
 6410SOL    HW130692   3.871   2.898   6.624  1.8254 -0.1079 -0.1787
 6410SOL    HW230693   3.780   2.792   6.602 -0.0012  0.5200  2.9605
 6411SOL     OW30694   3.134   0.495   7.046 -0.1173  0.0089  0.0022
 6411SOL    HW130695   3.069   0.543   6.994 -2.0750 -0.8655  1.6334
 6411SOL    HW230696   3.181   0.564   7.091  0.9549  0.1720 -1.3731
 6412SOL     OW30697   3.478   2.535   8.184 -0.4051  0.6632  0.0892
 6412SOL    HW130698   3.523   2.457   8.153 -0.4805  0.4257  0.5793
 6412SOL    HW230699   3.477   2.587   8.103  1.9380 -2.7588 -2.1384
 6413SOL     OW30700   3.672   1.978  12.330  0.6968  0.0426  0.1743
 6413SOL    HW130701   3.710   2.020  12.252  0.8091  1.1020  0.7965
 6413SOL    HW230702   3.580   1.991  12.307  1.1760 -0.3276 -1.9554
 6414SOL     OW30703   4.524   3.084  16.724 -0.4635 -0.1797  0.0264
 6414SOL    HW130704   4.588   3.031  16.771 -2.3385 -0.9357  1.7345
 6414SOL    HW230705   4.517   3.173  16.757 -1.5510 -0.1264 -0.3250
 6415SOL     OW30706   2.600   0.715   8.097  0.4031 -0.0898  0.1572
 6415SOL    HW130707   2.612   0.627   8.133 -0.9715 -0.3488 -0.0085
 6415SOL    HW230708   2.688   0.752   8.099 -0.1231  1.1646  0.4511
 6416SOL     OW30709   2.706   0.807   0.169 -0.3005  0.2460  0.1221
 6416SOL    HW130710   2.675   0.807   0.079  1.4698  1.1100 -0.4905
 6416SOL    HW230711   2.740   0.718   0.178 -3.0584 -0.9473 -1.3882
 6417SOL     OW30712   1.611   2.105   7.892 -0.0705  0.4322 -0.0426
 6417SOL    HW130713   1.532   2.154   7.916  0.5197  0.6675  1.4370
 6417SOL    HW230714   1.649   2.157   7.821  1.9973  1.0551  1.5094
 6418SOL     OW30715   0.828   3.435   0.612  0.4230 -0.3569 -0.6468
 6418SOL    HW130716   0.899   3.496   0.590 -0.9386  0.8738 -1.5920
 6418SOL    HW230717   0.754   3.468   0.562 -0.5535 -2.0222 -0.2747
 6419SOL     OW30718   2.319   3.821  13.801  0.1831 -0.3988  0.0795
 6419SOL    HW130719   2.339   3.859  13.886 -0.4781 -1.4493  0.7084
 6419SOL    HW230720   2.226   3.814  13.824  1.0666 -0.9435  3.4063
 6420SOL     OW30721   0.644   1.588   5.411  0.2991  0.1937  0.3193
 6420SOL    HW130722   0.594   1.662   5.377  1.2571  1.0134  0.6810
 6420SOL    HW230723   0.583   1.515   5.396  1.0858 -0.6148  1.0266
 6421SOL     OW30724   1.646   4.666   4.349  0.7218 -0.2470 -0.0608
 6421SOL    HW130725   1.661   4.720   4.272  0.6652 -0.3893 -0.1700
 6421SOL    HW230726   1.591   4.596   4.315  0.7615 -0.2795 -0.0586
 6422SOL     OW30727   4.252   1.307   6.632  0.0964 -0.2360  0.2759
 6422SOL    HW130728   4.343   1.277   6.625  0.0189 -0.2909 -0.4727
 6422SOL    HW230729   4.235   1.247   6.704  1.6174 -0.6908  0.2635
 6423SOL     OW30730   0.917   3.518   9.914 -0.3886  0.3987  0.3672
 6423SOL    HW130731   0.961   3.451   9.966 -1.7010 -1.3510 -0.8005
 6423SOL    HW230732   0.993   3.550   9.864 -0.2328 -1.3821 -0.5134
 6424SOL     OW30733   4.060   3.303  10.127  0.2203  0.3741  0.1526
 6424SOL    HW130734   3.966   3.325  10.126  0.1743  0.3194  2.1592
 6424SOL    HW230735   4.053   3.208  10.133 -0.2574  0.4620  1.0138
 6425SOL     OW30736   2.818   4.660  15.062 -0.3485  0.1732  0.2268
 6425SOL    HW130737   2.870   4.615  14.995 -1.9322  2.5058 -2.6000
 6425SOL    HW230738   2.801   4.589  15.124 -1.8697 -1.1502 -1.6837
 6426SOL     OW30739   3.127   1.395   7.293 -0.1028  0.5034 -0.3526
 6426SOL    HW130740   3.098   1.351   7.373 -0.8046  0.6111 -0.5493
 6426SOL    HW230741   3.210   1.436   7.318  0.9082 -1.4728 -0.4280
 6427SOL     OW30742   0.589   1.349  16.064  0.3219  0.2750 -0.0427
 6427SOL    HW130743   0.683   1.368  16.068  0.8454 -1.7158 -2.9525
 6427SOL    HW230744   0.569   1.334  16.157 -0.2062  1.4661  0.0298
 6428SOL     OW30745   3.292   0.829   4.887 -0.4540  0.3992 -0.2468
 6428SOL    HW130746   3.380   0.848   4.920 -1.4383  0.8780  2.0472
 6428SOL    HW230747   3.311   0.762   4.821  1.5001  1.3622 -0.6593
 6429SOL     OW30748   2.651   2.044  17.561  0.3839 -0.3142 -0.1417
 6429SOL    HW130749   2.731   2.045  17.613 -0.3146  0.2452  0.9234
 6429SOL    HW230750   2.578   2.048  17.623  0.7280  2.0537  0.1272
 6430SOL     OW30751   3.549   1.369   3.483  0.4906 -0.0204 -0.3129
 6430SOL    HW130752   3.560   1.276   3.503 -0.5170  0.2512  1.5100
 6430SOL    HW230753   3.639   1.391   3.460  1.2087 -1.4997  1.0672
 6431SOL     OW30754   3.146   3.624   2.044 -0.5032  0.4905 -0.3743
 6431SOL    HW130755   3.086   3.556   2.012 -0.8762  0.7846 -0.2980
 6431SOL    HW230756   3.102   3.634   2.128 -0.1848 -0.2403 -0.1234
 6432SOL     OW30757   0.903   2.961   8.391 -0.2466 -0.6021  0.2434
 6432SOL    HW130758   0.853   3.042   8.402 -1.4436 -1.4963  1.5057
 6432SOL    HW230759   0.901   2.930   8.482  1.5278 -1.0897  0.0949
 6433SOL     OW30760   3.975   0.329   8.498 -0.2458  0.1246  0.6777
 6433SOL    HW130761   3.970   0.321   8.403 -0.3702  0.0958  0.6862
 6433SOL    HW230762   3.997   0.421   8.512  1.5452 -0.3663  1.0972
 6434SOL     OW30763   2.083   0.688  10.011 -0.2452  0.0323 -0.2699
 6434SOL    HW130764   2.108   0.747  10.082 -1.1600 -1.4765  1.3153
 6434SOL    HW230765   1.987   0.689  10.015 -0.2151 -0.1251  0.5092
 6435SOL     OW30766   3.888   1.764   7.927  0.4007 -0.7099 -0.3222
 6435SOL    HW130767   3.922   1.780   7.839 -0.5787  0.3429 -0.5040
 6435SOL    HW230768   3.918   1.673   7.925 -0.5568 -1.0768  2.0441
 6436SOL     OW30769   2.029   2.366   4.830 -0.1891  0.2515 -0.2832
 6436SOL    HW130770   2.025   2.349   4.924 -0.1687 -0.8208 -0.4688
 6436SOL    HW230771   1.936   2.356   4.809 -0.0325 -0.7727 -0.5026
 6437SOL     OW30772   3.803   1.288  15.765  0.2144  0.4193  0.2805
 6437SOL    HW130773   3.759   1.317  15.845  1.2346 -0.6856  1.2302
 6437SOL    HW230774   3.850   1.369  15.745 -1.3674  1.7708  2.0420
 6438SOL     OW30775   3.287   3.033   6.997  0.2897  0.5300 -0.3347
 6438SOL    HW130776   3.223   3.050   6.928 -1.1172  0.0761  0.8508
 6438SOL    HW230777   3.372   3.058   6.960 -0.2704 -0.0512 -2.0466
 6439SOL     OW30778   0.469   3.851   6.838 -0.5174 -0.1244 -0.0154
 6439SOL    HW130779   0.433   3.787   6.900 -0.0757  0.3371  0.7192
 6439SOL    HW230780   0.387   3.882   6.800 -1.0133  0.4101  1.4904
 6440SOL     OW30781   0.311   2.797   3.870  0.1623 -0.1953 -0.3201
 6440SOL    HW130782   0.276   2.714   3.837 -1.4623  0.7158 -0.8634
 6440SOL    HW230783   0.249   2.863   3.840  0.1829  0.3069  0.7387
 6441SOL     OW30784   1.959   4.211  13.195 -0.1151  0.1363  0.0627
 6441SOL    HW130785   1.996   4.257  13.119 -0.5427  1.1909  0.4875
 6441SOL    HW230786   1.968   4.275  13.265 -0.7358  0.8406 -0.5028
 6442SOL     OW30787   4.009   2.758  12.437  0.0242  0.1756 -0.3679
 6442SOL    HW130788   3.977   2.706  12.364 -0.8860  2.9169 -1.9437
 6442SOL    HW230789   3.941   2.735  12.500  1.5579 -0.1781  1.1730
 6443SOL     OW30790   3.039   2.398   7.608 -0.2787 -0.0894 -0.1633
 6443SOL    HW130791   3.033   2.303   7.615  2.1739 -0.1881  0.4359
 6443SOL    HW230792   3.024   2.410   7.514 -2.5662  1.3275  0.3718
 6444SOL     OW30793   1.133   2.242   6.976 -0.0296 -0.1537  0.1064
 6444SOL    HW130794   1.200   2.296   7.018  1.4969 -1.3250 -0.8343
 6444SOL    HW230795   1.176   2.188   6.910 -0.9629 -0.0156 -0.6160
 6445SOL     OW30796   4.706   1.728   3.289 -0.0040 -0.1680 -0.4782
 6445SOL    HW130797   0.060   1.671   3.297 -1.4167 -2.0199 -0.0964
 6445SOL    HW230798   4.641   1.662   3.314 -1.6149  0.9698 -1.6209
 6446SOL     OW30799   2.173   0.836   3.446  0.8184  0.1606 -0.5949
 6446SOL    HW130800   2.189   0.742   3.453 -1.7064 -0.2417 -0.3167
 6446SOL    HW230801   2.127   0.845   3.363 -0.0936 -1.8141 -0.2988
 6447SOL     OW30802   3.964   1.702   7.129 -0.1601 -0.3122  0.0257
 6447SOL    HW130803   3.889   1.729   7.077  0.4940 -1.2888 -1.4424
 6447SOL    HW230804   3.958   1.757   7.207 -1.4333  2.3333 -1.9464
 6448SOL     OW30805   0.565   3.919  11.785 -0.1006  0.0879  0.4614
 6448SOL    HW130806   0.540   3.925  11.693  0.5900 -2.6471  0.0868
 6448SOL    HW230807   0.647   3.870  11.780  1.4735  2.8359 -0.5424
 6449SOL     OW30808   3.454   1.447   1.671  0.0350 -0.1053 -0.7103
 6449SOL    HW130809   3.366   1.468   1.639  1.0305  0.4708 -3.0746
 6449SOL    HW230810   3.426   1.373   1.725 -1.4587 -1.1036 -2.8031
 6450SOL     OW30811   4.383   1.020  16.250 -0.2409 -0.0352 -0.4928
 6450SOL    HW130812   4.299   1.066  16.255 -0.3808 -0.2361 -1.0070
 6450SOL    HW230813   4.392   1.000  16.157 -0.9599  2.8038 -1.1552
 6451SOL     OW30814   2.352   0.808   1.332  0.0307 -0.5368 -0.3042
 6451SOL    HW130815   2.405   0.773   1.260 -1.8735  4.2005 -4.0622
 6451SOL    HW230816   2.369   0.736   1.392  1.6666 -0.3132 -0.5103
 6452SOL     OW30817   0.168   2.400  14.586  0.4297  0.1777  0.2064
 6452SOL    HW130818   0.114   2.442  14.652  0.0294 -0.1661  0.0915
 6452SOL    HW230819   0.242   2.459  14.566  1.3398 -0.9595  0.2343
 6453SOL     OW30820   2.457   0.729   3.643  0.1591 -0.2062 -0.3069
 6453SOL    HW130821   2.512   0.703   3.717 -0.1926  2.3759  0.8789
 6453SOL    HW230822   2.402   0.651   3.637  0.8277 -0.8909  2.6372
 6454SOL     OW30823   3.673   3.705  15.302 -0.1597 -0.0334 -0.1860
 6454SOL    HW130824   3.704   3.681  15.389  2.0375 -0.3481 -1.0540
 6454SOL    HW230825   3.731   3.778  15.279 -1.0479  0.3636 -1.2001
 6455SOL     OW30826   1.713   2.463   7.080 -0.5839  0.5192  0.1045
 6455SOL    HW130827   1.708   2.397   7.010  0.2103 -0.4369  0.9527
 6455SOL    HW230828   1.661   2.528   7.033 -1.3988  0.0684  0.3710
 6456SOL     OW30829   0.679   3.352  15.304  0.6703 -0.4251  0.3343
 6456SOL    HW130830   0.723   3.372  15.221  4.6396 -0.4892  2.4359
 6456SOL    HW230831   0.752   3.314  15.353  1.4700 -0.1775 -0.6639
 6457SOL     OW30832   2.316   1.683   2.947 -0.3373 -0.1696 -0.4900
 6457SOL    HW130833   2.400   1.653   2.983 -0.1014  0.2719 -0.6727
 6457SOL    HW230834   2.309   1.613   2.881  0.6923 -0.6721 -0.0739
 6458SOL     OW30835   0.103   1.674  11.918  0.1121  0.2736  0.0839
 6458SOL    HW130836   0.142   1.751  11.961  1.8786 -1.3268  1.3589
 6458SOL    HW230837   0.052   1.635  11.988  0.2212 -0.3714 -0.1964
 6459SOL     OW30838   3.185   3.759   4.873 -0.6227 -0.1754 -0.0877
 6459SOL    HW130839   3.149   3.816   4.805 -1.4045 -0.0337  0.4361
 6459SOL    HW230840   3.102   3.729   4.911 -1.0653  0.5784 -0.4687
 6460SOL     OW30841   2.402   1.464   1.752 -0.4373 -0.3385  0.3787
 6460SOL    HW130842   2.437   1.418   1.675  0.3935  1.9058 -0.5724
 6460SOL    HW230843   2.336   1.406   1.788  1.0563 -2.1754  0.1900
 6461SOL     OW30844   3.513   2.759   9.563 -0.0438 -0.1492  0.2365
 6461SOL    HW130845   3.508   2.664   9.550 -1.0816 -0.1012  0.2958
 6461SOL    HW230846   3.606   2.778   9.569 -0.0011 -0.5945  0.9356
 6462SOL     OW30847   3.560   4.605   5.304  0.6098  1.0097  0.8992
 6462SOL    HW130848   3.492   4.647   5.251 -0.2121  0.4410  1.5141
 6462SOL    HW230849   3.579   4.678   5.363  0.7661  2.0274 -0.3999
 6463SOL     OW30850   1.383   3.567   7.760  0.1875  0.2164  0.3432
 6463SOL    HW130851   1.425   3.493   7.803  0.3372 -0.0795 -0.3112
 6463SOL    HW230852   1.429   3.576   7.676 -0.0174  0.9192  0.3064
 6464SOL     OW30853   4.176   4.069   2.807  0.1509  0.0320  0.6113
 6464SOL    HW130854   4.254   4.066   2.753  0.1051  0.8815  0.4871
 6464SOL    HW230855   4.194   4.157   2.842  1.1852 -1.3516  3.5869
 6465SOL     OW30856   1.070   0.279   7.487  0.0911  0.2224  0.0523
 6465SOL    HW130857   1.060   0.184   7.489 -3.4634  0.6002  0.9328
 6465SOL    HW230858   1.097   0.288   7.578  0.5415  1.7531 -0.2414
 6466SOL     OW30859   3.304   0.945   0.584  0.3832 -0.5703 -0.2869
 6466SOL    HW130860   3.286   0.932   0.677  0.9777 -0.6725 -0.1818
 6466SOL    HW230861   3.295   1.040   0.575  1.3123 -0.6534 -1.9524
 6467SOL     OW30862   1.864   2.459   5.338  0.4789 -0.8341 -0.0736
 6467SOL    HW130863   1.862   2.539   5.285  0.4976  0.7038  2.2504
 6467SOL    HW230864   1.791   2.467   5.400 -0.8880 -0.3740 -1.7564
 6468SOL     OW30865   1.271   4.001  15.301 -0.3805 -0.1223  0.2534
 6468SOL    HW130866   1.329   3.933  15.266 -0.6649  0.3174 -1.0825
 6468SOL    HW230867   1.328   4.063  15.345  1.9831 -1.1409 -1.3638
 6469SOL     OW30868   3.764   2.828   9.558  0.0416  0.6949 -0.2360
 6469SOL    HW130869   3.837   2.774   9.529  2.4950  3.6559  0.4673
 6469SOL    HW230870   3.769   2.882   9.478  3.2082  0.5719 -0.1078
 6470SOL     OW30871   4.100   4.490   4.578  0.2500  0.5483  1.0626
 6470SOL    HW130872   4.169   4.541   4.536  0.8211 -1.2834 -0.2198
 6470SOL    HW230873   4.141   4.420   4.629 -0.9285  0.4079  1.8294
 6471SOL     OW30874   1.169   3.443  16.134  0.1335 -0.0589 -0.3593
 6471SOL    HW130875   1.133   3.442  16.045 -1.1827  0.5214  0.1580
 6471SOL    HW230876   1.130   3.360  16.161  2.3512 -0.4485  1.6590
 6472SOL     OW30877   0.173   4.127   4.514 -0.0754 -0.1588 -0.0608
 6472SOL    HW130878   0.127   4.139   4.431  0.4052 -1.0666 -0.4599
 6472SOL    HW230879   0.117   4.055   4.543 -0.8927  0.3485 -0.3613
 6473SOL     OW30880   4.045   2.134   2.419  0.7350  0.2851 -0.6453
 6473SOL    HW130881   4.097   2.073   2.471  1.4676  2.9113  1.7019
 6473SOL    HW230882   4.094   2.216   2.428  1.2106 -0.1883  0.9748
 6474SOL     OW30883   0.712   0.871   1.181 -0.2865 -0.5815  0.7246
 6474SOL    HW130884   0.627   0.840   1.151  0.0990 -1.2424  0.3108
 6474SOL    HW230885   0.689   0.954   1.223 -0.4784  0.6317 -1.7640
 6475SOL     OW30886   3.976   2.159   4.493 -0.5272  0.0640  0.0936
 6475SOL    HW130887   3.911   2.147   4.562 -1.9137 -2.0400 -1.5829
 6475SOL    HW230888   3.933   2.219   4.432  1.5486 -0.0595 -1.4963
 6476SOL     OW30889   1.712   0.355  11.138 -0.5295  0.5614 -0.1095
 6476SOL    HW130890   1.734   0.448  11.142 -0.6198  0.6616 -2.2701
 6476SOL    HW230891   1.800   0.318  11.136 -0.2112  1.2586  0.9487
 6477SOL     OW30892   0.727   2.928   6.702  0.7910 -0.3762  0.2998
 6477SOL    HW130893   0.714   3.020   6.723 -0.7669 -0.3957 -0.6234
 6477SOL    HW230894   0.719   2.933   6.607 -0.8084 -0.5254  0.4383
 6478SOL     OW30895   3.242   3.338   8.193 -0.1839  0.0267 -0.0042
 6478SOL    HW130896   3.254   3.342   8.288  0.2109 -1.6220  0.0121
 6478SOL    HW230897   3.266   3.250   8.166 -0.2729  0.2284 -0.7210
 6479SOL     OW30898   2.072   3.741   3.786  0.7816 -0.2035  0.4446
 6479SOL    HW130899   2.011   3.684   3.739 -0.4720  0.8573  0.7747
 6479SOL    HW230900   2.113   3.678   3.845 -0.2899 -0.3853  1.0002
 6480SOL     OW30901   0.034   2.752   8.950 -0.1204  0.1929 -0.0082
 6480SOL    HW130902   0.015   2.842   8.924 -0.4929 -0.6951 -2.8770
 6480SOL    HW230903   0.080   2.763   9.033  2.0202 -0.6033 -1.0747
 6481SOL     OW30904   0.754   2.579   2.951 -0.5634 -0.0231 -0.3435
 6481SOL    HW130905   0.662   2.562   2.932 -0.5677  0.9448 -1.1671
 6481SOL    HW230906   0.773   2.654   2.895  0.7924  0.4287  0.7010
 6482SOL     OW30907   0.423   1.847   7.673 -0.0069  0.1951  0.1830
 6482SOL    HW130908   0.428   1.752   7.676 -1.6739  0.1498  1.7457
 6482SOL    HW230909   0.350   1.847   7.611  0.5721  0.5350 -0.4997
 6483SOL     OW30910   2.915   4.598   5.899 -0.0170 -0.0608 -0.0434
 6483SOL    HW130911   2.950   4.580   5.812 -0.8759  0.1247 -0.4358
 6483SOL    HW230912   2.855   4.671   5.882 -0.6422 -0.8061 -1.0497
 6484SOL     OW30913   0.572   2.638   0.019  0.4172  0.0952 -0.2005
 6484SOL    HW130914   0.575   2.559   0.073 -1.0308 -0.0820 -0.3823
 6484SOL    HW230915   0.641   2.683   0.068  0.9065  0.3612 -1.1380
 6485SOL     OW30916   0.630   0.527   2.935 -0.3961 -0.4921  0.1927
 6485SOL    HW130917   0.633   0.469   3.010 -1.0793  0.5366  1.0151
 6485SOL    HW230918   0.660   0.613   2.963  0.5955 -1.1850  1.2564
 6486SOL     OW30919   1.340   0.138   8.828 -0.0102 -0.1059  0.1256
 6486SOL    HW130920   1.326   0.080   8.902  0.0471 -0.5121 -0.1859
 6486SOL    HW230921   1.266   0.114   8.772 -1.4272  1.2763  1.3958
 6487SOL     OW30922   4.176   1.978   8.199  0.1447 -0.0018  0.2688
 6487SOL    HW130923   4.122   2.056   8.211  0.4943 -0.2294  3.3087
 6487SOL    HW230924   4.222   1.964   8.282  0.2505 -4.0137 -0.4749
 6488SOL     OW30925   2.871   0.558   5.234 -0.1540 -0.2975  0.1956
 6488SOL    HW130926   2.786   0.523   5.260 -1.4118  0.4011 -3.1349
 6488SOL    HW230927   2.845   0.610   5.159 -1.9694  0.2699  1.2367
 6489SOL     OW30928   3.374   4.110   8.216 -0.7849  0.1258 -0.1785
 6489SOL    HW130929   3.367   4.152   8.131  0.4195 -0.2030 -0.4377
 6489SOL    HW230930   3.335   4.175   8.275  1.2633  2.6286 -1.6014
 6490SOL     OW30931   3.505   1.045   7.918  0.0902 -0.2259 -0.8111
 6490SOL    HW130932   3.476   1.005   8.000 -1.5525  0.2981 -1.1334
 6490SOL    HW230933   3.443   1.003   7.857 -0.2177  1.8106 -1.8907
 6491SOL     OW30934   4.698   1.546  15.522  0.0281  0.5259  0.2185
 6491SOL    HW130935   4.688   1.637  15.495  1.5119  1.0193  1.2922
 6491SOL    HW230936   4.627   1.501  15.477 -1.5176  2.7788  0.3856
 6492SOL     OW30937   2.488   2.246   3.491 -0.4897 -0.2836  0.8454
 6492SOL    HW130938   2.520   2.220   3.405 -0.3086  1.3224  0.4320
 6492SOL    HW230939   2.488   2.340   3.473  0.2207 -0.6633 -1.0654
 6493SOL     OW30940   3.165   3.593  11.328  0.5007 -0.0255 -0.0928
 6493SOL    HW130941   3.241   3.574  11.383 -1.5339 -1.5550  2.2341
 6493SOL    HW230942   3.096   3.586  11.395  0.1942 -1.0253 -0.5084
 6494SOL     OW30943   3.262   3.430   3.685 -0.2145  0.4316  0.1736
 6494SOL    HW130944   3.237   3.378   3.762  0.2938  0.2756  0.2331
 6494SOL    HW230945   3.197   3.501   3.684 -0.8173 -0.1292 -0.5143
 6495SOL     OW30946   4.686   2.822  10.776  0.2210  0.9151 -0.2803
 6495SOL    HW130947   4.682   2.808  10.681  0.4980  1.6199 -0.3976
 6495SOL    HW230948   4.607   2.876  10.780 -0.2843 -0.1025  2.8027
 6496SOL     OW30949   1.976   4.697   3.626  0.5962 -0.0408  0.2189
 6496SOL    HW130950   1.885   4.673   3.608  0.2164 -0.0273  2.1058
 6496SOL    HW230951   1.994   0.062   3.590  0.6256 -0.0551  0.1989
 6497SOL     OW30952   2.213   3.607   6.129 -0.4480  0.0854 -0.3676
 6497SOL    HW130953   2.196   3.541   6.196 -3.0802  2.8268  1.6519
 6497SOL    HW230954   2.131   3.656   6.137  0.2518  1.1526  0.2282
 6498SOL     OW30955   3.181   3.383   2.721 -0.4917 -0.5797  0.1863
 6498SOL    HW130956   3.127   3.425   2.654  0.6794  0.7596  0.1038
 6498SOL    HW230957   3.131   3.408   2.798  0.7227  2.4291 -0.0194
 6499SOL     OW30958   4.304   2.111  13.187  0.5125 -0.0443  0.3579
 6499SOL    HW130959   4.372   2.052  13.219  1.7883  0.0723 -2.1612
 6499SOL    HW230960   4.332   2.194  13.227 -1.3873  0.4552  0.6853
 6500SOL     OW30961   2.858   2.403   1.747 -0.2342  0.4788 -0.2544
 6500SOL    HW130962   2.900   2.442   1.670 -1.0346 -0.9441 -1.4013
 6500SOL    HW230963   2.788   2.464   1.768 -0.3276  0.4933 -0.5983
 6501SOL     OW30964   2.599   0.437   3.327  0.7426  0.1844 -0.5311
 6501SOL    HW130965   2.668   0.421   3.262 -0.8966 -2.8656 -1.5061
 6501SOL    HW230966   2.580   0.531   3.323 -3.3397 -0.5346  1.4904
 6502SOL     OW30967   2.692   1.389   9.396  0.5016  0.3886  0.0712
 6502SOL    HW130968   2.737   1.324   9.449  1.0765  0.6582 -0.0947
 6502SOL    HW230969   2.672   1.338   9.318 -0.7303  0.7877  0.1167
 6503SOL     OW30970   0.325   0.951   4.363  0.3456  0.1094  0.0087
 6503SOL    HW130971   0.316   0.916   4.274 -0.8170  0.0318  0.1653
 6503SOL    HW230972   0.295   0.877   4.416 -0.2060  1.7687  1.9941
 6504SOL     OW30973   0.973   4.610   4.071 -0.1641  0.6175  0.2211
 6504SOL    HW130974   1.005   4.671   4.004  0.9914 -2.0607 -1.6546
 6504SOL    HW230975   0.885   4.644   4.088 -0.5433 -0.2612 -0.0089
 6505SOL     OW30976   1.829   3.013   2.365 -0.1459 -0.4959  0.0145
 6505SOL    HW130977   1.812   3.107   2.363 -0.3560 -0.6306 -3.3802
 6505SOL    HW230978   1.869   3.019   2.452  1.9765 -1.7683 -0.8712
 6506SOL     OW30979   3.737   2.455  14.866  0.2145  0.0089  0.1057
 6506SOL    HW130980   3.826   2.467  14.897  0.9506 -1.6333 -1.3289
 6506SOL    HW230981   3.723   2.368  14.905 -0.4935  0.4332  0.8094
 6507SOL     OW30982   4.172   0.401  16.101  0.4496 -0.1403  0.5826
 6507SOL    HW130983   4.265   0.418  16.088  0.4383 -1.7177 -1.6981
 6507SOL    HW230984   4.138   0.428  16.016  0.9574 -1.3254  0.0043
 6508SOL     OW30985   3.200   2.994   4.568  0.1380  0.5102 -0.0736
 6508SOL    HW130986   3.271   2.933   4.584  0.9485  1.6766  0.7691
 6508SOL    HW230987   3.175   2.956   4.484 -1.1972  1.1552  0.0171
 6509SOL     OW30988   2.528   2.854   0.054 -0.6201  0.0535 -0.1674
 6509SOL    HW130989   2.569   2.853  17.659  0.6162  1.0134  0.4241
 6509SOL    HW230990   2.438   2.860   0.022 -0.1801  0.2713 -1.3605
 6510SOL     OW30991   0.567   2.746   5.791  0.3073  0.9519  0.1218
 6510SOL    HW130992   0.612   2.668   5.760  0.6388  1.2227 -0.0727
 6510SOL    HW230993   0.617   2.766   5.870  1.2669 -0.1494 -0.2061
 6511SOL     OW30994   1.987   0.017   4.871  0.0359 -0.1277 -0.2933
 6511SOL    HW130995   1.996   0.059   4.956 -0.6750 -1.3871  0.4037
 6511SOL    HW230996   1.896   0.027   4.843  0.1331  0.7455 -0.2877
 6512SOL     OW30997   2.836   3.297   3.818  0.4301  0.5735 -0.9556
 6512SOL    HW130998   2.881   3.381   3.816  0.2639  0.6828  0.0212
 6512SOL    HW230999   2.891   3.254   3.884 -2.6109  0.7774  1.6855
 6513SOL     OW31000   4.653   1.467   5.900 -0.0890  0.5042 -0.2353
 6513SOL    HW131001   4.698   1.409   5.961  1.5047  1.2792 -0.6764
 6513SOL    HW231002   4.646   1.546   5.953 -1.1821  0.3898 -0.2053
 6514SOL     OW31003   0.950   0.699   1.200 -0.1446 -0.6075 -0.4537
 6514SOL    HW131004   0.896   0.636   1.248  0.4160 -0.2570  0.6481
 6514SOL    HW231005   0.880   0.763   1.196  2.2899  2.2206  1.9711
 6515SOL     OW31006   1.792   0.830   5.461 -0.9800 -0.7331 -0.2998
 6515SOL    HW131007   1.826   0.741   5.464  0.2428 -0.3250 -2.2609
 6515SOL    HW231008   1.841   0.882   5.524 -0.6315 -0.4182 -0.8257
 6516SOL     OW31009   3.376   4.690   9.873 -0.3193 -0.5137 -0.0838
 6516SOL    HW131010   3.386   4.612   9.928  0.4666 -0.4303 -0.1063
 6516SOL    HW231011   3.344   4.652   9.792 -1.0791 -1.4526  0.6710
 6517SOL     OW31012   2.476   3.472   9.745 -0.1175  0.3469 -0.1526
 6517SOL    HW131013   2.524   3.399   9.706 -2.8480 -1.6551  0.2156
 6517SOL    HW231014   2.419   3.510   9.677  0.9788 -0.9408 -1.7898
 6518SOL     OW31015   1.671   3.505  11.252  0.2261  0.0533  0.3628
 6518SOL    HW131016   1.704   3.438  11.312 -2.4896 -0.5635  1.1728
 6518SOL    HW231017   1.699   3.463  11.171  1.3772  1.4867  0.0161
 6519SOL     OW31018   0.059   0.532  14.173 -0.2141 -0.3344  0.2327
 6519SOL    HW131019   0.095   0.589  14.241 -0.0357  0.7883 -0.8047
 6519SOL    HW231020   0.111   0.565  14.100 -1.1013  0.6419  0.0410
 6520SOL     OW31021   0.562   1.568   0.141 -0.1684  0.4407 -0.6467
 6520SOL    HW131022   0.593   1.482   0.114  0.2060 -0.0190  1.2405
 6520SOL    HW231023   0.644   1.617   0.144 -0.8586  1.4366  1.8585
 6521SOL     OW31024   4.109   0.127  15.095  0.0838 -0.8050 -0.8000
 6521SOL    HW131025   4.143   0.192  15.157  1.3073  0.6907 -3.0725
 6521SOL    HW231026   4.156   0.051  15.129  2.0290  0.7235 -0.1101
 6522SOL     OW31027   4.023   2.947   2.511 -0.2364 -0.1491  0.0038
 6522SOL    HW131028   3.943   2.999   2.519 -0.0257  0.1939 -0.1255
 6522SOL    HW231029   3.989   2.864   2.547  0.0738  0.7682  2.3729
 6523SOL     OW31030   3.076   2.239   2.474  0.3713  0.8159 -0.7612
 6523SOL    HW131031   3.153   2.206   2.520  0.3313  0.6138 -0.8430
 6523SOL    HW231032   3.077   2.332   2.499  2.9137  0.0887  1.8018
 6524SOL     OW31033   3.250   1.195  15.479 -0.1724  0.2627 -0.3089
 6524SOL    HW131034   3.238   1.167  15.570  0.4591 -1.6417 -0.8092
 6524SOL    HW231035   3.345   1.182  15.469 -0.2006 -1.1169  1.1555
 6525SOL     OW31036   0.769   3.472  11.477 -0.3417 -0.1987 -0.7983
 6525SOL    HW131037   0.857   3.479  11.442  0.6249  1.3198  1.9238
 6525SOL    HW231038   0.735   3.561  11.468  1.4834  0.6840  0.9675
 6526SOL     OW31039   2.723   2.863   6.710  0.2707  0.2185  0.1462
 6526SOL    HW131040   2.744   2.933   6.648  4.6208 -1.8477 -0.7441
 6526SOL    HW231041   2.690   2.911   6.786  1.8672  0.2763  0.8202
 6527SOL     OW31042   2.213   2.248   0.448 -0.0294  0.2269 -0.0982
 6527SOL    HW131043   2.308   2.257   0.443 -0.0568  1.1973  0.9707
 6527SOL    HW231044   2.178   2.336   0.458 -0.4450  0.2936 -2.2284
 6528SOL     OW31045   1.064   1.334  12.315  0.0434  0.2093 -0.2605
 6528SOL    HW131046   1.126   1.407  12.325 -0.2132  0.6247 -1.8362
 6528SOL    HW231047   1.002   1.365  12.249 -2.0360  2.0673  2.5862
 6529SOL     OW31048   0.396   4.651   4.073  0.0991  0.1600  0.4825
 6529SOL    HW131049   0.357   4.720   4.126 -2.3269 -0.2636 -0.7696
 6529SOL    HW231050   0.420   4.698   3.993 -0.0108 -0.0117  0.3508
 6530SOL     OW31051   3.437   3.960  14.144 -0.7200 -0.0488 -0.4129
 6530SOL    HW131052   3.486   3.900  14.200  1.0086  1.0251 -0.7709
 6530SOL    HW231053   3.508   4.021  14.120 -0.8073 -0.3905 -1.5243
 6531SOL     OW31054   3.103   2.486   4.493  0.2771  0.2085  0.0451
 6531SOL    HW131055   3.154   2.450   4.420 -0.2073 -0.0559 -0.1621
 6531SOL    HW231056   3.169   2.547   4.526  0.2842  0.8479 -1.1698
 6532SOL     OW31057   0.780   0.958   3.201 -0.2618 -0.1013 -0.0897
 6532SOL    HW131058   0.686   0.971   3.189 -0.4559 -1.0823  0.3181
 6532SOL    HW231059   0.791   1.023   3.270  0.4466 -1.8228  1.4047
 6533SOL     OW31060   3.961   2.022  15.287  0.4157  0.0670 -0.0648
 6533SOL    HW131061   3.997   1.934  15.298 -0.9304 -0.6921 -1.8496
 6533SOL    HW231062   3.914   2.035  15.369 -0.0761  0.2687 -0.3845
 6534SOL     OW31063   2.430   1.492  13.730  0.1921 -0.2077 -0.3497
 6534SOL    HW131064   2.485   1.539  13.792 -0.8765 -0.1266  0.5386
 6534SOL    HW231065   2.479   1.413  13.708 -1.6611 -1.5065  0.2133
 6535SOL     OW31066   2.564   0.771   1.101 -0.4221 -0.8325 -0.5442
 6535SOL    HW131067   2.640   0.826   1.081 -1.0026  0.5567  1.1225
 6535SOL    HW231068   2.490   0.826   1.075 -0.5459 -0.3509  0.8647
 6536SOL     OW31069   2.892   0.775   1.979  0.1981 -0.1305 -0.6938
 6536SOL    HW131070   2.903   0.781   1.884  3.0734  1.8131 -0.2422
 6536SOL    HW231071   2.973   0.815   2.010  0.6098 -2.5510  1.2819
 6537SOL     OW31072   3.268   2.706   2.997  0.2572  0.4185 -0.3110
 6537SOL    HW131073   3.347   2.662   3.027 -1.5289 -1.8668  0.9957
 6537SOL    HW231074   3.297   2.797   2.992 -0.7678  0.6700 -1.7618
 6538SOL     OW31075   2.215   1.041   6.219  0.3187  0.2448  0.1630
 6538SOL    HW131076   2.297   1.039   6.170  0.9551 -0.0525  1.2146
 6538SOL    HW231077   2.232   1.124   6.263  1.0447  0.2895 -0.1952
 6539SOL     OW31078   1.030   1.040   2.573  0.5317 -0.1102  0.6840
 6539SOL    HW131079   1.004   0.951   2.597  0.0560 -0.1001  0.1947
 6539SOL    HW231080   1.106   1.020   2.518  0.0226  2.5464 -0.9941
 6540SOL     OW31081   2.893   3.949   8.179 -0.2122  0.6637 -0.3713
 6540SOL    HW131082   2.875   3.858   8.204  2.2862  0.4093  0.5315
 6540SOL    HW231083   2.988   3.938   8.186 -0.1130  0.6310 -1.7398
 6541SOL     OW31084   0.683   1.602   8.516  0.0757 -0.0982  0.1984
 6541SOL    HW131085   0.625   1.529   8.535 -0.3242 -0.6134 -2.9809
 6541SOL    HW231086   0.734   1.610   8.597 -2.5656  0.2936  1.8363
 6542SOL     OW31087   2.843   0.800   8.044 -0.1116 -0.3387 -0.1785
 6542SOL    HW131088   2.881   0.768   8.126  0.8807  1.4971  0.0750
 6542SOL    HW231089   2.900   0.763   7.976 -0.7852  0.4936 -1.1979
 6543SOL     OW31090   2.861   3.095   6.472 -0.5985 -0.2012 -0.0125
 6543SOL    HW131091   2.884   3.148   6.548 -0.8769  3.1449 -2.2744
 6543SOL    HW231092   2.940   3.077   6.421 -0.7637 -0.7497 -0.0825
 6544SOL     OW31093   4.200   1.740  14.450 -0.0544  0.0037 -0.5922
 6544SOL    HW131094   4.279   1.742  14.397  2.5790 -1.7328  3.2925
 6544SOL    HW231095   4.181   1.834  14.449 -0.2976 -0.0459 -0.6083
 6545SOL     OW31096   4.208   1.414   2.690 -0.7648 -0.2939 -0.0629
 6545SOL    HW131097   4.202   1.483   2.624  1.4036  0.3047  0.3887
 6545SOL    HW231098   4.295   1.420   2.729 -1.3362  2.1257  0.8402
 6546SOL     OW31099   3.566   0.828  11.296  0.2475  0.6225 -0.3343
 6546SOL    HW131100   3.484   0.802  11.254  0.6827 -3.1259  1.1480
 6546SOL    HW231101   3.620   0.755  11.266  0.1796  0.4574 -0.0542
 6547SOL     OW31102   2.545   2.577  11.500  0.3590  0.2059 -0.2673
 6547SOL    HW131103   2.504   2.604  11.418 -0.1052 -0.5864 -0.3089
 6547SOL    HW231104   2.629   2.621  11.502  0.8830 -0.8322  0.2539
 6548SOL     OW31105   2.910   1.993  17.673  0.5410 -0.2874  0.0932
 6548SOL    HW131106   2.989   1.990  17.620  0.6925 -0.2226  0.3148
 6548SOL    HW231107   2.907   1.913   0.035  0.3562  0.9430  1.9683
 6549SOL     OW31108   1.550   2.642   6.985  0.6114 -0.5248  0.1118
 6549SOL    HW131109   1.597   2.726   6.986 -1.9178  0.8498  1.1731
 6549SOL    HW231110   1.465   2.670   7.019  0.8980 -0.4947  0.8034
 6550SOL     OW31111   1.419   4.369   1.971 -0.3276 -0.9168  0.3656
 6550SOL    HW131112   1.456   4.319   1.898 -0.2062 -0.2011 -0.0680
 6550SOL    HW231113   1.348   4.415   1.928  0.9683  1.6955  1.0081
 6551SOL     OW31114   4.110   1.932   8.680 -0.2743  0.5032 -0.3004
 6551SOL    HW131115   4.161   1.983   8.743 -1.9335  2.3180 -0.4056
 6551SOL    HW231116   4.085   1.991   8.609  0.2223  2.4943  1.1915
 6552SOL     OW31117   3.765   3.953   2.737 -0.2984 -0.4083 -0.7611
 6552SOL    HW131118   3.820   3.916   2.667  1.4550 -1.3731  1.1352
 6552SOL    HW231119   3.679   3.916   2.721  0.2481 -1.9507 -0.1260
 6553SOL     OW31120   1.237   1.740  12.029  0.7238 -0.3166 -0.0364
 6553SOL    HW131121   1.206   1.802  12.095  1.7496  0.6115 -0.4197
 6553SOL    HW231122   1.149   1.725  11.996  0.6720  0.8138 -0.3909
 6554SOL     OW31123   3.298   0.557   0.633 -0.1205  0.6762 -0.0745
 6554SOL    HW131124   3.314   0.467   0.660 -3.8863 -0.2386 -0.9088
 6554SOL    HW231125   3.213   0.587   0.667 -0.4015 -0.6017  0.3514
 6555SOL     OW31126   3.963   3.610   5.916  0.8892  1.0374  0.0308
 6555SOL    HW131127   3.989   3.518   5.928 -1.6323  0.4922  1.2412
 6555SOL    HW231128   3.969   3.631   6.009 -1.0227  2.1020 -0.0911
 6556SOL     OW31129   3.493   1.260   4.806 -0.3221  0.5395  0.0976
 6556SOL    HW131130   3.581   1.296   4.795  0.0947  0.2958  2.5469
 6556SOL    HW231131   3.493   1.260   4.902  2.3966 -1.4260  0.1154
 6557SOL     OW31132   4.165   1.931   6.847  0.5145  0.7685  0.4782
 6557SOL    HW131133   4.219   1.985   6.904 -0.7420 -0.3001  2.7162
 6557SOL    HW231134   4.171   1.846   6.891 -1.1341 -0.7328 -2.2099
 6558SOL     OW31135   3.516   3.588   9.120 -0.8838 -0.4072 -0.2532
 6558SOL    HW131136   3.571   3.577   9.197 -0.8826 -1.2686 -0.3788
 6558SOL    HW231137   3.493   3.680   9.112 -0.1209 -0.2615 -0.8375
 6559SOL     OW31138   2.546   3.606   8.958  0.1177  0.1433 -0.6008
 6559SOL    HW131139   2.505   3.692   8.954  0.0365  0.0549 -1.7954
 6559SOL    HW231140   2.536   3.584   9.050 -1.1090  0.7987 -0.5767
 6560SOL     OW31141   3.927   1.903   5.284  0.0465 -0.1347 -0.1237
 6560SOL    HW131142   3.892   1.983   5.323 -2.7871 -1.6153  0.3523
 6560SOL    HW231143   3.968   1.939   5.206  3.8957 -2.7366  0.7151
 6561SOL     OW31144   1.665   4.184  16.230 -0.1360 -0.1389  0.1686
 6561SOL    HW131145   1.644   4.252  16.294 -0.2912 -0.6125  0.6234
 6561SOL    HW231146   1.665   4.235  16.150 -1.9013 -0.3558  0.0344
 6562SOL     OW31147   1.704   1.233   6.199 -0.5017  0.2170  0.0929
 6562SOL    HW131148   1.782   1.262   6.246 -0.9117  0.5851  0.5508
 6562SOL    HW231149   1.654   1.217   6.279 -0.5005  0.5791  0.1685
 6563SOL     OW31150   1.288   0.027   6.406  0.0987 -0.3699  0.2085
 6563SOL    HW131151   1.359   4.687   6.388 -1.6960 -1.6618 -2.3241
 6563SOL    HW231152   1.299   0.094   6.338 -2.1612  0.4163  0.6092
 6564SOL     OW31153   1.286   0.269   7.253 -0.3902  0.4414 -0.0360
 6564SOL    HW131154   1.268   0.362   7.244 -3.0518  0.1896  2.7620
 6564SOL    HW231155   1.199   0.239   7.228 -0.2694  0.8387 -0.9457
 6565SOL     OW31156   0.600   2.559   2.310 -0.3268  0.2374  0.1646
 6565SOL    HW131157   0.613   2.631   2.248  1.0292  1.3817  1.7643
 6565SOL    HW231158   0.682   2.561   2.359  0.1265  1.5434 -0.6234
 6566SOL     OW31159   0.128   2.679   6.789 -0.5002 -0.2074 -0.0751
 6566SOL    HW131160   0.084   2.764   6.788 -0.8271 -0.3658  1.1284
 6566SOL    HW231161   0.060   2.625   6.750 -0.7409 -0.7587  1.1066
 6567SOL     OW31162   3.961   1.748  15.059 -0.0140  0.6099  0.6400
 6567SOL    HW131163   4.001   1.693  14.991  2.8881  1.6985  1.4468
 6567SOL    HW231164   3.893   1.684  15.078  0.7239 -0.4941 -0.4218
 6568SOL     OW31165   1.910   0.431   9.894 -0.4173 -0.2844  0.3029
 6568SOL    HW131166   1.958   0.350   9.879 -0.1863  0.1397 -1.2409
 6568SOL    HW231167   1.931   0.475   9.812 -1.9667 -0.0682  0.0221
 6569SOL     OW31168   1.423   2.258   7.685  0.3018 -0.2947 -0.2669
 6569SOL    HW131169   1.505   2.303   7.661 -0.3579  0.9688 -0.1773
 6569SOL    HW231170   1.422   2.190   7.617 -1.1631  1.4055 -1.9579
 6570SOL     OW31171   2.512   1.812  17.584  0.2145  0.2466 -0.7107
 6570SOL    HW131172   2.584   1.871  17.564  0.9413 -0.9664 -1.6827
 6570SOL    HW231173   2.564   1.754  17.639 -1.4893  0.2811  0.9286
 6571SOL     OW31174   2.023   4.480   2.673 -0.4288  0.0043  0.2570
 6571SOL    HW131175   2.072   4.418   2.618 -0.9346  0.0652 -0.2600
 6571SOL    HW231176   1.993   4.542   2.607  0.0753  0.1421  0.1579
 6572SOL     OW31177   4.147   3.047   1.835  0.3069 -0.0561  0.2059
 6572SOL    HW131178   4.211   2.991   1.877  0.5531 -0.0147 -0.1127
 6572SOL    HW231179   4.150   3.122   1.895  0.0647 -1.1549  1.5901
 6573SOL     OW31180   0.181   1.212   7.788  0.3130 -0.3503 -0.0046
 6573SOL    HW131181   0.264   1.183   7.825 -0.2420  1.8094  2.9583
 6573SOL    HW231182   0.117   1.185   7.853 -0.9856  0.2291 -1.0491
 6574SOL     OW31183   0.857   4.384  14.441  0.0871 -0.3061  0.0549
 6574SOL    HW131184   0.943   4.362  14.478 -0.8625 -0.7314  2.0296
 6574SOL    HW231185   0.832   4.292  14.426  1.0296 -0.7597  1.2572
 6575SOL     OW31186   2.248   2.747   0.512 -0.2750 -0.5470 -0.3296
 6575SOL    HW131187   2.170   2.791   0.479 -0.9548 -0.2551  1.6773
 6575SOL    HW231188   2.299   2.815   0.558 -3.3309  0.0247  2.1991
 6576SOL     OW31189   1.418   4.477   9.794 -0.4090  0.1079 -0.2683
 6576SOL    HW131190   1.374   4.540   9.851 -0.2740 -2.7960  3.1128
 6576SOL    HW231191   1.475   4.534   9.741 -0.0930 -0.5073 -0.5909
 6577SOL     OW31192   0.068   4.191  12.535 -0.5401  0.0951  0.1770
 6577SOL    HW131193   0.133   4.192  12.605 -1.2006  2.1840  0.7574
 6577SOL    HW231194   0.112   4.248  12.471 -1.6721  0.6869 -0.0663
 6578SOL     OW31195   2.211   3.192   4.289  0.3013 -0.2022  0.1375
 6578SOL    HW131196   2.232   3.231   4.374  0.7565  0.1297 -0.1266
 6578SOL    HW231197   2.205   3.099   4.312 -1.6415  0.5681  2.6690
 6579SOL     OW31198   2.831   2.763   3.321 -0.4600  0.5853 -0.3806
 6579SOL    HW131199   2.795   2.834   3.268 -1.5315  1.5370  1.6085
 6579SOL    HW231200   2.921   2.750   3.291 -1.0944 -0.9492 -1.5907
 6580SOL     OW31201   4.602   3.207   6.492  0.7335 -0.4144 -0.1639
 6580SOL    HW131202   4.620   3.192   6.584  0.1688 -0.3732 -0.0464
 6580SOL    HW231203   4.685   3.244   6.462 -0.1474  1.1330 -0.7293
 6581SOL     OW31204   2.985   0.465   8.468  0.1421  0.3715 -0.4307
 6581SOL    HW131205   3.028   0.388   8.506 -1.2257 -0.6320 -0.9084
 6581SOL    HW231206   3.053   0.524   8.498 -0.5376 -0.2966  2.4339
 6582SOL     OW31207   3.409   0.598   8.426 -0.1410  0.2954  0.5385
 6582SOL    HW131208   3.320   0.619   8.453 -1.0674 -0.8589 -1.5835
 6582SOL    HW231209   3.403   0.591   8.331 -0.2723 -1.7914  0.7158
 6583SOL     OW31210   4.341   0.983  12.351  0.6752 -0.1637  0.3088
 6583SOL    HW131211   4.383   0.990  12.437  0.3726 -0.3192  0.4703
 6583SOL    HW231212   4.279   0.913  12.370 -0.7279  0.7817 -0.7615
 6584SOL     OW31213   2.654   3.490   7.824  0.0425  0.2295 -0.5514
 6584SOL    HW131214   2.664   3.454   7.912  3.4674  2.5169 -0.0112
 6584SOL    HW231215   2.653   3.410   7.770 -0.9244 -0.3542  0.3399
 6585SOL     OW31216   2.785   0.827  14.760 -0.6226  0.1120 -0.6692
 6585SOL    HW131217   2.739   0.841  14.677  1.1016 -0.6670 -1.7474
 6585SOL    HW231218   2.857   0.775  14.725 -1.2644 -2.2906  1.5750
 6586SOL     OW31219   2.638   2.854   0.295  0.4027  0.9197 -0.2797
 6586SOL    HW131220   2.600   2.852   0.207  0.5802 -1.5651 -0.2911
 6586SOL    HW231221   2.643   2.760   0.312  0.2532  1.0570  0.5232
 6587SOL     OW31222   2.725   2.227   0.188  0.1924  0.1447  0.1991
 6587SOL    HW131223   2.796   2.236   0.252  1.7483  0.2668 -1.5513
 6587SOL    HW231224   2.763   2.274   0.114 -1.7577  1.0336 -0.2211
 6588SOL     OW31225   3.770   2.788   6.143 -0.0507 -0.2210 -0.0958
 6588SOL    HW131226   3.790   2.880   6.160 -1.1583  0.4576 -2.4173
 6588SOL    HW231227   3.677   2.788   6.162  0.3697 -0.8940  1.9707
 6589SOL     OW31228   0.532   0.127   2.841 -0.4902 -0.2589  0.1799
 6589SOL    HW131229   0.553   0.111   2.933  1.7910 -2.2275 -0.6824
 6589SOL    HW231230   0.438   0.114   2.835 -0.4230 -0.2561 -0.9288
 6590SOL     OW31231   3.400   3.064   8.770  0.1378 -0.0868  0.2467
 6590SOL    HW131232   3.430   3.098   8.685  2.0742 -1.3579  0.4176
 6590SOL    HW231233   3.398   3.146   8.820 -1.4908  0.8742 -1.3960
 6591SOL     OW31234   0.918   0.282   5.846 -0.1475 -0.0985  0.6782
 6591SOL    HW131235   0.967   0.205   5.817  0.7337  0.4068  0.8219
 6591SOL    HW231236   0.942   0.254   5.934 -0.0618 -1.0474  0.3595
 6592SOL     OW31237   0.432   3.464   9.923  0.2088 -0.0542  0.3004
 6592SOL    HW131238   0.509   3.452   9.978  2.2618 -1.2751 -2.8256
 6592SOL    HW231239   0.387   3.381   9.939  1.9783 -0.7887  1.5513
 6593SOL     OW31240   1.436   2.032   9.676  0.0277 -0.0314 -0.2133
 6593SOL    HW131241   1.467   2.115   9.713  0.0012 -0.0710 -0.1018
 6593SOL    HW231242   1.350   2.027   9.719 -0.8831 -0.2060 -2.0795
 6594SOL     OW31243   2.822   2.720   4.698 -0.7804 -0.5075 -0.1320
 6594SOL    HW131244   2.761   2.655   4.733  0.5630 -0.6710  1.9334
 6594SOL    HW231245   2.771   2.800   4.714 -0.2741  0.0744 -1.4145
 6595SOL     OW31246   1.570   0.878  10.139 -0.6883  0.2060 -0.7402
 6595SOL    HW131247   1.536   0.930  10.066  0.7561  1.1985 -0.6987
 6595SOL    HW231248   1.594   0.946  10.202  0.1575 -1.1360  0.3620
 6596SOL     OW31249   2.796   3.671   4.239  0.1606  0.7868 -0.0606
 6596SOL    HW131250   2.723   3.717   4.280 -1.2074 -2.1334  0.7761
 6596SOL    HW231251   2.816   3.755   4.198 -0.4530 -0.1341 -2.2649
 6597SOL     OW31252   2.960   2.360   2.110 -0.0820 -0.2772  0.5410
 6597SOL    HW131253   2.969   2.293   2.178  1.4128 -0.8127 -0.1628
 6597SOL    HW231254   2.878   2.330   2.070 -1.4493  1.2822  2.1711
 6598SOL     OW31255   0.041   3.926  11.514  0.6278 -0.4906 -0.1006
 6598SOL    HW131256   0.041   3.841  11.559 -1.7354 -1.2071 -1.4745
 6598SOL    HW231257   4.695   3.975  11.560 -0.1749  0.1029 -1.9211
 6599SOL     OW31258   4.434   4.591   7.849 -0.0521 -0.3208  0.0009
 6599SOL    HW131259   4.436   4.508   7.802  1.3259 -0.5361  0.4465
 6599SOL    HW231260   4.345   4.623   7.835  0.6108  1.8176  0.6994
 6600SOL     OW31261   1.326   0.059   2.860 -0.0674 -0.3613  0.2857
 6600SOL    HW131262   1.237   0.060   2.895  0.1796  0.4329  0.8878
 6600SOL    HW231263   1.315   0.015   2.776  1.1120  0.0195 -0.0694
 6601SOL     OW31264   2.756   1.625   2.078 -0.0642 -0.7481  0.2185
 6601SOL    HW131265   2.795   1.594   1.997 -0.7217 -0.1817 -0.3218
 6601SOL    HW231266   2.693   1.556   2.101 -0.2233 -0.5267  0.4561
 6602SOL     OW31267   1.104   3.579  13.094  0.4017  0.2143  0.1707
 6602SOL    HW131268   1.191   3.614  13.115 -0.6549  0.2821  4.3465
 6602SOL    HW231269   1.124   3.486  13.083 -0.3466  0.2787 -1.5976
 6603SOL     OW31270   4.208   0.534   3.030  0.0737 -0.2233  0.4915
 6603SOL    HW131271   4.177   0.590   2.958  0.1077 -0.8558 -0.0072
 6603SOL    HW231272   4.290   0.509   2.988 -0.3830 -1.6289  0.4612
 6604SOL     OW31273   1.105   2.721   9.838  0.0462  0.9042 -0.7962
 6604SOL    HW131274   1.175   2.765   9.886  1.1496 -0.4363 -1.1581
 6604SOL    HW231275   1.127   2.628   9.846 -2.0988  0.3201 -1.7333
 6605SOL     OW31276   4.024   2.181   8.271 -0.1725  0.0439  0.2076
 6605SOL    HW131277   3.961   2.247   8.301 -0.4573  0.8673 -2.2287
 6605SOL    HW231278   4.051   2.227   8.192 -0.1201 -1.7048 -0.7897
 6606SOL     OW31279   4.612   2.178   7.614 -0.2510 -0.0688 -0.4263
 6606SOL    HW131280   4.683   2.186   7.550 -1.2246 -1.8626 -1.7165
 6606SOL    HW231281   4.561   2.257   7.591 -0.0737  0.3881  0.7313
 6607SOL     OW31282   1.116   3.074   3.629 -0.0907  0.0478  0.0518
 6607SOL    HW131283   1.082   3.154   3.591  1.3794  1.5821  1.9550
 6607SOL    HW231284   1.203   3.070   3.589  1.0329  1.2155  2.3693
 6608SOL     OW31285   1.690   4.174   6.529 -0.6764  0.3794 -0.4134
 6608SOL    HW131286   1.709   4.261   6.565 -1.6422  0.2887  0.2962
 6608SOL    HW231287   1.603   4.171   6.566  0.4680 -1.9684  2.0700
 6609SOL     OW31288   0.797   2.407   3.467 -0.4477  0.1268 -0.7350
 6609SOL    HW131289   0.773   2.386   3.377  0.9235 -0.1724 -1.0229
 6609SOL    HW231290   0.806   2.322   3.511  0.0039  0.7266  0.3207
 6610SOL     OW31291   2.904   0.175   2.659  0.2020  0.6462  0.1827
 6610SOL    HW131292   2.965   0.137   2.596 -0.9679 -0.4869 -0.2675
 6610SOL    HW231293   2.824   0.123   2.650  0.5813  0.2078 -0.6725
 6611SOL     OW31294   0.404   2.654   6.210 -0.4122  0.0016 -0.1626
 6611SOL    HW131295   0.387   2.561   6.196 -0.2119  0.1042 -1.1422
 6611SOL    HW231296   0.470   2.668   6.142  2.4321 -1.5822  2.2634
 6612SOL     OW31297   1.305   0.763   6.582 -0.0808 -0.3990  0.6364
 6612SOL    HW131298   1.234   0.703   6.559 -1.3929  0.7155  1.7779
 6612SOL    HW231299   1.272   0.851   6.563  0.6866  0.1090  1.6560
 6613SOL     OW31300   0.460   2.248  10.432 -0.1317  0.3157  0.0581
 6613SOL    HW131301   0.438   2.320  10.492  0.5409  0.2991  0.3359
 6613SOL    HW231302   0.537   2.210  10.475 -1.1867 -0.4356  1.2949
 6614SOL     OW31303   3.858   2.712  12.983  0.4631 -0.2228 -0.2737
 6614SOL    HW131304   3.927   2.775  13.006 -1.6659  2.8850 -2.3318
 6614SOL    HW231305   3.886   2.633  13.029  0.9000 -0.0718 -0.2812
 6615SOL     OW31306   0.415   0.459   2.524  0.4951  0.1583 -0.2929
 6615SOL    HW131307   0.350   0.525   2.501  2.2890  1.3986 -1.7446
 6615SOL    HW231308   0.486   0.504   2.568  0.3166  1.7725 -1.6859
 6616SOL     OW31309   0.607   2.109   7.450  0.0858 -0.1150 -0.3851
 6616SOL    HW131310   0.537   2.060   7.407  0.4767  0.7396 -1.9912
 6616SOL    HW231311   0.583   2.202   7.453 -2.3634 -0.6027 -4.5669
 6617SOL     OW31312   1.880   2.795   3.363 -0.2749 -0.2893  0.2572
 6617SOL    HW131313   1.871   2.721   3.303 -1.8825  0.9319 -1.0184
 6617SOL    HW231314   1.973   2.817   3.362 -0.0026 -1.4286  0.2373
 6618SOL     OW31315   4.633   2.194  12.239  0.0962  0.7541 -0.0427
 6618SOL    HW131316   4.663   2.261  12.177  0.4899 -0.3159 -1.0239
 6618SOL    HW231317   4.671   2.112  12.206  1.9123  2.0692 -1.2335
 6619SOL     OW31318   2.901   3.357  14.410 -0.0125 -0.2342  0.8333
 6619SOL    HW131319   2.928   3.441  14.372 -1.5374 -0.0847  0.0726
 6619SOL    HW231320   2.984   3.309  14.405 -0.7915 -1.4753 -0.0351
 6620SOL     OW31321   0.204   4.228   8.882  0.1776  0.3442  0.1422
 6620SOL    HW131322   0.211   4.268   8.968  2.6726  0.5979 -0.1759
 6620SOL    HW231323   0.266   4.155   8.892 -1.5284 -1.0431  0.5559
 6621SOL     OW31324   1.415   1.515   9.696 -0.3517 -0.4093 -0.2240
 6621SOL    HW131325   1.321   1.498   9.701 -0.5264  0.4491 -0.6694
 6621SOL    HW231326   1.448   1.429   9.672 -1.2034 -0.8791  0.2687
 6622SOL     OW31327   2.537   0.435   8.039  0.2533 -0.1854  0.3916
 6622SOL    HW131328   2.471   0.369   8.062  0.1034 -0.4066 -0.6503
 6622SOL    HW231329   2.590   0.419   8.117 -0.5033  0.4095  1.0135
 6623SOL     OW31330   4.274   3.803   9.625 -0.2491  0.1103  0.3456
 6623SOL    HW131331   4.229   3.884   9.648  1.5440  2.9775 -6.1704
 6623SOL    HW231332   4.351   3.828   9.573 -0.7407 -1.1441 -0.9887
 6624SOL     OW31333   4.366   2.406   6.559 -0.0637 -0.4776 -0.5394
 6624SOL    HW131334   4.424   2.462   6.507 -1.1407 -0.4862 -1.7576
 6624SOL    HW231335   4.280   2.430   6.524 -1.0930 -0.5506  1.9853
 6625SOL     OW31336   2.905   0.930   0.295  0.0591 -0.1825 -0.7577
 6625SOL    HW131337   2.821   0.891   0.271 -0.4675 -0.1053  0.9017
 6625SOL    HW231338   2.972   0.884   0.245  1.5010  0.5569  0.4721
 6626SOL     OW31339   1.540   4.228   1.287 -0.2638 -0.7902  0.3724
 6626SOL    HW131340   1.531   4.200   1.378 -2.0971  0.0540  0.4707
 6626SOL    HW231341   1.453   4.265   1.268 -0.1039  0.4115  1.9543
 6627SOL     OW31342   2.142   2.081   7.100 -0.4837 -0.3303 -0.3568
 6627SOL    HW131343   2.176   2.162   7.062  1.8399 -1.2930 -0.2925
 6627SOL    HW231344   2.053   2.109   7.125  0.3124  0.4517  1.6412
 6628SOL     OW31345   0.439   2.371  12.847 -0.4564  0.3594 -0.8077
 6628SOL    HW131346   0.449   2.363  12.752  1.7498  0.1573 -0.5614
 6628SOL    HW231347   0.345   2.359  12.854  0.3151 -2.5199  4.2343
 6629SOL     OW31348   0.593   3.225  15.563  0.0025 -0.2460 -0.0962
 6629SOL    HW131349   0.675   3.174  15.568  0.1412 -0.0419 -0.2763
 6629SOL    HW231350   0.598   3.262  15.475  2.3669  2.1031  1.0283
 6630SOL     OW31351   1.741   3.002  15.200 -0.5989 -0.0927 -0.0210
 6630SOL    HW131352   1.743   2.992  15.295 -0.0992 -1.5617 -0.1842
 6630SOL    HW231353   1.784   2.921  15.172  1.3933  0.7743  0.5575
 6631SOL     OW31354   0.460   3.033   5.449 -0.5292  0.2947  0.1098
 6631SOL    HW131355   0.460   2.938   5.462  3.0750  0.1876 -0.5652
 6631SOL    HW231356   0.421   3.064   5.531 -1.2243  0.2037 -0.1908
 6632SOL     OW31357   2.680   4.696   7.767  0.0076  0.1383 -0.3724
 6632SOL    HW131358   2.633   0.057   7.776  1.6683  1.4182 -3.3344
 6632SOL    HW231359   2.658   4.665   7.855 -2.1076  2.7900  0.0618
 6633SOL     OW31360   1.779   2.327   9.288  0.3271  0.2967  0.3960
 6633SOL    HW131361   1.691   2.295   9.269 -0.4794  1.6999  1.7964
 6633SOL    HW231362   1.763   2.417   9.261  0.0927  0.5300  1.3217
 6634SOL     OW31363   4.275   2.975   2.695 -0.2531  0.0736 -0.5743
 6634SOL    HW131364   4.360   2.986   2.653 -0.8078  1.4077 -1.3354
 6634SOL    HW231365   4.216   2.987   2.620  1.3083 -0.1327 -1.8460
 6635SOL     OW31366   2.769   2.179   4.372  0.3634  0.2316 -0.5109
 6635SOL    HW131367   2.693   2.145   4.419 -0.1815  2.8807  0.5367
 6635SOL    HW231368   2.803   2.102   4.327  1.3463  0.9192 -0.9472
 6636SOL     OW31369   3.991   3.990   8.875 -0.0647 -0.2969  0.0156
 6636SOL    HW131370   4.031   3.988   8.962 -0.7626  1.6362  0.3770
 6636SOL    HW231371   3.923   4.056   8.888 -1.0395 -0.8491 -2.2110
 6637SOL     OW31372   1.536   1.437   7.816 -0.2969 -0.2489 -0.1230
 6637SOL    HW131373   1.629   1.453   7.831 -0.5251  0.4280  0.5213
 6637SOL    HW231374   1.522   1.500   7.745 -0.8177  0.6953  0.8200
 6638SOL     OW31375   4.681   2.941   5.276 -0.4485  0.0687 -0.2025
 6638SOL    HW131376   0.025   2.882   5.240  0.8188  1.5072 -0.2077
 6638SOL    HW231377   4.596   2.896   5.270 -0.9398  0.6947  2.3685
 6639SOL     OW31378   3.857   1.701   4.464  0.5792  0.6175  0.0169
 6639SOL    HW131379   3.853   1.605   4.468  1.4378  0.6199  0.9261
 6639SOL    HW231380   3.943   1.706   4.505  0.6836  1.3157 -0.2838
 6640SOL     OW31381   4.355   1.480   3.206 -0.2326  0.0545 -0.0628
 6640SOL    HW131382   4.358   1.433   3.290  0.9809  1.2355  0.5513
 6640SOL    HW231383   4.260   1.483   3.192 -0.2220 -0.6457 -0.2831
 6641SOL     OW31384   3.753   4.149  16.579  0.4740 -0.1982  0.4541
 6641SOL    HW131385   3.731   4.202  16.655 -2.9815 -2.3168  0.9274
 6641SOL    HW231386   3.739   4.214  16.510 -1.8713 -1.0830  0.0669
 6642SOL     OW31387   1.345   0.916   5.385 -0.0169 -0.1518 -0.2809
 6642SOL    HW131388   1.328   0.838   5.437  2.4356 -0.6296 -0.2080
 6642SOL    HW231389   1.431   0.900   5.346  0.9820  2.5962  0.7992
 6643SOL     OW31390   0.336   2.582   9.099 -0.1178  0.4236 -0.0383
 6643SOL    HW131391   0.415   2.565   9.151 -0.6150 -1.2987  0.1501
 6643SOL    HW231392   0.290   2.648   9.152 -0.0131  0.7337 -0.3298
 6644SOL     OW31393   4.523   0.655  10.555  0.1764  0.5039  0.5287
 6644SOL    HW131394   4.556   0.606  10.629  1.5872  0.4586 -0.1384
 6644SOL    HW231395   4.467   0.596  10.504  1.5905  1.6483 -2.3790
 6645SOL     OW31396   3.701   1.473   2.219  0.2517 -0.1480  0.6096
 6645SOL    HW131397   3.696   1.555   2.171  0.7170  0.0491  0.8941
 6645SOL    HW231398   3.744   1.415   2.155  0.3483  0.2185  0.3442
 6646SOL     OW31399   2.761   3.373   6.576  0.0565 -0.7498  0.5251
 6646SOL    HW131400   2.750   3.370   6.671  0.1314  0.4459  0.5726
 6646SOL    HW231401   2.702   3.301   6.555 -0.6791 -0.0001  0.0197
 6647SOL     OW31402   4.659   3.750   9.093 -0.1365  0.3867  0.8580
 6647SOL    HW131403   4.609   3.759   9.012 -0.7695  0.6819  1.2854
 6647SOL    HW231404   4.695   3.662   9.092  1.7452  1.1750 -1.9549
 6648SOL     OW31405   1.753   0.548   7.797  0.4562  0.2734 -0.4732
 6648SOL    HW131406   1.728   0.547   7.889 -0.8691 -0.4921 -0.8342
 6648SOL    HW231407   1.694   0.614   7.761  0.9740 -0.8311 -3.3420
 6649SOL     OW31408   0.092   1.777   5.169  0.1385 -0.8043 -0.0034
 6649SOL    HW131409   0.170   1.728   5.144  2.1951  2.4731 -0.1001
 6649SOL    HW231410   0.130   1.843   5.227 -0.4339 -1.1393  0.7449
 6650SOL     OW31411   1.499   1.214   9.760  0.2983 -0.5816 -0.2782
 6650SOL    HW131412   1.567   1.264   9.715 -0.3328 -1.7282 -2.5171
 6650SOL    HW231413   1.424   1.219   9.700 -2.0394 -0.1422  2.6748
 6651SOL     OW31414   4.414   1.502   2.865 -0.7669  0.1706 -0.1140
 6651SOL    HW131415   4.353   1.563   2.907 -0.1743  0.3727  0.4499
 6651SOL    HW231416   4.465   1.475   2.941  0.6326 -1.2054 -1.5476
 6652SOL     OW31417   1.975   2.855  14.600  0.3219  0.1089 -0.2094
 6652SOL    HW131418   1.975   2.935  14.546  0.3747  0.2550  0.0073
 6652SOL    HW231419   1.987   2.893  14.687  0.6311  1.7450 -0.9606
 6653SOL     OW31420   2.070   1.904   3.423 -0.1210 -0.1164 -0.5009
 6653SOL    HW131421   2.153   1.863   3.448 -1.4528 -1.1731  2.1502
 6653SOL    HW231422   2.096   1.993   3.400  1.3851 -0.6596 -0.9125
 6654SOL     OW31423   1.610   3.634   6.301 -0.0403 -0.0511  0.0928
 6654SOL    HW131424   1.629   3.657   6.210 -0.5023  0.7267  0.1955
 6654SOL    HW231425   1.573   3.546   6.287  0.0144 -0.3008  1.5452
 6655SOL     OW31426   3.459   2.779   1.981 -0.6221  0.3763  0.3171
 6655SOL    HW131427   3.480   2.856   2.033  0.2135 -0.2287  0.8715
 6655SOL    HW231428   3.375   2.804   1.943 -0.5750 -1.0634 -0.7106
 6656SOL     OW31429   0.303   4.429   8.375 -0.6934  0.2209 -0.1790
 6656SOL    HW131430   0.308   4.403   8.467  1.4381 -1.6430 -0.8407
 6656SOL    HW231431   0.280   4.521   8.390 -2.3477 -0.4960  1.6752
 6657SOL     OW31432   3.058   2.894   5.467  0.2392  0.2388  0.2318
 6657SOL    HW131433   3.110   2.918   5.390  1.5023 -1.6772  0.4704
 6657SOL    HW231434   3.098   2.809   5.486  0.2375  0.4187  1.0459
 6658SOL     OW31435   4.118   1.462   7.130  0.4207  0.4160 -0.5365
 6658SOL    HW131436   4.207   1.489   7.108 -0.5417  0.5259 -4.3258
 6658SOL    HW231437   4.079   1.549   7.132 -1.3591 -0.3922 -0.4130
 6659SOL     OW31438   2.734   3.090   7.334 -0.8299  0.7116 -0.2936
 6659SOL    HW131439   2.827   3.107   7.350 -0.8308 -0.3909  0.8685
 6659SOL    HW231440   2.715   3.004   7.371  2.4331 -0.5775 -1.5585
 6660SOL     OW31441   4.583   2.737   4.911 -0.1507 -0.0941 -0.4552
 6660SOL    HW131442   4.636   2.706   4.985 -0.8154 -1.4176 -0.5220
 6660SOL    HW231443   4.638   2.800   4.866  0.9492 -0.5360  0.2728
 6661SOL     OW31444   1.011   1.779  16.511 -0.0589  0.2679  0.3602
 6661SOL    HW131445   0.917   1.778  16.494  0.2758 -0.4277 -1.4016
 6661SOL    HW231446   1.032   1.852  16.453  0.3355  0.0249  0.1968
 6662SOL     OW31447   0.256   3.040   8.066  0.4064 -0.4697 -0.3357
 6662SOL    HW131448   0.222   2.999   8.145  2.3648 -0.5572  0.4777
 6662SOL    HW231449   0.342   2.998   8.072  0.6813  0.3580  1.4535
 6663SOL     OW31450   1.704   1.886  10.631 -0.1032 -0.4433 -0.3428
 6663SOL    HW131451   1.691   1.808  10.577 -1.1076 -0.5197  0.0148
 6663SOL    HW231452   1.657   1.861  10.710 -4.3563  0.6871 -2.5229
 6664SOL     OW31453   0.198   2.807   9.187  0.0853 -0.0940  0.5918
 6664SOL    HW131454   0.265   2.858   9.142 -1.1403  1.6212  0.7116
 6664SOL    HW231455   0.134   2.873   9.214 -0.7449 -0.2287 -1.0610
 6665SOL     OW31456   4.272   0.713   9.529  0.8317 -0.1435 -0.4211
 6665SOL    HW131457   4.188   0.703   9.484 -0.7650 -0.8867  2.7454
 6665SOL    HW231458   4.242   0.744   9.614  0.0342  0.4877 -0.9421
 6666SOL     OW31459   4.017   0.578   8.538  0.3147  0.2789 -0.0517
 6666SOL    HW131460   4.104   0.618   8.529 -0.6371  2.3725  0.2890
 6666SOL    HW231461   3.967   0.651   8.503  1.2338  0.6374 -0.6234
 6667SOL     OW31462   4.320   4.362   0.050  0.2836 -0.0731 -0.0965
 6667SOL    HW131463   4.327   4.422   0.124  1.7148 -1.1327  0.6260
 6667SOL    HW231464   4.393   4.386  17.683  2.5257  1.8991  3.5855
 6668SOL     OW31465   1.490   0.655  10.255  0.0455 -0.2955  0.6555
 6668SOL    HW131466   1.525   0.737  10.222  0.9257 -0.8619  0.1758
 6668SOL    HW231467   1.502   0.595  10.181 -2.2455 -0.8715  0.7338
 6669SOL     OW31468   0.502   2.946   2.731  0.0506 -0.1141 -0.4467
 6669SOL    HW131469   0.539   2.872   2.682  0.4985 -0.6558  0.7165
 6669SOL    HW231470   0.577   2.948   2.791  0.2486 -0.1448 -0.6910
 6670SOL     OW31471   2.998   3.272  12.292  0.3693 -0.2008 -0.3256
 6670SOL    HW131472   3.024   3.188  12.253 -0.4153 -0.8656  0.5631
 6670SOL    HW231473   2.958   3.237  12.372  1.4601  0.6922  0.5942
 6671SOL     OW31474   3.817   2.658  13.284  0.7027  0.2957  0.2852
 6671SOL    HW131475   3.837   2.586  13.224  2.1733 -1.1265  2.4502
 6671SOL    HW231476   3.821   2.608  13.366 -1.5147  1.2269  0.9563
 6672SOL     OW31477   4.236   2.547   2.539 -0.5600 -0.5360  0.5244
 6672SOL    HW131478   4.326   2.580   2.545 -1.9955  3.6199 -1.0667
 6672SOL    HW231479   4.255   2.453   2.534 -1.3882 -0.5496 -2.3104
 6673SOL     OW31480   0.443   0.741   3.066  0.0965 -0.1514 -0.0873
 6673SOL    HW131481   0.420   0.828   3.034 -1.2039  0.2474  1.9293
 6673SOL    HW231482   0.537   0.750   3.050 -0.1726 -0.5376 -1.8327
 6674SOL     OW31483   2.305   3.102   8.138  0.1326 -0.3020 -0.3863
 6674SOL    HW131484   2.373   3.060   8.084 -0.2412  0.4066 -1.3911
 6674SOL    HW231485   2.271   3.030   8.191 -2.3488  0.1135 -1.4022
 6675SOL     OW31486   2.991   1.112  16.302  0.1059  0.2540  1.1684
 6675SOL    HW131487   2.964   1.073  16.386 -0.3813 -2.5275 -0.2767
 6675SOL    HW231488   3.066   1.061  16.271 -0.6942  0.9937 -1.9220
 6676SOL     OW31489   0.616   0.606   7.072  0.2890 -0.2474  0.2604
 6676SOL    HW131490   0.675   0.609   7.148  0.1878  0.5300  0.3050
 6676SOL    HW231491   0.566   0.685   7.093 -1.1142 -1.5026  1.5938
 6677SOL     OW31492   2.504   1.417  16.281  0.3351 -0.0966  0.8305
 6677SOL    HW131493   2.515   1.503  16.240 -0.7328 -0.8155 -0.9369
 6677SOL    HW231494   2.449   1.429  16.359 -0.7865  0.5556 -0.0658
 6678SOL     OW31495   3.844   0.464   4.496  0.9050  0.5208  0.3262
 6678SOL    HW131496   3.920   0.448   4.441  2.3393 -0.4259  2.5384
 6678SOL    HW231497   3.777   0.403   4.465  2.3012 -1.4561  1.1395
 6679SOL     OW31498   3.947   2.452   5.260 -0.3431  0.1574 -0.4695
 6679SOL    HW131499   4.020   2.451   5.198  0.1179  1.1332  0.0367
 6679SOL    HW231500   3.998   2.438   5.340 -0.1254 -0.6529 -0.7557
 6680SOL     OW31501   2.585   0.531   2.228 -0.2238  0.0336  0.5900
 6680SOL    HW131502   2.657   0.578   2.271  1.3670 -0.6075 -1.3940
 6680SOL    HW231503   2.628   0.469   2.171 -1.4636  0.6958 -1.0756
 6681SOL     OW31504   0.423   3.956   4.363 -0.3839  0.0136  0.7422
 6681SOL    HW131505   0.488   3.886   4.355  0.1360  0.4675  0.9640
 6681SOL    HW231506   0.396   3.971   4.273  2.6967 -3.0929 -0.6944
 6682SOL     OW31507   1.995   2.271   6.213  0.5525 -0.2529  0.3071
 6682SOL    HW131508   2.025   2.273   6.122 -0.0570 -1.1360  0.0899
 6682SOL    HW231509   2.072   2.234   6.255  2.5687  1.7334 -1.6550
 6683SOL     OW31510   2.847   1.395  17.125 -0.1765  0.2681  0.6184
 6683SOL    HW131511   2.846   1.459  17.196  1.7805 -0.2693  1.1245
 6683SOL    HW231512   2.769   1.339  17.135  0.7792 -1.3282 -0.9074
 6684SOL     OW31513   4.168   2.028   2.029 -0.0801  0.0464 -0.4552
 6684SOL    HW131514   4.084   2.068   2.005  0.6635 -0.1883 -3.4817
 6684SOL    HW231515   4.222   2.107   2.021 -0.4841  0.6038  2.3989
 6685SOL     OW31516   3.440   4.530   0.616  0.1827  0.0494  0.3609
 6685SOL    HW131517   3.495   4.464   0.658 -0.4482 -0.9568 -0.3880
 6685SOL    HW231518   3.500   4.582   0.563 -0.9228  0.7481 -0.2028
 6686SOL     OW31519   2.162   0.853  14.152  0.2905 -0.1120 -0.0015
 6686SOL    HW131520   2.091   0.841  14.215  0.3035 -0.8364 -0.1247
 6686SOL    HW231521   2.127   0.930  14.107  3.5163 -0.2810 -2.8130
 6687SOL     OW31522   2.447   1.283   5.388 -0.3530  0.0213 -0.4491
 6687SOL    HW131523   2.502   1.229   5.332  1.0514  2.5050 -1.4405
 6687SOL    HW231524   2.429   1.363   5.339 -0.5233  0.0015 -0.4192
 6688SOL     OW31525   2.462   2.575  16.296 -0.0322 -0.4852  0.0858
 6688SOL    HW131526   2.446   2.481  16.300 -1.4505 -0.2384  0.2811
 6688SOL    HW231527   2.422   2.597  16.212  0.3168  2.4977  0.7034
 6689SOL     OW31528   4.713   3.005   4.084 -0.2984 -0.0848  0.3602
 6689SOL    HW131529   0.039   3.085   4.104  0.0704 -0.0240 -0.7444
 6689SOL    HW231530   0.016   2.994   3.992  1.5385 -1.8512  1.0723
 6690SOL     OW31531   2.419   2.306   1.115  0.1724 -0.0630 -0.5479
 6690SOL    HW131532   2.461   2.279   1.033 -2.0555  1.1706 -2.1173
 6690SOL    HW231533   2.361   2.372   1.078  0.0636 -1.6704 -3.2883
 6691SOL     OW31534   0.885   4.052   3.173  0.0325  0.1755  0.2615
 6691SOL    HW131535   0.822   4.040   3.102 -2.2692  3.7403  1.7177
 6691SOL    HW231536   0.839   4.013   3.247 -0.1566  4.5530  2.4924
 6692SOL     OW31537   4.697   2.213  10.030 -0.1953 -0.6077  0.3221
 6692SOL    HW131538   0.063   2.174  10.031  0.3052  0.5541  0.6569
 6692SOL    HW231539   4.644   2.133  10.034  0.2873 -1.0067 -1.2321
 6693SOL     OW31540   0.007   2.965   1.448  0.5966 -0.0992 -0.4240
 6693SOL    HW131541   0.101   2.982   1.442  0.4242  0.6420 -1.1034
 6693SOL    HW231542   0.004   2.880   1.404  1.2716 -1.4373  2.1265
 6694SOL     OW31543   0.102   4.222   4.018 -0.1523 -0.6753  0.3976
 6694SOL    HW131544   0.166   4.275   3.970 -0.2822 -1.6537 -0.8594
 6694SOL    HW231545   0.057   4.192   3.939 -0.2481  0.9010 -0.1418
 6695SOL     OW31546   0.347   2.003   0.622 -0.3300  0.2542 -0.4109
 6695SOL    HW131547   0.343   2.034   0.531  1.1795  0.2757 -0.4665
 6695SOL    HW231548   0.323   2.084   0.667  0.1026 -0.4818  1.1382
 6696SOL     OW31549   0.322   3.034   9.747  0.2235  0.1224  0.1769
 6696SOL    HW131550   0.334   3.084   9.666  0.4506 -0.2603 -0.0241
 6696SOL    HW231551   0.295   2.947   9.719 -0.3950  0.7600 -1.2124
 6697SOL     OW31552   3.213   3.109   4.920 -0.2038  0.2314 -0.1631
 6697SOL    HW131553   3.214   3.014   4.916  0.4652  0.2275 -0.0353
 6697SOL    HW231554   3.156   3.120   4.844 -0.0323 -0.9855 -0.4608
 6698SOL     OW31555   4.156   4.299   4.920 -0.1465  0.0792 -0.2560
 6698SOL    HW131556   4.073   4.332   4.956 -0.4111  0.2779 -1.0578
 6698SOL    HW231557   4.207   4.276   4.998  0.8241 -0.3741 -1.0389
 6699SOL     OW31558   2.589   4.679  17.043  0.3298  0.0012 -0.7956
 6699SOL    HW131559   2.588   4.669  16.948 -1.7076 -0.2433 -0.7588
 6699SOL    HW231560   2.672   4.719  17.068 -0.2921  0.5279  0.4564
 6700SOL     OW31561   3.419   2.984   9.430  0.1033  0.6883  0.2657
 6700SOL    HW131562   3.491   2.981   9.368  0.6683  2.6896  0.8131
 6700SOL    HW231563   3.414   2.892   9.456  2.2782  0.6683  0.5498
 6701SOL     OW31564   4.321   3.009   6.668  0.0424 -0.0697  0.3717
 6701SOL    HW131565   4.408   2.971   6.684  0.3721  0.2558 -0.6086
 6701SOL    HW231566   4.287   3.048   6.748 -0.9670 -0.8528  0.3191
 6702SOL     OW31567   1.786   0.368   2.395  0.2049 -0.6043  0.5676
 6702SOL    HW131568   1.862   0.314   2.374 -0.0976 -1.1661  0.9095
 6702SOL    HW231569   1.731   0.351   2.319  0.5169  1.5408 -0.1183
 6703SOL     OW31570   3.395   0.272   4.588 -0.7792  0.3389 -0.0476
 6703SOL    HW131571   3.418   0.328   4.514  0.0483 -0.6813 -0.5649
 6703SOL    HW231572   3.321   0.318   4.629 -0.6389  0.7481 -0.2600
 6704SOL     OW31573   1.326   3.360  11.314  0.3608 -0.3623  0.3590
 6704SOL    HW131574   1.381   3.358  11.236  1.1872  2.6385  0.8537
 6704SOL    HW231575   1.372   3.433  11.358 -0.4522  0.8343 -0.7888
 6705SOL     OW31576   3.402   2.246   9.117 -0.0587  0.1577  0.2392
 6705SOL    HW131577   3.400   2.221   9.209 -3.1000  0.6115  0.2789
 6705SOL    HW231578   3.451   2.328   9.119  2.4610 -1.3632  1.2264
 6706SOL     OW31579   2.865   4.506   4.667 -0.3339 -0.0996  0.0535
 6706SOL    HW131580   2.911   4.422   4.679  2.1762  1.3473  0.5009
 6706SOL    HW231581   2.780   4.481   4.703  0.9659 -2.5333  1.4964
 6707SOL     OW31582   0.195   3.799   1.534 -0.1475  0.1339 -0.2896
 6707SOL    HW131583   0.250   3.769   1.460  2.7406  0.2023  1.8388
 6707SOL    HW231584   0.104   3.798   1.504 -0.3243 -1.8414  0.2900
 6708SOL     OW31585   1.897   3.804   4.813 -0.2926  0.0782  0.0032
 6708SOL    HW131586   1.972   3.772   4.763 -1.8117 -0.5022 -1.9525
 6708SOL    HW231587   1.902   3.894   4.781 -0.1137  0.5208  1.2781
 6709SOL     OW31588   1.915   0.878   2.503 -0.0582  0.2844  0.0073
 6709SOL    HW131589   1.903   0.784   2.491  1.3929 -0.2229  2.3681
 6709SOL    HW231590   2.001   0.872   2.545  0.2689 -0.7459 -0.7992
 6710SOL     OW31591   2.548   3.785   8.059  0.4227  0.5228  0.0539
 6710SOL    HW131592   2.465   3.748   8.090  1.2398 -1.8425 -0.6317
 6710SOL    HW231593   2.606   3.718   8.094 -1.0294  0.8321  3.0894
 6711SOL     OW31594   3.150   1.668  10.243  0.3304 -0.0876 -0.6022
 6711SOL    HW131595   3.138   1.583  10.201  2.5967 -0.2202 -0.9844
 6711SOL    HW231596   3.141   1.637  10.333  0.9506  1.5264  0.0213
 6712SOL     OW31597   2.094   1.357   9.419 -0.0983 -0.0677 -0.8127
 6712SOL    HW131598   2.082   1.329   9.509 -0.3400 -0.0861 -0.8510
 6712SOL    HW231599   2.039   1.293   9.375 -0.3395 -1.2038  1.1481
 6713SOL     OW31600   0.223   3.641   3.752 -0.2866 -0.1106 -0.1428
 6713SOL    HW131601   0.176   3.686   3.682  0.7921  0.5001 -0.4812
 6713SOL    HW231602   0.218   3.701   3.826  1.4918  0.7183 -0.6902
 6714SOL     OW31603   0.602   2.968   3.764 -0.1736  0.2774 -0.1863
 6714SOL    HW131604   0.617   2.878   3.736 -2.9973 -0.7973  1.7251
 6714SOL    HW231605   0.512   2.982   3.734 -0.3235  2.0224  1.0846
 6715SOL     OW31606   0.192   1.608   4.361  0.1838 -0.0156 -0.0293
 6715SOL    HW131607   0.254   1.556   4.310  0.5652 -0.2836  0.7134
 6715SOL    HW231608   0.138   1.638   4.288 -0.6406  0.4296  0.7709
 6716SOL     OW31609   1.140   1.919   3.425  0.7897 -0.6595  0.0713
 6716SOL    HW131610   1.136   1.840   3.478  0.9738 -0.5048  0.3153
 6716SOL    HW231611   1.233   1.919   3.402  0.8390 -0.0530  0.2577
 6717SOL     OW31612   2.862   2.992   0.682 -0.8267 -0.0069  0.5791
 6717SOL    HW131613   2.796   3.000   0.613  0.8232  3.4523 -0.6224
 6717SOL    HW231614   2.900   3.079   0.667  0.2429 -0.3814  1.1159
 6718SOL     OW31615   2.897   1.022   6.589 -0.6193 -0.1054  0.4086
 6718SOL    HW131616   2.845   0.972   6.652  0.2229 -2.0633 -0.4481
 6718SOL    HW231617   2.844   1.101   6.578 -0.6465 -0.0008  1.2990
 6719SOL     OW31618   3.288   0.946  13.954  0.7819 -0.3437  0.1103
 6719SOL    HW131619   3.328   0.910  13.875  1.1766  1.6783 -0.6055
 6719SOL    HW231620   3.195   0.923  13.951  0.4433  0.9015  0.9296
 6720SOL     OW31621   2.003   1.037   3.568 -0.0051 -0.4068  0.4505
 6720SOL    HW131622   1.945   1.048   3.492 -0.1273  0.1701  0.6241
 6720SOL    HW231623   2.071   0.976   3.542  0.8314  0.3899  0.7923
 6721SOL     OW31624   2.181   2.545   7.434  0.2942 -0.2140  0.2335
 6721SOL    HW131625   2.244   2.491   7.482 -1.2124 -1.7003  0.5486
 6721SOL    HW231626   2.234   2.624   7.429  1.4915 -0.8373  3.1644
 6722SOL     OW31627   1.070   1.024  15.239  0.3000  0.0327 -0.3283
 6722SOL    HW131628   1.099   0.969  15.166 -1.4541 -0.1957 -0.8629
 6722SOL    HW231629   1.025   1.089  15.186 -0.3254  2.3873  3.0981
 6723SOL     OW31630   3.548   3.736   1.681 -0.4207 -0.0979  0.1184
 6723SOL    HW131631   3.486   3.799   1.644 -0.8589 -0.8680 -0.4585
 6723SOL    HW231632   3.496   3.656   1.689 -2.1557  0.8684 -1.5062
 6724SOL     OW31633   2.617   2.478  16.038  0.1679  0.1438  0.2123
 6724SOL    HW131634   2.596   2.516  16.123 -1.9017 -0.3920 -0.0577
 6724SOL    HW231635   2.585   2.389  16.053  0.6041 -0.2322 -1.1134
 6725SOL     OW31636   1.115   1.110   7.334  0.8011  0.3671  0.0422
 6725SOL    HW131637   1.083   1.200   7.339 -3.2471 -1.1523  1.0865
 6725SOL    HW231638   1.185   1.118   7.269 -1.6936  0.8276 -2.5627
 6726SOL     OW31639   3.911   1.984   0.671 -0.0937  0.3142  0.4242
 6726SOL    HW131640   3.926   1.890   0.682 -2.9488 -0.3488 -1.0804
 6726SOL    HW231641   3.918   1.995   0.576 -0.6415 -1.7345  0.1511
 6727SOL     OW31642   0.496   2.770   1.258  0.1095 -0.1814  0.2898
 6727SOL    HW131643   0.539   2.789   1.175  2.1748  2.4509  1.9706
 6727SOL    HW231644   0.494   2.674   1.261  0.2801 -0.2363 -1.3679
 6728SOL     OW31645   0.689   4.641   4.499  0.1527  0.2094 -0.0526
 6728SOL    HW131646   0.619   4.652   4.563  1.8744 -0.1052  1.8843
 6728SOL    HW231647   0.708   0.010   4.479  1.6315  0.1138  0.8746
 6729SOL     OW31648   2.196   0.464  10.004 -0.5878 -0.4126 -0.0322
 6729SOL    HW131649   2.113   0.418   9.992 -1.8211  1.8023  0.0379
 6729SOL    HW231650   2.169   0.554   9.987  0.3053  0.0334  0.8955
 6730SOL     OW31651   1.734   2.976   8.035 -0.2186  0.3043  0.3665
 6730SOL    HW131652   1.652   2.940   8.002  1.1758 -1.6985 -0.8878
 6730SOL    HW231653   1.740   3.061   7.991 -0.3945  1.5700  2.7750
 6731SOL     OW31654   0.188   2.540  10.607 -0.2073 -0.1863  0.8293
 6731SOL    HW131655   0.184   2.636  10.606  1.3598 -0.1390 -1.5336
 6731SOL    HW231656   0.124   2.518  10.675  0.8576  0.1528  1.9464
 6732SOL     OW31657   3.908   2.209   0.027 -0.3193  0.0331  0.1891
 6732SOL    HW131658   3.949   2.286  17.678  0.8626 -1.3424 -1.2658
 6732SOL    HW231659   3.820   2.246   0.027 -0.7003 -0.8978  1.1074
 6733SOL     OW31660   1.657   2.434  17.619  0.3597  0.0366 -0.1887
 6733SOL    HW131661   1.590   2.432  17.550  1.2836  0.0933 -1.0901
 6733SOL    HW231662   1.692   2.522  17.608 -1.1177  0.9021  2.1277
 6734SOL     OW31663   1.314   4.250  14.450 -0.0438  0.3196 -0.5189
 6734SOL    HW131664   1.367   4.178  14.484  2.4352  1.3473 -2.1987
 6734SOL    HW231665   1.363   4.275  14.372  1.7677  2.8147  1.4210
 6735SOL     OW31666   4.263   0.635   5.237  0.3233  0.3299 -0.1781
 6735SOL    HW131667   4.190   0.695   5.223 -0.2911  0.1710  2.4986
 6735SOL    HW231668   4.338   0.696   5.235  0.8340 -0.2856  0.4943
 6736SOL     OW31669   1.940   3.990   8.539  0.7447 -0.3172 -0.0435
 6736SOL    HW131670   1.861   4.037   8.566  0.1459 -2.2855  1.6684
 6736SOL    HW231671   1.906   3.902   8.518  1.6617 -0.7412  0.2626
 6737SOL     OW31672   3.484   3.546   4.360 -0.4307 -0.4916  0.1604
 6737SOL    HW131673   3.421   3.609   4.396  2.2224  1.3103  1.6884
 6737SOL    HW231674   3.424   3.493   4.308 -0.3901  0.1159 -0.5069
 6738SOL     OW31675   1.851   1.769  10.059 -0.6075  0.4935  0.0809
 6738SOL    HW131676   1.790   1.751   9.987 -0.1030  0.4310 -0.3316
 6738SOL    HW231677   1.865   1.863  10.054 -0.3155  0.4192 -0.4821
 6739SOL     OW31678   0.730   2.664   6.733 -0.4444  0.8162 -0.1086
 6739SOL    HW131679   0.753   2.757   6.723  1.0700  0.4178 -0.3538
 6739SOL    HW231680   0.813   2.617   6.726 -1.1816 -0.2816 -1.4321
 6740SOL     OW31681   3.987   2.954  15.619 -0.1401  0.0860  0.1553
 6740SOL    HW131682   3.992   3.008  15.540 -0.1005 -0.3620 -0.1468
 6740SOL    HW231683   4.077   2.921  15.618 -0.8736 -2.0001  3.4157
 6741SOL     OW31684   2.567   4.074   2.816 -0.5362 -0.0460  0.0252
 6741SOL    HW131685   2.594   4.025   2.894  0.2953  0.0236 -0.2202
 6741SOL    HW231686   2.612   4.158   2.810 -0.8822  0.3850  3.7700
 6742SOL     OW31687   1.004   1.637  15.861 -0.9377  0.8961  0.4476
 6742SOL    HW131688   0.918   1.680  15.865 -0.7723  1.2260  0.4818
 6742SOL    HW231689   1.026   1.627  15.953 -2.5574  0.6500  0.7984
 6743SOL     OW31690   0.920   2.312   7.187  0.1941 -0.4978  0.1668
 6743SOL    HW131691   0.954   2.300   7.098  0.2532  3.9752 -0.4332
 6743SOL    HW231692   0.971   2.389   7.211 -1.5580  0.8251 -0.3287
 6744SOL     OW31693   0.738   2.121   7.183 -0.1849  0.2330 -0.2202
 6744SOL    HW131694   0.685   2.105   7.261  1.0471 -1.5553  0.2472
 6744SOL    HW231695   0.784   2.201   7.209 -1.1638 -0.4999  3.7938
 6745SOL     OW31696   4.603   2.012  10.284  0.1639  0.2585  0.8076
 6745SOL    HW131697   4.620   2.001  10.191 -1.1481  1.6646  0.4032
 6745SOL    HW231698   4.623   1.928  10.326  0.6256  0.4010  0.8663
 6746SOL     OW31699   0.352   3.642   2.940  0.4604  0.2910 -0.1633
 6746SOL    HW131700   0.332   3.580   3.010  2.4878 -0.3720 -0.1616
 6746SOL    HW231701   0.309   3.722   2.971  0.5556 -0.5751  2.1794
 6747SOL     OW31702   2.311   4.512   2.851  0.4387 -1.3285  0.8450
 6747SOL    HW131703   2.277   4.541   2.767 -1.2508 -0.1737  1.9149
 6747SOL    HW231704   2.226   4.493   2.892 -0.3276  0.1946 -0.0176
 6748SOL     OW31705   1.037   1.319  12.579  0.4974  0.0670 -0.4121
 6748SOL    HW131706   1.035   1.228  12.609 -0.0628 -0.2467 -1.3954
 6748SOL    HW231707   1.052   1.315  12.485  3.4858 -0.7651  0.1129
 6749SOL     OW31708   4.259   1.517   9.121 -0.0345  0.0341 -0.1910
 6749SOL    HW131709   4.344   1.562   9.126 -1.0811  1.9227  0.4887
 6749SOL    HW231710   4.201   1.569   9.066  0.2616  0.3366 -0.2233
 6750SOL     OW31711   2.351   0.483   3.748 -0.1736  0.6192 -0.0049
 6750SOL    HW131712   2.273   0.457   3.699 -0.2952 -1.1024  1.0981
 6750SOL    HW231713   2.325   0.476   3.840 -0.0909  0.7669  0.0285
 6751SOL     OW31714   3.449   0.894   4.209  0.5300  0.1597  0.0640
 6751SOL    HW131715   3.533   0.850   4.198  1.1487  1.2365  0.5296
 6751SOL    HW231716   3.461   0.969   4.151 -0.6690 -0.4494 -0.9609
 6752SOL     OW31717   4.478   2.033   9.984 -0.0632  0.0020 -0.1401
 6752SOL    HW131718   4.383   2.022   9.991  0.0704 -0.0119  1.7920
 6752SOL    HW231719   4.493   2.015   9.891  0.2832  1.2574 -0.3193
 6753SOL     OW31720   1.760   3.737  17.315  0.3037  0.2805 -0.4528
 6753SOL    HW131721   1.718   3.794  17.251 -1.0972  0.6090  0.7409
 6753SOL    HW231722   1.797   3.797  17.380 -1.7350 -0.3347  1.2792
 6754SOL     OW31723   0.399   4.703   8.682 -0.6023  0.1440 -0.2986
 6754SOL    HW131724   0.389   0.048   8.615 -4.1368  1.2474  1.3158
 6754SOL    HW231725   0.465   0.022   8.737  1.8783 -2.1253 -1.5931
 6755SOL     OW31726   3.459   2.169   0.340  0.5280 -0.6231  0.1469
 6755SOL    HW131727   3.461   2.261   0.315 -0.7345 -0.0174  2.3765
 6755SOL    HW231728   3.541   2.135   0.304  0.8992  0.4281 -0.0036
 6756SOL     OW31729   2.126   1.853   9.894 -0.4425 -0.0085  0.0219
 6756SOL    HW131730   2.083   1.914   9.954 -0.7940 -1.0436  0.8274
 6756SOL    HW231731   2.056   1.831   9.833  0.9629 -0.7550 -1.3111
 6757SOL     OW31732   1.785   1.825  13.724 -0.0354  0.3009 -0.5106
 6757SOL    HW131733   1.720   1.754  13.719 -0.4419  0.5549  1.1428
 6757SOL    HW231734   1.831   1.813  13.807  1.6410  2.3600 -1.1449
 6758SOL     OW31735   3.292   2.815   1.282 -0.2978  0.2412  0.2828
 6758SOL    HW131736   3.290   2.909   1.300  1.1265  0.8489 -2.8619
 6758SOL    HW231737   3.277   2.778   1.370  1.4504 -1.4037 -0.1199
 6759SOL     OW31738   2.629   0.698   2.562  0.0771  0.2012  0.0540
 6759SOL    HW131739   2.593   0.763   2.502 -0.2693 -0.7896 -0.8110
 6759SOL    HW231740   2.693   0.746   2.614 -1.0664 -0.5769  2.1882
 6760SOL     OW31741   4.071   2.596  16.042 -0.3593  0.2569  0.3901
 6760SOL    HW131742   3.992   2.629  16.086 -1.1666 -2.0484  0.6613
 6760SOL    HW231743   4.141   2.645  16.085  1.1816 -0.5657 -1.1683
 6761SOL     OW31744   3.709   1.978   7.112  0.2530  0.2710 -0.5319
 6761SOL    HW131745   3.769   1.955   7.183  0.0786  1.0160 -0.1457
 6761SOL    HW231746   3.774   2.002   7.046  0.0196  3.1653  0.2750
 6762SOL     OW31747   2.961   1.522   1.883  0.5470 -0.8905  0.2200
 6762SOL    HW131748   3.050   1.545   1.911  0.0308  1.2216  0.1302
 6762SOL    HW231749   2.968   1.435   1.844 -1.8963 -0.9516 -0.0787
 6763SOL     OW31750   3.110   3.857   4.238  0.0041 -0.0800 -0.3618
 6763SOL    HW131751   3.082   3.915   4.167 -2.5309 -0.9452 -0.0561
 6763SOL    HW231752   3.032   3.805   4.257  0.2790 -0.9951 -1.7055
 6764SOL     OW31753   3.149   2.681   6.309 -0.0442  0.2235  0.4007
 6764SOL    HW131754   3.072   2.632   6.340 -0.4640 -0.9837 -2.5085
 6764SOL    HW231755   3.113   2.688   6.220  1.0890 -0.7781 -0.1382
 6765SOL     OW31756   0.324   1.587   8.457  0.2152 -0.3219  0.0451
 6765SOL    HW131757   0.387   1.552   8.393  1.0980  0.2601  0.6045
 6765SOL    HW231758   0.242   1.591   8.407  0.3525 -0.1264 -0.1666
 6766SOL     OW31759   0.920   2.606   9.084  0.6462 -0.6436 -0.3389
 6766SOL    HW131760   1.009   2.628   9.113  1.2955 -4.2494  0.3394
 6766SOL    HW231761   0.870   2.637   9.159  1.5084  0.2824 -0.1345
 6767SOL     OW31762   4.677   0.758   0.523  0.1753  0.1608  1.0707
 6767SOL    HW131763   4.601   0.795   0.478  0.8447  0.2695  0.0225
 6767SOL    HW231764   0.009   0.836   0.535  0.7157  0.0490 -0.6038
 6768SOL     OW31765   2.540   0.726  11.743 -0.1167  0.2830 -0.5512
 6768SOL    HW131766   2.501   0.813  11.749 -1.7352 -0.6610  2.6138
 6768SOL    HW231767   2.495   0.681  11.672 -1.0326  1.5988 -0.8007
 6769SOL     OW31768   2.811   1.178   0.081 -0.0380 -0.6525 -0.2008
 6769SOL    HW131769   2.750   1.105   0.069 -0.0528 -1.1258  2.7499
 6769SOL    HW231770   2.890   1.144   0.124  0.2246  1.3158  0.8759
 6770SOL     OW31771   2.943   2.237   0.363  0.1689 -0.2672  0.8588
 6770SOL    HW131772   3.005   2.175   0.326  0.6575  0.6032  0.2277
 6770SOL    HW231773   3.002   2.284   0.422 -1.6730  1.1618  1.5567
 6771SOL     OW31774   0.133   4.231   8.226  0.2777 -0.1457 -0.4320
 6771SOL    HW131775   0.223   4.225   8.257 -0.1523  1.0550  1.0299
 6771SOL    HW231776   0.077   4.214   8.302  0.3237  1.3017 -0.0745
 6772SOL     OW31777   0.367   2.229  17.631 -0.4195  0.0431 -0.2176
 6772SOL    HW131778   0.462   2.221  17.641 -0.2747  0.6707 -1.1292
 6772SOL    HW231779   0.352   2.284   0.017 -1.5131  0.4890 -0.7501
 6773SOL     OW31780   4.618   3.875  14.742 -0.1846  0.1823 -0.2617
 6773SOL    HW131781   4.592   3.815  14.672  0.6399  0.2483 -0.6275
 6773SOL    HW231782   4.683   3.921  14.688  1.0114 -0.6397  0.4680
 6774SOL     OW31783   0.475   0.352   5.752  0.2978  0.4105  0.4918
 6774SOL    HW131784   0.511   0.268   5.779 -0.2804 -0.5182 -1.6013
 6774SOL    HW231785   0.555   0.394   5.721  1.6454 -0.7893  2.3460
 6775SOL     OW31786   4.239   1.725   2.936  0.2956  0.4238  0.0069
 6775SOL    HW131787   4.277   1.784   3.001 -0.7241  0.1835  0.8132
 6775SOL    HW231788   4.249   1.770   2.852 -1.0238  0.2690 -0.2342
 6776SOL     OW31789   4.114   0.635   9.923  0.5523  0.4354  0.0485
 6776SOL    HW131790   4.129   0.569   9.856 -1.6906  1.3016 -1.2877
 6776SOL    HW231791   4.180   0.704   9.912  0.3372  0.3964 -1.4194
 6777SOL     OW31792   1.631   0.955   5.137 -0.1845  0.3431 -0.1670
 6777SOL    HW131793   1.722   0.976   5.119  0.4002 -2.6559 -0.6722
 6777SOL    HW231794   1.603   0.908   5.059 -1.5949  2.1612 -0.7763
 6778SOL     OW31795   4.398   2.093   4.929  0.0397  0.7592 -0.4817
 6778SOL    HW131796   4.388   2.042   4.849 -0.5541  0.4741 -0.2247
 6778SOL    HW231797   4.364   2.029   4.992 -0.9806  3.3290  1.5857
 6779SOL     OW31798   1.312   4.564   2.293  0.0106 -0.4558  0.6304
 6779SOL    HW131799   1.276   4.491   2.344  2.5414  0.2755  3.4160
 6779SOL    HW231800   1.405   4.547   2.285  0.2672  0.5375  1.4813
 6780SOL     OW31801   2.787   3.989   1.404  0.2794 -0.2174  0.1732
 6780SOL    HW131802   2.756   4.078   1.424  2.2177  1.0862 -2.5745
 6780SOL    HW231803   2.794   4.000   1.309  1.5307 -1.0159  0.1852
 6781SOL     OW31804   4.091   0.035   8.494 -0.3969 -0.0462 -0.3375
 6781SOL    HW131805   4.150   0.072   8.429  1.2118 -1.6467  0.2146
 6781SOL    HW231806   4.084   0.104   8.560 -0.5009 -1.2856  0.9453
 6782SOL     OW31807   2.065   2.007  10.373  0.1568  0.0008 -0.4288
 6782SOL    HW131808   2.064   2.079  10.309 -0.7205  1.1959  0.9300
 6782SOL    HW231809   2.062   2.060  10.453 -0.2419  0.8584 -1.0008
 6783SOL     OW31810   4.202   4.075   8.723 -0.3889  0.2707 -0.5525
 6783SOL    HW131811   4.134   4.093   8.788  1.0203 -0.1363  1.0166
 6783SOL    HW231812   4.149   4.108   8.650 -0.1533  0.3912 -0.6687
 6784SOL     OW31813   4.641   1.982   7.109  0.2903 -0.2186 -0.4402
 6784SOL    HW131814   4.603   1.977   7.021 -0.8810  0.1641  0.0489
 6784SOL    HW231815   4.584   1.921   7.155  1.7816 -1.5793 -0.4073
 6785SOL     OW31816   0.663   0.756   7.604 -0.0061  0.4267 -0.2662
 6785SOL    HW131817   0.604   0.724   7.536 -1.7708  1.9838  0.5284
 6785SOL    HW231818   0.699   0.672   7.632  0.3612  0.1067 -1.6772
 6786SOL     OW31819   4.668   1.165  17.342 -0.1029  0.5875 -0.2204
 6786SOL    HW131820   4.614   1.090  17.316 -3.1683  2.7160  0.0284
 6786SOL    HW231821   4.717   1.135  17.419 -1.1020 -1.9232 -0.5716
 6787SOL     OW31822   4.536   3.005   4.435  0.1704  0.1077 -0.6871
 6787SOL    HW131823   4.579   2.968   4.358 -0.4248  1.2012 -1.5577
 6787SOL    HW231824   4.483   3.070   4.389  0.3159 -0.6939 -1.9899
 6788SOL     OW31825   0.304   4.435   4.723  0.1860 -0.1872 -0.8151
 6788SOL    HW131826   0.251   4.390   4.788  0.0117 -0.8564 -1.4279
 6788SOL    HW231827   0.252   4.513   4.702  1.1882  0.3096 -1.4377
 6789SOL     OW31828   2.690   1.292   4.110  0.1177  0.7729  0.3721
 6789SOL    HW131829   2.755   1.222   4.124  0.5661  1.0492 -0.3066
 6789SOL    HW231830   2.614   1.242   4.081 -0.2280  1.2889  0.4100
 6790SOL     OW31831   3.043   3.145   4.702 -0.1763  0.0674 -0.0699
 6790SOL    HW131832   3.021   3.197   4.625 -0.3822 -1.2248 -0.8891
 6790SOL    HW231833   3.100   3.082   4.658  0.0875  0.0709  0.2658
 6791SOL     OW31834   4.295   0.520  12.455  0.2784  0.0478 -0.0007
 6791SOL    HW131835   4.328   0.436  12.487 -2.6176 -0.7710  0.9072
 6791SOL    HW231836   4.199   0.510  12.453  0.1860  1.3404 -1.6582
 6792SOL     OW31837   4.422   0.972   9.659  0.0501 -0.7180  0.2235
 6792SOL    HW131838   4.434   1.026   9.737  1.0100 -0.6718  0.0366
 6792SOL    HW231839   4.504   0.971   9.611 -0.8609  0.9319 -1.3458
 6793SOL     OW31840   2.669   2.959  15.659  0.0237 -0.2722  0.2141
 6793SOL    HW131841   2.612   2.894  15.618  0.7648 -1.8025  1.5748
 6793SOL    HW231842   2.754   2.916  15.644  0.2921 -0.7472  3.1554
 6794SOL     OW31843   1.164   2.737  15.672  0.2082  0.6397  0.8750
 6794SOL    HW131844   1.107   2.679  15.622  1.4714 -0.5757  0.8526
 6794SOL    HW231845   1.120   2.733  15.757 -3.0765  0.1515 -0.8510
 6795SOL     OW31846   1.433   2.871  14.964 -0.3444 -0.0177 -0.3449
 6795SOL    HW131847   1.483   2.888  14.885 -0.3658 -1.6674 -0.7175
 6795SOL    HW231848   1.393   2.789  14.934  0.2788 -0.9979  1.5313
 6796SOL     OW31849   2.419   2.042   2.177 -0.0684  0.4596 -0.0931
 6796SOL    HW131850   2.377   2.118   2.136 -1.1050  0.4838  1.0291
 6796SOL    HW231851   2.349   2.015   2.235  1.2078 -0.1482  1.1564
 6797SOL     OW31852   0.544   1.418  15.543 -0.3429 -0.4719  0.2876
 6797SOL    HW131853   0.512   1.434  15.454  0.8523  0.2882 -0.0043
 6797SOL    HW231854   0.488   1.481  15.589  0.8004  1.2880 -0.7361
 6798SOL     OW31855   3.274   3.942   2.338  0.1445 -0.4267  0.0283
 6798SOL    HW131856   3.281   3.846   2.342  2.3158 -0.3376 -1.5193
 6798SOL    HW231857   3.207   3.958   2.272 -0.8546  1.2388  1.4794
 6799SOL     OW31858   1.659   0.692   3.044 -0.1220 -0.3965 -0.2655
 6799SOL    HW131859   1.734   0.708   3.101 -0.4256 -1.1715  0.3503
 6799SOL    HW231860   1.675   0.600   3.021  1.5798 -0.0108 -0.6703
 6800SOL     OW31861   1.803   2.200  11.570 -0.3443 -0.0630 -0.0056
 6800SOL    HW131862   1.772   2.228  11.656  1.4810  3.0571 -0.3788
 6800SOL    HW231863   1.884   2.249  11.558 -0.6468  0.8160  1.5901
 6801SOL     OW31864   0.457   2.966  13.999  0.5749 -0.5926 -0.3836
 6801SOL    HW131865   0.430   3.042  13.946 -1.6605 -0.3525  1.1185
 6801SOL    HW231866   0.537   2.999  14.039  0.2711  0.3899 -0.5772
 6802SOL     OW31867   1.297   1.557   4.581 -0.3900  0.1311  0.3610
 6802SOL    HW131868   1.237   1.631   4.576 -0.9302 -0.3402 -0.1139
 6802SOL    HW231869   1.230   1.494   4.606 -1.9911  0.4276 -3.1895
 6803SOL     OW31870   1.347   3.052   8.083  0.0640 -0.5712  0.2585
 6803SOL    HW131871   1.269   2.996   8.088 -0.0072 -0.5263 -0.4394
 6803SOL    HW231872   1.389   3.012   8.008 -1.1898 -0.1019 -0.6944
 6804SOL     OW31873   0.961   2.354   2.128  0.2845  0.1140 -0.1519
 6804SOL    HW131874   0.950   2.431   2.072 -3.0568  0.7311  1.3461
 6804SOL    HW231875   0.874   2.318   2.139  1.7885 -3.6235 -0.5226
 6805SOL     OW31876   4.462   0.032   4.961  0.1051 -0.5007  0.2160
 6805SOL    HW131877   4.473   0.108   5.018 -1.0629  0.1677 -0.4407
 6805SOL    HW231878   4.487   4.690   5.027 -2.5716 -0.1539  1.5766
 6806SOL     OW31879   3.556   1.399  15.662 -0.2375 -0.5364  0.0246
 6806SOL    HW131880   3.614   1.462  15.620 -1.8151  0.6816 -0.3116
 6806SOL    HW231881   3.609   1.321  15.678  2.1730  1.2728  0.7208
 6807SOL     OW31882   2.191   4.387   6.048 -0.4921 -0.3196 -0.0857
 6807SOL    HW131883   2.149   4.465   6.011  0.4804  0.2297 -0.0379
 6807SOL    HW231884   2.286   4.400   6.051 -0.3055 -0.9410 -3.3535
 6808SOL     OW31885   3.512   1.333   8.911 -0.3193  0.7054  0.8384
 6808SOL    HW131886   3.585   1.289   8.867 -0.3900 -0.8255  2.2479
 6808SOL    HW231887   3.449   1.365   8.846 -0.7829 -2.7064 -0.4067
 6809SOL     OW31888   4.112   4.527   9.774 -0.4328 -0.7710 -0.1286
 6809SOL    HW131889   4.073   4.511   9.860  2.6489  1.0324  1.5841
 6809SOL    HW231890   4.162   4.447   9.762  1.2982  0.3354 -0.2684
 6810SOL     OW31891   1.271   0.638  10.495  0.1788 -0.0422 -0.7514
 6810SOL    HW131892   1.295   0.726  10.466  0.9065 -1.0744 -3.2744
 6810SOL    HW231893   1.272   0.659  10.588  2.2138  4.4152 -1.7596
 6811SOL     OW31894   2.206   3.299   5.356 -0.1396  0.1440 -0.1878
 6811SOL    HW131895   2.186   3.339   5.271  1.1181 -0.5264 -0.7895
 6811SOL    HW231896   2.117   3.288   5.391  0.1743 -1.5434  0.0625
 6812SOL     OW31897   2.869   2.445   3.787 -0.0229  0.3600 -0.3444
 6812SOL    HW131898   2.801   2.382   3.812  1.4722 -1.2154 -0.2151
 6812SOL    HW231899   2.893   2.399   3.706 -0.4792  0.2561 -0.4224
 6813SOL     OW31900   0.015   1.872   4.819  0.1596 -0.3153 -0.0638
 6813SOL    HW131901   4.697   1.895   4.735 -0.1217 -1.1289 -0.1509
 6813SOL    HW231902   4.706   1.946   4.872  0.9177 -2.0321  2.8169
 6814SOL     OW31903   2.693   3.816   6.904 -0.5115 -0.0980 -0.2510
 6814SOL    HW131904   2.630   3.884   6.882  0.3937  0.8072 -0.0262
 6814SOL    HW231905   2.775   3.865   6.894 -0.3007 -0.0421  1.7675
 6815SOL     OW31906   2.260   3.118   4.723  0.4969 -0.0186 -0.3698
 6815SOL    HW131907   2.339   3.114   4.669  0.2738 -0.2539 -0.6761
 6815SOL    HW231908   2.214   3.040   4.694  0.3995  0.5333 -1.7094
 6816SOL     OW31909   0.419   4.119   9.744 -0.0549 -0.2621  0.6629
 6816SOL    HW131910   0.398   4.028   9.765 -1.1880 -0.6220 -2.0599
 6816SOL    HW231911   0.335   4.145   9.706  1.5039 -0.1421 -2.6316
 6817SOL     OW31912   0.460   4.612   5.361  0.2617  0.4020 -0.8028
 6817SOL    HW131913   0.458   4.580   5.271 -2.7627 -1.0681 -0.2075
 6817SOL    HW231914   0.382   4.667   5.373 -1.6367 -2.9885  2.1982
 6818SOL     OW31915   2.502   3.042  14.474  0.1512  0.1583 -0.1332
 6818SOL    HW131916   2.585   3.078  14.443  0.0634 -0.0890 -0.6485
 6818SOL    HW231917   2.535   2.964  14.518  0.1132 -1.0304 -2.2257
 6819SOL     OW31918   1.827   2.595   4.978 -0.1337 -0.5093  0.4670
 6819SOL    HW131919   1.834   2.505   4.947 -0.3456 -0.5634  0.5779
 6819SOL    HW231920   1.921   2.614   4.990 -0.6768  3.1753 -1.1111
 6820SOL     OW31921   2.079   0.201   3.983 -0.1893 -0.2491  0.0015
 6820SOL    HW131922   2.158   0.178   3.933 -0.9252  0.1692 -1.3522
 6820SOL    HW231923   2.111   0.201   4.074 -2.4569 -1.8806  0.7956
 6821SOL     OW31924   3.987   1.137   7.891 -0.1102 -0.3287  0.0531
 6821SOL    HW131925   4.022   1.096   7.970  1.7907  0.9216 -0.1545
 6821SOL    HW231926   3.926   1.065   7.871 -0.2607 -0.2638  0.2762
 6822SOL     OW31927   3.834   0.191  10.023  0.4375  0.0307  0.2752
 6822SOL    HW131928   3.823   0.096  10.025 -0.1410  0.0991  0.2444
 6822SOL    HW231929   3.872   0.196   9.935  0.0758  2.7505  0.2968
 6823SOL     OW31930   1.102   1.567   8.917 -0.7073 -0.0313  0.2805
 6823SOL    HW131931   1.028   1.585   8.974 -1.1680  0.8091 -0.5796
 6823SOL    HW231932   1.174   1.542   8.975  0.0513  0.1307 -0.5725
 6824SOL     OW31933   2.621   1.803   4.296 -0.0990 -0.0397 -0.2771
 6824SOL    HW131934   2.689   1.777   4.234  1.1405 -0.1643  1.1171
 6824SOL    HW231935   2.623   1.723   4.349  1.1837  0.1569 -0.0147
 6825SOL     OW31936   3.998   0.963   9.713 -0.7612  0.4062 -0.0254
 6825SOL    HW131937   4.022   1.012   9.634  2.6402 -0.7788  0.2482
 6825SOL    HW231938   4.081   0.917   9.725  0.1832  1.5387 -2.2371
 6826SOL     OW31939   2.677   4.155  14.895 -0.6428  1.0660  0.3750
 6826SOL    HW131940   2.680   4.186  14.985 -1.7008 -0.1459  0.8282
 6826SOL    HW231941   2.662   4.242  14.858  1.2323  1.0667 -0.3929
 6827SOL     OW31942   0.967   4.379   5.915  0.1199  0.4365 -0.0003
 6827SOL    HW131943   1.055   4.408   5.939  0.2413  0.2170 -0.1717
 6827SOL    HW231944   0.968   4.285   5.936 -0.3767  0.5799  0.6490
 6828SOL     OW31945   1.260   4.153   2.906 -0.2315 -0.1376 -0.1593
 6828SOL    HW131946   1.334   4.106   2.944 -0.8412 -0.6771  0.3632
 6828SOL    HW231947   1.299   4.199   2.832 -0.8468 -1.6443 -1.4325
 6829SOL     OW31948   4.378   4.490   0.647 -0.2702 -0.4704  0.2784
 6829SOL    HW131949   4.364   4.447   0.562 -1.7596  1.0459 -0.2396
 6829SOL    HW231950   4.310   4.447   0.698  0.5568  0.1017  1.8385
 6830SOL     OW31951   2.526   1.453  10.679  1.0516  0.1097  0.5203
 6830SOL    HW131952   2.535   1.358  10.687  3.7862  0.2811 -0.5486
 6830SOL    HW231953   2.431   1.459  10.673  1.2144  1.4883 -0.6100
 6831SOL     OW31954   2.681   1.251   0.335 -0.0109 -0.3985  0.3267
 6831SOL    HW131955   2.776   1.239   0.337  0.0764  0.0301 -1.2359
 6831SOL    HW231956   2.652   1.239   0.244  1.4503  1.4103 -0.3687
 6832SOL     OW31957   0.401   2.866   1.560 -0.5348  0.0983 -0.4087
 6832SOL    HW131958   0.368   2.943   1.515  0.1146  0.7176  0.1659
 6832SOL    HW231959   0.357   2.801   1.506 -0.3851 -1.5541  1.4582
 6833SOL     OW31960   1.969   2.737   2.592 -0.7239  0.3990 -0.5712
 6833SOL    HW131961   1.957   2.659   2.647  0.4849  1.1226  0.7265
 6833SOL    HW231962   2.062   2.753   2.577 -1.2775  2.8327 -1.3040
 6834SOL     OW31963   0.695   2.024   4.225  0.1090 -0.0648 -0.1388
 6834SOL    HW131964   0.608   1.987   4.214  0.6593 -0.8073 -1.9918
 6834SOL    HW231965   0.725   2.011   4.315 -0.4168  0.9146  0.1692
 6835SOL     OW31966   0.855   2.643   1.256  0.5810  0.0198  0.0837
 6835SOL    HW131967   0.828   2.642   1.348  1.4673 -0.8424  0.3421
 6835SOL    HW231968   0.834   2.556   1.224  0.0813  0.2482 -0.2151
 6836SOL     OW31969   1.728   4.405   9.461 -0.3649 -0.1424 -0.1216
 6836SOL    HW131970   1.822   4.423   9.453 -0.2289 -1.0848 -0.7031
 6836SOL    HW231971   1.694   4.454   9.535 -0.9212  0.6465 -0.8948
 6837SOL     OW31972   0.947   1.742  10.963  0.3364 -0.1284 -0.5188
 6837SOL    HW131973   0.961   1.772  11.053  0.0894 -0.0117 -0.5195
 6837SOL    HW231974   1.011   1.789  10.909  0.3944  1.4503  0.9144
 6838SOL     OW31975   3.769   0.857   3.170 -0.2663  0.2708 -0.0697
 6838SOL    HW131976   3.763   0.929   3.232 -0.3940 -1.4050  1.8764
 6838SOL    HW231977   3.820   0.898   3.100 -0.0280 -0.8117 -0.5251
 6839SOL     OW31978   3.758   3.631  11.531  0.1935  0.0343  0.4014
 6839SOL    HW131979   3.751   3.553  11.586 -0.2974 -0.3972 -0.2666
 6839SOL    HW231980   3.736   3.702  11.591 -0.2064 -0.3639  0.7232
 6840SOL     OW31981   3.605   3.707   5.187  0.6287  0.4885  0.4418
 6840SOL    HW131982   3.577   3.715   5.096 -1.3624 -1.6600  0.8532
 6840SOL    HW231983   3.671   3.776   5.194  0.9224 -0.1463  4.0703
 6841SOL     OW31984   2.441   4.221   8.566  0.1073  0.0001  0.0218
 6841SOL    HW131985   2.504   4.242   8.635 -0.7330  0.6344  0.6006
 6841SOL    HW231986   2.362   4.235   8.618 -0.0195 -0.1911 -0.1233
 6842SOL     OW31987   4.508   1.483   7.400  0.4516  0.0954  0.0973
 6842SOL    HW131988   4.541   1.395   7.381  0.0755 -0.0914  0.3128
 6842SOL    HW231989   4.448   1.465   7.473 -1.3516 -2.0898 -1.9574
 6843SOL     OW31990   4.141   4.705  15.414  0.1321 -0.1072 -0.2629
 6843SOL    HW131991   4.211   0.049  15.421 -1.2706  1.4648 -1.0992
 6843SOL    HW231992   4.056   0.026  15.413  0.1317 -0.0983  0.5121
 6844SOL     OW31993   1.945   0.734   7.780 -0.1647 -0.4737  0.1471
 6844SOL    HW131994   1.879   0.665   7.780  3.5714 -4.0901 -0.1758
 6844SOL    HW231995   1.996   0.713   7.859  0.2038  0.5160  0.1641
 6845SOL     OW31996   2.692   3.873   6.476 -0.5114  0.0886  0.2626
 6845SOL    HW131997   2.679   3.781   6.500  0.4418  0.2471  1.3971
 6845SOL    HW231998   2.788   3.878   6.482 -0.4512 -0.6607 -0.0035
 6846SOL     OW31999   0.162   2.154   6.192 -0.2081  0.2239 -0.2167
 6846SOL    HW132000   0.068   2.157   6.177  0.0064  1.4861 -1.3449
 6846SOL    HW232001   0.162   2.108   6.276  0.0686 -0.7235 -0.7358
 6847SOL     OW32002   4.108   2.843   4.603 -0.1159  0.4183  0.3512
 6847SOL    HW132003   4.136   2.752   4.595 -2.1299 -0.2173  0.6889
 6847SOL    HW232004   4.126   2.868   4.512 -1.7577  2.0622  0.4858
 6848SOL     OW32005   1.839   1.112   1.549 -0.0308  0.9017  0.6521
 6848SOL    HW132006   1.890   1.173   1.497  0.7077  1.4278  1.9925
 6848SOL    HW232007   1.824   1.145   1.638  1.1191  2.3679  0.2951
 6849SOL     OW32008   0.555   0.356   6.699 -0.2940  0.1030 -0.1407
 6849SOL    HW132009   0.627   0.419   6.707  0.9669 -0.8523 -3.7044
 6849SOL    HW232010   0.558   0.298   6.775  2.2584  0.0261 -0.2962
 6850SOL     OW32011   1.212   2.239  13.013 -0.2177  0.2733  0.0698
 6850SOL    HW132012   1.265   2.263  13.090 -0.1450  0.4627 -0.0379
 6850SOL    HW232013   1.137   2.194  13.051 -0.9705 -0.0613 -1.8095
 6851SOL     OW32014   2.903   3.199   5.241  0.1861 -0.2943  0.5454
 6851SOL    HW132015   2.889   3.116   5.195  1.0618  0.2016 -0.6160
 6851SOL    HW232016   2.816   3.238   5.227  0.6723  0.1841 -1.2068
 6852SOL     OW32017   3.590   0.301  14.242 -0.3369 -0.3640 -0.3168
 6852SOL    HW132018   3.621   0.322  14.330  3.4086 -1.9122 -1.2342
 6852SOL    HW232019   3.536   0.377  14.221 -0.1377 -0.3469 -0.7849
 6853SOL     OW32020   4.048   3.549   7.686  0.2346 -0.2910 -0.6405
 6853SOL    HW132021   4.067   3.457   7.665  0.4987 -0.5534  0.8036
 6853SOL    HW232022   4.050   3.587   7.598  1.1289 -1.0720 -0.9622
 6854SOL     OW32023   2.732   1.973   7.871  0.5715  0.1027  0.6643
 6854SOL    HW132024   2.669   1.991   7.802  0.3361 -0.3136  0.7719
 6854SOL    HW232025   2.783   1.913   7.817  2.2243  1.4082  0.7675
 6855SOL     OW32026   4.580   0.940  11.434  0.0442  0.5092 -0.1487
 6855SOL    HW132027   4.494   0.899  11.438  1.1433 -1.7001  0.9247
 6855SOL    HW232028   4.630   0.859  11.422 -1.5930 -0.5623  0.2119
 6856SOL     OW32029   0.703   1.335   6.100  0.3709  0.5687  0.0907
 6856SOL    HW132030   0.652   1.409   6.134  0.9735  0.0717  2.0261
 6856SOL    HW232031   0.750   1.314   6.180  0.9084  0.6692 -0.2002
 6857SOL     OW32032   1.695   0.839  11.622 -0.4497  0.4270 -0.5335
 6857SOL    HW132033   1.737   0.806  11.701 -0.8943 -0.5298 -0.7002
 6857SOL    HW232034   1.714   0.933  11.625 -0.1222  0.4214 -2.1857
 6858SOL     OW32035   3.461   2.136   5.839 -0.1764 -0.2193  0.2206
 6858SOL    HW132036   3.439   2.050   5.805  2.4740  0.2212 -2.6207
 6858SOL    HW232037   3.498   2.192   5.770 -2.4109  1.4039  0.3295
 6859SOL     OW32038   3.671   1.529   8.103 -0.0101 -0.4273  0.3353
 6859SOL    HW132039   3.655   1.571   8.188 -1.4719 -1.0423  0.3738
 6859SOL    HW232040   3.649   1.439   8.129  0.6069 -0.5169  0.5512
 6860SOL     OW32041   0.389   3.140   4.123 -0.0727 -0.2755  0.0463
 6860SOL    HW132042   0.343   3.207   4.173 -0.1867  0.4824 -1.0755
 6860SOL    HW232043   0.325   3.119   4.054 -1.2508  2.9303  0.1799
 6861SOL     OW32044   4.012   1.453   5.413 -0.2151 -0.0580  0.6036
 6861SOL    HW132045   4.052   1.506   5.482 -1.3389  0.1494  1.0968
 6861SOL    HW232046   3.977   1.380   5.464  1.4434 -1.2364  0.0660
 6862SOL     OW32047   1.728   0.658   2.269  0.4044  0.3353  0.8006
 6862SOL    HW132048   1.636   0.685   2.270 -0.5370 -2.7258 -0.7384
 6862SOL    HW232049   1.726   0.586   2.332  0.4163 -1.0912 -0.8308
 6863SOL     OW32050   3.142   2.780   8.560 -0.3568 -0.2439 -0.1876
 6863SOL    HW132051   3.071   2.833   8.597 -1.9135 -0.9467 -2.1875
 6863SOL    HW232052   3.116   2.693   8.591 -1.3602  1.0587  2.6424
 6864SOL     OW32053   4.533   0.366   6.015  0.5791 -0.0116  0.3750
 6864SOL    HW132054   4.592   0.302   5.974  0.1145 -0.1608 -0.0598
 6864SOL    HW232055   4.520   0.323   6.100  2.9300 -0.1103  0.6892
 6865SOL     OW32056   2.580   3.826   0.734  0.6704  0.3634  0.8165
 6865SOL    HW132057   2.636   3.757   0.699 -0.6864  0.1532 -0.9481
 6865SOL    HW232058   2.527   3.840   0.656 -0.0148  1.6506  1.5175
 6866SOL     OW32059   0.439   1.552   9.243  0.5273 -0.1807  0.4150
 6866SOL    HW132060   0.403   1.466   9.224  0.3186 -0.2354  1.0625
 6866SOL    HW232061   0.403   1.559   9.331 -0.3472 -0.5038  0.0725
 6867SOL     OW32062   3.408   1.094   4.620 -1.2967 -0.0467 -0.0752
 6867SOL    HW132063   3.446   1.148   4.689 -0.1785 -0.3757 -0.4343
 6867SOL    HW232064   3.331   1.055   4.661 -1.3593  1.1767  0.9571
 6868SOL     OW32065   3.862   0.115   6.301  0.4190 -0.0854  0.3378
 6868SOL    HW132066   3.928   0.177   6.333 -0.6783  2.3151 -2.0666
 6868SOL    HW232067   3.815   0.171   6.240 -1.9207 -2.8822 -0.4300
 6869SOL     OW32068   0.865   2.487   0.557 -0.2689  0.1210 -0.0805
 6869SOL    HW132069   0.924   2.418   0.527  1.7897  0.9615  2.0754
 6869SOL    HW232070   0.838   2.512   0.469 -0.5716 -2.3091 -0.6698
 6870SOL     OW32071   0.529   2.704   7.496 -0.5542 -0.1708  0.4531
 6870SOL    HW132072   0.482   2.736   7.419  0.4368 -0.6246 -0.3451
 6870SOL    HW232073   0.459   2.659   7.542 -0.5057 -1.0431 -0.3260
 6871SOL     OW32074   1.774   3.862   9.322 -0.3675  0.3703  0.3999
 6871SOL    HW132075   1.833   3.938   9.318 -0.5802  0.4838 -0.5491
 6871SOL    HW232076   1.687   3.898   9.307  0.3602  1.8809 -0.2362
 6872SOL     OW32077   3.449   4.563   4.434 -0.4466 -0.3059  0.3046
 6872SOL    HW132078   3.537   4.594   4.412 -0.4557  0.3687  1.2018
 6872SOL    HW232079   3.396   4.640   4.411 -0.9771 -1.2839 -1.7501
 6873SOL     OW32080   1.358   2.888   6.995  0.0616 -0.4469 -0.6090
 6873SOL    HW132081   1.326   2.947   6.926 -1.9001  0.3850  1.0163
 6873SOL    HW232082   1.280   2.880   7.049  1.2114  0.9695  1.2690
 6874SOL     OW32083   0.929   2.960   1.793 -0.1473  0.1136  0.6816
 6874SOL    HW132084   0.863   2.920   1.736  2.4359 -0.8911 -1.5444
 6874SOL    HW232085   1.004   2.901   1.788 -0.6829 -0.6697  1.8714
 6875SOL     OW32086   3.011   3.173   1.390 -0.5332  0.4338 -0.3013
 6875SOL    HW132087   3.002   3.102   1.326 -3.5631 -0.7597  1.4277
 6875SOL    HW232088   2.926   3.168   1.435  0.1268 -0.6494  0.7965
 6876SOL     OW32089   1.070   2.377   9.369 -0.0566 -0.1335  0.8116
 6876SOL    HW132090   1.132   2.327   9.421  0.1687 -0.5685  0.1276
 6876SOL    HW232091   0.994   2.372   9.427  0.2779 -1.8844  1.1218
 6877SOL     OW32092   1.571   3.060   2.973 -0.4882 -0.6746 -0.1362
 6877SOL    HW132093   1.600   2.993   2.911  0.2923  1.1236 -1.7283
 6877SOL    HW232094   1.547   3.129   2.911 -0.4591  0.8616  1.5917
 6878SOL     OW32095   2.596   1.068   5.245  0.1666 -0.1130  0.1158
 6878SOL    HW132096   2.642   1.063   5.160 -0.3214 -1.1893 -0.0898
 6878SOL    HW232097   2.561   0.979   5.253  0.4931 -0.0706  2.0130
 6879SOL     OW32098   4.173   0.336  14.831  0.0342 -0.2736  0.2856
 6879SOL    HW132099   4.157   0.252  14.787  0.6061 -0.0018 -0.4485
 6879SOL    HW232100   4.264   0.330  14.859 -0.2529 -1.9114  0.8996
 6880SOL     OW32101   0.995   2.317   5.952 -0.2567  0.0689 -0.3797
 6880SOL    HW132102   0.908   2.357   5.952  0.6419  2.0165 -0.6342
 6880SOL    HW232103   1.029   2.318   6.042  1.3334 -1.6267 -0.9435
 6881SOL     OW32104   4.208   2.164   3.224 -0.4181  0.1349 -0.7984
 6881SOL    HW132105   4.229   2.258   3.217  2.0690 -0.6278 -3.3922
 6881SOL    HW232106   4.140   2.146   3.160 -2.0223  0.8291  0.6970
 6882SOL     OW32107   3.989   1.992   0.178  0.6203  0.0341 -1.0328
 6882SOL    HW132108   3.963   2.051   0.107 -1.9070 -1.4598 -1.3394
 6882SOL    HW232109   4.074   1.956   0.150 -0.7368 -3.4198 -0.6052
 6883SOL     OW32110   0.665   3.885   4.033  0.2252 -0.4265  0.4507
 6883SOL    HW132111   0.698   3.833   4.106  2.3382  1.3094  0.7476
 6883SOL    HW232112   0.683   3.969   4.076  1.2412 -0.7220  0.6122
 6884SOL     OW32113   4.358   2.178   8.694  0.4134 -1.0878  0.4580
 6884SOL    HW132114   4.370   2.087   8.669 -0.1113 -0.2529 -2.7821
 6884SOL    HW232115   4.443   2.217   8.673 -0.1301 -0.3174 -0.3128
 6885SOL     OW32116   1.520   3.492   5.649 -0.1995  0.5069 -0.3984
 6885SOL    HW132117   1.568   3.575   5.644 -2.4024  1.8137 -0.0846
 6885SOL    HW232118   1.532   3.472   5.556  0.4756  0.1447 -0.2318
 6886SOL     OW32119   2.631   1.268   6.826  0.2638  0.3286 -0.2418
 6886SOL    HW132120   2.695   1.226   6.884 -0.3424  0.0087  0.1938
 6886SOL    HW232121   2.554   1.242   6.876 -1.4263  2.5270 -1.6729
 6887SOL     OW32122   2.108   0.687   6.430 -0.1659 -0.7584 -0.1185
 6887SOL    HW132123   2.108   0.760   6.491  1.1899 -0.0249 -0.9934
 6887SOL    HW232124   2.128   0.615   6.489  0.0461 -0.7017 -0.1218
 6888SOL     OW32125   2.832   4.655  12.836 -0.1699  0.2810  0.5236
 6888SOL    HW132126   2.765   4.633  12.901  0.5825  2.0827  1.9317
 6888SOL    HW232127   2.886   4.714  12.890  1.6404  0.1634 -1.1660
 6889SOL     OW32128   3.457   1.463   3.114  0.2842 -0.1158 -0.6185
 6889SOL    HW132129   3.371   1.501   3.131 -0.3721 -2.2410  0.7493
 6889SOL    HW232130   3.506   1.502   3.186 -0.4966 -0.1102 -0.0887
 6890SOL     OW32131   1.867   0.185   8.120 -0.1476 -0.0358  0.9846
 6890SOL    HW132132   1.782   0.179   8.077  0.6869 -2.1456 -0.3838
 6890SOL    HW232133   1.844   0.203   8.211  1.8474  0.6151  1.3705
 6891SOL     OW32134   0.265   1.608   4.077 -0.0069 -0.1938  0.3077
 6891SOL    HW132135   0.270   1.543   4.006  1.1024  0.2879 -0.0589
 6891SOL    HW232136   0.312   1.682   4.039 -0.3667  0.0675  0.3717
 6892SOL     OW32137   4.008   0.287   7.355 -0.5390 -0.2030  0.1590
 6892SOL    HW132138   3.944   0.328   7.297  0.0974 -2.7426 -2.3770
 6892SOL    HW232139   4.025   0.201   7.317  1.2711  0.1768  0.1190
 6893SOL     OW32140   3.381   1.147   7.151 -0.3874 -0.2582  0.9024
 6893SOL    HW132141   3.355   1.213   7.216 -2.4585  0.4091 -0.6266
 6893SOL    HW232142   3.430   1.084   7.204 -1.1869  0.0619  2.0123
 6894SOL     OW32143   2.888   4.490   7.916  0.8225 -0.1320  0.3586
 6894SOL    HW132144   2.802   4.449   7.906  1.1877 -0.2978 -2.2480
 6894SOL    HW232145   2.940   4.453   7.844 -2.0676  0.4964 -2.0929
 6895SOL     OW32146   1.842   4.445   8.560  0.1970 -0.4424  0.2895
 6895SOL    HW132147   1.825   4.466   8.652 -4.0780  2.1233 -1.0944
 6895SOL    HW232148   1.762   4.456   8.509  0.9726 -0.1326 -0.8595
 6896SOL     OW32149   4.247   3.269   5.454  0.3267  0.1639 -0.1578
 6896SOL    HW132150   4.244   3.324   5.533 -0.6046  0.4379 -0.3850
 6896SOL    HW232151   4.182   3.312   5.398  0.5115  1.3788  0.5584
 6897SOL     OW32152   3.127   1.489  16.988 -0.1446 -0.1814 -0.0056
 6897SOL    HW132153   3.202   1.469  17.044  0.4517  0.7447 -0.4670
 6897SOL    HW232154   3.075   1.410  16.976 -1.5749  0.4020  2.3498
 6898SOL     OW32155   1.618   2.268   3.471  0.7124 -0.1293  0.1386
 6898SOL    HW132156   1.685   2.316   3.520  0.9818  0.7616 -1.1034
 6898SOL    HW232157   1.536   2.294   3.511  0.8310  0.6281 -0.1048
 6899SOL     OW32158   2.833   2.970   5.066 -0.0298 -0.8197  0.3358
 6899SOL    HW132159   2.919   2.928   5.071 -0.4299 -1.7788 -0.9562
 6899SOL    HW232160   2.834   3.031   4.993  0.3668 -1.7745 -0.4632
 6900SOL     OW32161   1.790   3.900   3.507 -0.0394  0.0855  0.6960
 6900SOL    HW132162   1.808   3.842   3.581 -0.5279  0.1471  0.8710
 6900SOL    HW232163   1.839   3.853   3.441 -0.0552  0.6340  0.2966
 6901SOL     OW32164   1.080   2.314   6.223 -0.4154  0.5759 -0.4317
 6901SOL    HW132165   1.032   2.286   6.301  0.2420  1.5539  0.3274
 6901SOL    HW232166   1.120   2.396   6.253  0.4429  0.5257 -1.4409
 6902SOL     OW32167   2.984   1.680   3.349 -0.0280  0.0259  0.2064
 6902SOL    HW132168   3.044   1.731   3.295 -0.0069  0.4518  0.6302
 6902SOL    HW232169   2.958   1.746   3.413 -0.6895 -0.3679  0.3351
 6903SOL     OW32170   4.139   0.682   3.484  0.2950  0.2962  0.0242
 6903SOL    HW132171   4.217   0.729   3.456  0.5278 -0.7724 -1.1094
 6903SOL    HW232172   4.155   0.594   3.449  2.9780  1.0724 -0.6776
 6904SOL     OW32173   1.817   4.553   4.551 -0.2286 -0.0395 -0.7088
 6904SOL    HW132174   1.769   4.582   4.474  0.2769  1.8919 -0.2823
 6904SOL    HW232175   1.893   4.610   4.560 -0.7788  0.9177 -2.1438
 6905SOL     OW32176   4.186   3.259   2.277  0.6370 -0.0432  0.2700
 6905SOL    HW132177   4.124   3.252   2.204  0.3908 -1.8912  0.6693
 6905SOL    HW232178   4.266   3.224   2.237  1.5057 -0.1694  2.0940
 6906SOL     OW32179   4.106   3.984   8.361  0.6318 -0.2295 -0.2562
 6906SOL    HW132180   4.200   3.986   8.379  0.7039 -0.9883 -0.5814
 6906SOL    HW232181   4.077   4.071   8.391  0.6646 -0.6569  0.9985
 6907SOL     OW32182   3.701   1.513   3.793  0.2172  0.2251  0.0409
 6907SOL    HW132183   3.791   1.484   3.777  1.3950  3.3449  0.8484
 6907SOL    HW232184   3.683   1.557   3.710  0.9384 -1.3402 -0.9429
 6908SOL     OW32185   3.885   1.298   8.110 -0.4310  0.1716  0.1063
 6908SOL    HW132186   3.965   1.282   8.060 -1.0425  1.7400 -1.3757
 6908SOL    HW232187   3.842   1.214   8.091 -1.9476  0.4540  2.3131
 6909SOL     OW32188   1.019   2.393   9.682 -0.1228  0.3226 -0.2315
 6909SOL    HW132189   0.982   2.428   9.762  0.4605  0.1104  0.1353
 6909SOL    HW232190   0.952   2.413   9.617 -0.4698 -1.1852 -0.3558
 6910SOL     OW32191   1.708   1.365   1.810 -0.0658 -0.1431  0.1434
 6910SOL    HW132192   1.764   1.372   1.888 -0.0204  2.2751 -0.0892
 6910SOL    HW232193   1.636   1.316   1.849  1.0865 -1.1371  1.0300
 6911SOL     OW32194   3.265   2.840   4.339  0.0650 -0.7264 -0.2338
 6911SOL    HW132195   3.348   2.836   4.290 -1.7342 -1.2568 -3.2756
 6911SOL    HW232196   3.206   2.841   4.264 -0.3107  0.1319  0.0833
 6912SOL     OW32197   1.084   0.166  15.109  0.8425 -0.3375  0.0323
 6912SOL    HW132198   1.006   0.112  15.095  1.2469 -0.4068 -1.9258
 6912SOL    HW232199   1.061   0.242  15.056 -1.8937 -1.8442 -0.9582
 6913SOL     OW32200   2.725   4.614   8.595  0.0429 -0.0563  0.2206
 6913SOL    HW132201   2.784   4.676   8.637  0.1761  2.1312 -3.2249
 6913SOL    HW232202   2.747   4.629   8.504 -2.4893  1.4117 -0.1757
 6914SOL     OW32203   3.499   0.743   6.294  0.4255 -0.6296 -0.5394
 6914SOL    HW132204   3.516   0.798   6.370  1.1452 -1.5132 -0.0642
 6914SOL    HW232205   3.405   0.729   6.305  0.3629  0.0184 -0.2750
 6915SOL     OW32206   1.269   2.800  15.936  0.2623  0.4447 -0.3171
 6915SOL    HW132207   1.293   2.883  15.894  2.2930  0.8060  1.5788
 6915SOL    HW232208   1.301   2.734  15.874 -0.0670  0.2250 -0.2491
 6916SOL     OW32209   0.933   2.222   2.515 -0.1051  0.7631  0.5231
 6916SOL    HW132210   1.000   2.240   2.449  0.3702 -0.8914  0.5657
 6916SOL    HW232211   0.968   2.270   2.591  2.3360 -2.8658  1.6712
 6917SOL     OW32212   0.044   4.239   8.488  0.5474  0.7188  0.0006
 6917SOL    HW132213   0.107   4.291   8.538 -0.1141  0.7828  0.7749
 6917SOL    HW232214   0.054   4.149   8.521  1.8181  1.2746  1.1525
 6918SOL     OW32215   3.626   3.854   7.734  0.6974 -0.0057  0.5988
 6918SOL    HW132216   3.560   3.840   7.666  0.1211 -0.2365  1.2077
 6918SOL    HW232217   3.581   3.915   7.792  0.2192  0.9463 -0.7710
 6919SOL     OW32218   2.745   2.351  15.590 -0.2732 -0.3138 -0.4851
 6919SOL    HW132219   2.718   2.396  15.510 -1.3043 -0.0889 -0.0090
 6919SOL    HW232220   2.675   2.286  15.581  0.9383 -1.5807 -0.7454
 6920SOL     OW32221   2.595   2.635   4.330 -0.4838 -0.0829  0.7344
 6920SOL    HW132222   2.552   2.551   4.349  2.7026 -1.8521  0.1967
 6920SOL    HW232223   2.666   2.635   4.394  0.8981  0.7054 -0.7998
 6921SOL     OW32224   2.690   1.040  14.343 -0.0743 -0.1561  0.1535
 6921SOL    HW132225   2.615   1.077  14.295 -0.3486 -0.6040  0.2364
 6921SOL    HW232226   2.758   1.103  14.321 -0.5388  0.4987  0.5891
 6922SOL     OW32227   2.105   1.569  10.050 -0.2965  0.5289 -0.2522
 6922SOL    HW132228   2.123   1.518   9.971  2.1276  0.5423  0.2846
 6922SOL    HW232229   2.140   1.654  10.025 -0.9571  0.4426 -1.4561
 6923SOL     OW32230   1.265   1.489  12.273 -0.2832  0.3738  0.0701
 6923SOL    HW132231   1.303   1.549  12.208  0.1687  0.4609  0.4130
 6923SOL    HW232232   1.273   1.543  12.351 -0.7859  0.0443  0.3443
 6924SOL     OW32233   4.062   3.405   7.294 -0.2880  0.0807  0.0558
 6924SOL    HW132234   4.120   3.330   7.282  1.1634  1.2989 -0.5719
 6924SOL    HW232235   4.038   3.380   7.384  1.7832 -1.3470  0.2083
 6925SOL     OW32236   0.203   3.918   8.073 -0.0984 -0.3036 -0.4829
 6925SOL    HW132237   0.262   3.975   8.122  1.3126 -0.9816 -1.3794
 6925SOL    HW232238   0.162   3.979   8.012  0.9183  0.9613  0.0898
 6926SOL     OW32239   4.699   1.059  10.464  0.5175 -0.7365 -0.2349
 6926SOL    HW132240   4.616   1.021  10.491  0.8633  0.1951  2.2073
 6926SOL    HW232241   0.006   0.987  10.409 -4.3909 -0.3596 -3.2449
 6927SOL     OW32242   3.984   3.870   7.185  0.3281 -0.0417  0.3469
 6927SOL    HW132243   4.064   3.916   7.157 -0.0291  1.0950  1.1481
 6927SOL    HW232244   4.010   3.778   7.184  0.7996  0.1335 -2.2079
 6928SOL     OW32245   4.446   0.999   4.710 -0.0912 -0.4108 -0.3046
 6928SOL    HW132246   4.365   0.948   4.707 -0.8798  0.8168  0.2400
 6928SOL    HW232247   4.406   1.083   4.730 -2.9978 -1.3057 -2.4068
 6929SOL     OW32248   2.458   0.060   4.399  0.1608 -0.2086  0.5153
 6929SOL    HW132249   2.434   0.004   4.473 -2.2649 -0.7417 -0.6947
 6929SOL    HW232250   2.393   0.047   4.331  2.0450  2.1571 -1.7215
 6930SOL     OW32251   0.418   0.379  17.382  0.0685  0.1722  0.0180
 6930SOL    HW132252   0.489   0.440  17.398  0.6972 -0.4363 -0.4486
 6930SOL    HW232253   0.409   0.363  17.288 -1.6539 -3.4943  0.7808
 6931SOL     OW32254   0.268   2.863   1.332 -0.2268 -0.7287 -0.2516
 6931SOL    HW132255   0.224   2.870   1.248  0.2466  1.1478 -0.3456
 6931SOL    HW232256   0.351   2.823   1.309 -1.0208 -2.0602 -0.7943
 6932SOL     OW32257   4.720   3.377   4.745 -0.0691 -0.3445 -0.3240
 6932SOL    HW132258   0.053   3.436   4.695  1.7379 -0.7806  1.1392
 6932SOL    HW232259   4.632   3.411   4.732  0.1439  0.0418 -0.7460
 6933SOL     OW32260   2.031   2.043   5.112 -0.3184  0.1162  0.1047
 6933SOL    HW132261   1.999   2.114   5.056 -0.5235  0.1772  0.2964
 6933SOL    HW232262   1.983   1.978   5.061 -0.8709  0.4862  0.1497
 6934SOL     OW32263   1.960   3.307   4.544  0.0558  0.0637 -0.1442
 6934SOL    HW132264   1.910   3.387   4.556 -0.3954 -0.2974  0.3557
 6934SOL    HW232265   2.042   3.346   4.513  1.1656 -0.3000  2.3490
 6935SOL     OW32266   4.648   4.145  10.263 -0.2426  0.0034  0.1752
 6935SOL    HW132267   4.695   4.080  10.212 -1.5205 -0.9005  0.1464
 6935SOL    HW232268   4.711   4.139  10.335 -1.1672  0.4002  1.0251
 6936SOL     OW32269   2.036   3.824  11.906 -0.3382  0.1838  0.6745
 6936SOL    HW132270   2.067   3.851  11.820 -0.3266  1.7057  1.1464
 6936SOL    HW232271   1.986   3.894  11.948 -0.6627 -1.0824  2.3875
 6937SOL     OW32272   0.549   2.500   7.191  0.7016  0.1078  0.0851
 6937SOL    HW132273   0.566   2.594   7.197 -0.6060  0.4222 -1.1206
 6937SOL    HW232274   0.500   2.489   7.109 -1.8371  2.4128  1.2507
 6938SOL     OW32275   0.154   3.928   3.333  0.3072 -0.1721 -0.8575
 6938SOL    HW132276   0.222   3.880   3.380 -0.5650  0.0466  0.6375
 6938SOL    HW232277   0.179   3.909   3.242 -0.0040  0.0371 -0.9860
 6939SOL     OW32278   2.802   2.750  15.553  0.0051 -0.2069 -0.3771
 6939SOL    HW132279   2.836   2.790  15.473  0.4940  0.1451  0.0104
 6939SOL    HW232280   2.824   2.660  15.530 -2.2830 -0.4754 -1.4993
 6940SOL     OW32281   1.016   0.374   0.125 -0.4216  0.0956  0.0846
 6940SOL    HW132282   0.971   0.449   0.164 -0.2580 -0.8257  2.0300
 6940SOL    HW232283   1.013   0.313   0.199 -0.1969  1.5701  1.3062
 6941SOL     OW32284   4.077   1.224   0.638  0.8052 -0.2624 -0.0710
 6941SOL    HW132285   4.028   1.143   0.625 -0.3409  0.7796 -2.2223
 6941SOL    HW232286   4.155   1.197   0.686  1.9156  1.2921 -1.0006
 6942SOL     OW32287   2.031   0.294  12.509  0.2888 -0.1771  0.4867
 6942SOL    HW132288   2.065   0.383  12.517  0.5703 -0.0403 -2.1740
 6942SOL    HW232289   2.048   0.288  12.415 -0.1160 -0.6390  0.4431
 6943SOL     OW32290   2.623   0.997   4.314  0.5784 -0.2969 -0.1435
 6943SOL    HW132291   2.584   0.989   4.227  0.2538 -1.7310  0.1413
 6943SOL    HW232292   2.550   1.030   4.365  1.2781  0.0554  0.6358
 6944SOL     OW32293   2.165   3.361   8.965 -0.1048 -0.0750  0.1399
 6944SOL    HW132294   2.072   3.340   8.962  0.1622 -1.5029  2.4205
 6944SOL    HW232295   2.208   3.286   9.006 -0.9180 -0.6823 -0.1426
 6945SOL     OW32296   1.822   4.418  10.554 -0.3803  0.3999  0.3300
 6945SOL    HW132297   1.751   4.446  10.496 -0.5935  1.8949  1.3230
 6945SOL    HW232298   1.889   4.486  10.552 -1.7476  1.7237  0.1880
 6946SOL     OW32299   0.789   4.140  17.258 -0.2290 -0.2458  0.1911
 6946SOL    HW132300   0.843   4.218  17.244 -0.9407  0.3442  0.7100
 6946SOL    HW232301   0.701   4.167  17.233  0.5083  0.5597 -1.5058
 6947SOL     OW32302   1.252   0.080  12.632  0.2808 -0.3330 -0.4392
 6947SOL    HW132303   1.245   0.033  12.550  0.3407 -0.9430 -0.0927
 6947SOL    HW232304   1.344   0.108  12.630  0.3442 -0.2666  2.6658
 6948SOL     OW32305   4.001   4.341   2.541  0.2959  0.3234 -0.5464
 6948SOL    HW132306   3.954   4.367   2.462  1.8777  0.2726 -1.5188
 6948SOL    HW232307   3.957   4.396   2.606  1.7729  0.4884  0.3079
 6949SOL     OW32308   3.203   4.547   1.882 -0.2555 -0.0096 -0.0227
 6949SOL    HW132309   3.226   4.466   1.836  1.6769  1.6518 -1.9941
 6949SOL    HW232310   3.169   4.502   1.960 -1.5379 -1.2101 -1.2866
 6950SOL     OW32311   4.064   3.328   8.480 -0.1658 -0.2179  0.0487
 6950SOL    HW132312   4.088   3.299   8.392 -0.3216  0.5731 -0.2482
 6950SOL    HW232313   4.095   3.419   8.483  0.4592 -0.5367  2.9078
 6951SOL     OW32314   2.223   3.245   3.158 -1.2195  0.0249  0.1848
 6951SOL    HW132315   2.202   3.232   3.250 -1.8030  1.0289  0.1990
 6951SOL    HW232316   2.140   3.217   3.120 -1.2238  1.7912 -1.1406
 6952SOL     OW32317   0.074   1.152   7.115  0.5190 -0.0670  0.0065
 6952SOL    HW132318   0.139   1.109   7.170 -0.0719  0.4295  1.0926
 6952SOL    HW232319   0.116   1.218   7.060 -0.0029  1.7640  1.8132
 6953SOL     OW32320   3.098   3.405   5.979 -0.1651  0.1543 -0.1316
 6953SOL    HW132321   3.168   3.399   6.044 -1.3861  2.1854  1.3242
 6953SOL    HW232322   3.036   3.417   6.051  0.5517 -3.6249  1.1602
 6954SOL     OW32323   1.599   4.348   3.811  0.3127 -0.1830 -0.9344
 6954SOL    HW132324   1.563   4.434   3.833  1.4329  0.0024  0.1947
 6954SOL    HW232325   1.556   4.323   3.729 -0.9816  0.3886 -0.4233
 6955SOL     OW32326   0.491   2.425   8.694  0.2769  0.3882  0.1127
 6955SOL    HW132327   0.477   2.424   8.599 -0.3515 -0.6498  0.2147
 6955SOL    HW232328   0.494   2.520   8.702 -0.7189  0.4962 -0.7746
 6956SOL     OW32329   3.783   4.043   3.240 -0.2807  0.0045  0.1394
 6956SOL    HW132330   3.827   3.967   3.276  1.7064  0.1082 -2.1607
 6956SOL    HW232331   3.848   4.114   3.240  0.2082 -0.4464  0.3327
 6957SOL     OW32332   4.635   4.049   8.680  0.3939  0.0322  0.4772
 6957SOL    HW132333   4.627   3.982   8.612  0.4031  0.5844 -0.0665
 6957SOL    HW232334   4.704   4.008   8.732  0.6701  0.4149  0.4122
 6958SOL     OW32335   1.507   0.978   1.852 -0.0412  0.5283  0.4170
 6958SOL    HW132336   1.492   1.035   1.927  0.9566 -1.6498  2.2821
 6958SOL    HW232337   1.415   0.954   1.838 -0.2701  0.5155  1.8994
 6959SOL     OW32338   1.169   2.898  12.049  0.0688  0.3158 -0.5215
 6959SOL    HW132339   1.088   2.935  12.082  1.8294  2.2928  1.5678
 6959SOL    HW232340   1.213   2.896  12.134  1.9020  1.2734 -1.4414
 6960SOL     OW32341   3.925   1.142   5.353 -0.2282 -0.0718 -0.1253
 6960SOL    HW132342   3.998   1.177   5.404 -2.0048  0.7147  1.8839
 6960SOL    HW232343   3.918   1.050   5.379 -0.2929  0.8309  3.1058
 6961SOL     OW32344   0.099   2.352   3.746  0.0982 -0.2103  0.3019
 6961SOL    HW132345   0.183   2.308   3.757  0.3984  0.5757  1.1370
 6961SOL    HW232346   0.067   2.298   3.674  3.9846  1.1986 -2.4230
 6962SOL     OW32347   4.121   1.148   4.147  0.0511 -0.1006 -0.2306
 6962SOL    HW132348   4.130   1.076   4.209 -1.3550  0.3040  0.4467
 6962SOL    HW232349   4.160   1.111   4.068  1.1326  0.4533  0.0476
 6963SOL     OW32350   4.158   4.016  16.214 -0.4134  0.0420  0.1152
 6963SOL    HW132351   4.196   3.984  16.132 -0.1713  0.8049 -0.0714
 6963SOL    HW232352   4.235   4.066  16.241 -0.0085  0.3506 -1.6312
 6964SOL     OW32353   1.790   2.001   3.336 -0.4440  0.3268  0.5215
 6964SOL    HW132354   1.858   2.045   3.284 -1.9795  2.8110  0.6216
 6964SOL    HW232355   1.793   1.916   3.291 -2.2963  0.1539  0.7250
 6965SOL     OW32356   3.817   1.999  16.758 -0.5620  0.2827  0.2065
 6965SOL    HW132357   3.884   2.058  16.794 -2.7273  2.2413  1.0319
 6965SOL    HW232358   3.738   2.046  16.786 -1.0404  0.1493 -0.9397
 6966SOL     OW32359   4.260   0.401   5.961 -0.4578  0.0881  0.0112
 6966SOL    HW132360   4.244   0.391   5.867 -1.7353 -1.1477  0.3569
 6966SOL    HW232361   4.355   0.414   5.960 -0.7461  2.1156  0.4164
 6967SOL     OW32362   0.635   0.165   4.124 -0.4786  0.5594 -0.0274
 6967SOL    HW132363   0.629   0.215   4.042 -0.1348  0.4828 -0.0977
 6967SOL    HW232364   0.556   0.195   4.169 -0.2562  1.4373 -0.2074
 6968SOL     OW32365   2.500   3.057  12.003 -0.0488  0.5500  0.3469
 6968SOL    HW132366   2.456   3.094  11.927 -1.8210  0.4204  1.3054
 6968SOL    HW232367   2.431   3.006  12.045  3.0308 -1.2427  3.3432
 6969SOL     OW32368   1.049   4.326   7.172  0.0775 -0.1617 -0.1723
 6969SOL    HW132369   1.136   4.348   7.139  1.4016 -0.8821  2.7870
 6969SOL    HW232370   1.082   4.321   7.262  0.7435  1.3000 -0.3308
 6970SOL     OW32371   2.560   2.432   9.058  0.4623 -0.2107 -0.4754
 6970SOL    HW132372   2.546   2.341   9.031  3.8579  0.1978 -3.5917
 6970SOL    HW232373   2.543   2.424   9.152 -1.1752 -0.7385 -0.8045
 6971SOL     OW32374   3.684   3.259   2.286 -0.0328  0.4127 -0.1974
 6971SOL    HW132375   3.660   3.316   2.213  2.7797  0.8203 -0.7932
 6971SOL    HW232376   3.615   3.197   2.262  0.2880  0.4767 -1.2643
 6972SOL     OW32377   3.710   1.215   7.633 -0.0663  0.1501  0.2216
 6972SOL    HW132378   3.724   1.281   7.701 -2.2135  0.8178  0.0201
 6972SOL    HW232379   3.629   1.179   7.669 -0.4707  0.4181 -0.4201
 6973SOL     OW32380   1.417   0.096   3.112  0.2632  0.2559 -0.2502
 6973SOL    HW132381   1.363   0.046   3.174  1.3597  1.1043  1.3906
 6973SOL    HW232382   1.374   0.073   3.029 -2.5855  0.1242  1.2528
 6974SOL     OW32383   0.224   4.442   6.005  0.4161  0.0641 -0.7909
 6974SOL    HW132384   0.175   4.371   5.962  1.7507 -0.6788 -1.0929
 6974SOL    HW232385   0.169   4.458   6.081  0.3290 -2.0490 -0.4078
 6975SOL     OW32386   2.976   1.430   9.034 -0.0011 -0.4157 -0.3980
 6975SOL    HW132387   2.890   1.389   9.035 -0.0988 -0.2592 -2.0054
 6975SOL    HW232388   2.956   1.520   9.060  1.1215 -0.1450 -0.4783
 6976SOL     OW32389   4.516   4.421  17.571  0.2736 -0.6920 -0.5701
 6976SOL    HW132390   4.563   4.501  17.548 -1.0314  0.5948  1.3379
 6976SOL    HW232391   4.585   4.354  17.562  0.9089 -0.3643  2.0003
 6977SOL     OW32392   1.112   1.144   5.032  0.1505 -0.1566  0.6665
 6977SOL    HW132393   1.165   1.118   4.957 -0.6876  0.4524 -0.1310
 6977SOL    HW232394   1.159   1.225   5.055  0.6019 -0.0295 -0.7381
 6978SOL     OW32395   4.056   3.483   8.138 -0.2296  0.3055  0.1043
 6978SOL    HW132396   4.151   3.488   8.130  0.2706 -2.1544  4.3160
 6978SOL    HW232397   4.043   3.573   8.169 -0.3299 -1.0494  4.0152
 6979SOL     OW32398   2.376   1.622   7.426 -0.1131  0.0125 -0.3340
 6979SOL    HW132399   2.395   1.646   7.517 -1.9425  0.5837 -0.0994
 6979SOL    HW232400   2.434   1.681   7.379  0.0247 -0.9846 -1.4126
 6980SOL     OW32401   3.863   0.391   5.748  0.2034  0.0523 -0.1053
 6980SOL    HW132402   3.925   0.333   5.703 -1.0103  0.1293 -1.8874
 6980SOL    HW232403   3.787   0.334   5.756  1.9770 -2.1684  0.8428
 6981SOL     OW32404   0.763   2.375   4.826 -0.2957  0.2292 -0.2024
 6981SOL    HW132405   0.856   2.359   4.845 -0.1633  0.7735 -0.3984
 6981SOL    HW232406   0.749   2.469   4.814 -0.5738 -0.0298 -1.8724
 6982SOL     OW32407   2.512   0.766   2.888  0.2339 -0.3503 -0.1060
 6982SOL    HW132408   2.469   0.814   2.960 -1.0912 -0.5283 -0.7712
 6982SOL    HW232409   2.522   0.682   2.933 -1.9507  0.0184  1.1014
 6983SOL     OW32410   1.202   4.573   3.703  0.7663  0.7130  0.0217
 6983SOL    HW132411   1.224   4.529   3.785 -0.6193  0.7068  0.3874
 6983SOL    HW232412   1.220   4.501   3.643  1.2456  1.9211 -1.2850
 6984SOL     OW32413   1.976   2.731   5.364  0.5322  0.3935  0.0744
 6984SOL    HW132414   1.967   2.646   5.407  1.9748 -1.0431 -2.4478
 6984SOL    HW232415   2.071   2.738   5.353  0.5144  0.2109 -0.1782
 6985SOL     OW32416   4.585   1.593  11.263 -0.1252  0.2743 -0.3327
 6985SOL    HW132417   4.584   1.573  11.357 -0.1215 -1.5970 -0.7269
 6985SOL    HW232418   4.678   1.579  11.242  0.4333 -0.4086  2.4855
 6986SOL     OW32419   2.299   1.502   2.751  0.2255 -0.0702  0.0558
 6986SOL    HW132420   2.251   1.545   2.680 -1.7278 -1.1890  0.7213
 6986SOL    HW232421   2.353   1.444   2.698  1.1872  0.3733  0.5450
 6987SOL     OW32422   1.953   0.366   3.256  0.3974  0.4041 -0.2466
 6987SOL    HW132423   2.015   0.419   3.206 -0.0086  1.4831  0.3997
 6987SOL    HW232424   2.009   0.302   3.300  1.4531  1.7515  0.3532
 6988SOL     OW32425   3.238   4.093   3.633 -0.6119  0.2705 -0.2559
 6988SOL    HW132426   3.325   4.087   3.673 -1.3233  0.7143  1.3572
 6988SOL    HW232427   3.240   4.010   3.585 -1.5708 -2.1014  3.8284
 6989SOL     OW32428   2.266   1.204   0.125  0.0059  0.2038 -0.1735
 6989SOL    HW132429   2.253   1.181   0.217 -1.0714 -1.9666 -0.8828
 6989SOL    HW232430   2.285   1.118   0.088  2.4156  0.8998 -0.5464
 6990SOL     OW32431   3.981   0.205   1.172 -0.2201  0.3087  0.4578
 6990SOL    HW132432   3.978   0.109   1.180 -0.9617  0.3079  0.1786
 6990SOL    HW232433   4.072   0.218   1.201  0.5110 -0.1498 -1.6084
 6991SOL     OW32434   1.720   3.165  12.530  0.2698  0.2698 -0.1007
 6991SOL    HW132435   1.761   3.251  12.530 -0.5645  0.6652  0.1913
 6991SOL    HW232436   1.730   3.135  12.440  1.2402  2.9083 -0.8390
 6992SOL     OW32437   3.038   4.606   8.856  0.1508 -0.0473 -0.4472
 6992SOL    HW132438   3.108   4.666   8.881 -0.3479  1.2339 -2.0888
 6992SOL    HW232439   2.975   4.664   8.813 -2.0726 -1.2936  1.1186
 6993SOL     OW32440   4.669   1.602  12.118  0.4081 -0.4834  0.4090
 6993SOL    HW132441   4.593   1.549  12.095  1.3167 -1.0911 -1.2650
 6993SOL    HW232442   4.631   1.674  12.168  1.3269  0.0781  0.3151
 6994SOL     OW32443   3.499   4.358  14.216 -0.0115  0.1676 -0.2425
 6994SOL    HW132444   3.550   4.282  14.188  2.5002  1.2519  1.3648
 6994SOL    HW232445   3.485   4.344  14.310  0.3860  1.4288  0.0079
 6995SOL     OW32446   2.965   1.962   6.775  0.0576 -0.0000 -0.4205
 6995SOL    HW132447   2.909   2.039   6.764  0.4429  0.4905  0.9997
 6995SOL    HW232448   3.009   1.992   6.855  0.4911 -0.1991 -0.5866
 6996SOL     OW32449   0.636   4.564   3.789 -0.0768 -0.5924  0.2586
 6996SOL    HW132450   0.686   4.599   3.716 -1.4736 -0.9103 -0.8389
 6996SOL    HW232451   0.637   4.638   3.850 -0.4875 -0.0204 -0.4370
 6997SOL     OW32452   4.532   2.830   5.615 -0.2712  0.1007  0.8714
 6997SOL    HW132453   4.543   2.828   5.710  1.9324  3.2779  0.6999
 6997SOL    HW232454   4.492   2.914   5.593  0.0967  1.3902  5.1083
 6998SOL     OW32455   4.140   0.831  12.401 -0.3271  0.6894  0.4991
 6998SOL    HW132456   4.058   0.878  12.419 -1.1515 -0.8161  0.6922
 6998SOL    HW232457   4.109   0.741  12.395 -0.6095  0.9538 -1.9844
 6999SOL     OW32458   1.140   0.693   4.007 -0.5763 -0.1364  0.0926
 6999SOL    HW132459   1.151   0.601   3.983 -1.4245 -0.6487  1.5935
 6999SOL    HW232460   1.234   0.708   4.000 -0.5370 -0.5936 -0.3260
 7000SOL     OW32461   3.979   0.047   9.786  0.0641  0.3129 -0.1492
 7000SOL    HW132462   4.040   0.105   9.739 -2.0359  1.9287 -0.8644
 7000SOL    HW232463   4.027   4.687   9.791  0.1846  0.4018  0.1586
 7001SOL     OW32464   2.371   4.118   9.922  0.5646  0.3898 -0.0528
 7001SOL    HW132465   2.389   4.105  10.016 -0.5611  0.5359  0.1747
 7001SOL    HW232466   2.283   4.153   9.934  0.0317 -0.4727 -1.4931
 7002SOL     OW32467   1.695   2.887   6.960  0.1985 -0.3390  0.0247
 7002SOL    HW132468   1.732   2.848   6.880 -0.0851 -0.3996 -0.0777
 7002SOL    HW232469   1.676   2.975   6.929 -2.4010  0.1949  3.2340
 7003SOL     OW32470   0.243   0.289   3.717 -0.0657  0.1094  0.0364
 7003SOL    HW132471   0.337   0.305   3.710  0.2064 -1.2345  0.5517
 7003SOL    HW232472   0.242   0.194   3.726  0.2485  0.0463 -0.5299
 7004SOL     OW32473   3.236   0.704   4.249  0.2047 -0.2153  0.1715
 7004SOL    HW132474   3.294   0.780   4.246  0.3340 -0.4042 -2.2140
 7004SOL    HW232475   3.265   0.658   4.170  0.9963 -1.7055  1.3424
 7005SOL     OW32476   0.477   2.859   8.122 -0.5522  0.6384 -0.2769
 7005SOL    HW132477   0.554   2.820   8.082 -0.5753  0.3741 -0.0626
 7005SOL    HW232478   0.415   2.787   8.131 -1.6317  1.5359 -0.4364
 7006SOL     OW32479   3.486   2.784   8.691  0.3101  0.0528 -0.1518
 7006SOL    HW132480   3.575   2.765   8.722  0.5711  1.8249  0.1408
 7006SOL    HW232481   3.465   2.865   8.737  0.2038 -0.2568  0.3440
 7007SOL     OW32482   1.848   1.689  14.315  0.0803  0.5572  0.4394
 7007SOL    HW132483   1.793   1.736  14.252 -0.5076 -0.6914  0.0188
 7007SOL    HW232484   1.789   1.690  14.391  0.6273 -0.5446  0.8776
 7008SOL     OW32485   0.908   1.051  17.364  0.5528 -0.0352  0.3628
 7008SOL    HW132486   0.991   1.095  17.346 -0.0916  1.8645  2.0246
 7008SOL    HW232487   0.884   1.042  17.271 -0.6900  3.1308  0.3654
 7009SOL     OW32488   0.069   3.851   8.800 -0.1973  0.0228 -0.4751
 7009SOL    HW132489   4.710   3.802   8.817  0.0794  0.1976  1.3553
 7009SOL    HW232490   0.127   3.795   8.852 -0.7500 -2.6356 -2.7075
 7010SOL     OW32491   4.337   3.139   5.222  0.8860 -0.8077 -0.1331
 7010SOL    HW132492   4.306   3.198   5.291  3.5931 -0.5183  0.8408
 7010SOL    HW232493   4.260   3.147   5.166  2.0374 -0.8593 -1.7223
 7011SOL     OW32494   3.628   1.492   5.161  0.1457 -0.3447  0.0109
 7011SOL    HW132495   3.672   1.428   5.106 -1.0740 -1.6257  0.5260
 7011SOL    HW232496   3.684   1.491   5.238  0.5917  3.1817 -0.2843
 7012SOL     OW32497   1.080   1.054   4.580 -0.1486 -1.2284 -0.1170
 7012SOL    HW132498   1.128   1.002   4.646 -0.1691 -1.0459  0.0415
 7012SOL    HW232499   0.994   1.011   4.590 -0.8049  0.0826 -0.1791
 7013SOL     OW32500   1.553   2.891  13.151  0.2083 -0.5314 -0.1371
 7013SOL    HW132501   1.472   2.929  13.117 -0.0898 -1.0666 -0.0166
 7013SOL    HW232502   1.537   2.813  13.203  1.3070 -1.1595 -0.7494
 7014SOL     OW32503   2.048   1.900   8.915 -0.1236 -0.2609  0.1746
 7014SOL    HW132504   1.960   1.912   8.880 -0.2028  0.1386  0.5108
 7014SOL    HW232505   2.104   1.952   8.857 -1.0823 -1.2305 -1.6269
 7015SOL     OW32506   2.299   2.399   2.756  0.4425  0.9206 -0.5764
 7015SOL    HW132507   2.292   2.494   2.767  0.2600  0.5861  2.0634
 7015SOL    HW232508   2.265   2.385   2.667  0.5908 -2.4225 -0.0967
 7016SOL     OW32509   4.699   3.687   0.739 -0.4171  0.5140 -0.1328
 7016SOL    HW132510   4.653   3.766   0.766 -1.3363  0.3236 -1.1274
 7016SOL    HW232511   4.620   3.637   0.717  0.2599 -0.3168 -0.7146
 7017SOL     OW32512   3.583   3.828  15.017 -0.0830  0.1922 -0.3624
 7017SOL    HW132513   3.650   3.845  15.084 -2.1559 -0.4866  1.8682
 7017SOL    HW232514   3.510   3.794  15.067  2.0257 -1.3212  1.6826
 7018SOL     OW32515   0.770   0.116   7.808 -0.0158 -0.1510  0.7600
 7018SOL    HW132516   0.715   0.122   7.730  1.9397 -0.2073 -0.6281
 7018SOL    HW232517   0.782   0.211   7.821  2.5085  0.1185 -3.4525
 7019SOL     OW32518   3.519   3.864   5.558 -0.4929  0.6394  0.0108
 7019SOL    HW132519   3.438   3.866   5.610 -0.0110  1.9035  0.7182
 7019SOL    HW232520   3.503   3.943   5.508 -1.2894 -0.3457 -1.2919
 7020SOL     OW32521   0.737   2.806   5.319 -0.2570  1.1294  0.6427
 7020SOL    HW132522   0.799   2.786   5.389  0.6305  1.0076 -0.1893
 7020SOL    HW232523   0.658   2.796   5.373 -0.5331  1.7651  0.3541
 7021SOL     OW32524   0.008   0.896   9.117 -0.1919  0.0444 -0.5965
 7021SOL    HW132525   4.695   0.808   9.102 -3.3394  1.2354 -0.1916
 7021SOL    HW232526   4.661   0.953   9.084  0.7291  0.0878 -2.4446
 7022SOL     OW32527   2.668   3.246   0.252 -0.0350 -0.5131  0.3203
 7022SOL    HW132528   2.626   3.272   0.170 -0.7611 -0.6316  0.6595
 7022SOL    HW232529   2.728   3.175   0.228 -2.2161 -2.3839  0.3872
 7023SOL     OW32530   3.825   4.451   1.117  0.4180 -0.2107  0.2666
 7023SOL    HW132531   3.801   4.470   1.026 -1.5167 -0.7964  0.6658
 7023SOL    HW232532   3.920   4.460   1.111  0.7266 -3.4943  0.3583
 7024SOL     OW32533   4.196   3.345  14.329  0.1168 -0.0658 -0.2306
 7024SOL    HW132534   4.138   3.270  14.345  1.4246 -1.3100 -1.3103
 7024SOL    HW232535   4.284   3.324  14.299  0.0435  1.8658 -1.7691
 7025SOL     OW32536   1.413   2.278   7.953 -0.3120  0.4310 -0.6721
 7025SOL    HW132537   1.330   2.283   7.999 -1.4942 -0.6089 -2.7015
 7025SOL    HW232538   1.386   2.255   7.864  1.2722  1.4050 -1.4073
 7026SOL     OW32539   1.186   0.348  16.755  0.5531 -0.8030  0.4417
 7026SOL    HW132540   1.175   0.302  16.672 -0.6436  2.1986 -1.0538
 7026SOL    HW232541   1.108   0.319  16.802 -0.2419  0.2978 -0.1802
 7027SOL     OW32542   3.095   0.800  11.258  0.4717 -0.3837  0.0163
 7027SOL    HW132543   3.183   0.815  11.292  0.4068 -0.4790  0.2245
 7027SOL    HW232544   3.090   0.705  11.262  4.5619 -0.6287 -0.6073
 7028SOL     OW32545   0.714   3.729   7.221 -0.1047  0.0782  0.2669
 7028SOL    HW132546   0.732   3.648   7.268 -1.6481 -0.7536 -0.5751
 7028SOL    HW232547   0.737   3.812   7.263  0.9826  0.0473 -0.2680
 7029SOL     OW32548   1.938   4.403  16.091  0.2443  0.3173  0.0401
 7029SOL    HW132549   1.964   4.487  16.053 -1.5349  1.3212  1.0447
 7029SOL    HW232550   1.846   4.397  16.066  0.2055 -1.4526  0.6417
 7030SOL     OW32551   1.235   1.283  17.569  0.0757 -0.4695  0.4185
 7030SOL    HW132552   1.322   1.249  17.551  1.1689  2.6580 -0.1860
 7030SOL    HW232553   1.199   1.296  17.482  0.3384  1.7476  0.6327
 7031SOL     OW32554   1.850   4.411   2.888 -0.8590  0.1150  0.0820
 7031SOL    HW132555   1.858   4.456   2.805  0.2009 -0.3236 -0.0537
 7031SOL    HW232556   1.943   4.408   2.908 -0.8611 -0.8885 -0.0256
 7032SOL     OW32557   0.940   3.014   2.196 -0.0499  0.0108 -0.2798
 7032SOL    HW132558   0.855   3.058   2.197 -0.2336 -0.3824  2.5820
 7032SOL    HW232559   0.947   3.000   2.291 -4.5945  2.3260  0.4141
 7033SOL     OW32560   3.209   2.274  17.288 -0.0222 -0.1157  0.4205
 7033SOL    HW132561   3.276   2.262  17.355 -0.4127 -0.5793  0.7217
 7033SOL    HW232562   3.128   2.274  17.339 -0.4230  0.9936 -0.2183
 7034SOL     OW32563   2.459   3.041  10.096 -0.5235  0.0528 -0.3479
 7034SOL    HW132564   2.383   2.990  10.068 -0.7296  0.3618 -0.3527
 7034SOL    HW232565   2.483   3.071  10.009  0.3171  0.1327 -0.0837
 7035SOL     OW32566   1.408   1.223  11.747  0.6029 -0.2788 -0.1648
 7035SOL    HW132567   1.460   1.165  11.803 -0.0329 -0.1818  0.5318
 7035SOL    HW232568   1.348   1.266  11.808  0.6049 -0.0611 -0.3145
 7036SOL     OW32569   1.410   2.933   9.434 -0.0034 -0.4070 -0.4395
 7036SOL    HW132570   1.497   2.963   9.409 -0.0567 -1.7844 -2.2765
 7036SOL    HW232571   1.383   2.886   9.355  2.2053 -1.4441 -0.5586
 7037SOL     OW32572   1.081   2.805   5.399  0.1412  0.0606 -0.0970
 7037SOL    HW132573   0.997   2.803   5.444  0.1426  2.5460 -0.0099
 7037SOL    HW232574   1.086   2.898   5.380  2.3570  0.1121  0.7337
 7038SOL     OW32575   4.720   1.254   5.520  0.0258 -0.2859 -0.0910
 7038SOL    HW132576   4.708   1.343   5.552 -2.5454 -0.9476  0.7759
 7038SOL    HW232577   0.002   1.207   5.603 -1.6889  1.8114  1.1935
 7039SOL     OW32578   1.495   3.642   8.147  0.1412 -0.1760  0.2453
 7039SOL    HW132579   1.584   3.613   8.128  0.2736 -0.1138  0.7712
 7039SOL    HW232580   1.460   3.578   8.210  0.3659  0.0740  0.6258
 7040SOL     OW32581   1.531   0.812   6.278 -0.0704 -0.1164 -0.6297
 7040SOL    HW132582   1.624   0.804   6.296 -0.2096  2.1232  1.0646
 7040SOL    HW232583   1.525   0.861   6.197 -1.6089  0.0654 -0.4135
 7041SOL     OW32584   1.890   0.919  12.630  0.3629 -0.0461 -0.0223
 7041SOL    HW132585   1.981   0.947  12.640  0.4421 -0.0896 -0.6459
 7041SOL    HW232586   1.881   0.934  12.536 -1.2862 -3.5427 -0.3933
 7042SOL     OW32587   4.705   4.528   2.451  0.2825 -0.2967  0.2711
 7042SOL    HW132588   4.665   4.522   2.365 -1.6753  0.0128  1.1658
 7042SOL    HW232589   0.040   4.603   2.434  1.8261 -1.3543  0.8716
 7043SOL     OW32590   1.745   2.211  17.073 -0.1600 -0.3128  0.4242
 7043SOL    HW132591   1.721   2.126  17.035 -0.0978  0.4450 -1.3149
 7043SOL    HW232592   1.797   2.193  17.151 -1.0260 -3.3441  0.2892
 7044SOL     OW32593   2.492   1.514   5.220 -0.2064 -0.0826 -0.0913
 7044SOL    HW132594   2.585   1.495   5.233 -0.2646 -0.6032 -0.4189
 7044SOL    HW232595   2.482   1.476   5.133  0.0932 -0.2425 -0.0554
 7045SOL     OW32596   3.432   0.640   4.720  0.1728 -0.0981 -0.6316
 7045SOL    HW132597   3.430   0.587   4.640 -1.5032 -0.7028 -0.1851
 7045SOL    HW232598   3.509   0.693   4.699  0.1034  0.6879  1.2013
 7046SOL     OW32599   2.474   2.313   9.326  0.4196  0.0606  0.4116
 7046SOL    HW132600   2.394   2.264   9.309 -0.4519  1.0004  1.8177
 7046SOL    HW232601   2.549   2.256   9.309  1.2445  1.3386 -0.2219
 7047SOL     OW32602   2.234   2.905  15.207 -0.6393 -0.4810  0.6416
 7047SOL    HW132603   2.320   2.899  15.247 -0.5445 -1.7025  0.2442
 7047SOL    HW232604   2.245   2.939  15.118 -1.7344 -2.5365 -0.2758
 7048SOL     OW32605   0.052   0.790  10.735 -0.0500  0.1517 -0.2640
 7048SOL    HW132606   0.101   0.871  10.723  0.1388  0.1815  0.6978
 7048SOL    HW232607   4.702   0.838  10.776  0.4834  0.9550 -0.2817
 7049SOL     OW32608   0.266   0.316   9.068 -0.2995  0.1093 -0.2164
 7049SOL    HW132609   0.294   0.308   9.160 -1.2031  1.0089  0.1298
 7049SOL    HW232610   0.174   0.294   9.081 -0.4529  0.5348 -0.5806
 7050SOL     OW32611   3.004   3.335  16.306 -0.5717  0.1785 -0.3581
 7050SOL    HW132612   3.023   3.363  16.217  1.1222 -2.1518 -0.6904
 7050SOL    HW232613   3.024   3.242  16.310  2.8575  0.9539 -0.1849
 7051SOL     OW32614   0.718   0.382   1.638 -0.4551  0.2064  0.3405
 7051SOL    HW132615   0.654   0.429   1.585  1.2247  1.1211 -0.8975
 7051SOL    HW232616   0.800   0.412   1.599  0.4060 -0.4269  1.6577
 7052SOL     OW32617   2.107   0.568   1.105  0.2933  0.2120 -0.5380
 7052SOL    HW132618   2.196   0.559   1.138  0.0077 -1.9124 -0.3799
 7052SOL    HW232619   2.066   0.482   1.106  1.5799 -0.4154 -1.6169
 7053SOL     OW32620   0.254   0.790   8.474 -0.8503  0.2452 -0.1691
 7053SOL    HW132621   0.159   0.786   8.466 -0.8912  0.4150  0.2320
 7053SOL    HW232622   0.263   0.833   8.560  0.6628 -0.9491  0.2737
 7054SOL     OW32623   3.541   0.112  13.921  0.8897 -0.0903 -0.2007
 7054SOL    HW132624   3.573   0.023  13.906  0.5424  0.0598 -1.7772
 7054SOL    HW232625   3.543   0.114  14.017 -1.1648 -0.8993 -0.1481
 7055SOL     OW32626   3.939   1.640   0.430 -0.0342 -0.3146 -0.0253
 7055SOL    HW132627   4.025   1.679   0.412  0.3196 -0.7823  0.6155
 7055SOL    HW232628   3.957   1.613   0.521  2.6856 -0.9252 -0.7369
 7056SOL     OW32629   2.555   0.526   3.030 -0.3500 -0.4761 -0.5637
 7056SOL    HW132630   2.557   0.435   3.000 -1.2437 -0.4820 -0.6054
 7056SOL    HW232631   2.647   0.554   3.030 -0.2205 -0.8835 -1.4553
 7057SOL     OW32632   2.588   2.835  17.405  0.0087 -0.1547 -0.3044
 7057SOL    HW132633   2.666   2.791  17.371  0.0627 -1.2071  1.1824
 7057SOL    HW232634   2.613   2.905  17.465  0.3631  1.0689 -1.8979
 7058SOL     OW32635   2.261   2.397   6.288  0.3567 -0.4757  0.4215
 7058SOL    HW132636   2.297   2.317   6.248  1.1796  0.1264 -0.0622
 7058SOL    HW232637   2.271   2.451   6.210 -0.4065 -0.7545  0.1329
 7059SOL     OW32638   4.298   1.956   8.470  0.1791 -0.1507 -0.3879
 7059SOL    HW132639   4.274   1.922   8.557 -1.2649 -0.0937 -0.7730
 7059SOL    HW232640   4.392   1.941   8.481  0.2554 -0.5306 -1.5533
 7060SOL     OW32641   3.148   3.391   5.244 -0.5114 -0.4573 -0.2699
 7060SOL    HW132642   3.087   3.338   5.192 -2.3971  1.0978  0.3494
 7060SOL    HW232643   3.093   3.407   5.321  1.2256 -0.0022  0.8631
 7061SOL     OW32644   1.887   4.115   2.464 -0.0139 -0.4135  0.4980
 7061SOL    HW132645   1.894   4.210   2.450  1.9894 -0.8832 -1.5860
 7061SOL    HW232646   1.968   4.094   2.419 -0.5772  2.2539 -1.7542
 7062SOL     OW32647   4.431   0.107   3.927 -0.5929  0.1691 -0.2346
 7062SOL    HW132648   4.472   0.193   3.928  2.4298 -1.3096  2.5276
 7062SOL    HW232649   4.418   0.096   4.021  1.9004 -2.7221 -0.1956
 7063SOL     OW32650   0.950   4.236   9.094 -0.4611 -0.0879 -0.1959
 7063SOL    HW132651   1.038   4.239   9.131 -0.1945  1.1997 -0.9201
 7063SOL    HW232652   0.932   4.329   9.085  0.0203  0.1862  1.8623
 7064SOL     OW32653   0.210   1.427   3.844 -0.4204  0.0320  0.1279
 7064SOL    HW132654   0.239   1.382   3.764 -3.7934 -1.7410 -0.0991
 7064SOL    HW232655   0.149   1.494   3.812 -0.8430 -0.9135 -1.0835
 7065SOL     OW32656   2.515   2.926  15.337  0.2328 -1.2344 -0.2708
 7065SOL    HW132657   2.556   3.002  15.378 -1.7315 -0.6339  0.6075
 7065SOL    HW232658   2.534   2.937  15.244  1.8884  1.0159  0.3488
 7066SOL     OW32659   2.733   0.455   8.689  0.1835  0.0521 -0.2477
 7066SOL    HW132660   2.769   0.538   8.720  1.7920 -0.6620 -0.2050
 7066SOL    HW232661   2.723   0.476   8.596 -0.3456 -3.7371 -1.0289
 7067SOL     OW32662   2.273   3.299  14.536  0.2366  0.3379 -0.0430
 7067SOL    HW132663   2.206   3.304  14.467  0.4204 -1.5123 -0.3529
 7067SOL    HW232664   2.345   3.348  14.496 -1.4105  1.8052 -1.2362
 7068SOL     OW32665   2.364   3.649   3.059  0.2778  0.1707  0.6445
 7068SOL    HW132666   2.309   3.572   3.043  0.3986  0.6776 -2.2140
 7068SOL    HW232667   2.324   3.684   3.139  1.2651 -0.0720  1.2366
 7069SOL     OW32668   2.403   3.948   5.551 -0.1843 -0.0155  0.2809
 7069SOL    HW132669   2.431   3.876   5.608  1.2049  0.1586 -0.1860
 7069SOL    HW232670   2.418   3.911   5.464 -2.5589  0.4966 -0.3530
 7070SOL     OW32671   0.488   1.343  16.896 -0.2018  0.4826  0.4143
 7070SOL    HW132672   0.535   1.269  16.935  1.2545  1.7289  1.0067
 7070SOL    HW232673   0.539   1.418  16.926  1.9461 -1.7067  2.2412
 7071SOL     OW32674   0.960   4.314   3.667 -0.0991  0.7731  0.4971
 7071SOL    HW132675   1.037   4.362   3.637 -0.9697 -0.4615 -3.7852
 7071SOL    HW232676   0.964   4.240   3.606 -1.2086  0.3054  0.9886
 7072SOL     OW32677   4.626   1.743   4.540 -0.0044 -0.4953  0.1042
 7072SOL    HW132678   4.634   1.835   4.566 -1.3855 -0.1568 -0.6966
 7072SOL    HW232679   4.613   1.749   4.446  0.0806  1.6830  0.2148
 7073SOL     OW32680   4.438   4.133  12.210 -0.1467  0.0375 -0.0120
 7073SOL    HW132681   4.406   4.043  12.208  0.9442 -0.4011  2.0632
 7073SOL    HW232682   4.423   4.156  12.302 -3.1770 -0.8956 -0.2797
 7074SOL     OW32683   4.300   1.431  11.359  0.7585 -0.1079  0.2103
 7074SOL    HW132684   4.345   1.378  11.293  0.4504  0.2186 -0.2617
 7074SOL    HW232685   4.377   1.470  11.399  0.5761 -0.1056  0.5575
 7075SOL     OW32686   4.044   0.819   8.787 -0.2322  0.4643  0.5577
 7075SOL    HW132687   3.957   0.779   8.787 -0.5765  1.2016  0.7985
 7075SOL    HW232688   4.034   0.901   8.837  0.6982  0.5723  0.5766
 7076SOL     OW32689   2.808   0.689  12.966  0.0349 -0.2865  0.2424
 7076SOL    HW132690   2.868   0.665  13.037  2.6533  3.3999 -0.7158
 7076SOL    HW232691   2.772   0.604  12.940 -1.5504  0.3674  0.3269
 7077SOL     OW32692   4.049   4.493  10.726  0.3392  0.2922  0.1973
 7077SOL    HW132693   4.103   4.454  10.795 -0.8824 -0.4749  0.7294
 7077SOL    HW232694   4.063   4.587  10.739  0.1756  0.1339  1.4415
 7078SOL     OW32695   4.490   1.680   4.310  0.0092 -0.5356  0.2040
 7078SOL    HW132696   4.429   1.675   4.383 -1.3581  3.6346 -0.6870
 7078SOL    HW232697   4.458   1.624   4.239  0.0028  0.1432 -0.3209
 7079SOL     OW32698   3.180   4.022  14.424 -0.4896 -0.0963 -0.7048
 7079SOL    HW132699   3.276   4.022  14.428 -0.4710  2.6244 -1.0981
 7079SOL    HW232700   3.159   4.021  14.518  0.0157 -1.7513 -0.6088
 7080SOL     OW32701   1.270   3.579   5.749 -0.2950 -0.2777  0.0712
 7080SOL    HW132702   1.242   3.663   5.711  2.2838  0.8230  0.6470
 7080SOL    HW232703   1.325   3.537   5.684 -0.5842 -3.7030  2.0282
 7081SOL     OW32704   3.279   1.599   5.864  0.5448 -0.0184 -0.0980
 7081SOL    HW132705   3.258   1.671   5.805  0.5457 -0.1450 -0.2502
 7081SOL    HW232706   3.353   1.567   5.813  1.6006 -0.3047  1.6146
 7082SOL     OW32707   0.458   3.340   7.141 -0.0418 -0.2924 -0.0212
 7082SOL    HW132708   0.398   3.267   7.126  1.2705 -1.0966 -1.2930
 7082SOL    HW232709   0.538   3.310   7.098 -0.0050 -1.4315  0.8427
 7083SOL     OW32710   4.622   2.718   7.073  0.5054  0.1618  0.5789
 7083SOL    HW132711   4.691   2.694   7.135 -1.7403 -3.4334  1.7176
 7083SOL    HW232712   4.630   2.813   7.064 -0.9145 -0.0206 -2.6061
 7084SOL     OW32713   3.417   2.470   5.777  0.0659  0.0650  0.0727
 7084SOL    HW132714   3.377   2.414   5.710  0.8190  0.8463 -1.0302
 7084SOL    HW232715   3.408   2.556   5.736  0.9221 -1.2526 -2.8908
 7085SOL     OW32716   4.721   2.270   3.993  0.2524  0.2409  0.5311
 7085SOL    HW132717   0.092   2.246   3.998  0.2431 -0.3089 -1.6277
 7085SOL    HW232718   0.011   2.297   3.902  0.1939 -0.2438  0.3769
 7086SOL     OW32719   2.006   3.835   8.864 -0.1994  0.6716 -0.0878
 7086SOL    HW132720   2.020   3.824   8.770  0.6249  1.2148 -0.0337
 7086SOL    HW232721   2.063   3.768   8.902 -0.7788  0.6342  0.7020
 7087SOL     OW32722   2.103   3.415   5.107 -0.0812  0.0524  0.4036
 7087SOL    HW132723   2.013   3.388   5.088 -0.7300  1.2109  1.7618
 7087SOL    HW232724   2.159   3.374   5.042  0.4377 -0.8993  1.4583
 7088SOL     OW32725   1.100   2.887   4.614 -0.0836 -0.3831  0.0062
 7088SOL    HW132726   1.077   2.827   4.543  0.7750  0.5006 -1.0228
 7088SOL    HW232727   1.194   2.886   4.599 -0.2869 -1.4292 -1.1804
 7089SOL     OW32728   4.082   3.445   5.289 -0.2751 -0.0863 -0.3581
 7089SOL    HW132729   4.108   3.537   5.288 -1.5696  0.2708 -1.4246
 7089SOL    HW232730   3.988   3.457   5.277 -0.0306 -0.5187 -2.7570
 7090SOL     OW32731   3.996   2.030   5.053 -0.9291  0.5640  0.9794
 7090SOL    HW132732   3.960   2.105   5.005  0.9697  0.2341 -0.9370
 7090SOL    HW232733   3.980   1.968   4.982 -0.9688 -0.4553  1.8878
 7091SOL     OW32734   3.533   1.643   6.887  0.1541 -0.0830 -0.4167
 7091SOL    HW132735   3.535   1.573   6.953  1.3736 -0.8756 -1.2787
 7091SOL    HW232736   3.627   1.648   6.872 -0.0212  0.0873 -1.4551
 7092SOL     OW32737   1.809   0.842   8.047 -0.1894 -0.5458 -0.6271
 7092SOL    HW132738   1.746   0.771   8.053 -1.5316  0.4396 -3.2963
 7092SOL    HW232739   1.886   0.792   8.075 -0.0725  0.1184  0.2438
 7093SOL     OW32740   2.303   4.167   6.879 -0.1474  0.4885  0.8376
 7093SOL    HW132741   2.293   4.214   6.961  2.0943  1.7621  0.3681
 7093SOL    HW232742   2.224   4.188   6.829 -0.0887 -0.9340  0.1260
 7094SOL     OW32743   0.408   1.840   0.245  0.4402 -0.0944 -0.2386
 7094SOL    HW132744   0.375   1.809   0.329 -1.0553  0.0208 -0.7774
 7094SOL    HW232745   0.440   1.754   0.218 -3.2744 -1.6762  0.4610
 7095SOL     OW32746   0.092   3.732  16.711  0.1538  0.3899 -0.3742
 7095SOL    HW132747   0.106   3.728  16.616 -1.4516  0.6017 -0.6180
 7095SOL    HW232748   0.048   3.650  16.731  1.4889  0.2468  1.9057
 7096SOL     OW32749   3.329   0.032   4.709 -0.1762 -0.0955  0.1762
 7096SOL    HW132750   3.356   0.110   4.661  0.5668  1.5204  3.1744
 7096SOL    HW232751   3.236   0.022   4.688  0.7890 -2.0414 -3.1239
 7097SOL     OW32752   3.720   0.939   9.781 -0.1309  0.8060 -0.1113
 7097SOL    HW132753   3.811   0.944   9.749  0.2707 -0.3587  0.8455
 7097SOL    HW232754   3.672   1.009   9.737  0.6445  0.3438 -1.7273
 7098SOL     OW32755   0.042   1.413  15.221  0.3583 -0.9437 -0.2606
 7098SOL    HW132756   0.027   1.350  15.292 -0.4376 -1.5156 -0.9291
 7098SOL    HW232757   4.674   1.443  15.207  0.8145 -0.1730 -1.5232
 7099SOL     OW32758   1.045   2.545  10.791  1.1458  0.0339  0.4830
 7099SOL    HW132759   1.104   2.480  10.753 -0.7687 -1.4881  0.1337
 7099SOL    HW232760   0.970   2.488  10.806 -1.3139  2.1900 -3.4367
 7100SOL     OW32761   1.987   2.445   7.604 -0.2017  0.3965 -0.0427
 7100SOL    HW132762   2.059   2.419   7.661  2.2122  2.4879 -2.1322
 7100SOL    HW232763   2.028   2.448   7.518 -0.2912  0.3585 -0.0870
 7101SOL     OW32764   2.248   2.752  13.913  0.4612 -0.3119  0.1351
 7101SOL    HW132765   2.243   2.673  13.967  0.8907 -0.5422 -0.1659
 7101SOL    HW232766   2.182   2.808  13.953  0.3372 -0.6471  0.4026
 7102SOL     OW32767   4.299   2.341   2.870 -0.8743  0.7259 -0.2017
 7102SOL    HW132768   4.286   2.272   2.805 -0.9626  0.7018 -0.1592
 7102SOL    HW232769   4.372   2.307   2.920 -1.0265  0.2098 -0.3288
 7103SOL     OW32770   0.404   3.858   3.453  0.2251 -0.5024  0.4431
 7103SOL    HW132771   0.432   3.777   3.411  0.7314 -0.3866  0.5581
 7103SOL    HW232772   0.488   3.875   3.496  0.8308  1.6573 -1.6016
 7104SOL     OW32773   4.369   3.581   7.056 -0.2618 -0.0974 -0.0506
 7104SOL    HW132774   4.369   3.488   7.075  0.8825 -0.4213 -1.6771
 7104SOL    HW232775   4.447   3.610   7.103 -0.3334  2.5671 -1.5403
 7105SOL     OW32776   2.718   4.348   6.508  0.0450  0.0155  0.3563
 7105SOL    HW132777   2.662   4.333   6.585 -1.6712  2.4873 -0.3994
 7105SOL    HW232778   2.810   4.337   6.532  0.3525  3.2395  0.6670
 7106SOL     OW32779   2.166   2.847   3.581 -0.1070 -0.2192 -0.0972
 7106SOL    HW132780   2.168   2.934   3.621  0.5520 -0.6253  0.7553
 7106SOL    HW232781   2.236   2.804   3.630  0.8345 -1.2801 -2.3550
 7107SOL     OW32782   3.265   3.817  17.462  0.2957  0.1223  0.4203
 7107SOL    HW132783   3.328   3.798  17.392 -0.0450 -0.4633  0.2697
 7107SOL    HW232784   3.182   3.836  17.418  1.0625  0.0796 -1.0568
 7108SOL     OW32785   2.351   2.792  12.021  0.0922 -0.0335  0.0646
 7108SOL    HW132786   2.329   2.826  11.934  0.9995 -1.7082 -0.8268
 7108SOL    HW232787   2.268   2.753  12.051  0.5963  0.8312  2.5283
 7109SOL     OW32788   1.009   2.571   7.855 -0.5059 -0.5639  0.3764
 7109SOL    HW132789   1.012   2.616   7.770  1.3189  1.1275  1.3459
 7109SOL    HW232790   1.034   2.485   7.822  1.0347 -0.8167  2.2163
 7110SOL     OW32791   0.488   1.109  13.709 -0.1519 -0.3036  0.0057
 7110SOL    HW132792   0.398   1.141  13.711  0.6449  2.0079 -1.2508
 7110SOL    HW232793   0.534   1.175  13.760  1.7744  0.9270 -3.3138
 7111SOL     OW32794   1.918   1.431  13.655 -0.6521  0.3251 -0.6764
 7111SOL    HW132795   2.007   1.414  13.686 -0.6384  0.4449 -0.6509
 7111SOL    HW232796   1.872   1.374  13.717  0.4190 -2.2231 -2.2286
 7112SOL     OW32797   0.231   0.089   1.542 -0.7736 -0.0821 -0.1834
 7112SOL    HW132798   0.265   0.178   1.546 -0.3489 -0.1084 -3.1830
 7112SOL    HW232799   0.137   0.105   1.533 -0.7323  0.2713  0.0054
 7113SOL     OW32800   0.822   3.861   4.785 -0.0212 -0.1134  0.0245
 7113SOL    HW132801   0.852   3.819   4.704 -1.0901  1.5161 -1.2046
 7113SOL    HW232802   0.772   3.933   4.746  0.6296  0.2071 -0.2131
 7114SOL     OW32803   2.178   3.443  12.948 -0.2690  0.4099 -0.1483
 7114SOL    HW132804   2.159   3.369  13.005  2.4654  1.3822  1.9986
 7114SOL    HW232805   2.092   3.453  12.906 -0.5058 -0.1433  0.2028
 7115SOL     OW32806   0.761   1.163   3.755  0.2999  0.3015 -0.4465
 7115SOL    HW132807   0.688   1.206   3.800 -0.0427 -0.5463 -0.1943
 7115SOL    HW232808   0.712   1.091   3.716  1.8859  0.0708 -2.0361
 7116SOL     OW32809   3.217   1.766   3.641 -0.1071  0.3106 -0.2291
 7116SOL    HW132810   3.136   1.718   3.660 -0.2015  0.0528 -1.2585
 7116SOL    HW232811   3.258   1.739   3.723 -1.9478  0.2661  0.6854
 7117SOL     OW32812   0.205   4.584  12.735 -0.4056  0.2331  0.5378
 7117SOL    HW132813   0.297   4.563  12.749  0.3933  2.8874 -0.8082
 7117SOL    HW232814   0.214   4.679  12.742 -0.6300  0.1513  2.0390
 7118SOL     OW32815   3.256   1.164  17.044  0.2511  0.4928  0.0540
 7118SOL    HW132816   3.343   1.202  17.056 -0.1693  1.9740 -1.6339
 7118SOL    HW232817   3.210   1.181  17.127 -2.2266  0.1076 -1.2362
 7119SOL     OW32818   0.342   3.139  10.162 -0.1710  0.2281  0.3790
 7119SOL    HW132819   0.390   3.057  10.161  0.5587  0.6707 -1.2534
 7119SOL    HW232820   0.260   3.118  10.208  0.1617 -2.2787 -0.1830
 7120SOL     OW32821   2.946   0.234  12.627  0.3100 -0.0175 -0.2123
 7120SOL    HW132822   2.983   0.146  12.632  1.3883  0.4422 -0.2616
 7120SOL    HW232823   3.009   0.279  12.570 -0.7587  2.6265  0.6783
 7121SOL     OW32824   1.743   3.943  17.149  0.6156 -0.0300  0.1987
 7121SOL    HW132825   1.655   3.979  17.157  1.1197  1.2546 -0.0510
 7121SOL    HW232826   1.768   3.990  17.070 -0.7880  0.8585  0.2998
 7122SOL     OW32827   1.515   3.260   5.821  0.6309  0.2257 -0.2487
 7122SOL    HW132828   1.496   3.343   5.778  0.5605  0.7232  0.7372
 7122SOL    HW232829   1.534   3.212   5.741 -1.4654 -1.8560  0.4921
 7123SOL     OW32830   3.644   3.850  15.707 -0.3438  0.5935 -0.6340
 7123SOL    HW132831   3.670   3.875  15.796 -2.9556 -1.1118  0.5952
 7123SOL    HW232832   3.620   3.938  15.677 -2.6023 -0.2743 -1.2985
 7124SOL     OW32833   3.656   1.568   5.948 -0.2147 -0.4032 -0.0056
 7124SOL    HW132834   3.587   1.553   5.884 -0.9579  0.1764  0.6690
 7124SOL    HW232835   3.708   1.488   5.943  0.4009 -0.1763  2.5788
 7125SOL     OW32836   0.695   0.168   3.458  0.6193  0.0190 -0.0533
 7125SOL    HW132837   0.618   0.189   3.511 -1.1863 -0.8363 -2.3180
 7125SOL    HW232838   0.715   0.259   3.436  0.1894 -0.5785 -2.9336
 7126SOL     OW32839   1.891   2.297   8.654 -0.1561  0.1122  0.0945
 7126SOL    HW132840   1.823   2.354   8.617  0.5692 -0.1790 -1.6921
 7126SOL    HW232841   1.856   2.221   8.606  2.6668  0.3695 -2.3523
 7127SOL     OW32842   3.247   1.147   6.360  0.1562  0.0460  0.0946
 7127SOL    HW132843   3.252   1.140   6.265  1.7484  1.7891  0.0364
 7127SOL    HW232844   3.199   1.229   6.372 -1.0929 -0.6023 -0.4766
 7128SOL     OW32845   3.937   0.857   7.326  0.3844  0.0010  0.2285
 7128SOL    HW132846   4.022   0.885   7.293 -0.4619  1.0086 -1.0695
 7128SOL    HW232847   3.888   0.843   7.245 -0.5459 -0.3525  0.8451
 7129SOL     OW32848   3.747   3.500   1.734  0.3456 -0.0811  0.1314
 7129SOL    HW132849   3.673   3.561   1.726  1.0855  0.8479  0.4933
 7129SOL    HW232850   3.732   3.446   1.656  3.1192 -0.1629 -0.3233
 7130SOL     OW32851   3.458   1.363   0.329  0.3903  0.0467 -0.1019
 7130SOL    HW132852   3.533   1.365   0.269  0.6847  0.8571  0.2857
 7130SOL    HW232853   3.489   1.442   0.373 -1.5147  1.0006 -0.4724
 7131SOL     OW32854   1.670   4.323   9.734  0.3104 -0.7823 -0.3312
 7131SOL    HW132855   1.652   4.265   9.807 -2.6362 -0.0036 -0.4430
 7131SOL    HW232856   1.749   4.370   9.759 -0.7907  0.6647  0.4042
 7132SOL     OW32857   0.031   0.134   4.905 -0.2110 -0.2573 -0.4664
 7132SOL    HW132858   0.029   0.230   4.908 -0.6233 -0.1894 -2.6027
 7132SOL    HW232859   4.672   0.106   4.862 -0.7091 -0.0745  0.3695
 7133SOL     OW32860   2.022   1.632   8.078 -0.2039  0.7422 -0.2008
 7133SOL    HW132861   2.033   1.660   8.169 -2.2344  0.1771  0.2290
 7133SOL    HW232862   1.926   1.632   8.076 -0.1712 -0.0523 -2.3311
 7134SOL     OW32863   2.390   0.595   1.520  0.1950 -0.3331  0.2728
 7134SOL    HW132864   2.341   0.638   1.591 -2.8964  0.5901 -2.4294
 7134SOL    HW232865   2.465   0.559   1.567  0.5832 -0.7909 -0.7122
 7135SOL     OW32866   3.068   0.244   3.454 -0.1095  0.0615 -0.2238
 7135SOL    HW132867   3.158   0.274   3.446  0.1453 -0.5853  0.1457
 7135SOL    HW232868   3.023   0.302   3.393 -1.6193  0.8978  1.6899
 7136SOL     OW32869   1.909   3.009  11.169  0.8639  0.0155  0.3439
 7136SOL    HW132870   1.987   3.002  11.114 -1.0478 -1.5709 -2.1989
 7136SOL    HW232871   1.933   3.083  11.224 -0.6143 -0.0147  1.0401
 7137SOL     OW32872   4.450   3.561   0.676  0.7962  0.3669 -0.0242
 7137SOL    HW132873   4.379   3.606   0.632 -0.8745 -0.3947  1.9033
 7137SOL    HW232874   4.426   3.470   0.654  0.2932  0.5075 -0.0552
 7138SOL     OW32875   4.645   2.272   9.142  0.2043  0.3972  0.4591
 7138SOL    HW132876   0.010   2.310   9.130  0.4724  0.0867  1.4121
 7138SOL    HW232877   4.630   2.302   9.232 -1.5454  2.0055 -0.3583
 7139SOL     OW32878   3.923   4.097  16.325  0.0698  0.4172  0.4164
 7139SOL    HW132879   4.002   4.047  16.305 -0.7596 -0.4428 -0.7005
 7139SOL    HW232880   3.950   4.149  16.401  0.2829  1.6337 -0.5084
 7140SOL     OW32881   3.957   0.441   8.221  0.0324  0.0837 -0.2521
 7140SOL    HW132882   3.868   0.417   8.247  1.0223 -2.9571  0.3473
 7140SOL    HW232883   3.992   0.364   8.176  1.3835 -0.0804  1.1093
 7141SOL     OW32884   2.169   2.151   3.732 -0.5397 -0.1433  0.1413
 7141SOL    HW132885   2.089   2.125   3.686 -0.2189  0.6640 -0.8901
 7141SOL    HW232886   2.183   2.242   3.705  1.4614 -0.5605 -0.2162
 7142SOL     OW32887   2.566   0.441  16.274 -0.1719 -0.0809 -0.1342
 7142SOL    HW132888   2.503   0.475  16.210 -1.3976 -0.6112  0.8166
 7142SOL    HW232889   2.596   0.357  16.240 -3.2357 -1.7726  1.3684
 7143SOL     OW32890   4.282   2.385   7.368 -0.1066  0.2485  0.7813
 7143SOL    HW132891   4.207   2.427   7.409  0.0570  2.5712 -1.3034
 7143SOL    HW232892   4.269   2.415   7.278  0.6400  0.2835  0.6875
 7144SOL     OW32893   1.094   4.354  14.554 -0.2913  0.9560  0.3363
 7144SOL    HW132894   1.171   4.321  14.507 -0.3408 -1.0586  1.6577
 7144SOL    HW232895   1.138   4.383  14.634 -0.9411  1.8762  0.3539
 7145SOL     OW32896   4.574   3.994   2.364 -0.7499  0.3826  0.3005
 7145SOL    HW132897   4.667   4.018   2.369 -1.2745  1.9842  2.5004
 7145SOL    HW232898   4.571   3.903   2.334  0.1648  0.4329  0.0455
 7146SOL     OW32899   3.486   2.662   5.416  0.0377  0.1880 -1.0307
 7146SOL    HW132900   3.579   2.667   5.438 -0.3280  0.7349  0.3962
 7146SOL    HW232901   3.482   2.568   5.397 -0.0371 -0.1097  0.4423
 7147SOL     OW32902   3.313   3.207   0.897  0.5338 -0.1199 -0.2016
 7147SOL    HW132903   3.319   3.188   0.804  0.2585  0.9910 -0.4409
 7147SOL    HW232904   3.406   3.206   0.922  0.6603 -1.6279 -0.7519
 7148SOL     OW32905   0.321   0.769   5.083 -0.0355 -0.0552 -0.2123
 7148SOL    HW132906   0.342   0.854   5.122  2.5126 -0.3262 -1.0174
 7148SOL    HW232907   0.387   0.715   5.125  1.6357  1.2080 -1.2399
 7149SOL     OW32908   1.154   0.536   4.904  0.4217 -0.3726 -0.0144
 7149SOL    HW132909   1.118   0.461   4.856 -1.4712 -0.0575  0.9248
 7149SOL    HW232910   1.088   0.560   4.969  1.8577  1.2576  0.8481
 7150SOL     OW32911   3.383   1.073  14.807 -0.4800 -0.0406  0.0250
 7150SOL    HW132912   3.452   1.122  14.851 -1.4715  0.7144  0.7309
 7150SOL    HW232913   3.351   1.005  14.867 -0.7276  1.6757  1.8197
 7151SOL     OW32914   0.946   1.905   8.062 -0.5564  0.0874  0.6113
 7151SOL    HW132915   0.890   1.908   8.139 -2.9986  1.6525 -1.2423
 7151SOL    HW232916   1.017   1.955   8.102  0.1880 -0.3568 -0.1452
 7152SOL     OW32917   2.041   1.114   3.278 -0.3561 -0.0391  0.3185
 7152SOL    HW132918   1.951   1.092   3.302  0.7194 -2.3377  2.2429
 7152SOL    HW232919   2.037   1.088   3.186 -0.8650 -0.5663  0.4866
 7153SOL     OW32920   0.241   0.381   7.162  0.1627  0.1509 -0.0501
 7153SOL    HW132921   0.208   0.460   7.204 -0.2003 -1.4942  2.7569
 7153SOL    HW232922   0.169   0.322   7.185 -0.1103 -0.4155 -2.3378
 7154SOL     OW32923   3.804   2.181  16.956 -0.3395  0.2606  0.0062
 7154SOL    HW132924   3.848   2.245  17.011 -0.3391  0.5810 -0.3664
 7154SOL    HW232925   3.793   2.112  17.022 -0.3623 -0.8626 -1.1689
 7155SOL     OW32926   1.948   1.428   0.443 -0.8819 -0.6766 -0.3633
 7155SOL    HW132927   1.865   1.469   0.419  0.5948  1.2732 -2.0999
 7155SOL    HW232928   1.987   1.486   0.508 -1.5709 -0.4270 -0.1775
 7156SOL     OW32929   2.279   2.441  10.234 -0.0004  0.8140  0.5578
 7156SOL    HW132930   2.314   2.511  10.288  0.3168  1.4482 -0.4710
 7156SOL    HW232931   2.351   2.380  10.219  0.5678  1.9709 -1.4388
 7157SOL     OW32932   2.557   4.552   1.965  0.2864 -0.4437  0.1626
 7157SOL    HW132933   2.471   4.554   2.006  0.8421  1.7902  1.2188
 7157SOL    HW232934   2.549   4.488   1.895 -1.4233  0.8914 -0.8553
 7158SOL     OW32935   1.557   2.611   3.373  0.3760  0.6427 -0.7304
 7158SOL    HW132936   1.517   2.528   3.400 -0.1599  1.0040 -0.4031
 7158SOL    HW232937   1.572   2.597   3.279 -1.3570 -1.2015 -0.7387
 7159SOL     OW32938   0.468   1.217  14.903  0.1001 -0.2362  0.1684
 7159SOL    HW132939   0.559   1.187  14.903 -0.1644 -1.0336 -1.2988
 7159SOL    HW232940   0.444   1.207  14.996 -1.6418  1.7543 -0.0794
 7160SOL     OW32941   3.667   3.230   5.628 -0.0995 -0.0518 -0.2716
 7160SOL    HW132942   3.759   3.252   5.637 -0.3957  0.1120  2.4021
 7160SOL    HW232943   3.627   3.253   5.712  2.6993 -0.3520  1.1364
 7161SOL     OW32944   4.138   4.492   5.558 -0.6583 -0.2795  0.0886
 7161SOL    HW132945   4.046   4.478   5.535  0.0445  0.1304 -2.9665
 7161SOL    HW232946   4.135   4.573   5.609  0.2449  0.3360 -0.8345
 7162SOL     OW32947   3.025   3.557   4.503 -0.5127  0.3944  0.2518
 7162SOL    HW132948   2.983   3.626   4.453 -1.9613 -0.6760 -0.0195
 7162SOL    HW232949   2.944   3.531   4.546  0.2693 -2.2854  0.1453
 7163SOL     OW32950   0.081   1.246   2.322  0.1427  0.1524 -0.1345
 7163SOL    HW132951   0.124   1.324   2.357 -0.0718  0.3952 -0.4081
 7163SOL    HW232952   0.154   1.184   2.319 -2.2106 -2.6436 -0.3942
 7164SOL     OW32953   3.205   0.740   6.273 -0.5290 -0.9002  0.4099
 7164SOL    HW132954   3.125   0.792   6.272  1.1374  1.6073 -0.7995
 7164SOL    HW232955   3.197   0.675   6.203 -1.7782 -1.0265  0.6580
 7165SOL     OW32956   1.737   3.530   6.645 -0.2723  0.3196  0.3250
 7165SOL    HW132957   1.794   3.580   6.586 -1.5154  0.1763 -0.9980
 7165SOL    HW232958   1.770   3.442   6.632 -1.8587 -0.3239  0.6488
 7166SOL     OW32959   0.718   4.371   4.470  0.1649  0.2685  0.2737
 7166SOL    HW132960   0.664   4.342   4.543 -0.3232  0.1299 -0.1464
 7166SOL    HW232961   0.703   4.466   4.469  2.0603  0.5633 -0.1195
 7167SOL     OW32962   0.172   3.578   4.488 -0.1869 -0.7041  0.5696
 7167SOL    HW132963   0.078   3.583   4.471  0.3079 -1.0575 -2.3053
 7167SOL    HW232964   0.186   3.491   4.450  2.0119  0.7786 -1.9819
 7168SOL     OW32965   1.870   0.471   6.419 -0.0689 -0.3339  0.6756
 7168SOL    HW132966   1.943   0.454   6.479 -0.3225 -0.9128  0.8231
 7168SOL    HW232967   1.817   0.513   6.487 -0.9310  3.1054 -2.1384
 7169SOL     OW32968   3.128   2.044  17.535 -0.6052  0.2542 -0.1543
 7169SOL    HW132969   3.174   2.017  17.614 -1.5618  0.3911  0.4453
 7169SOL    HW232970   3.198   2.084  17.483  1.0515 -2.6476 -0.1433
 7170SOL     OW32971   1.540   3.925   1.508 -0.3146 -0.3598  0.3536
 7170SOL    HW132972   1.528   4.019   1.517  1.8091  0.0493 -1.2161
 7170SOL    HW232973   1.571   3.916   1.418 -1.9920  0.1168 -0.2817
 7171SOL     OW32974   4.658   3.501   4.345  0.1811 -0.2598  0.6514
 7171SOL    HW132975   4.634   3.449   4.421 -1.3175  1.8141  1.6051
 7171SOL    HW232976   4.581   3.526   4.294  0.2683 -0.0666  0.6109
 7172SOL     OW32977   2.224   0.059   7.214 -0.0959  0.1272 -0.2562
 7172SOL    HW132978   2.223   4.708   7.276  2.3107  1.1615  1.0169
 7172SOL    HW232979   2.217   0.134   7.273 -2.1628  0.7816 -1.3259
 7173SOL     OW32980   3.183   0.555  13.391  0.0633  0.1349  0.5645
 7173SOL    HW132981   3.114   0.606  13.348  0.6938 -0.2343 -0.8740
 7173SOL    HW232982   3.257   0.550  13.330 -1.8291  2.6661 -1.9352
 7174SOL     OW32983   2.884   1.956   4.220 -0.0325  0.1844  0.0815
 7174SOL    HW132984   2.973   1.983   4.242 -0.1196  0.4194  0.1408
 7174SOL    HW232985   2.885   1.880   4.279  2.5341 -0.3522 -0.6597
 7175SOL     OW32986   1.405   1.761   6.752 -0.6959  0.2651 -0.6616
 7175SOL    HW132987   1.439   1.770   6.841  0.0542 -0.3629 -0.8769
 7175SOL    HW232988   1.474   1.706   6.715 -1.4587 -2.3229  1.7781
 7176SOL     OW32989   4.176   2.378   2.255  0.4985  0.1958  0.0961
 7176SOL    HW132990   4.234   2.333   2.316  1.7128  1.3462 -0.1869
 7176SOL    HW232991   4.154   2.464   2.293  0.1874  0.1569  0.0029
 7177SOL     OW32992   0.942   2.377   1.150  0.1727 -0.3645  0.0413
 7177SOL    HW132993   0.999   2.311   1.109  0.8218 -1.1835  2.2324
 7177SOL    HW232994   0.951   2.356   1.243  0.7616 -0.6986 -0.0910
 7178SOL     OW32995   1.564   1.960   5.673  0.1222  0.4144 -0.0928
 7178SOL    HW132996   1.575   2.044   5.629  1.2158  0.4442  0.2438
 7178SOL    HW232997   1.468   1.961   5.675  0.0673 -1.0144 -2.0869
 7179SOL     OW32998   2.575   2.758   2.033  0.2162 -0.2243 -0.0813
 7179SOL    HW132999   2.614   2.759   1.946  1.6020 -0.5043  0.5311
 7179SOL    HW233000   2.647   2.720   2.083  2.1419 -0.0013 -2.6670
 7180SOL     OW33001   1.095   3.147   5.075  0.1590 -0.4394 -0.6288
 7180SOL    HW133002   1.124   3.237   5.094 -0.5276  0.1399 -2.3043
 7180SOL    HW233003   1.018   3.158   5.019  0.4674  0.7301 -0.8264
 7181SOL     OW33004   0.663   0.232  14.120  0.3671 -0.4047 -0.5778
 7181SOL    HW133005   0.743   0.250  14.070  0.2717 -0.9950 -0.9455
 7181SOL    HW233006   0.691   0.268  14.204  2.8331  0.3931 -1.7234
 7182SOL     OW33007   1.149   0.621   2.779 -0.6867 -0.1312  0.1502
 7182SOL    HW133008   1.106   0.588   2.700  0.8230 -2.3489  0.2615
 7182SOL    HW233009   1.133   0.538   2.825 -0.4610 -0.5787 -0.5933
 7183SOL     OW33010   2.242   3.242   9.267  0.9521 -0.0921 -0.2993
 7183SOL    HW133011   2.151   3.235   9.294  1.3834  0.2185  1.2660
 7183SOL    HW233012   2.256   3.170   9.206  1.4243 -0.3435  0.0997
 7184SOL     OW33013   3.082   2.265  16.762 -0.0481  0.0675 -0.0345
 7184SOL    HW133014   3.051   2.315  16.837 -2.4045 -0.7061 -0.4916
 7184SOL    HW233015   3.126   2.184  16.791 -0.3818 -0.1689 -0.1974
 7185SOL     OW33016   1.783   1.088   1.960  0.2401  0.4136  0.1809
 7185SOL    HW133017   1.813   1.000   1.983  2.7309  0.9432 -1.1618
 7185SOL    HW233018   1.712   1.063   1.900  0.6401  1.7137 -0.8227
 7186SOL     OW33019   3.087   2.887  10.121 -0.3581  0.0972 -0.5956
 7186SOL    HW133020   3.008   2.913  10.074  0.0218  0.0907 -1.2295
 7186SOL    HW233021   3.053   2.828  10.189  0.2441 -2.4648 -2.5370
 7187SOL     OW33022   2.949   2.878  12.919 -0.0763 -0.0893  0.0782
 7187SOL    HW133023   2.902   2.960  12.935  0.5747  0.7826 -2.4878
 7187SOL    HW233024   2.910   2.846  12.838 -2.4519  2.3763  0.2478
 7188SOL     OW33025   3.011   2.302   0.613 -0.0176 -0.0417 -0.5338
 7188SOL    HW133026   3.044   2.390   0.629 -1.4787  0.6918 -1.5680
 7188SOL    HW233027   3.090   2.256   0.642 -0.0070 -0.9769 -2.0714
 7189SOL     OW33028   0.649   0.248   5.392 -0.0305  0.0341  0.0198
 7189SOL    HW133029   0.737   0.241   5.428  0.1117 -1.5247 -0.6564
 7189SOL    HW233030   0.620   0.338   5.406  1.4385  0.7634 -1.6503
 7190SOL     OW33031   2.794   3.875  14.269 -0.4431 -0.4533 -0.4952
 7190SOL    HW133032   2.819   3.783  14.258  0.0968 -0.1751 -1.5669
 7190SOL    HW233033   2.881   3.908  14.245  0.1931 -0.5025  1.7358
 7191SOL     OW33034   3.022   3.457   1.381 -0.3900 -0.0583  0.3109
 7191SOL    HW133035   3.038   3.371   1.420 -1.8506 -0.0347  0.9712
 7191SOL    HW233036   3.107   3.494   1.357  0.2154 -2.1249 -0.7799
 7192SOL     OW33037   0.644   2.980  13.647  0.2781 -0.2237  0.8465
 7192SOL    HW133038   0.642   3.022  13.561 -0.4290  3.1255  2.4951
 7192SOL    HW233039   0.605   3.051  13.699  1.2945  0.5605  0.5476
 7193SOL     OW33040   2.282   0.864   5.208  0.0477 -0.4276 -0.0076
 7193SOL    HW133041   2.249   0.920   5.279  0.4568 -0.0958 -0.0862
 7193SOL    HW233042   2.296   0.789   5.267  1.2871  0.1347  0.4075
 7194SOL     OW33043   3.524   3.214   0.451  0.1225 -0.3089  0.4388
 7194SOL    HW133044   3.514   3.280   0.382  3.3106  0.3849  0.6067
 7194SOL    HW233045   3.509   3.262   0.533 -1.8321  0.6122 -0.4691
 7195SOL     OW33046   2.501   4.500   2.550 -0.1369  0.1007  0.1465
 7195SOL    HW133047   2.509   4.460   2.464 -1.3115  0.0164  0.0791
 7195SOL    HW233048   2.437   4.571   2.539  0.2014  0.2328 -0.9409
 7196SOL     OW33049   2.882   3.620  13.675  0.2628 -0.2649  0.4978
 7196SOL    HW133050   2.822   3.625  13.601 -0.1248  0.6323  0.8726
 7196SOL    HW233051   2.823   3.580  13.740 -0.8801 -0.0468 -0.4012
 7197SOL     OW33052   3.670   1.030   1.987 -0.3944 -0.0686  0.6158
 7197SOL    HW133053   3.705   0.957   2.038  0.0709  0.2086  0.6977
 7197SOL    HW233054   3.735   1.040   1.918 -0.2341 -1.6956  0.5333
 7198SOL     OW33055   0.154   3.230  13.178 -0.1593 -0.0656 -0.5131
 7198SOL    HW133056   0.066   3.266  13.165  0.5257  2.7211  2.5197
 7198SOL    HW233057   0.139   3.155  13.236 -0.5278  0.1961 -0.2687
 7199SOL     OW33058   4.048   1.359   8.545 -0.1636  0.0998 -0.2056
 7199SOL    HW133059   4.028   1.266   8.532  0.6338  0.1403 -1.6175
 7199SOL    HW233060   3.982   1.402   8.491  1.1606  0.4465 -1.5279
 7200SOL     OW33061   3.328   2.206   4.927 -0.0203 -0.1415  0.2269
 7200SOL    HW133062   3.290   2.132   4.975  0.7007 -1.8396 -1.8210
 7200SOL    HW233063   3.265   2.275   4.949 -0.2350 -0.3094  0.1346
 7201SOL     OW33064   3.740   1.048   4.365  0.6343 -0.0881  0.0850
 7201SOL    HW133065   3.693   1.005   4.437  0.0474 -0.0471 -0.2777
 7201SOL    HW233066   3.726   0.992   4.289 -0.6510 -0.6385  0.7310
 7202SOL     OW33067   4.646   3.409  15.488 -0.3719 -0.0299 -0.7006
 7202SOL    HW133068   4.641   3.424  15.394  0.8325 -0.1458 -0.7820
 7202SOL    HW233069   0.003   3.453  15.517  0.5020 -1.9141 -0.1964
 7203SOL     OW33070   4.594   3.406   4.010 -0.0545  0.3659 -0.4695
 7203SOL    HW133071   4.564   3.490   3.975  2.4803  0.9144 -1.3170
 7203SOL    HW233072   4.603   3.362   3.925  0.5999 -1.9654  0.8268
 7204SOL     OW33073   4.082   1.158   4.720  0.4630 -0.2937 -0.0350
 7204SOL    HW133074   4.154   1.211   4.686 -0.7369  0.3614 -1.6134
 7204SOL    HW233075   4.045   1.134   4.635 -0.5944 -1.0913  0.6481
 7205SOL     OW33076   2.510   4.059   4.441  0.3902 -0.2602 -0.1072
 7205SOL    HW133077   2.592   4.091   4.403 -0.6283  0.1088 -1.9834
 7205SOL    HW233078   2.451   4.126   4.406  1.2586  0.4324 -0.2385
 7206SOL     OW33079   0.621   2.669  10.089  0.4256  0.4230  0.2093
 7206SOL    HW133080   0.698   2.612  10.086 -0.2318 -0.4981  0.8104
 7206SOL    HW233081   0.662   2.755  10.095 -1.4178  1.3179 -0.0784
 7207SOL     OW33082   2.575   1.889   0.730 -0.4331  0.4532 -0.9934
 7207SOL    HW133083   2.531   1.924   0.652 -0.5066 -0.9383 -1.5783
 7207SOL    HW233084   2.506   1.836   0.771  0.0166  0.0431 -0.7613
 7208SOL     OW33085   4.070   1.615  16.392  0.3720 -0.5652  0.6018
 7208SOL    HW133086   4.147   1.600  16.338 -1.8470 -1.2412 -2.3860
 7208SOL    HW233087   4.030   1.528  16.382  1.4539 -0.8504 -1.1468
 7209SOL     OW33088   3.395   0.777  14.549 -0.1868  0.2846 -0.1052
 7209SOL    HW133089   3.355   0.773  14.636 -0.8531 -1.1976 -0.5008
 7209SOL    HW233090   3.385   0.872  14.539 -1.6760 -0.1600 -2.7578
 7210SOL     OW33091   4.010   1.962  12.312 -0.3497  0.3367 -0.3871
 7210SOL    HW133092   4.042   1.975  12.402 -0.5775  1.5136 -0.4651
 7210SOL    HW233093   3.956   2.041  12.305  0.5168  1.0071  0.3896
 7211SOL     OW33094   1.035   3.901   5.311 -0.4867  0.5143 -0.1677
 7211SOL    HW133095   0.989   3.897   5.395  0.0054  1.5727  0.1534
 7211SOL    HW233096   0.965   3.863   5.259  0.2556 -0.5585 -0.3810
 7212SOL     OW33097   3.257   3.901   2.027 -0.8982 -0.5768 -0.2667
 7212SOL    HW133098   3.207   3.825   2.057  0.5803  0.0007  3.6615
 7212SOL    HW233099   3.251   3.892   1.932  0.6525 -0.1878 -0.3998
 7213SOL     OW33100   1.194   3.670   2.341 -0.1927 -0.1668 -0.0988
 7213SOL    HW133101   1.169   3.746   2.394  1.0379  0.2702 -0.1572
 7213SOL    HW233102   1.113   3.623   2.321  0.6612 -0.5771 -2.5578
 7214SOL     OW33103   1.937   0.516   0.103 -0.4416 -0.3029  0.2384
 7214SOL    HW133104   1.877   0.590   0.109  0.9043  0.6701  1.6304
 7214SOL    HW233105   1.907   0.458   0.173 -0.5208  2.0879  2.1722
 7215SOL     OW33106   0.852   0.924   4.565  0.0614 -1.0793  0.5443
 7215SOL    HW133107   0.816   0.909   4.652 -1.3894  1.4149  0.3838
 7215SOL    HW233108   0.776   0.958   4.518  2.8010  2.1424 -1.5334
 7216SOL     OW33109   4.642   0.330   8.065 -0.0437  0.2849 -0.2664
 7216SOL    HW133110   4.721   0.297   8.023  0.2743  0.0843  0.4980
 7216SOL    HW233111   4.583   0.331   7.989  0.6955  0.5068 -0.8361
 7217SOL     OW33112   4.019   2.994   3.168 -0.1392 -0.2489  0.0746
 7217SOL    HW133113   3.953   3.055   3.137 -0.3556 -0.8087 -0.5644
 7217SOL    HW233114   4.073   2.973   3.092  0.0964 -0.0872  0.1962
 7218SOL     OW33115   1.043   4.293   8.049  0.2992 -0.2485 -0.6326
 7218SOL    HW133116   1.029   4.376   8.095  2.3138 -1.1492  1.6290
 7218SOL    HW233117   0.967   4.249   8.086  1.5733 -0.5446  1.6117
 7219SOL     OW33118   3.588   4.647   4.138  0.4498  1.0416  0.5221
 7219SOL    HW133119   3.595   4.668   4.231 -2.0925 -0.5277  1.0812
 7219SOL    HW233120   3.620   4.557   4.140 -0.7375  0.5670 -1.9528
 7220SOL     OW33121   2.921   2.871   1.984  0.1368  0.1077 -0.1922
 7220SOL    HW133122   2.873   2.789   1.992  0.0537 -0.1078 -2.9923
 7220SOL    HW233123   2.880   2.906   1.905 -0.9281  1.4773  0.9633
 7221SOL     OW33124   0.556   2.508   4.200  0.1711 -0.0665  0.7005
 7221SOL    HW133125   0.651   2.516   4.212  0.2056  2.3664 -1.2049
 7221SOL    HW233126   0.548   2.413   4.193 -1.8054  0.3646 -2.9771
 7222SOL     OW33127   1.498   4.721  15.438 -0.0745  0.3464  0.3841
 7222SOL    HW133128   1.435   0.069  15.455 -1.9907 -1.3912  0.4435
 7222SOL    HW233129   1.454   4.678  15.365  1.8705 -0.9573  0.0033
 7223SOL     OW33130   1.851   2.333   0.286 -0.5086  0.2835  0.2472
 7223SOL    HW133131   1.781   2.285   0.330  0.6161  0.1172  1.8307
 7223SOL    HW233132   1.918   2.268   0.306 -0.4094  0.3715  0.2001
 7224SOL     OW33133   0.062   1.354   3.237 -0.4100  0.5449  0.1431
 7224SOL    HW133134   0.116   1.422   3.196 -1.8583  1.7336  0.2179
 7224SOL    HW233135   0.087   1.280   3.181 -0.4978  0.9559 -0.4362
 7225SOL     OW33136   1.997   3.758   4.332 -0.2949 -0.1928 -0.0352
 7225SOL    HW133137   1.906   3.755   4.304 -0.2893  0.9440 -0.1647
 7225SOL    HW233138   2.030   3.830   4.278  2.2531 -0.7847  0.7315
 7226SOL     OW33139   0.814   2.907   7.634  0.0284  0.3850  0.6051
 7226SOL    HW133140   0.820   2.998   7.605  1.1228  0.2980  0.5738
 7226SOL    HW233141   0.726   2.903   7.672 -0.2222  2.3172  0.2048
 7227SOL     OW33142   1.901   0.971   5.051 -0.0049  0.0548  0.0949
 7227SOL    HW133143   1.897   0.989   4.957 -0.7066 -0.0269  0.1077
 7227SOL    HW233144   1.963   1.038   5.081 -1.3334  1.0915  0.5517
 7228SOL     OW33145   3.383   1.795   9.029  0.2529 -0.0361  0.2174
 7228SOL    HW133146   3.352   1.784   9.118  0.5079 -1.8475  0.0809
 7228SOL    HW233147   3.304   1.836   8.994 -1.1073 -2.0791  0.9497
 7229SOL     OW33148   1.338   2.286  13.499 -0.4173 -0.1640  0.0315
 7229SOL    HW133149   1.271   2.340  13.540  0.1260 -1.7606  3.0046
 7229SOL    HW233150   1.395   2.266  13.573 -0.1590  3.8531  0.9270
 7230SOL     OW33151   3.145   4.310   3.753  0.0899 -0.1035 -0.3074
 7230SOL    HW133152   3.197   4.316   3.834  2.2697  0.4021 -1.7592
 7230SOL    HW233153   3.186   4.232   3.717  1.6450  0.8961 -0.7093
 7231SOL     OW33154   1.389   1.760   8.424 -0.2870  0.4213  0.4716
 7231SOL    HW133155   1.356   1.671   8.408  0.2615  0.4364 -0.7570
 7231SOL    HW233156   1.382   1.792   8.334  1.4929 -3.5605 -1.0716
 7232SOL     OW33157   3.465   4.208   8.604  0.3485  0.2681 -0.0435
 7232SOL    HW133158   3.538   4.235   8.548  1.1720 -2.0080 -0.0667
 7232SOL    HW233159   3.423   4.139   8.553 -0.6177  0.3057  0.7055
 7233SOL     OW33160   0.065   1.601  14.070  0.7287  0.2675 -0.2694
 7233SOL    HW133161   0.139   1.546  14.095  1.0015  1.9158  2.5668
 7233SOL    HW233162   0.111   1.682  14.045  3.6869 -0.6331  2.1700
 7234SOL     OW33163   3.092   3.815   3.807 -0.4140 -0.6439  0.0530
 7234SOL    HW133164   3.162   3.861   3.853 -2.2248  0.4097  1.7441
 7234SOL    HW233165   3.127   3.779   3.725 -1.7066 -2.0592  0.1225
 7235SOL     OW33166   3.996   4.638   3.563 -0.1813  0.4800 -0.1688
 7235SOL    HW133167   4.036   4.664   3.646 -1.2930 -0.1915  0.5860
 7235SOL    HW233168   4.069   4.583   3.535  0.6677  1.8506 -0.6549
 7236SOL     OW33169   2.521   2.906   8.869  0.5099 -0.2254  0.0565
 7236SOL    HW133170   2.512   2.927   8.962  0.2701  1.3483 -0.3281
 7236SOL    HW233171   2.581   2.832   8.877 -2.0629 -2.6666 -3.6524
 7237SOL     OW33172   4.274   3.359   3.113  0.3489 -0.2975  0.3094
 7237SOL    HW133173   4.240   3.434   3.064  1.1003  0.4927  1.0038
 7237SOL    HW233174   4.352   3.395   3.155  0.3513 -1.5829  1.3942
 7238SOL     OW33175   4.650   1.976  13.739 -0.2446 -0.2276  0.6767
 7238SOL    HW133176   4.605   2.060  13.748 -0.9301 -0.4226 -1.0039
 7238SOL    HW233177   0.004   1.990  13.796  0.3880 -1.6483  0.1821
 7239SOL     OW33178   1.085   1.460  16.606  0.3840 -0.4404  0.1481
 7239SOL    HW133179   1.018   1.514  16.648 -0.8990 -1.9640  0.0512
 7239SOL    HW233180   1.155   1.525  16.597  0.1182 -0.1495  0.1893
 7240SOL     OW33181   3.104   3.091  16.368 -0.2291  0.1900  0.1697
 7240SOL    HW133182   3.087   3.032  16.441 -1.9744  0.7692  0.2202
 7240SOL    HW233183   3.116   3.031  16.294  0.4586 -3.1899  3.0238
 7241SOL     OW33184   0.944   2.865   8.640  0.9643  0.6801 -0.6018
 7241SOL    HW133185   0.982   2.812   8.710 -0.3807 -1.0474 -1.1684
 7241SOL    HW233186   0.912   2.940   8.691  0.5742  0.9500 -1.2338
 7242SOL     OW33187   3.412   2.383  16.187  0.1204 -0.3181 -0.2942
 7242SOL    HW133188   3.361   2.305  16.209 -0.6032  0.0515 -0.6666
 7242SOL    HW233189   3.469   2.362  16.113 -0.9933  0.8218 -1.4505
 7243SOL     OW33190   0.772   0.963  16.357 -0.2298  0.2803  0.2852
 7243SOL    HW133191   0.796   0.871  16.356 -1.1061  0.0935 -2.4335
 7243SOL    HW233192   0.726   0.975  16.275 -0.2383 -0.9713  0.1155
 7244SOL     OW33193   2.213   0.065   8.259 -0.1972 -0.0017 -0.6110
 7244SOL    HW133194   2.127   0.037   8.289  0.3797 -0.0914  1.0018
 7244SOL    HW233195   2.264   0.054   8.340  1.0972 -0.5200 -1.4877
 7245SOL     OW33196   1.104   2.344   6.677 -0.1008  0.0405 -0.6062
 7245SOL    HW133197   1.168   2.275   6.658  1.3401  1.1683  0.0812
 7245SOL    HW233198   1.038   2.299   6.729  0.5409  0.2229  0.3715
 7246SOL     OW33199   1.080   2.101   2.022  0.0017 -0.0530  0.0316
 7246SOL    HW133200   1.027   2.171   2.061  0.7129 -0.2638  1.3616
 7246SOL    HW233201   1.075   2.127   1.930  1.6138  0.7172  0.1623
 7247SOL     OW33202   2.989   4.060   0.488  0.1969  0.2883  0.0902
 7247SOL    HW133203   2.920   4.015   0.537  0.3928 -0.8192 -0.6464
 7247SOL    HW233204   3.057   3.993   0.497 -1.1287 -0.8630  1.6788
 7248SOL     OW33205   0.942   3.564  17.070  0.4660  0.2476  0.2669
 7248SOL    HW133206   0.878   3.631  17.094  1.5250  1.4643 -0.3513
 7248SOL    HW233207   0.907   3.527  16.988 -0.9023  0.2983  0.8238
 7249SOL     OW33208   0.224   0.847   6.702 -0.3010 -0.0644  0.3887
 7249SOL    HW133209   0.243   0.754   6.719 -0.4270 -0.2133 -0.2935
 7249SOL    HW233210   0.246   0.888   6.786 -0.2487 -0.1032  0.3943
 7250SOL     OW33211   1.853   0.785  15.297 -0.1516 -0.7197  0.5126
 7250SOL    HW133212   1.896   0.718  15.350  1.4332 -0.3802 -0.3642
 7250SOL    HW233213   1.795   0.813  15.367 -0.6902  3.3781 -1.5884
 7251SOL     OW33214   4.235   1.300   3.727 -0.6772  0.1226  0.0569
 7251SOL    HW133215   4.230   1.315   3.821  2.0209 -1.4918  0.4530
 7251SOL    HW233216   4.217   1.388   3.695  1.5960  0.8023  0.6894
 7252SOL     OW33217   3.615   0.165  11.138  0.4441 -0.1848 -0.1134
 7252SOL    HW133218   3.627   0.104  11.211  1.4490  0.5179  0.3137
 7252SOL    HW233219   3.651   0.108  11.071  1.8244  0.5559 -0.0045
 7253SOL     OW33220   4.472   3.612  13.799  0.7487  0.4289  0.1907
 7253SOL    HW133221   4.436   3.611  13.888  0.4265  2.0861  0.0664
 7253SOL    HW233222   4.404   3.656  13.748  0.1645 -0.3233  0.3080
 7254SOL     OW33223   3.983   2.353   7.615 -0.4872  1.2577  0.0609
 7254SOL    HW133224   3.955   2.269   7.580  0.0559  1.2888 -0.4337
 7254SOL    HW233225   3.955   2.345   7.706 -0.1518  0.5083  0.0932
 7255SOL     OW33226   3.633   1.300   7.353  0.6213  0.0791  0.3200
 7255SOL    HW133227   3.666   1.293   7.442  0.2135 -1.8337  0.3172
 7255SOL    HW233228   3.662   1.215   7.318  0.0134  0.3282 -0.7791
 7256SOL     OW33229   1.543   2.829   7.597  0.0649 -0.2698 -0.1163
 7256SOL    HW133230   1.519   2.816   7.505  2.5333  0.2867 -0.8502
 7256SOL    HW233231   1.636   2.813   7.581  0.2954 -0.2591  1.2595
 7257SOL     OW33232   1.229   0.783   7.674  0.2873 -0.2840  0.4617
 7257SOL    HW133233   1.216   0.875   7.650  0.5604 -0.6288 -1.0351
 7257SOL    HW233234   1.254   0.739   7.593  0.7765 -0.9127  0.9547
 7258SOL     OW33235   1.765   1.705   2.831  0.2340  0.2208 -0.5734
 7258SOL    HW133236   1.676   1.720   2.860  0.5133  1.3488 -0.3100
 7258SOL    HW233237   1.749   1.631   2.772 -0.6430  0.9421 -1.2365
 7259SOL     OW33238   1.772   1.179  15.541  0.3952 -0.9477 -0.0358
 7259SOL    HW133239   1.712   1.193  15.614 -0.5751 -1.7891 -0.6767
 7259SOL    HW233240   1.859   1.165  15.579  1.1837  2.8938 -0.4050
 7260SOL     OW33241   4.181   2.505   5.100 -0.3102 -0.7948  0.1281
 7260SOL    HW133242   4.159   2.575   5.038  3.8912 -0.8514 -1.4201
 7260SOL    HW233243   4.271   2.526   5.125 -0.5636  1.8970 -1.2555
 7261SOL     OW33244   3.451   2.798  12.272  0.8100 -0.2926  0.0934
 7261SOL    HW133245   3.472   2.743  12.347  0.9631 -0.9628 -0.4376
 7261SOL    HW233246   3.408   2.732  12.217  1.3996 -0.9982  0.4691
 7262SOL     OW33247   2.286   1.970   9.088 -0.3314  0.1053 -0.0243
 7262SOL    HW133248   2.212   1.932   9.041  0.5945 -1.1071 -0.5046
 7262SOL    HW233249   2.335   1.894   9.121  0.9432  1.2350  0.7040
 7263SOL     OW33250   4.393   4.313   4.481  0.2100 -0.7196  0.4097
 7263SOL    HW133251   4.477   4.331   4.523 -0.0953  0.0336  0.6830
 7263SOL    HW233252   4.346   4.282   4.558 -0.9866 -1.1839 -0.5103
 7264SOL     OW33253   4.557   3.295   9.150 -0.6830 -0.3921 -0.3110
 7264SOL    HW133254   4.502   3.348   9.093 -1.0040  0.5590  0.8864
 7264SOL    HW233255   4.639   3.344   9.148 -1.0730  0.3164  1.3283
 7265SOL     OW33256   3.005   4.549  17.154  0.0078  0.0077 -0.6317
 7265SOL    HW133257   3.085   4.497  17.151  0.7050  1.0108  0.9759
 7265SOL    HW233258   2.945   4.494  17.103 -0.9456  0.5561 -0.1045
 7266SOL     OW33259   2.250   2.086   5.276  0.4131 -0.1151 -0.2115
 7266SOL    HW133260   2.200   2.116   5.352  0.2596  1.7687 -1.0471
 7266SOL    HW233261   2.176   2.057   5.222  1.5216  0.0924 -1.8131
 7267SOL     OW33262   3.799   2.929   7.475  0.3224  0.0481  0.0243
 7267SOL    HW133263   3.775   2.964   7.390 -0.1552 -1.0775 -0.3023
 7267SOL    HW233264   3.714   2.936   7.519  0.2636 -2.0288  0.2395
 7268SOL     OW33265   2.191   2.787  11.194  0.6584 -0.0055 -0.3091
 7268SOL    HW133266   2.120   2.754  11.139  1.5352 -1.4485 -0.5884
 7268SOL    HW233267   2.193   2.716  11.259  1.0081  1.0268  0.8033
 7269SOL     OW33268   2.472   3.119   1.371 -0.9026  0.4807  0.1798
 7269SOL    HW133269   2.436   3.134   1.283  2.8161  3.6307 -0.8003
 7269SOL    HW233270   2.395   3.132   1.427 -0.5483  0.0819  0.7557
 7270SOL     OW33271   3.192   1.228   4.984  0.2445  0.1335  0.4240
 7270SOL    HW133272   3.255   1.159   5.007  1.9808  1.5552  0.0005
 7270SOL    HW233273   3.203   1.223   4.889 -0.3123 -0.0470  0.3714
 7271SOL     OW33274   2.698   0.159   4.533  0.0394  0.2910  0.3851
 7271SOL    HW133275   2.719   0.090   4.596  0.0355  0.4208  0.5271
 7271SOL    HW233276   2.619   0.118   4.498 -0.6936 -0.1043  2.4765
 7272SOL     OW33277   3.900   2.633   7.890 -0.3947  0.3816  0.2928
 7272SOL    HW133278   3.872   2.647   7.799  2.2801 -0.9677 -0.7248
 7272SOL    HW233279   3.897   2.539   7.875 -0.5481  0.3342  0.6350
 7273SOL     OW33280   4.516   4.377  13.492 -0.2875  0.5851  0.3884
 7273SOL    HW133281   4.589   4.399  13.435 -0.1257 -0.7419  0.0995
 7273SOL    HW233282   4.558   4.297  13.523  1.7293  1.2834 -0.5425
 7274SOL     OW33283   2.106   1.108  11.602  0.2504  0.1965 -0.7312
 7274SOL    HW133284   2.136   1.184  11.651  0.0235  0.3040 -0.7595
 7274SOL    HW233285   2.172   1.045  11.631  0.2468  1.1781  1.3993
 7275SOL     OW33286   1.760   0.487   1.185  0.1683  0.6011 -0.5101
 7275SOL    HW133287   1.742   0.541   1.108 -0.7753  0.0200 -0.7087
 7275SOL    HW233288   1.669   0.461   1.203  0.1410 -1.2681 -3.2507
 7276SOL     OW33289   3.044   1.621   2.215  0.0174  0.1847  0.0665
 7276SOL    HW133290   3.114   1.563   2.186  0.0961  0.9613 -1.3004
 7276SOL    HW233291   2.984   1.562   2.260 -0.2070  1.0493  0.9069
 7277SOL     OW33292   3.158   0.142   9.310  0.1137  0.1931  0.3507
 7277SOL    HW133293   3.236   0.102   9.348 -0.2044 -1.0993 -0.3683
 7277SOL    HW233294   3.112   0.065   9.276  1.5639  0.5838 -2.4920
 7278SOL     OW33295   2.305   1.111   2.748  0.1911 -0.1405 -0.3547
 7278SOL    HW133296   2.376   1.169   2.721  1.6472 -1.6288  0.3281
 7278SOL    HW233297   2.333   1.077   2.833 -2.6484  1.5406  1.2650
 7279SOL     OW33298   0.485   0.533   9.469  0.0201  0.2665  0.0479
 7279SOL    HW133299   0.517   0.448   9.436 -0.0936  0.5271 -0.7465
 7279SOL    HW233300   0.499   0.530   9.563 -1.2240  1.4208  0.2665
 7280SOL     OW33301   4.467   0.170   6.950  0.7791 -0.1054 -0.0139
 7280SOL    HW133302   4.400   0.142   7.012  0.4018 -0.1133 -0.4224
 7280SOL    HW233303   4.515   0.234   7.002  1.3961 -0.2690 -0.3791
 7281SOL     OW33304   4.063   2.928  11.640  0.0289  0.2527  0.3273
 7281SOL    HW133305   4.054   2.942  11.546 -0.2074  1.2877  0.5027
 7281SOL    HW233306   3.973   2.919  11.670 -0.2737 -2.2478 -1.3114
 7282SOL     OW33307   4.254   0.826   6.951  0.3675 -0.2063 -0.2337
 7282SOL    HW133308   4.331   0.771   6.967  1.3570  1.7932  1.8318
 7282SOL    HW233309   4.216   0.767   6.886  0.0145 -0.6264  0.3563
 7283SOL     OW33310   1.572   4.038   3.657  0.1040 -0.3267  0.0906
 7283SOL    HW133311   1.655   3.991   3.663 -0.8195 -1.9502  0.4138
 7283SOL    HW233312   1.588   4.117   3.606 -0.8127  0.0195  0.3429
 7284SOL     OW33313   0.928   2.678   7.029  0.0666  0.1105 -0.4409
 7284SOL    HW133314   0.966   2.683   7.117  0.4104  0.3579 -0.6074
 7284SOL    HW233315   0.953   2.759   6.986 -0.1310  0.8106  0.7641
 7285SOL     OW33316   4.058   1.815  16.201 -0.4445 -0.3130 -0.4409
 7285SOL    HW133317   4.077   1.770  16.284 -0.7291 -0.3425 -0.3911
 7285SOL    HW233318   4.080   1.906  16.218  0.1156 -1.0596  2.9493
 7286SOL     OW33319   1.179   4.488   7.827  0.0317  0.4320  0.0812
 7286SOL    HW133320   1.084   4.494   7.829  0.0579  1.2978 -1.6755
 7286SOL    HW233321   1.204   4.461   7.739 -0.1145 -1.0478  0.4886
 7287SOL     OW33322   4.199   2.496   7.082  0.2779  0.2115 -0.6218
 7287SOL    HW133323   4.132   2.438   7.046  1.6925 -2.0174  0.3155
 7287SOL    HW233324   4.265   2.490   7.012  1.4441 -0.5442  0.5335
 7288SOL     OW33325   0.000   0.553   5.395 -0.2710 -0.5076 -0.2348
 7288SOL    HW133326   0.071   0.527   5.454 -1.4102  0.5029  1.5759
 7288SOL    HW233327   0.038   0.625   5.346 -1.0325  0.3866  0.4816
 7289SOL     OW33328   2.829   0.496   3.601 -0.3364 -0.6308 -0.3431
 7289SOL    HW133329   2.742   0.473   3.636  0.1238 -1.7241  0.0805
 7289SOL    HW233330   2.813   0.546   3.521  0.5814  0.9461  0.4495
 7290SOL     OW33331   1.791   4.021  11.166 -0.0707 -0.9486  0.5628
 7290SOL    HW133332   1.759   3.940  11.207  2.5129 -1.7235  1.0639
 7290SOL    HW233333   1.806   4.001  11.074 -2.3799 -2.3271  0.4978
 7291SOL     OW33334   3.767   0.840   9.402  0.6697 -0.3670  0.0659
 7291SOL    HW133335   3.743   0.811   9.314 -0.2178  0.0026  0.1920
 7291SOL    HW233336   3.681   0.835   9.443  0.4765  1.2356 -0.1797
 7292SOL     OW33337   4.296   0.159   7.727 -0.4527  0.4486  0.0870
 7292SOL    HW133338   4.387   0.147   7.700 -0.6628 -0.4862 -0.1876
 7292SOL    HW233339   4.275   0.229   7.664  0.9804  1.2777  0.5267
 7293SOL     OW33340   0.976   2.025  10.870  0.3475 -1.5660 -0.1973
 7293SOL    HW133341   0.886   2.003  10.893 -0.1565 -1.0445 -1.6926
 7293SOL    HW233342   0.962   2.040  10.776 -3.0154 -0.6242  0.4440
 7294SOL     OW33343   3.630   4.107  16.327 -0.0221  0.7612  0.6535
 7294SOL    HW133344   3.724   4.120  16.333  0.2881 -0.1711 -2.0984
 7294SOL    HW233345   3.602   4.045  16.395 -0.0873 -0.6716 -0.6634
 7295SOL     OW33346   3.531   2.443   1.109  0.2324  0.9644 -0.6396
 7295SOL    HW133347   3.586   2.367   1.128 -0.7574 -0.6089 -3.9592
 7295SOL    HW233348   3.548   2.508   1.177 -0.1032  0.9590 -0.5479
 7296SOL     OW33349   4.538   0.213   4.701 -0.1000  0.3276  0.8277
 7296SOL    HW133350   4.487   0.245   4.775  1.1945  1.1462  1.3734
 7296SOL    HW233351   4.588   0.288   4.667  0.8885 -0.9704 -0.5687
 7297SOL     OW33352   2.089   4.199   5.673 -0.0984  0.8694 -0.1934
 7297SOL    HW133353   2.089   4.243   5.587  0.2189 -1.5509 -1.4289
 7297SOL    HW233354   2.160   4.252   5.710  0.4292  0.9143 -1.2606
 7298SOL     OW33355   0.161   0.875   5.865  0.8421 -0.3243  0.5544
 7298SOL    HW133356   0.255   0.872   5.884  1.0722 -0.8039 -0.7041
 7298SOL    HW233357   0.134   0.907   5.951 -1.8393 -0.8650 -0.1080
 7299SOL     OW33358   0.089   2.776  13.164  0.0499  0.7416  0.2617
 7299SOL    HW133359   0.176   2.805  13.136 -0.3469  2.0819  0.4102
 7299SOL    HW233360   0.100   2.781  13.259  1.2170 -0.3139  0.1760
 7300SOL     OW33361   1.941   2.704  14.382  0.2789  0.9645  0.5392
 7300SOL    HW133362   1.943   2.750  14.465  0.1288 -1.0821  1.6889
 7300SOL    HW233363   2.033   2.720  14.360 -0.0958 -0.1718 -1.8549
 7301SOL     OW33364   3.895   3.945  12.333  0.1695 -0.0060 -0.7277
 7301SOL    HW133365   3.869   4.023  12.382  1.4165  0.7179 -1.2467
 7301SOL    HW233366   3.940   3.986  12.260  3.3737 -1.8095  0.2380
 7302SOL     OW33367   0.879   1.461  10.119  0.3809  0.3476  0.2559
 7302SOL    HW133368   0.950   1.406  10.085  0.1188 -1.6132  2.9035
 7302SOL    HW233369   0.798   1.410  10.119  0.3972  0.3189 -1.2960
 7303SOL     OW33370   2.404   1.845  15.432 -0.6047 -0.5278 -0.1211
 7303SOL    HW133371   2.342   1.773  15.427 -0.0753 -0.9853 -0.0844
 7303SOL    HW233372   2.463   1.801  15.493 -1.8825  2.0333  2.9725
 7304SOL     OW33373   2.801   3.437   7.258 -0.0220  0.0414  0.2221
 7304SOL    HW133374   2.794   3.470   7.347  0.1921 -0.6065  0.4778
 7304SOL    HW233375   2.897   3.435   7.250  0.2376  2.2964  2.8676
 7305SOL     OW33376   0.934   0.571   5.549 -0.2081 -0.0860 -0.1932
 7305SOL    HW133377   0.933   0.667   5.553  0.6336 -0.0071 -1.9955
 7305SOL    HW233378   1.021   0.565   5.510  0.0676 -1.0154  0.5594
 7306SOL     OW33379   4.289   1.395   7.884 -0.1152 -0.2890 -0.1762
 7306SOL    HW133380   4.284   1.310   7.840 -3.2848 -0.8341  1.2796
 7306SOL    HW233381   4.320   1.370   7.971  1.5997  1.6173 -0.2421
 7307SOL     OW33382   0.329   1.865   8.498  0.5498  0.0589  0.2622
 7307SOL    HW133383   0.419   1.895   8.487  0.8587 -0.3856  1.5724
 7307SOL    HW233384   0.334   1.770   8.512  1.9887  0.1994  0.6846
 7308SOL     OW33385   4.139   1.829   3.309  0.3522 -0.4184  0.0474
 7308SOL    HW133386   4.074   1.872   3.254  0.8105  0.0882 -0.0929
 7308SOL    HW233387   4.123   1.740   3.277 -1.6045  0.2182 -0.7602
 7309SOL     OW33388   0.308   1.021   5.169  0.0537 -0.3987 -0.0993
 7309SOL    HW133389   0.342   1.047   5.254 -0.6687  0.9148 -0.1964
 7309SOL    HW233390   0.220   1.055   5.153 -0.2258 -1.1553 -0.1885
 7310SOL     OW33391   1.142   2.907  10.156  0.0567  0.4639  0.1345
 7310SOL    HW133392   1.227   2.949  10.165 -0.3105  1.3823 -0.7871
 7310SOL    HW233393   1.158   2.813  10.167  2.5796  0.7713 -1.0160
 7311SOL     OW33394   4.249   3.443  13.644 -0.8165  0.4379 -0.2850
 7311SOL    HW133395   4.161   3.477  13.662 -0.4426  1.0392  0.4152
 7311SOL    HW233396   4.278   3.414  13.731  1.2228 -2.1895 -1.8371
 7312SOL     OW33397   0.105   1.591   8.308  0.6422 -0.3695  0.1169
 7312SOL    HW133398   0.096   1.514   8.251  0.7839 -1.7484  1.9360
 7312SOL    HW233399   0.016   1.599   8.342  0.9786 -1.5542  1.2842
 7313SOL     OW33400   0.553   3.424   6.694 -0.1418  0.3477 -0.4462
 7313SOL    HW133401   0.582   3.386   6.611  0.1834 -0.3761 -0.0022
 7313SOL    HW233402   0.635   3.464   6.721  0.6954 -0.3923 -1.9322
 7314SOL     OW33403   4.514   0.962   7.401  0.5989 -0.1253  0.0621
 7314SOL    HW133404   4.601   0.925   7.381  1.9691  2.8884  0.5248
 7314SOL    HW233405   4.522   0.958   7.497  0.5848 -5.8293 -0.1567
 7315SOL     OW33406   0.177   1.356  10.992  0.5842  0.5097 -0.1067
 7315SOL    HW133407   0.113   1.292  11.024  0.7333  0.0951 -0.6400
 7315SOL    HW233408   0.148   1.434  11.039 -0.3683  0.4468 -0.5822
 7316SOL     OW33409   3.037   0.942   5.161  0.2760 -0.8465 -0.5397
 7316SOL    HW133410   3.093   0.988   5.223  2.6809  0.8116 -3.9271
 7316SOL    HW233411   2.994   1.019   5.125  0.6303 -0.8586 -0.9867
 7317SOL     OW33412   0.794   1.666   5.908  0.3682 -0.0729 -0.1187
 7317SOL    HW133413   0.760   1.608   5.840 -0.4450 -0.3664  0.5425
 7317SOL    HW233414   0.888   1.648   5.898  0.4573  1.5062 -1.9222
 7318SOL     OW33415   1.776   1.340   5.221 -0.3332 -0.4784  0.1164
 7318SOL    HW133416   1.748   1.326   5.131 -0.4081  0.5727 -0.0224
 7318SOL    HW233417   1.783   1.434   5.236  0.4080 -0.7336  1.3949
 7319SOL     OW33418   4.107   2.169   7.136 -0.4959  0.1220  0.2149
 7319SOL    HW133419   4.197   2.163   7.104 -0.4539 -0.0358  0.3673
 7319SOL    HW233420   4.110   2.098   7.199 -0.9717  0.1470  0.2683
 7320SOL     OW33421   1.217   2.622   5.534  0.1003  0.0673 -0.2010
 7320SOL    HW133422   1.140   2.567   5.548 -0.1376  0.5703  0.5178
 7320SOL    HW233423   1.184   2.695   5.482  0.3578 -0.4647 -1.1080
 7321SOL     OW33424   2.431   1.027   7.427 -0.0398 -0.4088  0.3560
 7321SOL    HW133425   2.365   0.981   7.375 -1.6761 -0.7845  2.8149
 7321SOL    HW233426   2.465   0.956   7.482 -0.5687 -0.8809  0.0771
 7322SOL     OW33427   4.579   2.703  12.965  0.2431 -0.7670 -0.4124
 7322SOL    HW133428   4.557   2.611  12.980 -1.3162 -0.3008  0.1921
 7322SOL    HW233429   4.675   2.700  12.973  0.1871 -1.1383  0.1676
 7323SOL     OW33430   3.139   0.465   9.116  0.6434  0.0067 -0.1122
 7323SOL    HW133431   3.224   0.439   9.151  0.4346  1.2713  1.3313
 7323SOL    HW233432   3.131   0.554   9.150  0.3145  0.0483 -0.3002
 7324SOL     OW33433   1.740   4.343   0.295  0.2902 -0.4806 -0.1281
 7324SOL    HW133434   1.746   4.434   0.323  2.4088 -1.0822  1.3775
 7324SOL    HW233435   1.727   4.354   0.200  0.7398  1.3321  0.0268
 7325SOL     OW33436   3.129   2.020  17.097  0.3030 -0.1620 -0.1244
 7325SOL    HW133437   3.185   2.088  17.133  1.2422 -0.3324 -1.2688
 7325SOL    HW233438   3.186   1.954  17.058 -1.6575 -1.0284 -1.5575
 7326SOL     OW33439   0.124   0.480   8.851  0.1216  0.1135 -0.4999
 7326SOL    HW133440   0.083   0.499   8.935  0.1302 -2.2793  0.0658
 7326SOL    HW233441   0.203   0.436   8.881  0.4486 -0.3521 -2.0360
 7327SOL     OW33442   1.341   0.683  16.915  0.1374  0.0518 -0.1427
 7327SOL    HW133443   1.266   0.681  16.855 -2.2204  0.1664  2.8017
 7327SOL    HW233444   1.415   0.689  16.855  0.2840  1.1887  0.1609
 7328SOL     OW33445   3.109   2.577   7.787  0.6799  0.5441  0.0523
 7328SOL    HW133446   3.085   2.509   7.723  0.7504  1.8146 -1.3323
 7328SOL    HW233447   3.147   2.535   7.864 -2.3976 -0.3935  1.0630
 7329SOL     OW33448   1.616   4.134   5.485 -0.4101 -0.1173 -0.2317
 7329SOL    HW133449   1.626   4.041   5.461 -0.6772 -0.2828  0.3038
 7329SOL    HW233450   1.633   4.138   5.579 -0.3239  1.3791 -0.3180
 7330SOL     OW33451   1.630   2.096  17.420  0.4600  0.4901 -0.3065
 7330SOL    HW133452   1.717   2.096  17.459 -0.7740 -0.1276  2.4604
 7330SOL    HW233453   1.600   2.187  17.411  2.1546  1.1923  1.1675
 7331SOL     OW33454   4.071   0.106  14.632 -0.1436 -0.2648  0.0097
 7331SOL    HW133455   4.116   0.063  14.704 -2.4813 -0.8335  1.1333
 7331SOL    HW233456   4.103   0.055  14.558  1.0839  0.8474 -0.2333
 7332SOL     OW33457   2.600   3.461   1.520  0.2582 -0.1868 -0.6891
 7332SOL    HW133458   2.530   3.443   1.458  1.0959 -1.5782 -1.2337
 7332SOL    HW233459   2.575   3.553   1.522  0.5660 -0.0977 -0.9116
 7333SOL     OW33460   1.065   1.383   7.304  0.8491  0.0086  0.1934
 7333SOL    HW133461   1.022   1.409   7.223 -1.4239 -1.1846  0.9973
 7333SOL    HW233462   1.133   1.450   7.304 -0.6547  1.5580 -0.4360
 7334SOL     OW33463   1.966   0.380   7.767  0.0586 -0.1646 -0.6951
 7334SOL    HW133464   1.895   0.444   7.768 -0.0262 -0.2334 -1.9486
 7334SOL    HW233465   1.977   0.367   7.861 -0.7255  1.4793 -0.3788
 7335SOL     OW33466   4.575   0.097   7.700  0.7514  0.2012 -0.1179
 7335SOL    HW133467   4.584   0.013   7.745  1.4004 -0.8776 -2.2669
 7335SOL    HW233468   4.579   0.145   7.783  0.7411  0.5763 -0.3346
 7336SOL     OW33469   4.489   4.176  11.244  1.0235  0.4761 -1.2639
 7336SOL    HW133470   4.577   4.168  11.280  0.8885  2.9996 -0.3423
 7336SOL    HW233471   4.498   4.240  11.173 -1.6455 -0.4977 -2.5031
 7337SOL     OW33472   4.674   4.437   3.026 -0.1849  0.2765  0.0465
 7337SOL    HW133473   0.025   4.479   2.979 -0.1426  0.1635  0.0118
 7337SOL    HW233474   4.609   4.507   3.021 -1.1032 -0.7096 -1.9127
 7338SOL     OW33475   0.960   0.605  13.281  0.0837  0.1273 -0.3809
 7338SOL    HW133476   0.950   0.515  13.309  1.7299  0.9630  2.8723
 7338SOL    HW233477   0.891   0.653  13.325  0.0153  1.0507 -1.4862
 7339SOL     OW33478   1.287   0.178   5.892  0.1492 -0.0429  0.1685
 7339SOL    HW133479   1.374   0.200   5.924 -0.2379  0.7244  0.7000
 7339SOL    HW233480   1.260   0.105   5.948 -3.1426  1.2386  0.2687
 7340SOL     OW33481   2.963   2.219   9.679 -0.0354 -0.1659  0.1155
 7340SOL    HW133482   3.022   2.144   9.690 -1.8135 -1.1246  3.0248
 7340SOL    HW233483   2.886   2.173   9.645  1.2365  0.8402 -4.0987
 7341SOL     OW33484   2.662   4.305   7.804 -0.1951 -0.3416  0.4687
 7341SOL    HW133485   2.665   4.294   7.708 -1.2101 -0.6144  0.4699
 7341SOL    HW233486   2.580   4.354   7.808  1.0030  1.4991  2.2821
 7342SOL     OW33487   3.589   3.088  15.502  0.4155  0.1408 -0.6549
 7342SOL    HW133488   3.643   3.161  15.530 -0.9746  0.9951 -0.1734
 7342SOL    HW233489   3.514   3.102  15.561  1.4558  1.3619  0.3601
 7343SOL     OW33490   2.599   3.187   2.288  0.0592 -0.1261 -0.0868
 7343SOL    HW133491   2.666   3.131   2.249  1.1841 -0.1551  1.9174
 7343SOL    HW233492   2.522   3.139   2.256 -1.7654  3.5702 -1.2870
 7344SOL     OW33493   3.052   1.188   9.989 -0.0911  0.0804  0.2816
 7344SOL    HW133494   3.028   1.134   9.914  1.5588 -1.1477  0.6470
 7344SOL    HW233495   2.971   1.235  10.008  1.7376  2.9869  0.7815
 7345SOL     OW33496   4.449   1.819  10.705  0.3301 -0.6692  0.2678
 7345SOL    HW133497   4.475   1.763  10.632  0.6097  1.5780 -1.3377
 7345SOL    HW233498   4.448   1.905  10.664 -0.7969 -1.3432 -1.1550
 7346SOL     OW33499   2.182   2.038  12.815 -0.3876  0.3230 -0.2578
 7346SOL    HW133500   2.161   1.946  12.830  0.7712  0.1712  0.5190
 7346SOL    HW233501   2.169   2.085  12.897 -1.5382  0.6468 -0.6353
 7347SOL     OW33502   3.193   0.180   7.584 -0.0314  0.6289 -0.0260
 7347SOL    HW133503   3.198   0.088   7.608 -0.1876  0.6205 -0.0305
 7347SOL    HW233504   3.184   0.223   7.669 -0.3042 -0.9629  0.7485
 7348SOL     OW33505   2.071   4.153   3.053 -0.6047 -0.0873  0.1972
 7348SOL    HW133506   2.087   4.101   3.132  0.8959 -0.4931 -0.3833
 7348SOL    HW233507   2.158   4.191   3.039 -0.4780 -1.6695 -3.2788
 7349SOL     OW33508   3.098   4.225   4.294  0.2539 -0.3507 -0.1332
 7349SOL    HW133509   3.062   4.242   4.207  1.1540  3.4273  0.2360
 7349SOL    HW233510   3.097   4.312   4.334 -1.6021  0.8011 -2.7272
 7350SOL     OW33511   0.401   2.869  13.310 -0.1295  0.0944 -0.1514
 7350SOL    HW133512   0.461   2.942  13.323 -1.6794  1.1054  1.3676
 7350SOL    HW233513   0.384   2.874  13.216 -2.0264  2.0314  0.2877
 7351SOL     OW33514   1.717   3.895   5.421  0.1862 -0.1372 -0.3343
 7351SOL    HW133515   1.810   3.905   5.440  0.5734 -1.1409 -1.6796
 7351SOL    HW233516   1.712   3.890   5.325  1.4631  0.9484 -0.4472
 7352SOL     OW33517   2.115   1.004   5.556 -0.2033  0.3303  0.1828
 7352SOL    HW133518   2.141   0.913   5.568  1.2943  0.3749 -2.8202
 7352SOL    HW233519   2.030   1.003   5.602 -0.8796  0.0715 -1.0680
 7353SOL     OW33520   1.345   3.699   3.741  0.3193  0.8041  0.4482
 7353SOL    HW133521   1.277   3.690   3.809  0.4717 -0.5797  0.4155
 7353SOL    HW233522   1.397   3.624   3.770  1.0869  1.2199  0.1434
 7354SOL     OW33523   2.432   1.805   6.730  0.0740 -0.2035  0.3629
 7354SOL    HW133524   2.345   1.795   6.770 -0.4892 -0.9147 -1.0586
 7354SOL    HW233525   2.451   1.713   6.712  5.0074  0.6853  0.9962
 7355SOL     OW33526   2.007   1.373   8.429 -0.2768 -0.6601  0.3417
 7355SOL    HW133527   2.075   1.318   8.469 -1.0587 -0.0795  2.4914
 7355SOL    HW233528   1.997   1.326   8.346  1.2702  0.9207 -0.7412
 7356SOL     OW33529   4.335   2.232   1.954  0.0024  0.1053 -0.6421
 7356SOL    HW133530   4.318   2.313   1.904 -0.7021  0.8168  0.7458
 7356SOL    HW233531   4.419   2.203   1.918  0.7185  0.6251  0.5969
 7357SOL     OW33532   2.269   1.114  15.135 -0.0321 -0.9639  0.3741
 7357SOL    HW133533   2.270   1.123  15.040 -2.1322 -0.0615  0.4222
 7357SOL    HW233534   2.180   1.079  15.145  0.1819 -2.2491 -2.5356
 7358SOL     OW33535   4.173   0.764   5.743  0.4479  0.7865 -0.3849
 7358SOL    HW133536   4.157   0.683   5.695  0.7377  0.1718  0.5532
 7358SOL    HW233537   4.261   0.794   5.719  0.4129 -0.5475 -2.2063
 7359SOL     OW33538   1.693   3.565   8.507 -0.2459  0.5125  0.0303
 7359SOL    HW133539   1.742   3.482   8.505  0.6082  1.0072  0.6354
 7359SOL    HW233540   1.629   3.542   8.574  2.3961 -1.3365  1.9245
 7360SOL     OW33541   2.959   0.761   5.388  0.0200 -1.0904  0.5599
 7360SOL    HW133542   2.942   0.675   5.351 -3.0082 -0.2560 -0.0138
 7360SOL    HW233543   2.955   0.812   5.307 -1.7711 -0.6889  0.9082
 7361SOL     OW33544   0.297   0.074   6.571  0.2704 -0.1052 -0.2145
 7361SOL    HW133545   0.311   0.169   6.570  0.6280 -0.1566 -0.0726
 7361SOL    HW233546   0.382   0.035   6.551 -0.4416 -1.6025 -0.3203
 7362SOL     OW33547   3.720   0.657   8.182  0.0432 -0.5846  0.6142
 7362SOL    HW133548   3.706   0.630   8.092  3.0706 -0.9293  0.2242
 7362SOL    HW233549   3.715   0.572   8.227 -1.0145 -1.6581 -1.5275
 7363SOL     OW33550   3.765   4.236  16.846  0.7914 -0.4365 -0.3455
 7363SOL    HW133551   3.814   4.282  16.914  2.1513 -0.6931 -1.1572
 7363SOL    HW233552   3.753   4.152  16.892 -0.3986 -0.9455 -1.6020
 7364SOL     OW33553   1.710   0.416   3.387 -0.3217 -0.2858  0.2032
 7364SOL    HW133554   1.792   0.413   3.337 -0.6196  1.4408 -0.3841
 7364SOL    HW233555   1.643   0.409   3.318  0.3234 -1.1199 -0.3374
 7365SOL     OW33556   4.085   2.838  15.042 -0.1490 -0.1803 -0.3929
 7365SOL    HW133557   4.089   2.931  15.018  1.0769 -0.1568 -0.0833
 7365SOL    HW233558   4.046   2.809  14.960 -1.2858  1.0004 -0.2658
 7366SOL     OW33559   3.682   2.007   7.581 -0.3660 -0.3662  0.4525
 7366SOL    HW133560   3.737   1.933   7.556  0.4127  0.0416  0.9730
 7366SOL    HW233561   3.625   2.035   7.509 -1.0123 -1.7201  0.4435
 7367SOL     OW33562   3.958   2.338  16.000 -0.5278  0.1301  0.5818
 7367SOL    HW133563   3.983   2.315  16.090  0.3160  0.8908  0.5360
 7367SOL    HW233564   4.011   2.416  15.990  2.2113 -1.7872  0.1891
 7368SOL     OW33565   2.340   1.399   7.809  0.2489  0.0860  0.5514
 7368SOL    HW133566   2.247   1.395   7.832 -0.0765 -0.3804 -0.8590
 7368SOL    HW233567   2.342   1.343   7.731  0.9748  1.2551 -0.2692
 7369SOL     OW33568   2.814   1.038   5.825 -0.3163  0.4450  0.3315
 7369SOL    HW133569   2.808   1.113   5.884  0.2855  2.3726 -2.0376
 7369SOL    HW233570   2.910   1.033   5.826 -0.3746 -0.4167  1.2635
 7370SOL     OW33571   1.268   4.379  12.359  0.3271  0.1328 -0.5542
 7370SOL    HW133572   1.351   4.336  12.338  0.1396 -1.3312  1.6719
 7370SOL    HW233573   1.271   4.465  12.318 -0.2448  1.7778  2.8462
 7371SOL     OW33574   0.149   2.743   5.412 -0.0497 -1.0561 -0.0632
 7371SOL    HW133575   0.121   2.811   5.474 -0.0008 -0.9956 -0.1071
 7371SOL    HW233576   0.183   2.684   5.479 -0.0748  0.1839  1.0410
 7372SOL     OW33577   2.589   0.297   0.483  0.1531 -0.8877 -0.1475
 7372SOL    HW133578   2.667   0.270   0.530 -0.4721 -1.3107  0.6401
 7372SOL    HW233579   2.576   0.233   0.413  1.7030 -1.7134  0.3300
 7373SOL     OW33580   2.523   2.794  12.254 -0.5670 -0.1225 -0.2530
 7373SOL    HW133581   2.440   2.813  12.299 -0.0115  2.1372 -0.1566
 7373SOL    HW233582   2.499   2.754  12.171  0.5477  1.0764 -1.1682
 7374SOL     OW33583   0.223   0.912   4.770  0.1516 -0.5628  0.1517
 7374SOL    HW133584   0.160   0.981   4.748  0.2949 -1.0309 -1.7552
 7374SOL    HW233585   0.177   0.861   4.837  0.4058 -0.2351  0.5747
 7375SOL     OW33586   3.141   0.868   3.213  0.3080 -0.1480 -0.0592
 7375SOL    HW133587   3.205   0.936   3.190  2.1186 -1.6073  0.6163
 7375SOL    HW233588   3.166   0.794   3.158  0.6883  0.9745 -1.3998
 7376SOL     OW33589   1.609   0.618   8.056 -0.1201 -0.5404  0.2276
 7376SOL    HW133590   1.599   0.603   8.150 -3.2836 -0.8934 -0.1513
 7376SOL    HW233591   1.526   0.652   8.022  0.4967  0.2449 -0.4790
 7377SOL     OW33592   2.631   2.417   0.925 -0.4938 -0.1840 -0.0393
 7377SOL    HW133593   2.721   2.385   0.916  0.2388  1.6914  0.5695
 7377SOL    HW233594   2.637   2.513   0.926  1.1883 -0.2918  0.2095
 7378SOL     OW33595   0.986   0.330   4.768 -0.3625 -0.4216 -0.4345
 7378SOL    HW133596   0.962   0.406   4.715  0.2700 -0.0968 -0.2488
 7378SOL    HW233597   0.979   0.251   4.714 -0.7893 -0.0644 -0.8991
 7379SOL     OW33598   0.542   4.481  16.331 -0.4672 -0.9885  0.2558
 7379SOL    HW133599   0.597   4.560  16.333  0.2162 -1.4773  0.9664
 7379SOL    HW233600   0.459   4.515  16.365  0.1047  0.4611  0.1889
 7380SOL     OW33601   3.625   0.248   4.814 -0.5126 -0.4976 -0.2574
 7380SOL    HW133602   3.641   0.337   4.845 -1.4354 -0.0180 -1.1516
 7380SOL    HW233603   3.565   0.284   4.748 -0.6380 -0.7202 -0.2659
 7381SOL     OW33604   2.852   2.469   7.878 -0.0476 -0.2310 -0.4324
 7381SOL    HW133605   2.868   2.375   7.885  1.0691 -0.0242 -0.2118
 7381SOL    HW233606   2.896   2.493   7.797 -0.1428 -1.6415 -0.8993
 7382SOL     OW33607   3.284   1.390   4.476  0.2019 -0.2313 -0.0878
 7382SOL    HW133608   3.362   1.446   4.471  0.8962 -1.3923 -2.1610
 7382SOL    HW233609   3.318   1.325   4.415  0.2743  2.5298 -2.9884
 7383SOL     OW33610   3.050   1.917   2.248 -0.8467  0.0816 -0.4640
 7383SOL    HW133611   3.100   1.870   2.314 -1.2539  0.5774  0.1935
 7383SOL    HW233612   3.119   1.944   2.187 -1.3796  0.0821 -1.0670
 7384SOL     OW33613   1.659   1.659   6.327 -0.1224  0.7936 -0.0348
 7384SOL    HW133614   1.701   1.634   6.245 -0.6186 -2.4853  0.6861
 7384SOL    HW233615   1.644   1.747   6.295  1.7280  0.5958 -1.5191
 7385SOL     OW33616   2.839   1.087   4.694 -0.2619 -0.4277  0.0780
 7385SOL    HW133617   2.748   1.110   4.710 -0.4534  0.1826 -1.8771
 7385SOL    HW233618   2.841   1.023   4.623  3.5091 -0.5638  0.2547
 7386SOL     OW33619   0.099   0.205   5.512  0.0980  0.2210 -0.1154
 7386SOL    HW133620   0.140   0.226   5.429  2.7466  0.4360  1.2607
 7386SOL    HW233621   0.136   0.273   5.567  1.2973  0.6811 -1.4933
 7387SOL     OW33622   1.840   3.393   7.401  0.7392  0.0430 -0.1973
 7387SOL    HW133623   1.839   3.314   7.346 -2.2877  0.7998 -1.2287
 7387SOL    HW233624   1.902   3.356   7.464 -2.2731  1.1132  3.3428
 7388SOL     OW33625   2.958   1.006  14.672  0.0276  0.1902  0.0119
 7388SOL    HW133626   2.976   1.082  14.727 -0.3948  0.4639 -0.2351
 7388SOL    HW233627   2.889   0.971  14.729 -0.3931  1.0909  0.0629
 7389SOL     OW33628   2.885   2.621   8.474 -0.0067 -0.6648 -0.3525
 7389SOL    HW133629   2.820   2.637   8.542  2.3523 -2.7559  2.3641
 7389SOL    HW233630   2.859   2.688   8.411  0.3330  0.3370  0.5784
 7390SOL     OW33631   4.097   3.502   6.844 -0.0866 -0.4110  0.1094
 7390SOL    HW133632   4.083   3.446   6.767 -0.4609 -0.3336  0.1243
 7390SOL    HW233633   4.007   3.515   6.873  0.3557  1.2226  0.7303
 7391SOL     OW33634   1.271   1.544   7.756 -0.0161  0.6530  0.3076
 7391SOL    HW133635   1.201   1.481   7.772  0.5960 -0.2216 -0.4640
 7391SOL    HW233636   1.300   1.536   7.665 -3.6892  0.4496 -0.8252
 7392SOL     OW33637   0.613   1.733   7.483  0.1473 -0.2359  0.0985
 7392SOL    HW133638   0.563   1.800   7.529  1.4159  0.3999  0.5426
 7392SOL    HW233639   0.554   1.657   7.488 -0.9024  0.7224  1.9371
 7393SOL     OW33640   1.287   3.894   8.171  0.3077 -0.4631  0.1361
 7393SOL    HW133641   1.260   3.983   8.192 -1.4459 -0.5405 -1.7584
 7393SOL    HW233642   1.214   3.839   8.202  2.8805 -3.3340  1.1180
 7394SOL     OW33643   0.457   0.504  10.969 -0.4637  0.0671  0.1074
 7394SOL    HW133644   0.541   0.459  10.968 -0.4520  0.0850  0.2092
 7394SOL    HW233645   0.397   0.442  11.012  0.3832  0.5481  2.0147
 7395SOL     OW33646   4.094   1.794   9.094  0.4054  0.0340  0.1353
 7395SOL    HW133647   4.068   1.881   9.064  0.8192  0.5572  1.2626
 7395SOL    HW233648   4.150   1.831   9.163  2.7519  1.4356 -2.5019
 7396SOL     OW33649   0.753   3.415   5.969  0.3497  0.4626  0.0776
 7396SOL    HW133650   0.790   3.453   6.048  0.2573  0.8930 -0.0852
 7396SOL    HW233651   0.726   3.494   5.922 -0.2361  0.4560  0.4062
 7397SOL     OW33652   2.965   4.465  11.277  0.0298 -0.2544 -0.2605
 7397SOL    HW133653   2.998   4.500  11.360 -0.3154  0.4035 -0.4053
 7397SOL    HW233654   2.979   4.372  11.296 -0.3995 -0.0543  1.0770
 7398SOL     OW33655   2.365   0.660   3.176 -0.1571  0.3426 -0.0024
 7398SOL    HW133656   2.427   0.610   3.123 -0.1539 -0.1783  0.5036
 7398SOL    HW233657   2.410   0.662   3.260  0.5755 -0.9531 -0.3671
 7399SOL     OW33658   0.227   2.596   9.947  0.0933 -0.5360  0.1172
 7399SOL    HW133659   0.186   2.516   9.913 -0.8986  0.0912 -0.1555
 7399SOL    HW233660   0.196   2.605  10.037  1.6255 -1.5479  0.7682
 7400SOL     OW33661   0.075   2.231  10.346 -0.3432  0.2411  0.0013
 7400SOL    HW133662   0.003   2.170  10.329  2.6509 -2.8329 -1.7295
 7400SOL    HW233663   0.135   2.242  10.272 -0.0107 -1.6380 -0.0183
 7401SOL     OW33664   2.194   3.072  12.889  0.0721  0.2061 -0.0238
 7401SOL    HW133665   2.210   3.165  12.904 -1.4868  0.2287  1.5204
 7401SOL    HW233666   2.122   3.071  12.826  0.2582  0.4911 -0.2388
 7402SOL     OW33667   1.397   0.083  13.562  0.0109 -0.5347  0.0626
 7402SOL    HW133668   1.370   0.043  13.644 -0.9566  0.2893  0.1400
 7402SOL    HW233669   1.327   0.059  13.501  1.0706 -1.8610 -0.6317
 7403SOL     OW33670   4.285   1.708   4.512 -0.6562  0.3250 -0.4522
 7403SOL    HW133671   4.293   1.746   4.600  0.6419 -2.6050  0.6794
 7403SOL    HW233672   4.250   1.787   4.470 -0.9289 -0.6963 -2.1571
 7404SOL     OW33673   2.067   4.609   5.958  0.2189 -0.0855  0.1934
 7404SOL    HW133674   2.067   4.658   6.040  0.8664 -1.4548  1.0108
 7404SOL    HW233675   2.004   4.661   5.908  1.6828  0.2970 -1.2698
 7405SOL     OW33676   1.840   0.464   2.059  0.4184 -0.0788  0.0110
 7405SOL    HW133677   1.846   0.369   2.072 -1.8238 -0.0656  1.2351
 7405SOL    HW233678   1.753   0.463   2.020  0.1405  1.9149  0.6083
 7406SOL     OW33679   0.115   1.270  12.883 -0.2940  0.4547 -1.1528
 7406SOL    HW133680   0.042   1.298  12.829 -1.2277  0.5379  0.1544
 7406SOL    HW233681   0.106   1.315  12.968  0.6679 -3.0982  0.8315
 7407SOL     OW33682   2.005   3.630   0.611 -0.0389 -0.3827  0.0477
 7407SOL    HW133683   2.042   3.561   0.666 -0.1952 -0.2260  0.3444
 7407SOL    HW233684   2.077   3.654   0.553 -0.6408 -2.2995 -1.5139
 7408SOL     OW33685   4.348   3.548   5.380 -0.7225 -0.3497 -0.2213
 7408SOL    HW133686   4.359   3.643   5.371  1.6766 -0.4033  2.1324
 7408SOL    HW233687   4.383   3.522   5.295 -0.0715  0.5164 -0.2168
 7409SOL     OW33688   4.218   0.378   6.617 -1.2767  0.5648  0.1012
 7409SOL    HW133689   4.281   0.308   6.634 -2.6993 -0.5825  0.6451
 7409SOL    HW233690   4.273   0.455   6.600  0.2631 -0.3139  1.0686
 7410SOL     OW33691   1.939   1.000   6.169 -0.0575 -0.9548  0.0297
 7410SOL    HW133692   2.033   0.988   6.161  0.1223 -0.2884  1.2077
 7410SOL    HW233693   1.950   1.087   6.206 -1.0064 -0.6098 -0.4820
 7411SOL     OW33694   2.476   3.977   6.836 -0.5976  0.2522  0.1107
 7411SOL    HW133695   2.471   4.014   6.748 -1.3821 -0.7073 -0.2413
 7411SOL    HW233696   2.409   4.030   6.879 -2.1042 -1.0170 -0.6803
 7412SOL     OW33697   4.565   0.956   6.212 -0.0420  0.3166 -0.3851
 7412SOL    HW133698   4.475   0.987   6.225 -0.6455 -2.2026  1.4052
 7412SOL    HW233699   4.552   0.863   6.194  0.2127  0.2478 -0.2079
 7413SOL     OW33700   3.592   1.693   4.988  0.0603 -0.4865  0.1161
 7413SOL    HW133701   3.612   1.620   5.047  0.1665 -0.8878 -0.4184
 7413SOL    HW233702   3.529   1.647   4.932  0.2454 -0.3692 -0.1884
 7414SOL     OW33703   1.987   0.755   1.277 -0.7314 -0.0793  0.0627
 7414SOL    HW133704   2.049   0.729   1.345  0.9363  0.2910 -1.3005
 7414SOL    HW233705   2.008   0.699   1.203  0.8514  0.1133  0.3694
 7415SOL     OW33706   1.819   2.340   6.397 -0.2263 -0.1392  0.2365
 7415SOL    HW133707   1.878   2.318   6.325 -0.9939  0.4816 -0.5666
 7415SOL    HW233708   1.794   2.250   6.417 -1.1111  0.7442  3.0903
 7416SOL     OW33709   1.040   2.587  15.485 -0.5196 -0.1274  0.3007
 7416SOL    HW133710   1.075   2.610  15.399 -1.4663  1.0555  0.2436
 7416SOL    HW233711   1.054   2.493  15.493  2.0723  0.2780  0.7325
 7417SOL     OW33712   3.152   3.921   8.058  0.6113  0.4502  0.3266
 7417SOL    HW133713   3.152   3.860   7.984 -3.1197 -0.4064  1.0405
 7417SOL    HW233714   3.145   4.009   8.022 -1.1771 -0.8754 -2.5427
 7418SOL     OW33715   1.029   1.935   6.011 -0.1655  0.2916 -0.3689
 7418SOL    HW133716   1.075   1.860   5.974 -2.6407 -1.8745  0.9132
 7418SOL    HW233717   1.099   2.000   6.010 -0.3483  0.5003  1.5172
 7419SOL     OW33718   2.411   2.083   6.462 -0.4189 -0.2709  0.0072
 7419SOL    HW133719   2.486   2.060   6.407 -2.7729 -0.3284 -3.1379
 7419SOL    HW233720   2.443   2.072   6.552  2.5584 -0.1976 -1.0253
 7420SOL     OW33721   1.520   0.517   6.922 -0.3542 -0.2878 -0.2235
 7420SOL    HW133722   1.486   0.604   6.902 -0.8157 -0.2039  0.9394
 7420SOL    HW233723   1.593   0.537   6.980 -0.1684  2.6095 -1.4460
 7421SOL     OW33724   0.949   3.199   6.046 -0.6340 -0.2110  0.3008
 7421SOL    HW133725   0.886   3.270   6.033  1.1669  1.1759 -0.8060
 7421SOL    HW233726   0.971   3.179   5.955 -0.3959 -0.3111  0.3803
 7422SOL     OW33727   1.310   0.571   2.108 -0.1395 -0.2989  0.4198
 7422SOL    HW133728   1.252   0.587   2.033  3.4627 -0.0734 -2.2615
 7422SOL    HW233729   1.267   0.633   2.168 -0.2906 -0.1994  0.2090
 7423SOL     OW33730   3.926   3.417   2.635  0.2961 -0.1632  0.5603
 7423SOL    HW133731   3.969   3.459   2.561 -2.3315 -0.6980 -1.2728
 7423SOL    HW233732   3.990   3.369   2.686 -2.1081 -2.5223  1.3769
 7424SOL     OW33733   1.726   3.794  11.294  0.2398 -0.7682 -0.2431
 7424SOL    HW133734   1.718   3.706  11.257 -1.1231 -0.9731  0.5602
 7424SOL    HW233735   1.700   3.774  11.384  1.9230  4.1959  1.3367
 7425SOL     OW33736   1.750   2.217   4.005 -0.0583  0.4915  0.1190
 7425SOL    HW133737   1.790   2.154   3.945 -1.9580 -0.3172 -0.3093
 7425SOL    HW233738   1.661   2.215   3.970 -1.4757 -0.3487  3.7273
 7426SOL     OW33739   1.190   2.915   8.385  0.5874 -0.6288  0.0659
 7426SOL    HW133740   1.207   2.925   8.479 -1.9816 -0.1536  0.4778
 7426SOL    HW233741   1.095   2.929   8.382  0.5858 -0.7737 -0.5068
 7427SOL     OW33742   2.150   2.868   3.320  0.9078  0.2618 -0.1776
 7427SOL    HW133743   2.219   2.934   3.309  0.7226  0.8537  2.1742
 7427SOL    HW233744   2.154   2.859   3.415 -0.3903 -2.0667 -0.3585
 7428SOL     OW33745   4.421   0.669   3.300 -0.3554  0.2741 -0.0494
 7428SOL    HW133746   4.435   0.631   3.213  0.8913 -2.2065  1.2408
 7428SOL    HW233747   4.365   0.597   3.330  1.7171 -1.6138 -0.7514
 7429SOL     OW33748   2.388   0.979   3.054 -0.2316  0.6698  0.3168
 7429SOL    HW133749   2.383   1.075   3.054  0.8554  0.7279  0.4717
 7429SOL    HW233750   2.351   0.961   3.141 -0.5739 -1.5695 -0.2940
 7430SOL     OW33751   3.503   1.805   4.068  0.0166 -0.1735 -0.6724
 7430SOL    HW133752   3.517   1.730   4.011  0.7479 -0.1815 -0.4719
 7430SOL    HW233753   3.585   1.805   4.117 -0.5870 -0.0264  0.3285
 7431SOL     OW33754   1.731   3.011  12.942  0.8324  0.0817 -0.0888
 7431SOL    HW133755   1.711   2.957  13.019  1.0800 -0.9548 -0.7455
 7431SOL    HW233756   1.750   2.948  12.872 -1.1533  0.9411 -1.4053
 7432SOL     OW33757   2.665   3.620   6.548 -0.1967 -0.3017  0.0810
 7432SOL    HW133758   2.739   3.561   6.554 -1.0058 -1.2722  0.5366
 7432SOL    HW233759   2.641   3.617   6.641 -0.5861  0.0892 -0.0058
 7433SOL     OW33760   0.178   0.522   1.621 -0.0305 -0.3810 -0.1745
 7433SOL    HW133761   0.232   0.552   1.695 -0.6242  0.2112  0.0075
 7433SOL    HW233762   0.146   0.609   1.599 -2.8254 -1.5297 -0.6405
 7434SOL     OW33763   4.160   0.685   6.755  0.2464  0.2256 -0.5712
 7434SOL    HW133764   4.121   0.610   6.800 -1.3937  1.1491 -0.4593
 7434SOL    HW233765   4.221   0.653   6.689 -0.5605 -2.4384 -0.0328
 7435SOL     OW33766   0.307   1.042   0.899 -0.4151 -0.3287  0.1578
 7435SOL    HW133767   0.347   0.970   0.851  1.3459 -0.9192  2.5612
 7435SOL    HW233768   0.388   1.086   0.924 -0.1768 -1.6442  1.6627
 7436SOL     OW33769   0.844   3.099   7.424 -0.1268 -0.2882  0.3592
 7436SOL    HW133770   0.760   3.116   7.382 -0.0174  2.3788  1.2083
 7436SOL    HW233771   0.873   3.183   7.461  0.1541  0.5618 -1.7857
 7437SOL     OW33772   1.235   4.053   4.593 -0.0762 -0.3694 -0.1741
 7437SOL    HW133773   1.276   4.078   4.676 -1.6618  2.0566 -0.0998
 7437SOL    HW233774   1.143   4.066   4.618  1.2164  0.5843  3.9656
 7438SOL     OW33775   0.416   1.775   3.953  0.1353  0.3419 -0.2012
 7438SOL    HW133776   0.509   1.791   3.942 -0.0649  0.1757 -2.1473
 7438SOL    HW233777   0.372   1.829   3.887 -3.2954  0.5170  2.2101
 7439SOL     OW33778   4.315   2.107   2.736 -0.3456  0.1602 -0.1634
 7439SOL    HW133779   4.373   2.067   2.801  0.0577 -1.7315 -1.6802
 7439SOL    HW233780   4.286   2.028   2.691 -0.9468 -0.2511  0.9276
 7440SOL     OW33781   1.283   3.465   0.517 -0.1526 -0.0327  0.1865
 7440SOL    HW133782   1.194   3.499   0.510 -0.8056 -2.0933 -1.7164
 7440SOL    HW233783   1.281   3.413   0.597  0.1438  1.8309  1.3874
 7441SOL     OW33784   1.922   3.444   8.251  0.1813  0.5008  0.5828
 7441SOL    HW133785   2.003   3.394   8.256  0.2607  0.7103  1.4158
 7441SOL    HW233786   1.896   3.453   8.343 -0.2460 -1.2983  0.6378
 7442SOL     OW33787   3.809   0.079   1.897  0.1600  0.3126 -0.4906
 7442SOL    HW133788   3.861   0.147   1.853  2.3980 -1.7804 -1.0690
 7442SOL    HW233789   3.738   0.083   1.833  0.6230 -0.7318 -1.0714
 7443SOL     OW33790   0.579   0.954   6.483 -0.4214 -0.9395  0.1518
 7443SOL    HW133791   0.638   0.976   6.412 -1.1462 -0.6229 -0.3481
 7443SOL    HW233792   0.601   1.022   6.546 -0.9488  1.3332 -2.1323
 7444SOL     OW33793   0.384   1.704  15.956  0.6795 -0.2864 -0.1995
 7444SOL    HW133794   0.303   1.754  15.948  1.2003  0.8121  1.4624
 7444SOL    HW233795   0.413   1.709  16.047 -0.0977 -0.9130  0.0787
 7445SOL     OW33796   3.974   3.051  10.197  0.4805  0.5945 -0.3145
 7445SOL    HW133797   3.990   3.033  10.290  0.7557  2.0042 -0.0946
 7445SOL    HW233798   3.907   2.985  10.180 -0.3741  1.4717 -0.3392
 7446SOL     OW33799   0.427   0.754   4.685  0.3182  0.0196  0.6838
 7446SOL    HW133800   0.356   0.813   4.712  1.0115  0.7796  0.8197
 7446SOL    HW233801   0.478   0.819   4.637 -1.4571  0.0059 -1.2349
 7447SOL     OW33802   1.362   4.111   7.268  0.4803 -0.1239 -0.2531
 7447SOL    HW133803   1.411   4.120   7.186  0.0933  0.1403 -0.4509
 7447SOL    HW233804   1.271   4.111   7.240  0.4747 -0.3967 -0.2349
 7448SOL     OW33805   2.181   1.567   7.109  0.0038  0.1183  0.9100
 7448SOL    HW133806   2.246   1.511   7.152  2.4221  2.4591  0.3415
 7448SOL    HW233807   2.209   1.654   7.140 -0.0064  0.5862 -0.3812
 7449SOL     OW33808   2.612   0.639   3.844  0.0709  0.0100 -0.3534
 7449SOL    HW133809   2.622   0.635   3.939  3.0143 -2.8224 -0.7915
 7449SOL    HW233810   2.693   0.683   3.821  0.3715  0.6816  2.0244
 7450SOL     OW33811   3.264   4.299  16.023 -0.1025  0.0615  0.2927
 7450SOL    HW133812   3.324   4.232  16.055  0.4074  0.8443  0.9735
 7450SOL    HW233813   3.264   4.285  15.928  4.9957  0.4586  0.2341
 7451SOL     OW33814   3.042   2.032   4.662  0.3413 -0.5433  0.0564
 7451SOL    HW133815   3.038   1.970   4.589 -0.9344  0.6332 -0.8658
 7451SOL    HW233816   3.048   2.117   4.618 -0.2345 -1.3711 -1.6021
 7452SOL     OW33817   0.144   1.129   3.073  0.6014  0.1439  0.2159
 7452SOL    HW133818   0.084   1.096   3.139 -1.4821  2.3131 -0.5747
 7452SOL    HW233819   0.210   1.062   3.089 -0.6717 -1.7162 -2.1632
 7453SOL     OW33820   3.356   3.371   4.215  0.2064  0.0645 -0.4813
 7453SOL    HW133821   3.269   3.334   4.200 -0.6785  2.3282 -0.8090
 7453SOL    HW233822   3.396   3.335   4.135  1.2865  0.2927 -0.0406
 7454SOL     OW33823   0.130   0.933   1.481  0.0391 -0.0677  0.1144
 7454SOL    HW133824   0.048   0.983   1.475 -0.6611 -1.3288 -0.9995
 7454SOL    HW233825   0.103   0.853   1.526  1.5921 -0.0960  0.9839
 7455SOL     OW33826   0.901   1.870   4.155  0.2205  0.0059  0.0349
 7455SOL    HW133827   0.850   1.950   4.162 -0.1532 -0.4211  2.1114
 7455SOL    HW233828   0.836   1.802   4.135 -0.2309  0.0751  1.3010
 7456SOL     OW33829   1.648   3.081   8.908 -0.0559  0.5409  0.0204
 7456SOL    HW133830   1.570   3.034   8.938 -0.3583  1.7087  1.0500
 7456SOL    HW233831   1.697   3.082   8.991 -1.2445  1.5468  0.7134
 7457SOL     OW33832   0.774   2.607   1.505  0.6807 -0.6722 -0.5207
 7457SOL    HW133833   0.702   2.564   1.552 -0.4037  1.1036 -0.5872
 7457SOL    HW233834   0.833   2.622   1.579 -1.2901  0.6762  0.7720
 7458SOL     OW33835   3.832   2.733  12.664 -0.2234 -0.1582  0.0350
 7458SOL    HW133836   3.838   2.728  12.760 -1.0822 -0.7664  0.0525
 7458SOL    HW233837   3.738   2.741  12.654 -0.2754 -0.9550 -0.1416
 7459SOL     OW33838   3.502   4.072  14.792 -0.4811 -0.0065  0.2509
 7459SOL    HW133839   3.496   4.167  14.790  2.5430  0.1987  0.3545
 7459SOL    HW233840   3.548   4.057  14.874 -1.0101  0.3383  0.6054
 7460SOL     OW33841   2.150   0.484   3.078 -0.3901 -0.3968 -0.1158
 7460SOL    HW133842   2.222   0.535   3.116 -2.8711  0.5255  3.2693
 7460SOL    HW233843   2.108   0.548   3.021 -0.1736 -0.4002 -0.2841
 7461SOL     OW33844   4.653   4.420  12.257  0.0117 -0.4930 -0.6109
 7461SOL    HW133845   4.716   4.453  12.320  0.5420 -1.4100 -0.6743
 7461SOL    HW233846   4.627   4.333  12.287  2.2718 -1.1073 -0.4159
 7462SOL     OW33847   2.701   2.198   7.576 -0.1366 -0.7272  0.3176
 7462SOL    HW133848   2.630   2.137   7.557 -1.2816  0.5652  0.4421
 7462SOL    HW233849   2.701   2.236   7.488  2.2788 -1.0564  0.1697
 7463SOL     OW33850   2.950   4.091   2.634  0.4652  0.1210 -0.4630
 7463SOL    HW133851   2.905   4.029   2.692 -0.1357  1.3817  0.4152
 7463SOL    HW233852   3.038   4.054   2.622  0.6651  0.0688  1.1335
 7464SOL     OW33853   0.824   1.158   5.217  0.2596  0.2777  0.0876
 7464SOL    HW133854   0.732   1.148   5.193 -0.3472  0.7331  2.1833
 7464SOL    HW233855   0.833   1.253   5.225 -1.6834  0.3898  0.9473
 7465SOL     OW33856   1.663   0.035   8.930 -0.1046 -0.1918 -0.5035
 7465SOL    HW133857   1.608   0.021   8.853 -0.3456 -0.0968 -0.3491
 7465SOL    HW233858   1.738   0.074   8.885 -1.1447  2.6612  0.2726
 7466SOL     OW33859   1.886   1.425   5.849  0.5557 -0.2922  0.3297
 7466SOL    HW133860   1.829   1.348   5.855  0.0401  0.0584 -0.0490
 7466SOL    HW233861   1.955   1.400   5.788  0.7886  0.1397  0.4160
 7467SOL     OW33862   2.803   3.162   5.729  0.6041 -0.1411 -0.4133
 7467SOL    HW133863   2.851   3.134   5.807  0.5734 -1.3446 -0.8363
 7467SOL    HW233864   2.847   3.108   5.663 -0.0046  0.2291 -1.1188
 7468SOL     OW33865   3.001   0.594   2.825 -0.5475  0.1059 -0.3688
 7468SOL    HW133866   3.067   0.527   2.809  0.7309  1.3461 -0.2873
 7468SOL    HW233867   2.964   0.599   2.737  0.2759 -1.3052 -0.7921
 7469SOL     OW33868   0.409   3.215   3.816  0.0679 -0.0153 -0.4927
 7469SOL    HW133869   0.440   3.287   3.761  0.6996 -0.0127 -0.1418
 7469SOL    HW233870   0.478   3.219   3.883 -1.0674  0.1056  0.6635
 7470SOL     OW33871   2.774   3.835  12.241  0.0579 -0.4145  0.7916
 7470SOL    HW133872   2.760   3.842  12.147 -0.9879  0.2007  0.9961
 7470SOL    HW233873   2.690   3.810  12.281 -1.4756  0.4452 -1.8931
 7471SOL     OW33874   1.364   3.882   5.387  0.3205  0.2136 -0.2522
 7471SOL    HW133875   1.458   3.861   5.393  0.4296  1.0170  0.8690
 7471SOL    HW233876   1.360   3.931   5.305  2.4480  2.0875  0.7671
 7472SOL     OW33877   0.771   3.606   7.501  0.0277 -0.1672  0.2833
 7472SOL    HW133878   0.754   3.544   7.572 -0.9991  0.2855  0.4371
 7472SOL    HW233879   0.818   3.672   7.551  1.1615 -0.2279 -0.7087
 7473SOL     OW33880   3.493   1.915   5.626 -0.8742 -0.5630 -0.0582
 7473SOL    HW133881   3.559   1.857   5.589 -1.3564 -0.7666 -0.6081
 7473SOL    HW233882   3.469   1.971   5.552  1.0707  1.3783  0.7816
 7474SOL     OW33883   1.384   0.070   8.134 -0.1164 -0.0280  0.1487
 7474SOL    HW133884   1.316   0.076   8.067  0.5084  3.6968 -0.1998
 7474SOL    HW233885   1.324   0.060   8.208  1.9470  0.5822  1.9189
 7475SOL     OW33886   4.671   4.297   9.382  0.1164 -0.8843 -0.0038
 7475SOL    HW133887   4.670   4.331   9.293 -0.1045 -0.4863  0.1497
 7475SOL    HW233888   4.593   4.343   9.413 -0.2144 -1.5271  0.1246
 7476SOL     OW33889   0.350   2.884  13.043 -0.0119 -0.0417  0.8216
 7476SOL    HW133890   0.355   2.979  13.033  2.1265 -0.2927 -0.4040
 7476SOL    HW233891   0.366   2.848  12.956  1.8243 -1.7644  1.8470
 7477SOL     OW33892   1.555   2.918   5.918 -0.5567 -0.2786  0.4504
 7477SOL    HW133893   1.569   2.826   5.894 -0.6468  0.4349 -2.2620
 7477SOL    HW233894   1.462   2.925   5.896 -0.1998  2.4391 -0.1066
 7478SOL     OW33895   2.385   4.700   6.846 -0.0536  0.6194  0.2443
 7478SOL    HW133896   2.423   0.051   6.894  2.0096 -0.7069  0.6564
 7478SOL    HW233897   2.445   4.636   6.884  0.8262  1.3705  0.1407
 7479SOL     OW33898   0.201   4.703   8.351 -0.2525  0.5194  0.6792
 7479SOL    HW133899   0.153   0.028   8.283 -3.0159 -0.1597  2.1682
 7479SOL    HW233900   0.219   0.037   8.426 -0.6723 -1.3117  2.1512
 7480SOL     OW33901   2.105   2.500   1.896  0.4227  0.3128 -0.0549
 7480SOL    HW133902   2.110   2.411   1.930 -0.1769  0.6706  0.9704
 7480SOL    HW233903   2.164   2.491   1.821 -0.6175  1.4656 -1.0057
 7481SOL     OW33904   2.908   0.063   8.677 -0.0305  0.0798  0.0519
 7481SOL    HW133905   2.874   0.110   8.753  0.8163  1.1060 -0.2164
 7481SOL    HW233906   2.942   0.136   8.627  1.2291 -2.1041 -2.2856
 7482SOL     OW33907   3.110   4.293   2.799 -0.1579  0.2837 -0.1734
 7482SOL    HW133908   3.179   4.354   2.771 -0.4326  0.7094  0.0749
 7482SOL    HW233909   3.078   4.339   2.876 -0.1059 -1.8351  1.0896
 7483SOL     OW33910   1.408   0.070   4.769  0.9623 -0.2628 -0.5218
 7483SOL    HW133911   1.419   0.082   4.675 -0.4827  1.7955 -0.4306
 7483SOL    HW233912   1.458   0.144   4.801 -1.8033  0.6190  1.7790
 7484SOL     OW33913   1.081   3.293   0.653 -0.4599 -0.3570 -0.3726
 7484SOL    HW133914   1.092   3.284   0.559  1.0652 -0.6105 -0.1815
 7484SOL    HW233915   0.988   3.270   0.660 -1.5472  3.6736 -1.7591
 7485SOL     OW33916   2.044   2.973   3.844  0.0114  0.4718  0.0563
 7485SOL    HW133917   2.069   2.972   3.937  0.1415  0.0665  0.0175
 7485SOL    HW233918   2.063   2.883   3.819 -1.5453 -0.3985  2.0502
 7486SOL     OW33919   1.319   3.932   6.808 -0.5655 -0.0436  0.2140
 7486SOL    HW133920   1.270   3.976   6.877  2.4483 -1.2016  3.0958
 7486SOL    HW233921   1.379   3.887   6.868 -1.0900  0.8850  1.4325
 7487SOL     OW33922   0.167   1.468  14.327  0.1035  1.1191 -0.1177
 7487SOL    HW133923   0.162   1.469  14.422  1.6229  0.5103 -0.0199
 7487SOL    HW233924   0.100   1.534  14.308  0.1467  0.1360 -3.6701
 7488SOL     OW33925   4.537   0.562   5.040  0.5260 -0.4480 -0.0541
 7488SOL    HW133926   4.504   0.598   5.122 -0.8325 -1.2784 -0.2357
 7488SOL    HW233927   4.495   0.619   4.976 -2.3163 -0.5628  1.7283
 7489SOL     OW33928   1.220   4.525   5.731  0.0214  0.1649  0.6408
 7489SOL    HW133929   1.196   4.539   5.822 -1.1437 -0.9500  0.5038
 7489SOL    HW233930   1.269   4.443   5.738 -1.1024 -0.4970  0.7064
 7490SOL     OW33931   3.582   4.482   6.918  0.2421 -0.8108 -0.1004
 7490SOL    HW133932   3.563   4.413   6.981 -0.1374  0.5130  1.2265
 7490SOL    HW233933   3.503   4.532   6.939 -0.4383 -1.4031 -1.2652
 7491SOL     OW33934   3.814   4.090   7.262 -0.2425  0.4151 -0.0656
 7491SOL    HW133935   3.865   4.010   7.248  0.9438  1.6010 -2.4874
 7491SOL    HW233936   3.814   4.104   7.357  0.5626  1.2025 -0.1833
 7492SOL     OW33937   4.420   3.060  10.239  0.3619  0.4348 -0.0949
 7492SOL    HW133938   4.405   3.127  10.306  0.9353 -0.3722  0.8339
 7492SOL    HW233939   4.494   3.091  10.187  0.4619 -0.7478 -0.6572
 7493SOL     OW33940   4.654   1.877   8.003 -0.3936  0.6398  0.6885
 7493SOL    HW133941   0.022   1.845   8.009  0.3417  2.2248 -1.7264
 7493SOL    HW233942   4.643   1.912   7.914  1.9296 -0.3163  0.0124
 7494SOL     OW33943   0.740   4.661   4.207  0.3060 -0.7104  0.2223
 7494SOL    HW133944   0.719   4.648   4.299 -2.0277  0.1845 -0.1905
 7494SOL    HW233945   0.704   0.024   4.185 -1.1873 -1.2612  0.5232
 7495SOL     OW33946   0.603   2.193   5.508  0.1844 -0.0983 -0.6416
 7495SOL    HW133947   0.590   2.280   5.471  1.0967  0.7344  0.9954
 7495SOL    HW233948   0.605   2.204   5.603  2.0184 -3.9982 -0.2123
 7496SOL     OW33949   0.768   1.375  11.709 -0.0672  0.1244  0.0601
 7496SOL    HW133950   0.745   1.296  11.660 -0.2590 -0.2839  0.8184
 7496SOL    HW233951   0.778   1.434  11.634  1.1569  1.3146  1.1588
 7497SOL     OW33952   2.014   3.751  16.778  0.0059 -0.1750  0.5082
 7497SOL    HW133953   2.063   3.668  16.776 -2.6647 -1.7750  1.5547
 7497SOL    HW233954   1.949   3.729  16.844 -0.6504  1.7167  0.4738
 7498SOL     OW33955   2.107   3.631   2.743  0.0895  0.2841 -0.1692
 7498SOL    HW133956   2.153   3.572   2.804 -2.0996 -0.4543  0.7768
 7498SOL    HW233957   2.152   3.711   2.772 -0.5817  1.2056 -1.7149
 7499SOL     OW33958   0.590   0.183   9.163  0.0339 -0.1524  0.1638
 7499SOL    HW133959   0.607   0.266   9.118  1.6749  0.7511  2.4392
 7499SOL    HW233960   0.602   0.216   9.252 -1.5483  1.9953 -0.4200
 7500SOL     OW33961   3.520   2.503   4.812  0.2853 -0.1354 -0.0516
 7500SOL    HW133962   3.557   2.592   4.812  2.1475 -0.9158  2.2822
 7500SOL    HW233963   3.492   2.499   4.903 -0.6904  0.5026 -0.3175
 7501SOL     OW33964   0.099   4.536   6.993 -0.6849 -0.2387  0.2432
 7501SOL    HW133965   0.052   4.599   6.938 -1.4078  1.8349  3.1678
 7501SOL    HW233966   0.102   4.594   7.070  0.2765  0.7075 -0.5092
 7502SOL     OW33967   2.801   1.985   0.468 -0.1911 -0.0234  0.3176
 7502SOL    HW133968   2.892   1.962   0.486 -0.2523 -1.3431 -1.0044
 7502SOL    HW233969   2.796   2.080   0.478  1.0551  0.0737 -0.0314
 7503SOL     OW33970   0.112   4.039   2.389  0.0893 -0.3897 -0.0640
 7503SOL    HW133971   0.130   3.972   2.455 -0.6827  2.5379  3.1193
 7503SOL    HW233972   0.145   4.119   2.431  0.2246  0.2470 -1.3854
 7504SOL     OW33973   0.696   4.346   3.506 -0.0284 -0.6619 -0.0196
 7504SOL    HW133974   0.681   4.436   3.478 -0.6615 -0.0997  2.0740
 7504SOL    HW233975   0.765   4.370   3.569  1.2578 -1.2311 -1.2173
 7505SOL     OW33976   3.862   0.180  15.000 -0.8760 -0.3177  0.0928
 7505SOL    HW133977   3.847   0.098  14.952 -1.0568  0.1453 -0.6344
 7505SOL    HW233978   3.945   0.163  15.045  0.3233  3.0055 -0.8790
 7506SOL     OW33979   0.708   3.472   7.965 -0.0613  0.2914  0.1781
 7506SOL    HW133980   0.750   3.475   7.878 -1.0839  0.0984 -0.3170
 7506SOL    HW233981   0.786   3.494   8.016 -1.0088 -0.2311  1.8143
 7507SOL     OW33982   0.458   3.639  12.335  0.5256  0.1716 -0.6091
 7507SOL    HW133983   0.426   3.645  12.245  1.0203  0.1957 -0.7871
 7507SOL    HW233984   0.532   3.699  12.345  0.0734  1.0422 -2.4169
 7508SOL     OW33985   0.450   1.063   7.829  0.1523  0.0253  0.4366
 7508SOL    HW133986   0.486   0.975   7.824 -0.2728 -0.0446 -1.4792
 7508SOL    HW233987   0.452   1.071   7.924  0.4899  1.4326  0.3051
 7509SOL     OW33988   3.484   3.512   3.071  0.1862 -0.4504 -0.2254
 7509SOL    HW133989   3.492   3.497   2.977 -2.8798 -1.3899 -0.3296
 7509SOL    HW233990   3.475   3.607   3.070  0.5698 -0.4348 -2.3929
 7510SOL     OW33991   4.387   0.260   4.151  0.0062 -0.5620 -0.2166
 7510SOL    HW133992   4.349   0.223   4.231  2.0788 -2.0460  0.0710
 7510SOL    HW233993   4.322   0.325   4.124  0.7231  0.3384  0.2240
 7511SOL     OW33994   3.042   2.951   6.335  0.2214 -0.0110  0.4628
 7511SOL    HW133995   3.060   2.858   6.345  2.9592  0.6628  1.6613
 7511SOL    HW233996   2.965   2.939   6.278  0.6319  2.5053 -0.6123
 7512SOL     OW33997   1.995   4.016   6.848  0.0733  0.3901  0.1896
 7512SOL    HW133998   1.908   3.984   6.825 -0.3619  2.0264 -0.4395
 7512SOL    HW233999   1.973   4.104   6.878  0.5533  0.0563  1.5511
 7513SOL     OW34000   2.132   1.574  12.103 -0.3916 -0.0009  0.2363
 7513SOL    HW134001   2.191   1.506  12.070 -0.5971  0.9101 -2.0540
 7513SOL    HW234002   2.047   1.543  12.072  0.2244 -1.8805  0.4622
 7514SOL     OW34003   3.797   2.066  16.128  0.0415  0.1521 -0.5889
 7514SOL    HW134004   3.778   2.152  16.164 -1.8737  0.3088 -1.9582
 7514SOL    HW234005   3.727   2.058  16.062  1.4266 -1.3129 -1.8837
 7515SOL     OW34006   1.849   3.585   5.544 -0.6165 -0.0292  0.4199
 7515SOL    HW134007   1.846   3.520   5.614  0.2330 -0.4859  0.0359
 7515SOL    HW234008   1.790   3.647   5.587 -1.2503  0.3237 -0.9632
 7516SOL     OW34009   0.481   0.784  16.128  0.0995  0.2031  0.2799
 7516SOL    HW134010   0.508   0.736  16.206 -0.3062 -2.4583 -1.2089
 7516SOL    HW234011   0.405   0.834  16.159  0.9142 -0.6665  3.7064
 7517SOL     OW34012   2.745   2.795   3.058  0.0055  0.3493  0.3539
 7517SOL    HW134013   2.773   2.824   2.971 -1.0140  1.2452  0.3244
 7517SOL    HW234014   2.658   2.754   3.056  1.5709 -2.7671 -2.8566
 7518SOL     OW34015   3.952   1.040   1.932  0.1414  0.2160 -0.1720
 7518SOL    HW134016   3.979   0.974   1.996 -1.0488 -1.4104 -1.3621
 7518SOL    HW234017   4.035   1.042   1.883  0.9442 -1.5984  1.1113
 7519SOL     OW34018   3.294   1.745  16.301  0.1238 -0.2397  0.1399
 7519SOL    HW134019   3.210   1.771  16.338  0.4318  1.0590 -0.0849
 7519SOL    HW234020   3.259   1.700  16.224 -1.0713 -2.7163  2.1367
 7520SOL     OW34021   1.824   0.022   5.862  0.0649 -0.6971 -0.4518
 7520SOL    HW134022   1.768   0.066   5.799  0.1681 -0.8341 -0.6402
 7520SOL    HW234023   1.793   4.656   5.882 -0.3521 -0.5219 -0.3387
 7521SOL     OW34024   4.331   4.503   5.286  0.3533 -0.0777 -0.4065
 7521SOL    HW134025   4.240   4.487   5.309  0.8390 -4.4677 -1.5293
 7521SOL    HW234026   4.313   4.573   5.223 -0.0675  0.4716  0.3211
 7522SOL     OW34027   4.450   3.572   7.678 -0.1840 -0.1496  0.2183
 7522SOL    HW134028   4.419   3.592   7.590  1.1945 -0.3813 -0.3124
 7522SOL    HW234029   4.374   3.591   7.734 -0.2651 -2.5713  0.8894
 7523SOL     OW34030   4.010   2.680   2.629  0.1319  0.1551  0.7904
 7523SOL    HW134031   4.102   2.657   2.616  0.6521  2.4009  0.4444
 7523SOL    HW234032   4.005   2.651   2.720 -0.0582  1.5476  1.2251
 7524SOL     OW34033   2.679   4.288  10.256 -0.5987 -0.1313  0.1842
 7524SOL    HW134034   2.675   4.254  10.166 -3.0399  0.9396 -0.1004
 7524SOL    HW234035   2.688   4.382  10.241  1.7956 -0.3953 -0.1284
 7525SOL     OW34036   2.956   1.294  15.111 -0.2654 -0.0887  0.4971
 7525SOL    HW134037   2.998   1.279  15.026 -0.0787  0.5208  0.4756
 7525SOL    HW234038   2.873   1.250  15.098  0.0246 -1.2037  2.4289
 7526SOL     OW34039   2.978   4.278   1.914  0.0712  0.5351  0.0354
 7526SOL    HW134040   3.069   4.288   1.886  1.1820 -1.0981  3.0076
 7526SOL    HW234041   2.952   4.365   1.945 -4.1743 -1.3505  1.7979
 7527SOL     OW34042   4.521   0.425   6.327 -0.1147 -0.1392 -0.4659
 7527SOL    HW134043   4.458   0.366   6.287  0.4738 -1.1023  0.0048
 7527SOL    HW234044   4.604   0.380   6.308 -1.3378 -3.3482  1.6867
 7528SOL     OW34045   3.928   0.037   4.237  0.3523 -0.2371  0.3720
 7528SOL    HW134046   3.912   0.082   4.154  2.1154  1.0366  0.7375
 7528SOL    HW234047   3.970   4.680   4.204 -0.1589  0.3716 -1.7124
 7529SOL     OW34048   2.998   0.117  12.941  0.3549  0.0800 -0.2613
 7529SOL    HW134049   3.067   0.054  12.920  1.1049  0.7261  0.2571
 7529SOL    HW234050   3.046   0.161  13.012  1.9043 -0.9870 -0.6517
 7530SOL     OW34051   2.786   3.937   6.016 -0.5047  0.6844  0.2789
 7530SOL    HW134052   2.833   4.017   5.991  0.8543 -0.6245 -1.3764
 7530SOL    HW234053   2.751   3.957   6.102 -2.1310  0.8174 -0.4199
 7531SOL     OW34054   2.834   3.896   3.824  1.1751  0.4335 -0.1053
 7531SOL    HW134055   2.845   3.984   3.857  1.0918  0.5147 -0.2925
 7531SOL    HW234056   2.924   3.867   3.837  1.2702  0.4189 -0.7914
 7532SOL     OW34057   0.068   1.394   4.819  0.0720 -0.0031 -0.3355
 7532SOL    HW134058   4.707   1.441   4.822  1.0255  1.6006  0.6203
 7532SOL    HW234059   0.107   1.436   4.743  2.0450 -1.3961 -0.1080
 7533SOL     OW34060   4.499   3.343   5.116  0.0520  0.0775  0.1702
 7533SOL    HW134061   4.573   3.307   5.165  0.8765  0.0651 -1.0707
 7533SOL    HW234062   4.430   3.281   5.139  1.0651 -1.4659 -0.9586
 7534SOL     OW34063   1.395   4.040  10.136  0.0627  0.1850 -0.0370
 7534SOL    HW134064   1.371   3.986  10.061  0.2220 -1.1111  0.8438
 7534SOL    HW234065   1.320   4.037  10.194  0.3503 -1.1449  0.2620
 7535SOL     OW34066   4.205   0.605   4.142 -0.0942 -0.1279  0.1054
 7535SOL    HW134067   4.287   0.654   4.135 -0.2057  0.1366  0.6717
 7535SOL    HW234068   4.215   0.537   4.075  1.0051  0.2562 -0.1140
 7536SOL     OW34069   4.631   0.590   3.668  0.6276 -0.3223  0.0152
 7536SOL    HW134070   0.004   0.600   3.660  1.0586 -2.1937  2.5642
 7536SOL    HW234071   4.602   0.673   3.631  0.4143 -1.4023 -2.1886
 7537SOL     OW34072   1.029   0.137   2.011  0.0681 -0.3303  0.1520
 7537SOL    HW134073   1.101   0.077   1.991  0.4263 -0.4725  1.9102
 7537SOL    HW234074   0.994   0.097   2.090 -0.9536 -0.3257 -0.2979
 7538SOL     OW34075   4.287   4.151  11.704 -0.1933 -0.8009  0.0876
 7538SOL    HW134076   4.282   4.121  11.613  3.5097 -0.5505 -0.2068
 7538SOL    HW234077   4.379   4.129  11.715 -0.0140  0.7267  1.6010
 7539SOL     OW34078   2.451   0.729   7.203 -0.1850  0.1649  0.1381
 7539SOL    HW134079   2.368   0.736   7.251 -1.3888  1.2279 -2.0729
 7539SOL    HW234080   2.488   0.650   7.242 -2.1670 -0.8872 -0.1032
 7540SOL     OW34081   3.009   0.864   4.891  0.7424 -0.1700  0.8639
 7540SOL    HW134082   3.103   0.851   4.880  0.3427  0.7701 -3.8121
 7540SOL    HW234083   3.016   0.882   4.985 -0.4090  1.3674  0.6547
 7541SOL     OW34084   1.553   0.946   4.835 -0.1065  0.9585 -0.3816
 7541SOL    HW134085   1.612   0.871   4.826 -0.0502  0.8222  1.1079
 7541SOL    HW234086   1.621   1.014   4.829  1.0079 -0.1897 -0.7405
 7542SOL     OW34087   2.482   4.221   6.346  0.2457 -0.0459  0.3881
 7542SOL    HW134088   2.546   4.281   6.384  1.3141  0.5571 -2.3678
 7542SOL    HW234089   2.469   4.256   6.258  1.1056 -0.1855  0.2034
 7543SOL     OW34090   0.142   2.004   5.319 -0.1272  0.7757 -0.6871
 7543SOL    HW134091   0.159   2.090   5.357 -4.3636  1.2951  0.0308
 7543SOL    HW234092   0.163   1.951   5.395  2.2036  0.8811 -1.2617
 7544SOL     OW34093   4.510   4.291   6.479  0.2855  0.4951  0.0253
 7544SOL    HW134094   4.481   4.258   6.563 -0.4906 -0.4238 -0.6021
 7544SOL    HW234095   4.538   4.377   6.510  1.3257  0.6663 -1.3554
 7545SOL     OW34096   1.142   3.076   8.894  0.6850 -0.0790  0.0687
 7545SOL    HW134097   1.160   3.023   8.971 -0.0773 -0.9176 -0.3252
 7545SOL    HW234098   1.048   3.070   8.908  0.3164  0.1495 -2.2318
 7546SOL     OW34099   0.917   0.009   2.267  0.5285  0.2105 -0.1321
 7546SOL    HW134100   0.856   4.684   2.211 -2.2832  2.1303  1.2542
 7546SOL    HW234101   0.939   4.661   2.328 -1.0027 -0.3418 -0.2210
 7547SOL     OW34102   4.210   2.691  13.613  0.0852 -0.4029 -0.1442
 7547SOL    HW134103   4.245   2.656  13.695  2.6381  1.1604 -0.5334
 7547SOL    HW234104   4.227   2.784  13.630 -2.3584 -0.0500  0.3537
 7548SOL     OW34105   0.777   1.937  14.525  0.0401 -0.4009 -0.1930
 7548SOL    HW134106   0.819   1.862  14.483 -0.1854 -0.2708 -0.6466
 7548SOL    HW234107   0.776   2.011  14.464  2.1798 -0.2325 -0.0442
 7549SOL     OW34108   1.577   3.257  11.886  0.1304 -0.2160  0.6502
 7549SOL    HW134109   1.592   3.298  11.801 -0.6368  1.4006  1.2969
 7549SOL    HW234110   1.482   3.254  11.880  0.3079 -2.6460 -1.1977
 7550SOL     OW34111   0.385   1.462   5.730  0.1485 -0.1801  0.0635
 7550SOL    HW134112   0.439   1.539   5.747 -0.1780 -0.0995  0.7367
 7550SOL    HW234113   0.387   1.424   5.818 -2.3093 -0.3511  0.0244
 7551SOL     OW34114   0.877   0.298   8.398  0.5796 -0.2959 -0.0865
 7551SOL    HW134115   0.843   0.381   8.432 -3.3096 -1.7160 -0.5911
 7551SOL    HW234116   0.966   0.306   8.433  0.0526  0.0721  1.1688
 7552SOL     OW34117   0.344   1.140  10.404  0.0201 -0.2578 -0.0121
 7552SOL    HW134118   0.382   1.168  10.321 -1.3341 -2.0326 -1.2157
 7552SOL    HW234119   0.279   1.074  10.380  0.5871 -0.6598 -0.4441
 7553SOL     OW34120   2.547   1.612   0.273  0.1422  0.3626 -0.0311
 7553SOL    HW134121   2.631   1.573   0.250  0.6806  1.3293  0.2672
 7553SOL    HW234122   2.569   1.705   0.269  1.4036  0.0867  0.5253
 7554SOL     OW34123   4.522   4.388   6.954 -0.0253 -0.1400  0.0150
 7554SOL    HW134124   4.510   4.481   6.934  1.5558  0.2628  0.8949
 7554SOL    HW234125   4.463   4.362   6.884  0.0052  2.9980 -1.1647
 7555SOL     OW34126   1.178   1.806   5.541 -0.7205  0.4044  0.1800
 7555SOL    HW134127   1.100   1.755   5.521 -0.9154  0.5981  0.4451
 7555SOL    HW234128   1.225   1.754   5.606 -0.7707  0.4711  0.2707
 7556SOL     OW34129   0.710   4.363  11.388  0.2179  0.4119 -0.3556
 7556SOL    HW134130   0.722   4.458  11.393 -2.0117  0.7452 -1.0173
 7556SOL    HW234131   0.666   4.368  11.303  0.7032  1.2400 -0.5543
 7557SOL     OW34132   3.131   2.194   3.995 -0.0484  0.4764 -0.0704
 7557SOL    HW134133   3.096   2.276   4.030  0.4167 -0.1886  1.9394
 7557SOL    HW234134   3.137   2.151   4.080 -0.8463  0.5327  0.0093
 7558SOL     OW34135   3.152   2.520  15.039 -0.1171 -0.2279  0.0198
 7558SOL    HW134136   3.092   2.453  15.074  0.7371 -0.5338  0.8793
 7558SOL    HW234137   3.090   2.568  14.984  0.3651 -0.2754 -0.5700
 7559SOL     OW34138   1.115   4.641  11.560  0.0141  0.1506  0.1462
 7559SOL    HW134139   1.160   4.657  11.643  6.1720  1.5212 -3.3809
 7559SOL    HW234140   1.107   0.008  11.526 -2.3652 -0.7246 -1.5635
 7560SOL     OW34141   1.960   3.587   1.471 -0.0788 -0.2844 -0.0917
 7560SOL    HW134142   1.941   3.553   1.558 -1.9638  0.1938 -0.3243
 7560SOL    HW234143   1.951   3.682   1.478  2.5050  0.0418 -1.0866
 7561SOL     OW34144   1.226   2.638  11.736  0.1261 -0.1108  0.5273
 7561SOL    HW134145   1.171   2.656  11.661  0.0374 -0.0245  0.6137
 7561SOL    HW234146   1.298   2.594  11.690  0.5498 -0.1367  1.2054
 7562SOL     OW34147   2.516   2.969   9.141  0.1229 -0.3824  0.1723
 7562SOL    HW134148   2.488   2.904   9.205  0.6999  0.2318  1.0398
 7562SOL    HW234149   2.565   3.025   9.200 -0.9151  0.6704  0.0436
 7563SOL     OW34150   1.370   3.093   7.501 -0.0897  0.1870  0.1258
 7563SOL    HW134151   1.364   3.013   7.552  0.7370 -1.9928 -3.1884
 7563SOL    HW234152   1.280   3.101   7.472 -0.8753  0.8372  2.7631
 7564SOL     OW34153   3.230   1.040   5.337  0.2366 -0.2053  0.0681
 7564SOL    HW134154   3.240   0.958   5.385  1.6022  0.4491  0.8952
 7564SOL    HW234155   3.216   1.105   5.406 -0.1291  0.0266 -0.2209
 7565SOL     OW34156   0.733   0.843   0.528 -0.3738  0.4044  0.4831
 7565SOL    HW134157   0.776   0.921   0.562 -1.3158  2.0350 -2.0241
 7565SOL    HW234158   0.807   0.782   0.532 -1.2886 -0.5884  2.1944
 7566SOL     OW34159   0.564   4.027   8.325  0.1220 -0.9397  0.4318
 7566SOL    HW134160   0.577   3.939   8.288 -3.0425 -0.9523 -0.6667
 7566SOL    HW234161   0.532   4.010   8.413 -1.5594  0.4929  0.0984
 7567SOL     OW34162   2.732   3.110  14.337 -0.3556 -0.0563 -0.0416
 7567SOL    HW134163   2.769   3.045  14.278  1.7063 -0.2881  1.4626
 7567SOL    HW234164   2.795   3.182  14.343 -1.5937  1.0552 -0.5269
 7568SOL     OW34165   3.322   3.219   5.131 -0.0321  0.2979  0.1759
 7568SOL    HW134166   3.284   3.305   5.150 -0.1746  0.9025 -2.9282
 7568SOL    HW234167   3.278   3.186   5.053  0.9924  0.6277 -0.5340
 7569SOL     OW34168   4.509   3.435   2.434  0.5046  0.2423 -1.0100
 7569SOL    HW134169   4.532   3.383   2.356  2.5763 -1.1569  0.5369
 7569SOL    HW234170   4.530   3.372   2.503 -1.9781 -0.5366 -0.9549
 7570SOL     OW34171   3.164   1.903   2.759  0.3123  0.5899  0.4930
 7570SOL    HW134172   3.143   1.810   2.763 -1.6037  1.0642  1.4058
 7570SOL    HW234173   3.076   1.940   2.764  0.8936  2.2080 -0.9485
 7571SOL     OW34174   0.186   3.428   3.525 -0.0765 -0.4864 -0.0726
 7571SOL    HW134175   0.181   3.487   3.600  0.2263  0.2939 -0.6684
 7571SOL    HW234176   0.280   3.422   3.505  0.0108  0.8195 -0.0394
 7572SOL     OW34177   0.828   3.754   3.182 -0.6009  0.0645 -0.0642
 7572SOL    HW134178   0.889   3.736   3.254  0.1925  0.6807 -0.5783
 7572SOL    HW234179   0.896   3.772   3.117  0.8649 -3.2878  0.5773
 7573SOL     OW34180   0.217   0.284  15.190  0.1629  0.6668  0.6423
 7573SOL    HW134181   0.192   0.375  15.198  0.8849  1.0269 -1.1492
 7573SOL    HW234182   0.189   0.257  15.277 -1.9957 -0.4164 -0.3855
 7574SOL     OW34183   3.793   2.546   1.011  0.3683  0.7974 -0.5591
 7574SOL    HW134184   3.806   2.566   1.104 -1.6704 -0.4934  0.0038
 7574SOL    HW234185   3.756   2.629   0.981 -1.7541  0.6276  1.5989
 7575SOL     OW34186   4.625   0.256  13.100 -0.1086  0.1841 -0.1013
 7575SOL    HW134187   4.570   0.278  13.025 -1.4351 -2.9323 -0.0456
 7575SOL    HW234188   4.656   0.342  13.127 -0.0439 -0.2711  1.2540
 7576SOL     OW34189   1.231   4.153   8.233  0.3963  0.0439 -0.4162
 7576SOL    HW134190   1.185   4.203   8.301 -0.3514  0.8427 -1.5074
 7576SOL    HW234191   1.208   4.210   8.160  0.0132  0.1450 -0.2164
 7577SOL     OW34192   3.525   3.047   5.949 -0.3363  0.6820 -0.1195
 7577SOL    HW134193   3.611   3.062   5.988 -1.9730  1.5290  3.2023
 7577SOL    HW234194   3.466   3.021   6.021  1.2492 -0.9538  0.5829
 7578SOL     OW34195   1.676   2.486   9.629  0.5760  0.2857 -0.0168
 7578SOL    HW134196   1.616   2.519   9.563 -0.5252 -0.1667  0.7640
 7578SOL    HW234197   1.693   2.563   9.683  0.7447  1.0092 -1.1256
 7579SOL     OW34198   0.186   3.855   3.031 -0.0862 -0.2786  0.0165
 7579SOL    HW134199   0.201   3.924   2.966  0.6157  0.2157  0.6967
 7579SOL    HW234200   0.102   3.817   3.007  1.9280 -3.2722 -2.2897
 7580SOL     OW34201   0.877   0.534  12.050 -0.3249  1.0376 -0.8124
 7580SOL    HW134202   0.921   0.485  11.981 -1.6456  0.0628 -0.9685
 7580SOL    HW234203   0.815   0.592  12.004  0.2124  0.2474 -2.5273
 7581SOL     OW34204   1.215   4.454   2.931  0.3303 -0.1354  0.3098
 7581SOL    HW134205   1.287   4.446   2.868  0.1235  0.6009 -0.0088
 7581SOL    HW234206   1.260   4.463   3.016 -0.0431  1.1029  0.3783
 7582SOL     OW34207   1.148   2.428   3.770  0.6343 -0.7931  0.0098
 7582SOL    HW134208   1.083   2.459   3.707 -1.7669  1.0087  3.3658
 7582SOL    HW234209   1.096   2.439   3.850 -0.3778  1.0575 -0.9004
 7583SOL     OW34210   0.963   2.564   3.595 -0.2176  0.9710  0.0230
 7583SOL    HW134211   0.902   2.519   3.536  0.1526  0.6652 -0.1280
 7583SOL    HW234212   0.905   2.587   3.667 -0.1339 -0.0121  0.3948
 7584SOL     OW34213   0.822   2.130   5.391 -0.1855 -1.0998  0.7981
 7584SOL    HW134214   0.752   2.164   5.448  0.2579 -0.3495  0.8886
 7584SOL    HW234215   0.864   2.210   5.359  0.7617 -0.6428  3.1596
 7585SOL     OW34216   2.888   0.539  11.216 -0.1344  0.2510  0.5157
 7585SOL    HW134217   2.839   0.566  11.294  1.4941  2.1641  0.8727
 7585SOL    HW234218   2.917   0.452  11.241 -0.3884  0.6503  2.2182
 7586SOL     OW34219   3.239   0.373   9.717 -0.9038 -0.0559  0.0769
 7586SOL    HW134220   3.183   0.339   9.648 -2.4953  1.2859  0.7169
 7586SOL    HW234221   3.294   0.429   9.661 -1.5270 -0.0226 -0.5105
 7587SOL     OW34222   1.669   0.212   3.699  0.7225 -0.0698 -0.1611
 7587SOL    HW134223   1.653   0.306   3.712 -0.8570 -0.1588 -1.4788
 7587SOL    HW234224   1.762   0.206   3.677  0.7990  0.6789 -0.0481
 7588SOL     OW34225   1.078   4.680   6.184 -0.2553 -0.3817  0.3174
 7588SOL    HW134226   1.148   4.701   6.246  2.0750 -1.8305 -1.8198
 7588SOL    HW234227   1.010   4.646   6.242 -0.3909  1.1371  1.0402
 7589SOL     OW34228   2.228   3.987   4.194 -0.0344  0.0905  0.5161
 7589SOL    HW134229   2.238   4.035   4.112  2.2600  0.3654  0.9781
 7589SOL    HW234230   2.136   4.013   4.205  0.1255 -0.1439  2.4666
 7590SOL     OW34231   2.377   0.477   5.349  0.3728 -0.2922  0.7086
 7590SOL    HW134232   2.297   0.529   5.341  0.9935  0.7713  1.4332
 7590SOL    HW234233   2.360   0.396   5.301 -0.6099 -0.2133  0.9227
 7591SOL     OW34234   1.270   3.752   9.201  0.8640  0.5749  0.2658
 7591SOL    HW134235   1.314   3.821   9.152  1.5054  0.2233  0.3418
 7591SOL    HW234236   1.308   3.773   9.286  0.3237  2.4247  0.0429
 7592SOL     OW34237   1.092   0.355  12.555  0.1722 -0.0926 -0.0446
 7592SOL    HW134238   1.114   0.387  12.468  0.1945 -0.0068 -0.0073
 7592SOL    HW234239   1.119   0.263  12.550  0.6575  0.0834 -0.5579
 7593SOL     OW34240   3.622   4.067   9.252 -0.6659 -0.2476 -0.0705
 7593SOL    HW134241   3.717   4.075   9.239 -0.8868  1.9117 -0.2790
 7593SOL    HW234242   3.609   4.053   9.345  0.0185 -0.8414 -0.0623
 7594SOL     OW34243   4.570   0.432  10.705  0.0406  0.0016  0.1607
 7594SOL    HW134244   4.654   0.388  10.695  0.1139  0.4966 -1.4067
 7594SOL    HW234245   4.516   0.372  10.654 -1.2500  0.0475  1.4693
 7595SOL     OW34246   1.503   1.540   8.160  0.5540 -0.2710 -0.0235
 7595SOL    HW134247   1.532   1.454   8.130  0.5970 -1.0268  2.2350
 7595SOL    HW234248   1.423   1.515   8.206  1.1494 -1.3393  0.4270
 7596SOL     OW34249   1.802   3.213   6.816  0.5038  0.1083 -0.3491
 7596SOL    HW134250   1.710   3.187   6.822  0.1629  1.4081 -0.0153
 7596SOL    HW234251   1.821   3.267   6.892  0.1439 -1.2033  0.6683
 7597SOL     OW34252   2.633   3.492   2.237 -0.9296 -0.4367  0.7411
 7597SOL    HW134253   2.645   3.422   2.173 -1.4742 -1.5232  1.8332
 7597SOL    HW234254   2.597   3.566   2.188  0.1310  0.8663  1.9213
 7598SOL     OW34255   2.717   3.030   3.161 -0.1963 -0.1494 -0.3456
 7598SOL    HW134256   2.698   3.077   3.080  3.2910  1.4546 -0.2637
 7598SOL    HW234257   2.720   2.940   3.127  0.5834  0.2214 -1.2599
 7599SOL     OW34258   1.237   2.124   6.058  0.1254  0.4552 -0.1123
 7599SOL    HW134259   1.255   2.171   5.977  2.5600 -0.4176 -0.0542
 7599SOL    HW234260   1.183   2.189   6.104  0.4746  0.2346  0.6126
 7600SOL     OW34261   2.841   0.843   4.602 -0.0470 -0.5952  0.6735
 7600SOL    HW134262   2.911   0.843   4.667  0.3935  1.5791  0.2144
 7600SOL    HW234263   2.882   0.794   4.530  0.6225  1.4220 -0.3141
 7601SOL     OW34264   0.210   1.379  17.679 -0.1033 -0.4318 -0.0780
 7601SOL    HW134265   0.304   1.360  17.669 -0.1217 -0.6402  0.1597
 7601SOL    HW234266   0.189   1.414  17.593 -1.3646  0.8235  0.7426
 7602SOL     OW34267   0.385   3.998   2.637 -0.6487 -0.7876  0.0355
 7602SOL    HW134268   0.429   4.025   2.557  0.1301 -3.4754 -0.4278
 7602SOL    HW234269   0.441   4.013   2.713  1.5967  1.8863 -2.1556
 7603SOL     OW34270   4.425   2.984   3.760 -0.2575  0.0717  0.2011
 7603SOL    HW134271   4.432   2.907   3.817  0.4528 -0.5762 -0.7549
 7603SOL    HW234272   4.385   3.053   3.813 -0.4189 -0.8310  1.2481
 7604SOL     OW34273   4.207   0.040  14.849  0.0810  0.7409 -0.2256
 7604SOL    HW134274   4.249   4.680  14.874 -1.5585  0.1193  0.4916
 7604SOL    HW234275   4.182   0.076  14.934 -1.9926  0.0616 -0.5337
 7605SOL     OW34276   3.744   4.328   3.551 -0.2240 -0.4035 -0.3685
 7605SOL    HW134277   3.691   4.340   3.473  0.5003 -1.4187 -1.0187
 7605SOL    HW234278   3.712   4.388   3.618 -2.7147  0.8877 -2.7366
 7606SOL     OW34279   2.056   2.253  10.245  0.3098  0.0320  0.0345
 7606SOL    HW134280   2.076   2.346  10.233 -0.1231  0.0690 -0.3891
 7606SOL    HW234281   2.118   2.231  10.174 -1.2048 -0.3052 -1.1778
 7607SOL     OW34282   0.223   3.006   2.702  0.2407 -0.2084  0.2451
 7607SOL    HW134283   0.244   3.091   2.662 -0.7572 -0.0212  0.1290
 7607SOL    HW234284   0.310   2.968   2.716  0.6422 -0.0494 -1.7793
 7608SOL     OW34285   1.483   2.951  15.381  0.4735 -0.0190 -0.3441
 7608SOL    HW134286   1.413   2.927  15.442 -0.5139  1.0193 -1.0777
 7608SOL    HW234287   1.556   2.966  15.441  0.4516 -0.5027 -0.1977
 7609SOL     OW34288   1.544   1.713   4.229 -0.4121 -0.2868 -0.2140
 7609SOL    HW134289   1.489   1.635   4.234 -0.1708 -0.6159 -2.6645
 7609SOL    HW234290   1.628   1.682   4.195 -0.0781 -0.1998  0.5337
 7610SOL     OW34291   2.228   3.188   0.412 -0.2423 -0.4088 -0.3343
 7610SOL    HW134292   2.302   3.139   0.375 -1.4296 -0.9246 -2.0291
 7610SOL    HW234293   2.257   3.220   0.498 -0.4006 -0.1907 -0.3623
 7611SOL     OW34294   3.808   0.507   9.672 -0.1138 -0.6584  0.3211
 7611SOL    HW134295   3.714   0.525   9.666  0.0983  0.2693 -0.1682
 7611SOL    HW234296   3.825   0.477   9.583  0.6482 -0.7255  0.4926
 7612SOL     OW34297   3.026   2.061  14.775 -0.0755  0.1548 -0.2996
 7612SOL    HW134298   2.963   1.991  14.755  0.3118  0.0669 -1.2350
 7612SOL    HW234299   3.077   2.071  14.695  2.3672 -1.8666  1.0205
 7613SOL     OW34300   3.203   3.557   7.134  0.1541 -0.3401 -0.1727
 7613SOL    HW134301   3.250   3.523   7.210  4.0733  4.9150 -0.2065
 7613SOL    HW234302   3.128   3.498   7.132 -0.3178  0.1552  2.2428
 7614SOL     OW34303   0.296   0.228   9.335 -0.3298  0.1023  0.4442
 7614SOL    HW134304   0.386   0.258   9.351  0.2275 -0.0846 -2.3900
 7614SOL    HW234305   0.297   0.152   9.392  1.9693  2.0952  3.0920
 7615SOL     OW34306   0.433   3.509   5.761 -0.3994 -0.5031 -0.0646
 7615SOL    HW134307   0.470   3.594   5.737  0.3226 -0.6944  0.3773
 7615SOL    HW234308   0.408   3.514   5.853 -0.7619  0.1744 -0.1975
 7616SOL     OW34309   1.358   0.260   6.560 -0.1681 -0.0751  0.2659
 7616SOL    HW134310   1.273   0.300   6.544 -1.4256 -2.3873  1.1563
 7616SOL    HW234311   1.328   0.173   6.533  0.8412 -0.1374 -0.6600
 7617SOL     OW34312   4.448   3.505   5.917 -0.6896  0.9128  0.7335
 7617SOL    HW134313   4.497   3.586   5.903 -0.9636  1.1551  1.2043
 7617SOL    HW234314   4.480   3.444   5.850 -0.8850  2.0951 -0.4479
 7618SOL     OW34315   2.274   2.474  10.558  0.5231  0.6984 -0.3175
 7618SOL    HW134316   2.338   2.531  10.517 -0.0564  1.2720 -0.4220
 7618SOL    HW234317   2.333   2.405  10.588  1.0199  0.5084 -1.7717
 7619SOL     OW34318   3.066   1.145   6.785  0.0743 -0.1483 -0.6328
 7619SOL    HW134319   3.082   1.079   6.718  0.6401 -2.1818  1.5130
 7619SOL    HW234320   3.056   1.219   6.725  3.8563 -0.1058 -1.1919
 7620SOL     OW34321   1.575   0.033  11.550  0.0254 -0.1406  0.2104
 7620SOL    HW134322   1.657   0.081  11.565 -0.4163  1.0443 -1.1718
 7620SOL    HW234323   1.606   4.674  11.511 -1.1364  0.0365 -1.0489
 7621SOL     OW34324   2.536   0.012   5.483  0.2812 -0.0877  0.6900
 7621SOL    HW134325   2.440   0.019   5.485  0.2586 -0.4413  0.8889
 7621SOL    HW234326   2.567   4.701   5.568 -0.8431  0.3845  1.2929
 7622SOL     OW34327   4.305   2.021   3.600  0.1909 -0.8615 -0.1730
 7622SOL    HW134328   4.230   2.010   3.542  0.4647 -1.6282 -0.3747
 7622SOL    HW234329   4.269   2.067   3.676  1.5355  0.9349 -0.6042
 7623SOL     OW34330   3.560   2.900   6.915  0.2512 -0.3414  0.1693
 7623SOL    HW134331   3.633   2.956   6.942 -2.4729  2.5839  1.5770
 7623SOL    HW234332   3.515   2.951   6.847  0.0362  0.6862  1.0737
 7624SOL     OW34333   4.718   2.208   3.561  0.8323 -0.2220 -0.5682
 7624SOL    HW134334   4.680   2.120   3.554 -0.2863  0.2964 -1.0786
 7624SOL    HW234335   0.034   2.209   3.473 -1.1800  0.3103 -1.4316
 7625SOL     OW34336   2.713   2.169   9.366  0.0188 -0.1919  0.6089
 7625SOL    HW134337   2.764   2.170   9.285  0.2655 -2.3976  0.7230
 7625SOL    HW234338   2.683   2.079   9.374 -0.0362 -0.2913 -0.6565
 7626SOL     OW34339   0.721   4.354   8.445  0.3029 -0.4816  0.2848
 7626SOL    HW134340   0.777   4.368   8.522 -0.6191  1.2806  0.6522
 7626SOL    HW234341   0.678   4.439   8.432  0.7703 -0.0204  1.7179
 7627SOL     OW34342   4.502   2.920   8.846  0.2582 -0.0410 -0.0459
 7627SOL    HW134343   4.482   3.009   8.819 -0.8858 -0.4568 -0.5659
 7627SOL    HW234344   4.587   2.913   8.802 -0.7736  0.0291 -2.0454
 7628SOL     OW34345   0.067   3.764   2.279 -0.6715  0.4088 -1.2140
 7628SOL    HW134346   0.107   3.774   2.365 -0.6964  0.6436 -1.2313
 7628SOL    HW234347   4.719   3.702   2.297 -0.8637  0.8814 -0.3530
 7629SOL     OW34348   4.413   0.250  13.818  0.2792  0.0076  0.3413
 7629SOL    HW134349   4.493   0.284  13.859  0.0037  1.4925 -0.3498
 7629SOL    HW234350   4.410   0.159  13.847 -3.8653  0.3842  1.0177
 7630SOL     OW34351   4.293   3.039   7.802  0.6564 -0.0872 -0.4660
 7630SOL    HW134352   4.330   3.096   7.735  1.1168 -1.7323 -1.6277
 7630SOL    HW234353   4.365   2.982   7.828  0.8809  0.3825 -0.0629
 7631SOL     OW34354   4.049   1.622   3.113 -0.2516 -0.1792 -0.3113
 7631SOL    HW134355   4.098   1.670   3.046  1.2442  0.6800  1.4178
 7631SOL    HW234356   3.990   1.574   3.055 -0.9509  1.5101 -1.0140
 7632SOL     OW34357   3.797   2.398  16.443 -0.2519  0.4592 -0.8116
 7632SOL    HW134358   3.722   2.345  16.415 -1.5241  2.3438 -0.9618
 7632SOL    HW234359   3.773   2.412  16.534 -0.7526  0.9019 -1.0095
 7633SOL     OW34360   2.303   2.544  16.577  0.0242 -0.2455 -0.2877
 7633SOL    HW134361   2.385   2.591  16.590 -0.7595  0.4812  2.0293
 7633SOL    HW234362   2.269   2.597  16.505 -1.6966  0.3447  0.9396
 7634SOL     OW34363   2.825   1.370   1.492 -0.0537  0.0244  0.3859
 7634SOL    HW134364   2.787   1.404   1.411  1.0844  0.6768  0.1177
 7634SOL    HW234365   2.879   1.449   1.503  1.5483 -0.4401 -4.3062
 7635SOL     OW34366   4.562   3.678   3.942  0.1114 -0.0252 -0.4174
 7635SOL    HW134367   4.551   3.670   3.848  1.3968  2.7712 -0.8074
 7635SOL    HW234368   4.606   3.762   3.947 -1.0792  0.6290 -0.9493
 7636SOL     OW34369   4.681   0.873   4.628 -0.7334 -0.4592 -0.1801
 7636SOL    HW134370   0.032   0.935   4.629  1.9056 -3.5962  1.4558
 7636SOL    HW234371   4.609   0.926   4.663 -0.3182  0.3516 -0.5569
 7637SOL     OW34372   1.189   4.268   7.425  0.6687  0.1482 -0.1701
 7637SOL    HW134373   1.222   4.338   7.481  1.7580 -0.2231 -0.3506
 7637SOL    HW234374   1.272   4.228   7.399 -0.4127 -2.0993 -0.1821
 7638SOL     OW34375   3.005   4.361  12.219 -0.2491  0.4276  0.3916
 7638SOL    HW134376   2.930   4.311  12.250 -0.7284 -0.3578 -2.0339
 7638SOL    HW234377   3.041   4.383  12.305 -1.2642  2.8588  0.1898
 7639SOL     OW34378   1.032   1.759   6.581 -0.0447 -0.1022 -0.2825
 7639SOL    HW134379   0.991   1.844   6.561  1.2684  0.5885 -0.0110
 7639SOL    HW234380   0.960   1.699   6.559  0.0009 -0.5910  0.9309
 7640SOL     OW34381   4.595   0.025   5.789  0.5340 -0.0469 -0.1741
 7640SOL    HW134382   4.502   0.046   5.789  0.9835  1.9680  0.9798
 7640SOL    HW234383   4.580   4.660   5.752  1.3214 -0.3634  0.2372
 7641SOL     OW34384   0.588   1.508   0.436  0.7710  0.2086  0.1669
 7641SOL    HW134385   0.642   1.429   0.442  0.2129 -0.1162  0.8792
 7641SOL    HW234386   0.569   1.524   0.344  0.0869  1.0974  0.4679
 7642SOL     OW34387   2.564   2.340  17.494  0.2987 -0.4921 -0.3649
 7642SOL    HW134388   2.625   2.271  17.521  2.8054  1.8524  0.0103
 7642SOL    HW234389   2.482   2.293  17.505  0.7503 -0.9495  1.0326
 7643SOL     OW34390   1.167   0.796   1.082 -0.3129 -0.0275 -0.0713
 7643SOL    HW134391   1.130   0.884   1.078  2.9010  1.2666 -1.4365
 7643SOL    HW234392   1.097   0.745   1.123 -1.4099  1.8069  0.3293
 7644SOL     OW34393   1.765   2.071   8.511  0.0861  0.1164 -0.5452
 7644SOL    HW134394   1.777   1.977   8.504  0.8182  0.3555 -2.3476
 7644SOL    HW234395   1.771   2.090   8.418 -0.3164 -0.0549 -0.6054
 7645SOL     OW34396   3.028   4.054   4.035 -0.3475  0.6618 -0.3001
 7645SOL    HW134397   3.117   4.039   4.003 -0.4629 -0.2096 -0.2199
 7645SOL    HW234398   2.990   4.121   3.979 -2.6369 -0.4640 -0.0911
 7646SOL     OW34399   0.223   1.864   7.477 -0.1373 -0.4610  0.3546
 7646SOL    HW134400   0.210   1.771   7.461 -1.6296  0.2754 -2.6963
 7646SOL    HW234401   0.137   1.887   7.442  1.3158  3.0912 -0.9289
 7647SOL     OW34402   3.398   0.522  13.198  0.5077 -0.1975  0.0416
 7647SOL    HW134403   3.404   0.569  13.115  1.2157  1.1704  0.8547
 7647SOL    HW234404   3.412   0.430  13.177 -0.8423 -0.2667 -0.5601
 7648SOL     OW34405   4.013   0.381  10.102 -0.1658  0.1119  0.2721
 7648SOL    HW134406   3.943   0.316  10.105 -0.9379  0.8837 -0.7270
 7648SOL    HW234407   4.041   0.384  10.010  1.8787 -0.3661  0.8844
 7649SOL     OW34408   3.659   4.502   5.848 -0.2050  0.8137  0.2731
 7649SOL    HW134409   3.660   4.420   5.800  0.0922 -0.0711  1.8064
 7649SOL    HW234410   3.748   4.530   5.828  0.5390 -0.1115  2.3525
 7650SOL     OW34411   2.007   2.763   7.225  0.7177 -0.3918 -0.5253
 7650SOL    HW134412   2.014   2.683   7.173 -0.4909 -0.4505 -0.6061
 7650SOL    HW234413   2.089   2.773   7.272 -1.5732 -0.4794  3.4703
 7651SOL     OW34414   2.039   1.401   7.938  0.3908  0.4801  0.2094
 7651SOL    HW134415   2.100   1.333   7.966  0.7208 -0.7459 -3.5230
 7651SOL    HW234416   2.048   1.470   8.004 -0.1841 -0.9460  1.7734
 7652SOL     OW34417   1.707   0.233   5.533  0.5332 -0.1891 -0.5351
 7652SOL    HW134418   1.687   0.253   5.442 -1.3154 -1.3007 -0.3952
 7652SOL    HW234419   1.792   0.275   5.544  0.3698  0.5493 -2.1239
 7653SOL     OW34420   0.403   2.411   4.904  0.3107 -0.2784  0.2335
 7653SOL    HW134421   0.309   2.393   4.914 -0.0184  1.1660 -0.2862
 7653SOL    HW234422   0.408   2.461   4.823 -1.1516 -1.7706 -0.7961
 7654SOL     OW34423   1.891   4.011  16.846  0.6577 -0.2308 -0.4176
 7654SOL    HW134424   1.935   3.926  16.841  0.7764 -0.0810 -2.0743
 7654SOL    HW234425   1.966   4.068  16.863  0.8711 -0.7326  0.3086
 7655SOL     OW34426   3.492   1.848   3.419 -0.0675 -0.1026  0.0735
 7655SOL    HW134427   3.474   1.880   3.330 -0.3988  0.6190  0.4017
 7655SOL    HW234428   3.430   1.775   3.417 -1.2501  0.8535  1.5409
 7656SOL     OW34429   0.739   1.363   8.891  0.0111 -0.2603 -0.3310
 7656SOL    HW134430   0.702   1.278   8.865  2.1029 -1.1022 -0.5241
 7656SOL    HW234431   0.667   1.409   8.935 -0.6224  1.7632 -3.4632
 7657SOL     OW34432   4.519   0.687   7.886  0.5025 -0.1275 -0.0928
 7657SOL    HW134433   4.492   0.623   7.820  3.6093 -0.1161 -1.3443
 7657SOL    HW234434   4.446   0.748   7.873 -0.8131 -1.6897 -0.0960
 7658SOL     OW34435   1.314   3.722   6.145 -0.1281  0.3367 -0.2075
 7658SOL    HW134436   1.271   3.647   6.104  0.8461 -1.4494  2.0478
 7658SOL    HW234437   1.314   3.687   6.234 -2.2105  1.0060  0.0700
 7659SOL     OW34438   4.650   4.376  12.667  0.3253  0.4901 -0.7272
 7659SOL    HW134439   4.573   4.377  12.611 -0.5189  0.0681  0.4279
 7659SOL    HW234440   4.682   4.294  12.628  0.1114  0.3603 -0.6328
 7660SOL     OW34441   3.580   2.006   6.873 -0.1568 -0.2978 -0.1289
 7660SOL    HW134442   3.602   1.969   6.959 -1.2168 -1.0012 -0.1548
 7660SOL    HW234443   3.648   2.073   6.867  0.1331 -0.3688  2.4408
 7661SOL     OW34444   4.048   1.475   0.164  0.1259  0.3479  0.1869
 7661SOL    HW134445   4.119   1.523   0.122 -0.4763 -1.4186 -2.8535
 7661SOL    HW234446   3.998   1.548   0.201 -0.0009  0.9823 -1.2686
 7662SOL     OW34447   2.780   4.446   3.326  0.0768 -0.4063 -0.2594
 7662SOL    HW134448   2.696   4.444   3.372 -0.3848 -0.5571 -1.1203
 7662SOL    HW234449   2.759   4.520   3.269 -3.1551 -0.1262  1.2890
 7663SOL     OW34450   0.534   1.288   7.638 -0.1429  0.3444  0.4107
 7663SOL    HW134451   0.518   1.219   7.703  0.0931  0.0868  0.2010
 7663SOL    HW234452   0.532   1.373   7.681 -1.9647  0.7752 -0.5549
 7664SOL     OW34453   3.447   0.190  16.215 -0.0915  0.5518 -0.2213
 7664SOL    HW134454   3.542   0.181  16.204 -0.0020 -0.5059  1.4338
 7664SOL    HW234455   3.426   0.258  16.151 -1.5847  0.9317  0.6882
 7665SOL     OW34456   4.137   4.529   7.439 -1.0471  0.4040  0.2405
 7665SOL    HW134457   4.217   4.482   7.460 -1.8436 -0.4523  1.3335
 7665SOL    HW234458   4.081   4.460   7.404 -1.2320  1.9687 -2.5659
 7666SOL     OW34459   0.376   1.827   8.952  0.4031  0.3060 -0.4120
 7666SOL    HW134460   0.297   1.795   8.995  0.5163  0.2306 -0.2569
 7666SOL    HW234461   0.424   1.853   9.031  1.7279 -0.8665 -0.8296
 7667SOL     OW34462   0.509   3.509  13.172 -0.3625 -0.0855  0.6531
 7667SOL    HW134463   0.490   3.486  13.081 -1.7103  0.1927  0.8583
 7667SOL    HW234464   0.543   3.598  13.164 -2.7989  0.7070 -0.8567
 7668SOL     OW34465   2.621   2.192   5.027 -0.0970 -0.8688 -0.1815
 7668SOL    HW134466   2.609   2.104   4.992 -2.6777 -0.3503 -0.6220
 7668SOL    HW234467   2.716   2.201   5.027 -0.1139 -0.6735 -0.4946
 7669SOL     OW34468   0.605   4.483   3.085  0.2090 -0.1087  0.1246
 7669SOL    HW134469   0.667   4.412   3.102  1.3898  0.7400 -0.6000
 7669SOL    HW234470   0.589   4.472   2.991  2.1933  1.5676 -0.4224
 7670SOL     OW34471   3.473   3.322   0.689  0.3466  0.6868 -0.2160
 7670SOL    HW134472   3.461   3.370   0.771  0.6277 -1.3391  1.0060
 7670SOL    HW234473   3.393   3.274   0.667 -0.3288  0.9496  1.7135
 7671SOL     OW34474   0.834   4.368   1.864 -0.5642  0.2606  0.4874
 7671SOL    HW134475   0.782   4.439   1.827  0.2164 -0.6657 -2.4475
 7671SOL    HW234476   0.883   4.409   1.936  0.0239  2.3794 -1.1187
 7672SOL     OW34477   3.679   1.044   9.046  0.0055  0.4498 -0.0999
 7672SOL    HW134478   3.629   1.092   9.112 -1.4071  1.4805 -1.9335
 7672SOL    HW234479   3.760   1.094   9.037  1.4466 -1.7098  0.6935
 7673SOL     OW34480   2.042   2.176   7.986 -0.3795 -0.6798  0.0947
 7673SOL    HW134481   2.040   2.254   8.041  0.2025 -0.3706 -0.3188
 7673SOL    HW234482   2.122   2.140   8.024  0.2598 -1.3159 -1.8403
 7674SOL     OW34483   1.044   0.540   2.562 -0.3494  0.2977 -0.1846
 7674SOL    HW134484   0.949   0.545   2.573 -0.1891  2.3422  0.4330
 7674SOL    HW234485   1.051   0.490   2.481 -0.0623  1.8478 -1.1226
 7675SOL     OW34486   4.544   2.617   3.349  0.0877 -0.5490  0.3350
 7675SOL    HW134487   4.535   2.543   3.289 -3.5528 -1.7205  2.2637
 7675SOL    HW234488   4.570   2.686   3.288 -1.2538 -1.9628 -1.8428
 7676SOL     OW34489   3.024   1.564  13.430  0.1768  0.0278 -0.9292
 7676SOL    HW134490   2.960   1.596  13.366 -1.5121  0.0679  0.7667
 7676SOL    HW234491   3.109   1.578  13.388 -0.5775 -1.2897 -2.8855
 7677SOL     OW34492   3.455   1.329   7.896 -0.1614 -0.3092  0.7188
 7677SOL    HW134493   3.427   1.238   7.885  1.9165 -1.0925  1.7515
 7677SOL    HW234494   3.541   1.318   7.938 -1.0143 -2.3610  1.9406
 7678SOL     OW34495   2.403   3.430   2.760 -0.3794  0.0546 -0.6417
 7678SOL    HW134496   2.374   3.352   2.715  0.0316 -0.9342  0.8022
 7678SOL    HW234497   2.434   3.479   2.684  2.3676 -1.4429 -0.4602
 7679SOL     OW34498   2.560   2.842   0.752  0.4173 -0.0015  0.0517
 7679SOL    HW134499   2.642   2.891   0.753  0.1020  0.5248  0.5597
 7679SOL    HW234500   2.500   2.900   0.705 -0.0938  0.9863  1.9300
 7680SOL     OW34501   3.740   0.399   3.744 -0.3516 -0.0024 -0.3199
 7680SOL    HW134502   3.771   0.421   3.656  2.6664  2.1956  1.3209
 7680SOL    HW234503   3.660   0.349   3.724 -0.2641 -0.9812  1.7966
 7681SOL     OW34504   1.992   3.141  15.132  0.5693  0.0377  0.3091
 7681SOL    HW134505   1.918   3.096  15.173  0.4375  0.0476  0.0811
 7681SOL    HW234506   1.951   3.217  15.090 -0.7264 -1.1246 -0.5488
 7682SOL     OW34507   1.567   3.377  11.647 -0.1983 -0.6816  0.2306
 7682SOL    HW134508   1.529   3.413  11.567 -2.0682 -1.6635  0.6730
 7682SOL    HW234509   1.597   3.457  11.690  1.6233  0.5165 -3.2674
 7683SOL     OW34510   3.166   0.499  10.206  0.2910 -0.0238 -0.4754
 7683SOL    HW134511   3.217   0.527  10.130  1.1301 -0.2609 -0.0009
 7683SOL    HW234512   3.162   0.581  10.257 -2.2590  0.6195 -1.7248
 7684SOL     OW34513   3.762   1.123   5.819 -0.2857  0.3965  0.3377
 7684SOL    HW134514   3.849   1.086   5.807 -0.5255  0.1947 -0.8110
 7684SOL    HW234515   3.779   1.181   5.893 -0.3303  2.5645 -1.3714
 7685SOL     OW34516   2.268   1.329  11.691  1.0012  0.2766 -0.7766
 7685SOL    HW134517   2.295   1.404  11.638 -0.8530  1.1386 -0.4848
 7685SOL    HW234518   2.344   1.272  11.683  0.3010 -0.5228 -1.7283
 7686SOL     OW34519   0.383   2.551  12.381  0.0083 -0.3211 -0.5557
 7686SOL    HW134520   0.306   2.496  12.368  0.0419 -0.2925 -0.8564
 7686SOL    HW234521   0.341   2.611  12.443  1.6729  1.4134 -1.0932
 7687SOL     OW34522   1.727   0.906  12.847  0.0983 -0.1728 -0.4837
 7687SOL    HW134523   1.771   0.921  12.764  2.4131 -2.8077  0.2379
 7687SOL    HW234524   1.806   0.908  12.902 -0.3258 -1.7059  0.1914
 7688SOL     OW34525   0.855   1.252   1.058 -0.3247 -0.1772  0.1550
 7688SOL    HW134526   0.773   1.290   1.089 -1.2395 -0.1576 -2.2930
 7688SOL    HW234527   0.915   1.326   1.065 -0.1861 -0.2408 -0.4081
 7689SOL     OW34528   3.206   4.590  12.111  0.4219 -0.3529 -1.2782
 7689SOL    HW134529   3.203   4.559  12.202  2.3016 -0.4477 -1.2375
 7689SOL    HW234530   3.210   4.502  12.073 -2.2188 -1.4378  0.9405
 7690SOL     OW34531   3.690   2.353   7.393 -0.3732  1.0022 -0.8808
 7690SOL    HW134532   3.762   2.326   7.337  1.2140  1.4601  0.9534
 7690SOL    HW234533   3.639   2.272   7.387 -1.0018  1.3748 -0.6616
 7691SOL     OW34534   1.038   3.583   6.072  0.2954  0.3765 -0.2909
 7691SOL    HW134535   0.950   3.576   6.110  0.7694 -1.3835  0.4576
 7691SOL    HW234536   1.020   3.638   5.995  4.0623  0.5493 -1.0447
 7692SOL     OW34537   0.053   0.913   7.353 -1.1169 -0.2045  0.4016
 7692SOL    HW134538   0.086   0.825   7.336  1.1742  0.7182 -0.0206
 7692SOL    HW234539   0.116   0.965   7.303 -0.2009 -0.3984  1.3569
 7693SOL     OW34540   0.048   2.564   3.493 -0.3448 -0.1008  0.8750
 7693SOL    HW134541   0.061   2.504   3.420  3.1315  1.4968  0.1498
 7693SOL    HW234542   4.685   2.602   3.471 -0.1521 -0.5343 -0.6120
 7694SOL     OW34543   2.344   1.812   4.268 -0.0816  0.8302 -0.1920
 7694SOL    HW134544   2.396   1.831   4.190 -1.4372  1.6034 -0.9107
 7694SOL    HW234545   2.400   1.747   4.310 -1.8533 -0.2530  0.5307
 7695SOL     OW34546   2.055   0.177   9.059  0.0421  0.3800  0.3615
 7695SOL    HW134547   2.144   0.155   9.088  0.3358 -0.5438 -1.2774
 7695SOL    HW234548   2.014   0.208   9.140  0.3804  2.9865 -0.4601
 7696SOL     OW34549   3.272   2.534   7.319 -0.2246  0.5971 -0.0720
 7696SOL    HW134550   3.282   2.574   7.405  0.7518 -3.7437  1.8485
 7696SOL    HW234551   3.346   2.578   7.279  0.5642 -1.3346 -0.7681
 7697SOL     OW34552   1.192   0.054   7.018 -0.2929  0.1744 -0.0993
 7697SOL    HW134553   1.276   0.099   7.018 -1.7195  2.8176  2.0042
 7697SOL    HW234554   1.155   0.081   6.934  1.9761 -0.5357 -1.3091
 7698SOL     OW34555   2.839   4.609   9.231  0.0663 -0.4190  0.4433
 7698SOL    HW134556   2.923   4.619   9.187 -0.4569 -0.1638 -0.4912
 7698SOL    HW234557   2.849   4.522   9.269 -0.8280 -0.4673  0.5892
 7699SOL     OW34558   4.259   1.349   8.834 -0.4694 -0.7441  0.3654
 7699SOL    HW134559   4.300   1.271   8.872 -0.6744 -0.3058  1.4915
 7699SOL    HW234560   4.166   1.326   8.829 -0.5563 -0.5780  1.2712
 7700SOL     OW34561   1.847   3.345   8.505 -0.1898  0.0308  0.3324
 7700SOL    HW134562   1.834   3.272   8.443  0.7439 -0.0838  0.2773
 7700SOL    HW234563   1.841   3.295   8.587  2.0883 -0.4640  0.1813
 7701SOL     OW34564   1.994   0.029   4.464  0.5832  0.3927 -0.2189
 7701SOL    HW134565   2.069   0.064   4.512  1.2866  0.3636 -1.2950
 7701SOL    HW234566   1.944   0.104   4.432 -0.5373 -0.6592 -0.9529
 7702SOL     OW34567   1.781   0.476   7.061  0.0004  0.0388  0.1380
 7702SOL    HW134568   1.705   0.516   7.103 -0.4313 -1.0878  0.4327
 7702SOL    HW234569   1.815   0.548   7.008  1.2560 -0.9426 -0.3775
 7703SOL     OW34570   0.407   1.985   7.337  0.1819  0.1649  0.0843
 7703SOL    HW134571   0.395   1.948   7.250 -0.7730 -1.9109  1.1004
 7703SOL    HW234572   0.347   1.930   7.388  0.9573 -2.3675 -1.7180
 7704SOL     OW34573   4.061   2.460  15.254  0.6142 -0.1611 -0.3031
 7704SOL    HW134574   3.971   2.438  15.228  0.9232 -1.5052 -0.2316
 7704SOL    HW234575   4.108   2.388  15.295 -3.1849 -1.3526  1.9673
 7705SOL     OW34576   4.302   0.336   9.337 -0.6412 -0.6793 -0.2664
 7705SOL    HW134577   4.296   0.331   9.242  0.0453  1.8039 -0.4563
 7705SOL    HW234578   4.215   0.302   9.356 -1.2672  1.7102  1.1686
 7706SOL     OW34579   3.651   1.688   3.589  0.2717  0.5687  0.1724
 7706SOL    HW134580   3.712   1.762   3.599  1.6445 -0.5003 -0.2858
 7706SOL    HW234581   3.619   1.708   3.502 -0.6798 -0.5604  0.2651
 7707SOL     OW34582   3.423   2.427   1.624  0.2217  0.3398 -0.3132
 7707SOL    HW134583   3.417   2.401   1.716  2.8484 -1.2861 -0.6032
 7707SOL    HW234584   3.337   2.401   1.589  0.1504 -0.4324  0.4444
 7708SOL     OW34585   0.038   0.760   4.958  0.5482 -0.0110  0.0898
 7708SOL    HW134586   0.077   0.673   4.966  1.3125  0.3620  0.4860
 7708SOL    HW234587   0.049   0.790   5.048  0.5137 -2.1262  0.7952
 7709SOL     OW34588   1.398   0.585   5.347  0.4906 -0.6374 -0.2665
 7709SOL    HW134589   1.439   0.570   5.433  1.0854 -2.0476 -0.8033
 7709SOL    HW234590   1.450   0.663   5.326 -2.6437  0.9053 -2.3082
 7710SOL     OW34591   4.664   3.108   9.482  0.3500  0.3968  0.0807
 7710SOL    HW134592   4.645   3.027   9.434 -0.2229  0.9065 -0.5478
 7710SOL    HW234593   4.603   3.104   9.555  1.7964  1.6775  1.3601
 7711SOL     OW34594   2.772   2.828  14.249  0.3387  0.0611  0.2189
 7711SOL    HW134595   2.750   2.787  14.166 -0.9533  0.8783  0.1517
 7711SOL    HW234596   2.867   2.828  14.257  0.3978 -0.2861 -0.5489
 7712SOL     OW34597   1.872   2.051   6.449  0.4909  0.1282  0.3581
 7712SOL    HW134598   1.836   1.978   6.500  0.7232 -1.0151 -1.1459
 7712SOL    HW234599   1.888   2.009   6.365  0.2252  2.6593 -0.9612
 7713SOL     OW34600   3.049   1.155   8.694 -0.0790  0.0440  0.0517
 7713SOL    HW134601   3.064   1.105   8.774 -3.2038  0.2105  0.7414
 7713SOL    HW234602   3.134   1.200   8.685  0.0675 -0.2552 -0.0615
 7714SOL     OW34603   0.684   1.197  17.468  0.3767  0.2799  0.4068
 7714SOL    HW134604   0.758   1.150  17.431  0.3059 -0.6393  1.4433
 7714SOL    HW234605   0.629   1.221  17.394  0.1279 -1.2026  0.1182
 7715SOL     OW34606   0.073   2.308  13.253 -0.1221  0.4971 -0.1346
 7715SOL    HW134607   0.048   2.339  13.339 -1.3058 -0.0998 -0.2586
 7715SOL    HW234608   0.019   2.229  13.250  0.3184  0.2514 -2.0153
 7716SOL     OW34609   3.554   1.480   7.136 -0.7325  0.3713 -0.3220
 7716SOL    HW134610   3.599   1.424   7.199 -1.0491 -0.1652 -0.5784
 7716SOL    HW234611   3.477   1.500   7.189 -1.3038  1.1251 -1.4305
 7717SOL     OW34612   0.481   2.071   6.776  0.2870  0.0292  0.3453
 7717SOL    HW134613   0.488   2.125   6.697  0.0024 -0.3882  0.0355
 7717SOL    HW234614   0.515   2.140   6.832 -1.4462  0.7194  0.5714
 7718SOL     OW34615   1.313   0.600   4.640 -0.3611 -0.3687  0.2144
 7718SOL    HW134616   1.289   0.509   4.619 -0.0987 -0.5933  0.8926
 7718SOL    HW234617   1.330   0.590   4.734  0.9396  0.8541  0.1126
 7719SOL     OW34618   3.485   2.451   0.130 -0.6262 -0.3897  0.2099
 7719SOL    HW134619   3.481   2.524   0.192 -4.5479 -0.0244 -0.4633
 7719SOL    HW234620   3.392   2.428   0.128 -1.0159  1.0086  1.7883
 7720SOL     OW34621   2.671   3.579   0.993  0.0297  0.0212  0.5263
 7720SOL    HW134622   2.709   3.651   1.043 -0.2562 -0.3967  1.3430
 7720SOL    HW234623   2.754   3.537   0.970  0.3682 -0.0919  1.9461
 7721SOL     OW34624   3.074   2.660   1.776  0.1002 -0.8074  0.0830
 7721SOL    HW134625   3.118   2.729   1.825 -0.1580 -1.2394  0.9154
 7721SOL    HW234626   3.010   2.622   1.836 -0.0829  0.6690  0.8109
 7722SOL     OW34627   3.732   1.596   9.099  0.2366 -0.0457 -0.2254
 7722SOL    HW134628   3.772   1.581   9.013 -0.6351  0.1214 -0.6509
 7722SOL    HW234629   3.734   1.510   9.141 -0.3296 -0.2138 -0.5531
 7723SOL     OW34630   0.200   4.220   9.546 -0.7393  0.1937  0.2215
 7723SOL    HW134631   0.243   4.152   9.493  1.4307  0.6847  1.3134
 7723SOL    HW234632   0.123   4.247   9.498 -1.0940  0.7380  1.0964
 7724SOL     OW34633   2.593   3.378   8.083  0.0248 -0.0603  0.6603
 7724SOL    HW134634   2.607   3.429   8.162  1.2198  1.7332 -0.7225
 7724SOL    HW234635   2.609   3.291   8.119 -1.7011  0.8701  3.6339
 7725SOL     OW34636   3.468   0.709  12.563  0.9067  0.2094 -0.0262
 7725SOL    HW134637   3.512   0.680  12.483  0.1973 -0.1394 -0.2913
 7725SOL    HW234638   3.545   0.710  12.619  0.4730 -1.6950  0.6029
 7726SOL     OW34639   0.732   1.488   5.675 -0.2995 -0.2521  0.3568
 7726SOL    HW134640   0.750   1.394   5.663  0.4455  0.1711 -1.9778
 7726SOL    HW234641   0.670   1.511   5.606  1.3303  1.8248 -0.4067
 7727SOL     OW34642   4.412   3.327   7.328 -0.1650 -0.4117 -0.4007
 7727SOL    HW134643   4.399   3.305   7.235  1.5409  2.3797 -1.2779
 7727SOL    HW234644   4.382   3.417   7.339 -1.0920 -0.6406 -1.0102
 7728SOL     OW34645   4.631   4.614   8.441 -0.8589  0.4233  0.2083
 7728SOL    HW134646   4.722   4.605   8.414 -0.5848 -0.2998  1.3603
 7728SOL    HW234647   4.591   4.636   8.357 -0.8827 -0.6183 -0.0539
 7729SOL     OW34648   1.472   3.593  10.030 -0.3247  0.6994 -0.0754
 7729SOL    HW134649   1.488   3.657  10.100  0.4871 -0.4361  0.7813
 7729SOL    HW234650   1.421   3.649   9.971  0.2808 -0.4532 -1.6957
 7730SOL     OW34651   4.038   0.149  14.040 -0.1636  0.0619 -0.1912
 7730SOL    HW134652   4.048   0.207  13.964 -0.3925  1.8758  1.1439
 7730SOL    HW234653   3.946   0.167  14.061  0.4195 -0.8898  3.1677
 7731SOL     OW34654   4.296   3.226  16.919  0.1470 -0.0165  0.1049
 7731SOL    HW134655   4.222   3.285  16.904 -0.0262 -0.3656 -0.4011
 7731SOL    HW234656   4.349   3.281  16.977  1.4856  0.8989 -1.9864
 7732SOL     OW34657   3.787   3.312  10.240  0.2491  0.1667 -0.1281
 7732SOL    HW134658   3.695   3.337  10.234 -0.0637 -1.3675 -1.8340
 7732SOL    HW234659   3.795   3.293  10.334 -1.4900  0.6664  0.1049
 7733SOL     OW34660   3.418   1.106   5.145 -0.0858  0.0928 -0.3797
 7733SOL    HW134661   3.358   1.118   5.219  0.7899  0.9979  0.1731
 7733SOL    HW234662   3.503   1.136   5.176 -0.7291  0.4590  1.0174
 7734SOL     OW34663   3.805   3.749   7.547 -0.4308  0.2877 -0.2479
 7734SOL    HW134664   3.750   3.797   7.608  0.1400 -0.8570  1.1570
 7734SOL    HW234665   3.880   3.809   7.543  0.1145 -0.2506  2.1022
 7735SOL     OW34666   3.008   0.584   1.483  0.5731  0.5795  0.5697
 7735SOL    HW134667   3.052   0.669   1.475  2.7638 -0.7282 -1.1928
 7735SOL    HW234668   2.957   0.592   1.403  5.9672 -2.8250 -3.1879
 7736SOL     OW34669   0.850   4.558  12.927 -0.2405  0.4976  0.4958
 7736SOL    HW134670   0.816   4.637  12.969 -0.6395  0.1447  0.8397
 7736SOL    HW234671   0.907   4.606  12.868  0.1005  0.4848  0.8128
 7737SOL     OW34672   1.103   2.136   1.718  0.1528  0.0250 -0.0523
 7737SOL    HW134673   1.189   2.174   1.701  0.6806 -1.0260  0.2721
 7737SOL    HW234674   1.091   2.083   1.640 -2.3936  2.5545 -1.3828
 7738SOL     OW34675   3.313   4.392   4.604  0.1802  0.0883 -0.6174
 7738SOL    HW134676   3.389   4.372   4.549 -0.8464  0.5873 -2.2313
 7738SOL    HW234677   3.317   4.488   4.610 -3.1461  0.2888 -1.7281
 7739SOL     OW34678   3.543   0.369   9.068 -0.0573 -0.2224 -0.4468
 7739SOL    HW134679   3.465   0.358   9.122  0.2529  3.2964  0.7270
 7739SOL    HW234680   3.521   0.314   8.992 -0.3691 -1.0689  0.2612
 7740SOL     OW34681   2.396   3.022   3.283 -0.3452 -1.3062 -0.3279
 7740SOL    HW134682   2.433   2.980   3.361 -0.6498 -2.0394 -0.5787
 7740SOL    HW234683   2.469   3.052   3.229 -0.4025  0.3295  0.5111
 7741SOL     OW34684   3.344   0.866   9.732 -0.0216 -0.0098 -0.5614
 7741SOL    HW134685   3.344   0.958   9.757  0.0614 -0.8244  2.5057
 7741SOL    HW234686   3.256   0.842   9.761 -0.0700  0.0796 -0.6366
 7742SOL     OW34687   2.029   1.454  16.579  0.1946  0.3896 -0.3657
 7742SOL    HW134688   2.105   1.512  16.572  1.5392 -1.2014  1.1875
 7742SOL    HW234689   1.968   1.474  16.508 -0.3758  0.2506  0.0838
 7743SOL     OW34690   2.423   2.490   0.577  0.4718  0.0281  0.1047
 7743SOL    HW134691   2.357   2.544   0.534  0.2579 -0.8847 -0.7195
 7743SOL    HW234692   2.507   2.531   0.559  0.8254 -0.1117  1.3979
 7744SOL     OW34693   0.891   1.943   6.239  0.8576 -0.4509 -0.7707
 7744SOL    HW134694   0.944   1.946   6.159  1.5597 -0.0993 -0.2864
 7744SOL    HW234695   0.962   1.932   6.302 -0.1677  0.0815  0.4831
 7745SOL     OW34696   4.153   4.036  15.289 -0.1328  0.3269 -0.0598
 7745SOL    HW134697   4.091   3.978  15.335  0.3926 -1.1950 -1.2500
 7745SOL    HW234698   4.120   4.125  15.295  0.6101  0.6406 -0.5902
 7746SOL     OW34699   2.611   4.065   4.901 -0.3318  0.6049  0.1652
 7746SOL    HW134700   2.674   4.137   4.898 -0.5264  0.7935  0.7308
 7746SOL    HW234701   2.637   4.021   4.982 -1.4434 -0.4847 -0.0756
 7747SOL     OW34702   2.061   0.754   1.965  0.2589  0.2966 -0.3740
 7747SOL    HW134703   2.106   0.814   2.025  1.1318 -1.1800  0.4832
 7747SOL    HW234704   2.116   0.676   1.976 -0.7177 -0.2255  0.7944
 7748SOL     OW34705   2.085   0.984   1.006 -0.4499  0.3535 -0.1175
 7748SOL    HW134706   2.054   0.896   0.986 -0.5097  0.1570  0.8241
 7748SOL    HW234707   2.015   1.037   0.968 -0.5113  0.0872 -0.3748
 7749SOL     OW34708   3.301   3.007   6.139 -0.5481 -0.6124  0.1838
 7749SOL    HW134709   3.261   3.059   6.069 -1.2718 -0.1831  0.9206
 7749SOL    HW234710   3.254   3.035   6.217 -1.9658 -0.5199 -0.6991
 7750SOL     OW34711   1.455   3.826   5.780  0.2430  0.4320 -0.0744
 7750SOL    HW134712   1.368   3.802   5.746 -0.9786  1.1796  2.4839
 7750SOL    HW234713   1.436   3.846   5.871  0.6137  1.3991 -0.2070
 7751SOL     OW34714   3.345   2.046   6.405 -0.1773 -0.1205 -0.0306
 7751SOL    HW134715   3.341   2.078   6.315 -1.3547 -1.3851 -0.4163
 7751SOL    HW234716   3.257   2.064   6.437 -0.3947  0.9551 -1.2335
 7752SOL     OW34717   1.709   1.771   5.535  0.3869 -0.2901  0.4621
 7752SOL    HW134718   1.796   1.812   5.529  0.9132 -1.5837 -0.7090
 7752SOL    HW234719   1.651   1.828   5.585 -0.9851 -0.9179 -0.4374
 7753SOL     OW34720   2.961   0.715   4.326 -0.3242  0.2080  0.3236
 7753SOL    HW134721   2.987   0.707   4.418  0.8131  0.9094  0.0600
 7753SOL    HW234722   3.030   0.676   4.273 -0.5609 -0.3219  0.4048
 7754SOL     OW34723   4.108   3.425  13.073  0.2636  0.1655 -0.5685
 7754SOL    HW134724   4.149   3.410  12.988  0.0196  1.4453 -0.9069
 7754SOL    HW234725   4.041   3.356  13.067  1.3960 -0.9115 -0.9354
 7755SOL     OW34726   1.560   1.795   5.925  0.1332  1.0060 -0.4929
 7755SOL    HW134727   1.620   1.733   5.965 -0.2631  1.3305  0.5922
 7755SOL    HW234728   1.621   1.836   5.864 -0.0334 -0.4335 -1.6326
 7756SOL     OW34729   3.829   2.040  10.310 -0.0424  0.0731  0.3164
 7756SOL    HW134730   3.924   2.046  10.316  0.0717 -0.6836 -0.7561
 7756SOL    HW234731   3.820   1.946  10.294  1.3940  0.2123 -1.2059
 7757SOL     OW34732   4.512   1.464   4.608  0.3144 -0.1371  0.4400
 7757SOL    HW134733   4.537   1.523   4.679  2.6289  0.3958 -0.8031
 7757SOL    HW234734   4.579   1.480   4.541  0.0946  0.6604  0.4150
 7758SOL     OW34735   3.745   2.230   6.890  0.8239 -0.7229  0.5486
 7758SOL    HW134736   3.721   2.286   6.816 -0.9584 -0.8303  1.0367
 7758SOL    HW234737   3.838   2.210   6.882  0.7323 -1.1018  0.4072
 7759SOL     OW34738   0.431   0.931   2.054 -0.2674  0.1709  0.7931
 7759SOL    HW134739   0.503   0.956   2.112 -0.9550  0.2435  1.6080
 7759SOL    HW234740   0.380   1.010   2.040  1.1814  0.8651 -0.6829
 7760SOL     OW34741   0.914   4.626   7.734 -0.5904  0.0968 -0.2216
 7760SOL    HW134742   0.988   4.660   7.684  0.6586 -0.8566  1.0139
 7760SOL    HW234743   0.867   4.705   7.762  0.8930  0.5241  1.0081
 7761SOL     OW34744   4.034   4.695   6.099 -0.5481  0.1583  0.4373
 7761SOL    HW134745   4.072   4.705   6.013 -1.0545 -0.5721  0.1221
 7761SOL    HW234746   4.091   0.041   6.134  1.3515 -0.5035 -1.4065
 7762SOL     OW34747   0.662   0.992  16.105 -0.0942 -0.1654  0.0545
 7762SOL    HW134748   0.609   0.916  16.131  0.6015 -0.4237  0.6942
 7762SOL    HW234749   0.612   1.020  16.028 -0.7426  1.2534  1.0016
 7763SOL     OW34750   2.897   0.091  17.532 -0.1801 -0.3978  0.0319
 7763SOL    HW134751   2.958   0.078  17.605  0.0748 -0.2170 -0.1473
 7763SOL    HW234752   2.951   0.042  17.469 -1.2989  0.2458 -1.4128
 7764SOL     OW34753   1.269   3.077  15.836 -0.4803 -0.1920 -0.2990
 7764SOL    HW134754   1.179   3.110  15.842 -0.0814  0.7721  0.6344
 7764SOL    HW234755   1.318   3.126  15.903 -1.9017  0.5683  0.1868
 7765SOL     OW34756   1.345   2.404   2.907  0.3420  0.2089 -0.3819
 7765SOL    HW134757   1.391   2.409   2.824  2.0862 -0.3571  0.5431
 7765SOL    HW234758   1.355   2.312   2.930 -1.7269 -0.3064 -1.6258
 7766SOL     OW34759   3.623   1.047  13.380  0.6159  0.3729  0.4644
 7766SOL    HW134760   3.682   0.983  13.421  0.2210 -0.3941 -0.1640
 7766SOL    HW234761   3.558   1.053  13.450  0.9405  0.8046  0.7276
 7767SOL     OW34762   2.831   3.032   2.231  0.8877 -0.3077 -0.7021
 7767SOL    HW134763   2.839   2.979   2.152 -0.1074  0.0033 -1.0052
 7767SOL    HW234764   2.869   2.977   2.300  1.9821  0.9315 -0.2997
 7768SOL     OW34765   0.922   2.602   3.249  0.1899  0.0448 -1.0042
 7768SOL    HW134766   1.013   2.627   3.265  0.4580 -1.7915  0.3408
 7768SOL    HW234767   0.885   2.555   3.324  2.7449  1.7734  1.3339
 7769SOL     OW34768   3.244   2.457   6.587  1.0774  0.1351 -0.3624
 7769SOL    HW134769   3.312   2.437   6.523  1.0079  0.6425 -0.6048
 7769SOL    HW234770   3.248   2.553   6.580  0.4943  0.0763 -1.6162
 7770SOL     OW34771   4.329   1.973  13.513 -0.3713  0.1508 -0.1900
 7770SOL    HW134772   4.299   2.063  13.501  0.2664  0.5220  0.9575
 7770SOL    HW234773   4.389   1.962  13.439  0.7102  1.2905  0.5214
 7771SOL     OW34774   0.149   2.672   7.236 -0.0219  0.1360  0.4438
 7771SOL    HW134775   0.213   2.681   7.307  0.6747  1.3842 -0.3599
 7771SOL    HW234776   0.189   2.612   7.173  2.1096 -0.2794  2.1901
 7772SOL     OW34777   1.418   2.587   5.329  0.0313 -0.7965 -0.1217
 7772SOL    HW134778   1.330   2.549   5.333 -0.1430 -0.3908 -0.0446
 7772SOL    HW234779   1.404   2.643   5.252 -1.6185 -2.2776 -0.9078
 7773SOL     OW34780   3.947   3.074   3.421 -0.5917 -0.6983 -0.0875
 7773SOL    HW134781   3.967   3.158   3.380 -1.1791  0.5372  2.2063
 7773SOL    HW234782   3.989   3.022   3.352  2.1144 -0.5839  1.5049
 7774SOL     OW34783   1.955   3.688   6.195  0.0604  0.8321 -0.2405
 7774SOL    HW134784   1.978   3.781   6.201 -0.1624  0.8773 -0.0431
 7774SOL    HW234785   1.879   3.686   6.137 -1.1495  0.2953  1.3443
 7775SOL     OW34786   0.052   1.062   5.726  0.1431 -0.4159 -0.1149
 7775SOL    HW134787   0.120   1.130   5.723  0.4020 -0.6163  1.1355
 7775SOL    HW234788   0.085   0.994   5.784 -0.8464  0.7029  1.7513
 7776SOL     OW34789   3.104   0.078  16.071 -0.4749  0.0043 -0.0798
 7776SOL    HW134790   3.027   0.131  16.094  0.3153  1.8636 -1.6526
 7776SOL    HW234791   3.100   0.008  16.136 -2.3250  0.6862  0.5339
 7777SOL     OW34792   2.897   0.757   5.844  0.8656 -0.5398  0.2267
 7777SOL    HW134793   2.936   0.762   5.756 -2.1053  0.2034 -1.0631
 7777SOL    HW234794   2.830   0.825   5.836  0.3469 -0.9542  1.1410
 7778SOL     OW34795   1.900   2.485  14.618 -0.4346 -0.2897 -0.2207
 7778SOL    HW134796   1.946   2.401  14.624 -1.1188 -0.9155 -3.8033
 7778SOL    HW234797   1.976   2.542  14.612 -0.5556 -0.1040  0.0284
 7779SOL     OW34798   1.052   1.166   1.843  0.1459 -0.0260 -0.2027
 7779SOL    HW134799   1.014   1.252   1.830 -1.2189 -0.3759  1.3949
 7779SOL    HW234800   1.143   1.195   1.836  0.5116 -1.3655 -1.0906
 7780SOL     OW34801   1.651   1.855   7.934  0.8283 -0.4320  0.1159
 7780SOL    HW134802   1.646   1.946   7.904  0.4978  0.9339  4.3037
 7780SOL    HW234803   1.561   1.831   7.914  1.3349 -2.9681  0.9250
 7781SOL     OW34804   3.747   4.130  14.550  0.0870  0.3705  0.4353
 7781SOL    HW134805   3.704   4.077  14.483 -2.0130  1.9094  0.5618
 7781SOL    HW234806   3.836   4.099  14.537 -0.5452 -1.8290  1.3152
 7782SOL     OW34807   0.056   4.164   3.753  0.5029 -0.0202 -0.1181
 7782SOL    HW134808   0.053   4.134   3.662  0.0963 -0.3866  0.0170
 7782SOL    HW234809   4.685   4.160   3.771  0.1851  0.6017 -1.7010
 7783SOL     OW34810   1.789   1.658  15.227 -0.1540 -0.4536 -0.0746
 7783SOL    HW134811   1.819   1.613  15.149 -0.0204 -0.9105  0.2425
 7783SOL    HW234812   1.738   1.593  15.275  1.8681 -2.4742 -0.6898
 7784SOL     OW34813   2.902   0.509   5.974  0.2383 -0.1377 -0.3864
 7784SOL    HW134814   2.923   0.567   5.900  0.8684  0.5480  0.3263
 7784SOL    HW234815   2.940   0.425   5.948 -0.1358 -0.6924  0.8780
 7785SOL     OW34816   2.338   2.456  16.882 -0.1143  0.0944  0.4743
 7785SOL    HW134817   2.286   2.485  16.807 -1.7065  0.3669  1.7024
 7785SOL    HW234818   2.304   2.510  16.953 -0.4807  0.4928 -0.0009
 7786SOL     OW34819   2.112   3.630  17.108 -0.2517  0.0630 -0.6738
 7786SOL    HW134820   2.069   3.636  17.193  1.2068 -0.6752  0.1208
 7786SOL    HW234821   2.042   3.652  17.045 -0.7421  0.0629 -0.1297
 7787SOL     OW34822   3.942   2.462   3.554  0.1303  0.3131 -0.1080
 7787SOL    HW134823   4.036   2.457   3.572  0.4133 -1.9675 -2.3153
 7787SOL    HW234824   3.940   2.454   3.459  0.3547  4.4429 -0.4755
 7788SOL     OW34825   0.651   4.312   3.897  0.5580 -0.1397 -0.2204
 7788SOL    HW134826   0.651   4.394   3.847  0.4768  0.1390  0.2302
 7788SOL    HW234827   0.611   4.344   3.978  1.1313 -3.3412  1.3337
 7789SOL     OW34828   1.701   2.002   5.314  0.5234 -0.1834  0.3448
 7789SOL    HW134829   1.777   1.945   5.326  0.7366 -0.1121 -0.6426
 7789SOL    HW234830   1.736   2.078   5.359  0.5495 -0.5121  0.8850
 7790SOL     OW34831   3.939   1.719   0.772 -0.5266  0.3656 -0.6412
 7790SOL    HW134832   3.954   1.636   0.728 -1.0005  0.2603 -0.6024
 7790SOL    HW234833   3.895   1.683   0.849  0.2998 -1.5979 -1.1084
 7791SOL     OW34834   4.295   0.467   4.502 -0.1155 -0.2070 -0.9623
 7791SOL    HW134835   4.241   0.412   4.559  0.6508  2.1222  2.0302
 7791SOL    HW234836   4.350   0.519   4.560 -0.9327 -1.1829  0.7205
 7792SOL     OW34837   1.327   0.060   3.480  0.1854  0.4295 -0.0835
 7792SOL    HW134838   1.262   4.718   3.509  2.2793 -2.6418 -2.1965
 7792SOL    HW234839   1.393   0.044   3.547 -1.7108 -1.5360  1.3272
 7793SOL     OW34840   3.665   4.649   7.334 -0.7122 -0.2018  0.4798
 7793SOL    HW134841   3.716   4.597   7.397 -2.6513  1.0973  3.0989
 7793SOL    HW234842   3.586   4.595   7.325 -1.1205  0.8086 -1.7963
 7794SOL     OW34843   4.487   0.351  10.956 -0.4896 -0.2614 -0.0000
 7794SOL    HW134844   4.577   0.317  10.960 -0.0058  1.1059  0.6964
 7794SOL    HW234845   4.507   0.394  10.872 -1.9978 -0.4516 -0.4437
 7795SOL     OW34846   2.871   1.787  16.964 -0.6527 -0.3907  0.1660
 7795SOL    HW134847   2.950   1.772  17.016 -0.3645  1.5222  0.2622
 7795SOL    HW234848   2.897   1.869  16.923  0.8723 -1.1744 -0.4376
 7796SOL     OW34849   2.778   3.048   1.827 -0.4281 -0.1778  0.6122
 7796SOL    HW134850   2.702   3.068   1.880  0.1030 -0.0003  1.3123
 7796SOL    HW234851   2.740   2.975   1.778  1.1625 -0.6660  0.0976
 7797SOL     OW34852   2.498   3.835   0.457 -0.0079 -0.1212 -0.5920
 7797SOL    HW134853   2.491   3.763   0.394 -0.9144  0.6832 -1.4111
 7797SOL    HW234854   2.458   3.906   0.407  0.3907 -0.3510 -1.2477
 7798SOL     OW34855   4.243   2.833   3.552 -0.0388 -0.1080  0.1634
 7798SOL    HW134856   4.276   2.745   3.570 -0.0311  0.3409  2.3772
 7798SOL    HW234857   4.319   2.878   3.589  0.0920 -0.0569 -0.1756
 7799SOL     OW34858   2.167   4.441   8.680 -0.0994 -0.6749 -0.1210
 7799SOL    HW134859   2.201   4.406   8.762 -0.3488  2.6781  1.4056
 7799SOL    HW234860   2.088   4.487   8.706 -0.8871 -2.6928  1.0615
 7800SOL     OW34861   0.110   0.232   8.258 -0.6344 -0.3178 -0.7431
 7800SOL    HW134862   0.040   0.280   8.213 -2.1361 -0.1790  1.7425
 7800SOL    HW234863   0.088   0.256   8.348 -0.0968 -0.1211 -0.6608
 7801SOL     OW34864   3.328   2.291   7.709 -0.0405  0.0054  0.6044
 7801SOL    HW134865   3.294   2.380   7.720 -2.0577 -0.6055 -0.6311
 7801SOL    HW234866   3.423   2.289   7.715 -0.0966  1.1848  1.9645
 7802SOL     OW34867   3.887   3.904   7.883  0.1225  0.6205 -0.0849
 7802SOL    HW134868   3.795   3.880   7.894  0.0856  0.3776 -0.8936
 7802SOL    HW234869   3.887   3.965   7.810 -0.6176  0.2792 -0.3729
 7803SOL     OW34870   3.188   0.662   3.025  0.1289  0.3953  0.3413
 7803SOL    HW134871   3.230   0.577   3.016 -0.7738  0.0449 -0.5502
 7803SOL    HW234872   3.102   0.632   2.995  0.0214  0.4052  0.6318
 7804SOL     OW34873   1.692   3.720  15.929  0.9667 -0.0368  0.8261
 7804SOL    HW134874   1.715   3.652  15.993 -0.9478 -0.0908  1.4562
 7804SOL    HW234875   1.619   3.765  15.971  1.1901  0.1887  0.9703
 7805SOL     OW34876   2.095   0.020   8.637 -0.5027  0.2312 -0.0476
 7805SOL    HW134877   2.147   4.689   8.698 -0.8737  0.2925  0.3162
 7805SOL    HW234878   2.123   0.111   8.646 -1.8859  0.6588 -0.2351
 7806SOL     OW34879   2.846   2.146   1.838  0.5602  0.6014  0.0746
 7806SOL    HW134880   2.839   2.101   1.755 -0.3894  0.0684  0.4427
 7806SOL    HW234881   2.867   2.235   1.809 -0.6470  0.2493 -1.8561
 7807SOL     OW34882   4.522   0.672   5.937 -0.0480  0.2479 -0.7691
 7807SOL    HW134883   4.499   0.696   6.027  3.5083 -0.7778  0.4077
 7807SOL    HW234884   4.521   0.576   5.946 -1.2852  0.2297 -1.0690
 7808SOL     OW34885   2.250   2.161   9.294  0.0482 -0.6176 -0.3450
 7808SOL    HW134886   2.190   2.235   9.296 -0.2257 -0.8291 -0.6492
 7808SOL    HW234887   2.241   2.146   9.199  0.6177 -0.7029 -0.3875
 7809SOL     OW34888   1.575   2.345   4.951 -0.4243 -0.3795 -0.0682
 7809SOL    HW134889   1.581   2.266   5.004  0.7287 -1.3006 -1.5373
 7809SOL    HW234890   1.486   2.353   4.917  0.3162  1.4590 -1.6274
 7810SOL     OW34891   4.398   3.197   2.935 -0.7103  0.1369 -0.2874
 7810SOL    HW134892   4.371   3.246   3.013 -0.8324  0.9451 -0.8408
 7810SOL    HW234893   4.392   3.271   2.875  1.0827  0.1552 -0.4285
 7811SOL     OW34894   3.472   0.032  12.642 -0.4177 -0.1500  0.4519
 7811SOL    HW134895   3.451   0.120  12.609 -1.5381  0.4786  2.7984
 7811SOL    HW234896   3.552   0.052  12.691  0.0109 -1.1644  0.1533
 7812SOL     OW34897   0.731   3.166   8.376  0.6471 -0.0294 -0.6206
 7812SOL    HW134898   0.641   3.192   8.355  0.1713 -1.0425  0.1754
 7812SOL    HW234899   0.783   3.228   8.325  1.4098  0.6587  0.9894
 7813SOL     OW34900   2.781   1.556  16.852  0.4646  0.2640  0.2837
 7813SOL    HW134901   2.771   1.501  16.929  1.1579  0.8481  0.8028
 7813SOL    HW234902   2.813   1.640  16.887  2.8326 -1.0200  1.2210
 7814SOL     OW34903   3.364   1.380  14.969  0.2817  0.4453  0.1234
 7814SOL    HW134904   3.407   1.453  14.925 -2.1260  1.6413 -0.2421
 7814SOL    HW234905   3.428   1.309  14.958 -0.1330 -0.0872  1.1185
 7815SOL     OW34906   0.436   3.061   2.394  0.3128  0.5173  0.2606
 7815SOL    HW134907   0.377   2.986   2.381  1.5633 -0.1321 -1.6184
 7815SOL    HW234908   0.391   3.111   2.462  0.3926 -0.0385  0.7251
 7816SOL     OW34909   4.593   3.217   7.798  0.2606  0.3430 -0.1990
 7816SOL    HW134910   4.624   3.191   7.712  3.2215 -0.5271  1.1161
 7816SOL    HW234911   4.583   3.132   7.840  2.1742  0.7131  1.0470
 7817SOL     OW34912   2.340   2.066   0.925 -0.1834  0.3274  0.6760
 7817SOL    HW134913   2.370   2.119   0.851 -0.5727  0.9467  0.9625
 7817SOL    HW234914   2.254   2.047   0.887 -0.8203  1.4833  1.5563
 7818SOL     OW34915   1.414   3.353   7.551 -0.0382  0.2237  0.5415
 7818SOL    HW134916   1.480   3.383   7.488  0.4271 -0.5926  0.6321
 7818SOL    HW234917   1.409   3.262   7.521 -0.2632 -0.1320  1.6944
 7819SOL     OW34918   1.960   3.289   1.668 -0.0128  0.5030  0.2762
 7819SOL    HW134919   2.003   3.366   1.706  0.4094  1.2263 -1.6299
 7819SOL    HW234920   1.892   3.334   1.617 -1.4187 -0.2296  1.5298
 7820SOL     OW34921   4.285   3.093  12.899 -0.6045 -0.2727  0.3009
 7820SOL    HW134922   4.210   3.133  12.855 -0.6963  0.4850  1.1515
 7820SOL    HW234923   4.338   3.060  12.826  1.7172  0.4553  1.6239
 7821SOL     OW34924   2.519   1.383   3.300  0.3493  0.5253  0.4554
 7821SOL    HW134925   2.576   1.346   3.233  1.0970 -1.7345  2.3198
 7821SOL    HW234926   2.557   1.342   3.378  1.9559  2.4343  0.6803
 7822SOL     OW34927   1.848   4.126   2.921 -0.7215 -0.4251 -0.1313
 7822SOL    HW134928   1.926   4.133   2.976 -0.0878  0.0213 -1.0931
 7822SOL    HW234929   1.832   4.219   2.906 -1.1794 -0.4807  0.0071
 7823SOL     OW34930   3.774   0.665  17.129  0.3719 -0.5329  0.2360
 7823SOL    HW134931   3.712   0.701  17.193  1.4927  0.2448  0.8824
 7823SOL    HW234932   3.770   0.572  17.151  3.7578 -1.1983 -2.0540
 7824SOL     OW34933   3.433   1.057   0.361  0.0119 -0.4591 -0.2325
 7824SOL    HW134934   3.389   0.978   0.395  3.3450 -2.2416 -0.1048
 7824SOL    HW234935   3.439   1.124   0.430  1.5658  0.0799 -0.8947
 7825SOL     OW34936   0.653   0.437   7.488  0.2256  0.3297  0.0889
 7825SOL    HW134937   0.602   0.514   7.465 -0.8661 -0.8805 -1.5624
 7825SOL    HW234938   0.602   0.362   7.459  1.2519 -0.0701 -0.6821
 7826SOL     OW34939   2.423   1.791   1.113 -0.0870 -0.1939  0.1772
 7826SOL    HW134940   2.485   1.720   1.096  0.5443 -0.0669  1.8919
 7826SOL    HW234941   2.355   1.769   1.050  1.8174 -0.9300 -1.6281
 7827SOL     OW34942   2.995   4.090   5.502  0.2166  0.4880 -0.2360
 7827SOL    HW134943   2.940   4.093   5.580 -0.2334  1.2990 -0.5825
 7827SOL    HW234944   3.066   4.047   5.549 -0.1923  0.0736 -0.0014
 7828SOL     OW34945   4.650   3.315   2.238 -0.0869 -0.0976  0.2620
 7828SOL    HW134946   0.009   3.348   2.199 -1.6101  0.7706 -2.1951
 7828SOL    HW234947   4.676   3.239   2.290  2.2621  1.3752  1.2497
 7829SOL     OW34948   3.212   1.159   6.088  0.0518 -0.4323  0.2209
 7829SOL    HW134949   3.141   1.156   6.024  0.6486  0.7379 -0.4998
 7829SOL    HW234950   3.207   1.253   6.104  1.1548 -0.9159  3.5088
 7830SOL     OW34951   0.540   4.513  12.413  0.1005  0.0499  0.2644
 7830SOL    HW134952   0.552   4.581  12.478  0.0088 -0.4550  0.8100
 7830SOL    HW234953   0.532   4.560  12.330  1.0559 -1.7872 -0.8998
 7831SOL     OW34954   3.236   4.229  12.900 -0.6177 -0.2417  0.8526
 7831SOL    HW134955   3.287   4.278  12.835  0.0976 -1.1481  0.7260
 7831SOL    HW234956   3.152   4.273  12.915 -0.8880 -0.3258 -0.4152
 7832SOL     OW34957   2.603   2.048  16.947 -0.2626 -0.0019 -0.1117
 7832SOL    HW134958   2.625   1.966  16.991 -2.1563 -0.0639  0.7571
 7832SOL    HW234959   2.515   2.082  16.965  0.9644  2.2839  1.5651
 7833SOL     OW34960   1.772   2.390   5.687 -0.0033  0.1128  0.0979
 7833SOL    HW134961   1.689   2.368   5.731  0.4891 -0.4444  0.7384
 7833SOL    HW234962   1.737   2.455   5.626 -1.1009  0.7685  1.4274
 7834SOL     OW34963   4.044   0.834   7.968 -0.3057 -0.2402 -0.0223
 7834SOL    HW134964   3.969   0.883   7.933 -0.8541  0.0948  1.6405
 7834SOL    HW234965   4.006   0.804   8.051  1.2429  3.2253  1.9658
 7835SOL     OW34966   1.814   0.244   8.397  0.3707  0.3109 -1.0918
 7835SOL    HW134967   1.738   0.281   8.441  0.3832 -0.5086 -0.3788
 7835SOL    HW234968   1.815   0.155   8.432 -0.5897  0.4323 -0.7621
 7836SOL     OW34969   3.706   3.461   0.936  0.1308  0.6088 -0.2869
 7836SOL    HW134970   3.627   3.497   0.896  1.3719  2.3409 -1.1639
 7836SOL    HW234971   3.738   3.405   0.865  0.2349 -1.8542  1.7024
 7837SOL     OW34972   4.176   3.800   3.551 -0.0779  0.4557  0.4372
 7837SOL    HW134973   4.081   3.813   3.549 -0.5386 -2.7309  0.5804
 7837SOL    HW234974   4.190   3.718   3.503 -1.5032  0.6987 -0.4067
 7838SOL     OW34975   1.357   3.109  17.278  0.1652 -0.0111  0.5536
 7838SOL    HW134976   1.287   3.171  17.297  0.6409  0.1133  1.8968
 7838SOL    HW234977   1.426   3.172  17.256  0.4466 -0.6957 -0.5621
 7839SOL     OW34978   0.708   0.386   4.607  0.5928 -0.6435  0.5284
 7839SOL    HW134979   0.780   0.445   4.627 -0.4112  0.8277 -0.1960
 7839SOL    HW234980   0.639   0.440   4.568  0.7005 -0.9373 -0.0715
 7840SOL     OW34981   2.296   3.453   1.060 -0.0868  0.1859  0.3453
 7840SOL    HW134982   2.382   3.421   1.086  1.1148  3.6596  0.5681
 7840SOL    HW234983   2.252   3.480   1.140 -0.0868  1.2640 -0.0139
 7841SOL     OW34984   4.233   0.859   9.821 -0.1138 -0.3868 -0.2198
 7841SOL    HW134985   4.308   0.882   9.766  0.4136 -1.6551 -0.0317
 7841SOL    HW234986   4.209   0.940   9.866  2.1662 -0.2044  0.6868
 7842SOL     OW34987   3.336   1.896   8.092 -0.4123  0.6382  0.2903
 7842SOL    HW134988   3.314   1.890   8.000  1.2657  0.7093 -0.1116
 7842SOL    HW234989   3.421   1.853   8.086 -1.1885 -0.7813 -0.6108
 7843SOL     OW34990   1.661   4.355   5.341  0.0326  0.1505 -0.2793
 7843SOL    HW134991   1.641   4.270   5.379 -0.6560 -0.4580 -2.0448
 7843SOL    HW234992   1.721   4.333   5.270 -0.2916 -0.7921 -0.2528
 7844SOL     OW34993   1.651   0.410   1.822  0.1237 -0.1560 -0.3552
 7844SOL    HW134994   1.561   0.402   1.789  0.2055 -1.2931 -0.3040
 7844SOL    HW234995   1.678   0.491   1.779 -2.0953  0.9990  0.4051
 7845SOL     OW34996   4.109   3.214   3.753 -0.6343  0.0272 -0.5125
 7845SOL    HW134997   4.148   3.176   3.832  2.4589  0.3410 -1.8817
 7845SOL    HW234998   4.020   3.179   3.756 -0.3042 -0.7445  0.1223
 7846SOL     OW34999   2.944   1.872   1.967  0.2419  0.0112 -0.0061
 7846SOL    HW135000   3.024   1.860   1.916 -2.0465  2.5028 -4.2066
 7846SOL    HW235001   2.941   1.968   1.962 -1.0874  0.0609  1.5942
 7847SOL     OW35002   1.379   3.973   2.179 -0.2235 -0.3536  0.5568
 7847SOL    HW135003   1.352   4.049   2.231  0.7060 -1.4878  2.7066
 7847SOL    HW235004   1.458   3.947   2.225 -0.8291 -1.9713  0.6594
 7848SOL     OW35005   0.413   3.837   3.909  0.1386 -0.1826 -0.1170
 7848SOL    HW135006   0.409   3.915   3.854 -2.7422  0.5437  1.1373
 7848SOL    HW235007   0.501   3.853   3.944 -0.0209  1.3197 -0.4110
 7849SOL     OW35008   0.308   2.601   6.987 -0.1800  0.1179 -0.3631
 7849SOL    HW135009   0.387   2.642   6.952  0.9602 -1.2510  0.6155
 7849SOL    HW235010   0.240   2.616   6.921 -0.1545 -0.4885 -0.5252
 7850SOL     OW35011   2.603   3.883   5.816 -0.2937  0.3399  0.7618
 7850SOL    HW135012   2.538   3.920   5.876  0.2179 -0.1903  1.6430
 7850SOL    HW235013   2.684   3.891   5.866  0.5931 -1.1148 -0.4559
 7851SOL     OW35014   3.265   2.061  16.818  0.1005 -0.4295  0.0176
 7851SOL    HW135015   3.308   2.127  16.873 -0.3183 -0.1041 -0.0484
 7851SOL    HW235016   3.289   2.085  16.729  2.9492 -2.6851  0.1727
 7852SOL     OW35017   2.480   2.266  13.301  0.7587  0.0958 -0.1024
 7852SOL    HW135018   2.567   2.298  13.275 -0.5193 -0.4718 -5.0338
 7852SOL    HW235019   2.500   2.224  13.384 -1.4022 -1.2397 -0.2828
 7853SOL     OW35020   2.902   1.003   3.274  0.1553 -0.2535  0.1708
 7853SOL    HW135021   2.976   0.943   3.273 -1.6773 -2.5100  2.7075
 7853SOL    HW235022   2.906   1.033   3.183 -1.2456 -4.3587 -1.2564
 7854SOL     OW35023   4.175   4.348   6.340 -0.0651  0.0876 -0.2313
 7854SOL    HW135024   4.163   4.440   6.317 -0.1570  0.6220  1.9287
 7854SOL    HW235025   4.123   4.301   6.275  2.1540 -2.0316 -0.4877
 7855SOL     OW35026   1.543   0.098  11.144 -0.0545 -0.1334  0.4710
 7855SOL    HW135027   1.596   0.177  11.150  0.8311 -0.7054  0.0968
 7855SOL    HW235028   1.560   0.077  11.052  0.1674 -0.1576  0.5177
 7856SOL     OW35029   1.402   1.418   3.774  0.2227 -0.1438  0.7224
 7856SOL    HW135030   1.485   1.464   3.789 -0.5163  1.6487 -0.7373
 7856SOL    HW235031   1.352   1.429   3.855 -0.7510 -1.9893  0.3957
 7857SOL     OW35032   2.907   2.113   5.761  0.3644 -0.0800  0.0204
 7857SOL    HW135033   2.954   2.030   5.772  1.5988  0.6240  0.0860
 7857SOL    HW235034   2.966   2.178   5.799 -0.5958 -0.3859  2.0341
 7858SOL     OW35035   2.032   0.768  17.083  0.7652 -0.2508 -0.5157
 7858SOL    HW135036   2.069   0.707  17.147  0.7219  0.7766  0.4852
 7858SOL    HW235037   2.013   0.702  17.016 -0.8689 -0.0540 -0.2460
 7859SOL     OW35038   2.819   3.434   5.091 -0.0233  0.2213 -0.0378
 7859SOL    HW135039   2.752   3.438   5.023  0.2811 -0.2476 -0.3658
 7859SOL    HW235040   2.893   3.389   5.050 -1.8254 -1.0203 -1.9204
 7860SOL     OW35041   4.176   1.628   6.856  0.1737  0.6026  0.5488
 7860SOL    HW135042   4.173   1.613   6.762  1.0843 -0.6429  0.7144
 7860SOL    HW235043   4.090   1.602   6.888  0.6145 -1.2521  0.2234
 7861SOL     OW35044   3.875   4.063   3.874  0.4146  0.0235 -0.5006
 7861SOL    HW135045   3.905   4.111   3.797  1.1350  0.1039 -0.1757
 7861SOL    HW235046   3.800   4.014   3.843  0.3984  0.9475 -1.9149
 7862SOL     OW35047   0.496   0.180  12.482  0.9389 -0.7384  0.5839
 7862SOL    HW135048   0.524   0.116  12.547  0.1005 -2.1098 -0.3929
 7862SOL    HW235049   0.542   0.262  12.497  0.3549 -0.3639  0.2950
 7863SOL     OW35050   2.518   3.351  10.684 -0.5850 -0.1915  0.3603
 7863SOL    HW135051   2.492   3.308  10.603  2.3810 -0.7672 -0.2948
 7863SOL    HW235052   2.434   3.388  10.711 -0.3288  0.7286 -0.1106
 7864SOL     OW35053   3.558   3.613   1.320  0.0785  0.5751 -0.4067
 7864SOL    HW135054   3.595   3.645   1.403 -2.5570  0.8236  0.6772
 7864SOL    HW235055   3.621   3.549   1.286  0.0919 -0.1355  0.9447
 7865SOL     OW35056   4.407   1.021   8.767  0.5307 -0.6073 -0.2634
 7865SOL    HW135057   4.465   1.048   8.696  1.5376  0.3091  0.9028
 7865SOL    HW235058   4.345   0.982   8.706  1.3536 -0.5883 -1.1190
 7866SOL     OW35059   0.553   1.918   0.786  0.2738 -0.8173  0.5092
 7866SOL    HW135060   0.488   1.943   0.721  1.2209 -0.2642 -0.2214
 7866SOL    HW235061   0.584   1.838   0.742 -0.5128 -0.6986 -0.2524
 7867SOL     OW35062   0.760   3.179   9.937  0.1724 -0.2053  0.2792
 7867SOL    HW135063   0.822   3.109   9.921 -1.0291 -1.3534  0.6417
 7867SOL    HW235064   0.671   3.142   9.941  1.4476 -2.8421  3.5990
 7868SOL     OW35065   2.343   1.454   9.099  0.7243  0.2238  0.3634
 7868SOL    HW135066   2.287   1.531   9.089  1.8381  0.8019 -1.4532
 7868SOL    HW235067   2.360   1.456   9.193 -1.2386 -1.6982  0.7389
 7869SOL     OW35068   2.919   2.809   2.799 -0.9744  0.1052 -0.4148
 7869SOL    HW135069   2.981   2.881   2.790  0.6174 -1.4764 -2.0177
 7869SOL    HW235070   2.910   2.776   2.710  2.0388 -1.4659 -0.1454
 7870SOL     OW35071   0.255   3.942   7.182 -0.1442  0.1347 -0.5234
 7870SOL    HW135072   0.274   4.008   7.116  0.3434 -0.3716 -0.8923
 7870SOL    HW235073   0.298   3.977   7.260 -1.0176  0.9276 -0.4074
 7871SOL     OW35074   2.904   1.027   9.773  0.1858 -0.5388 -0.0983
 7871SOL    HW135075   2.972   0.960   9.765  0.3623 -0.4287  0.5639
 7871SOL    HW235076   2.893   1.051   9.680  1.3244  2.6571  0.5940
 7872SOL     OW35077   0.610   3.007  10.193 -0.8788  0.7705 -0.1090
 7872SOL    HW135078   0.602   2.992  10.098 -1.5139  1.7464 -0.2207
 7872SOL    HW235079   0.681   2.949  10.218 -1.4281 -0.2911 -1.0037
 7873SOL     OW35080   4.071   3.607   8.448 -0.8098 -0.3037  0.1056
 7873SOL    HW135081   4.007   3.631   8.380 -1.2567  1.4866  1.1634
 7873SOL    HW235082   4.052   3.679   8.508 -0.8437  0.1217 -0.4094
 7874SOL     OW35083   0.148   2.969  10.333 -0.6484  0.0567  0.6228
 7874SOL    HW135084   0.093   2.994  10.258  2.1524  2.7952 -0.5128
 7874SOL    HW235085   0.233   2.941  10.299 -0.2873  0.0542  1.5423
 7875SOL     OW35086   1.402   1.374   5.898 -0.0680  0.0567 -0.0617
 7875SOL    HW135087   1.416   1.410   5.986 -2.6882 -1.7152  1.0580
 7875SOL    HW235088   1.307   1.376   5.884 -0.4350 -2.7818  2.0030
 7876SOL     OW35089   3.426   0.636   7.898  0.0009 -0.7731  0.9544
 7876SOL    HW135090   3.499   0.575   7.886  0.7247  0.0758  1.0447
 7876SOL    HW235091   3.423   0.654   7.992 -0.3497 -2.1423  1.2016
 7877SOL     OW35092   0.973   4.038  17.641 -0.1261  0.6537  0.1490
 7877SOL    HW135093   0.963   4.119  17.691 -1.7011  1.6671 -1.8463
 7877SOL    HW235094   1.063   4.012  17.663  0.1233  1.3477 -0.0527
 7878SOL     OW35095   3.498   3.312  13.838  0.3932  0.6648 -0.4635
 7878SOL    HW135096   3.508   3.290  13.745  0.6745  1.0110 -0.5141
 7878SOL    HW235097   3.405   3.329  13.853  0.0611 -0.6164 -1.0334
 7879SOL     OW35098   0.698   4.625  14.386 -0.1368 -0.0025 -0.0244
 7879SOL    HW135099   0.741   4.710  14.391  0.6648 -0.3531 -0.9256
 7879SOL    HW235100   0.770   4.565  14.407  2.2302  2.1709 -2.0381
 7880SOL     OW35101   0.952   2.558  17.685  0.3891 -0.1750 -0.0250
 7880SOL    HW135102   0.946   2.631   0.056 -1.0546 -1.5064  1.3812
 7880SOL    HW235103   1.001   2.598  17.613  0.0174 -0.1946 -0.2899
 7881SOL     OW35104   1.521   1.760   9.820  0.1708  0.2579  0.8018
 7881SOL    HW135105   1.498   1.842   9.776 -0.1236 -1.1502 -1.6446
 7881SOL    HW235106   1.473   1.694   9.770  0.6077  1.3871 -1.1363
 7882SOL     OW35107   0.254   0.521   5.011 -0.1530 -0.0299 -0.3705
 7882SOL    HW135108   0.333   0.473   5.035 -0.8353  0.0354  2.0258
 7882SOL    HW235109   0.278   0.606   5.049 -1.0561  0.9270 -1.9268
 7883SOL     OW35110   0.481   2.350   2.943  0.3138  0.6072 -0.2191
 7883SOL    HW135111   0.432   2.423   2.904  2.7815  1.5809 -1.4504
 7883SOL    HW235112   0.402   2.295   2.937 -1.0678  2.4373  1.0279
 7884SOL     OW35113   2.318   2.501   3.396 -0.3354  0.3742 -0.4595
 7884SOL    HW135114   2.391   2.554   3.428 -0.4697  0.0671  0.3642
 7884SOL    HW235115   2.362   2.448   3.329 -0.1256 -1.0934  0.8380
 7885SOL     OW35116   1.912   4.025   5.760  0.7448 -0.4815 -0.0311
 7885SOL    HW135117   1.977   3.956   5.768  0.9774 -0.3794 -1.1064
 7885SOL    HW235118   1.973   4.087   5.721  0.6620 -0.3072  0.1097
 7886SOL     OW35119   0.126   4.310   4.939  0.0655 -0.5223 -0.4935
 7886SOL    HW135120   0.158   4.313   5.029  0.8013 -0.0706 -0.7726
 7886SOL    HW235121   0.125   4.217   4.917  1.9572 -0.4885 -0.7325
 7887SOL     OW35122   3.398   3.830   4.140  0.0009 -0.7191 -0.0716
 7887SOL    HW135123   3.386   3.869   4.227  1.0362  1.6055 -0.9508
 7887SOL    HW235124   3.324   3.770   4.144  0.7619 -1.6156  0.4740
 7888SOL     OW35125   1.889   4.023   6.446 -0.5559  0.6738  0.3388
 7888SOL    HW135126   1.808   4.072   6.457 -0.4478  1.4591 -2.5034
 7888SOL    HW235127   1.880   3.976   6.364 -0.1253  0.4207  0.4347
 7889SOL     OW35128   2.289   3.630   7.299  0.0079 -0.3382 -0.3382
 7889SOL    HW135129   2.208   3.584   7.280 -0.1259 -0.0833 -0.3918
 7889SOL    HW235130   2.287   3.703   7.236 -1.9232  0.4534  0.6354
 7890SOL     OW35131   0.873   3.823   8.138 -0.0481 -0.3733  0.3707
 7890SOL    HW135132   0.921   3.865   8.208  0.1948 -0.8437  0.4865
 7890SOL    HW235133   0.844   3.903   8.095  1.2676 -0.6446 -1.0274
 7891SOL     OW35134   2.833   3.545   2.737 -0.4968  0.2558  0.0768
 7891SOL    HW135135   2.895   3.546   2.810  0.2343 -1.4638 -0.5098
 7891SOL    HW235136   2.753   3.549   2.789  0.5865  0.0233  1.7657
 7892SOL     OW35137   2.908   4.478   3.784  0.3135  0.0795 -0.2083
 7892SOL    HW135138   2.922   4.530   3.862  3.4263 -0.1371 -0.6417
 7892SOL    HW235139   2.992   4.432   3.778 -0.4859 -1.2110 -1.8721
 7893SOL     OW35140   0.489   2.351  12.569  0.1815  0.3530 -0.0808
 7893SOL    HW135141   0.579   2.319  12.566  0.3252  0.7044  0.4745
 7893SOL    HW235142   0.496   2.440  12.533 -1.5989  0.2668 -0.6125
 7894SOL     OW35143   1.244   2.239   4.296  0.2782  0.0628 -0.5444
 7894SOL    HW135144   1.217   2.308   4.357 -0.3199 -0.0228 -0.7083
 7894SOL    HW235145   1.274   2.287   4.220 -1.0180 -1.4779 -2.0358
 7895SOL     OW35146   4.290   1.734  16.636 -0.6824  0.2819 -0.2956
 7895SOL    HW135147   4.297   1.827  16.657 -1.0920  0.2156  0.1498
 7895SOL    HW235148   4.357   1.702  16.696 -0.2304  1.3408 -0.2434
 7896SOL     OW35149   0.378   0.116   3.296 -0.1263  0.0220  0.2540
 7896SOL    HW135150   0.440   0.106   3.224 -0.0706 -0.8800  0.4295
 7896SOL    HW235151   0.297   0.091   3.251 -0.5943  2.8785 -0.4943
 7897SOL     OW35152   3.433   1.698  17.376  0.4124  0.0754 -0.2144
 7897SOL    HW135153   3.351   1.747  17.371  0.8918  0.8816 -0.1639
 7897SOL    HW235154   3.404   1.643  17.448  0.8580 -0.5116 -0.4846
 7898SOL     OW35155   3.597   0.004  11.980  0.2441 -0.2591 -0.1118
 7898SOL    HW135156   3.634   4.639  11.990  3.4486  1.4161  2.7316
 7898SOL    HW235157   3.626   0.041  12.064  0.9428  1.5420 -1.1440
 7899SOL     OW35158   4.307   0.070   0.723 -0.0407  0.4063  0.0826
 7899SOL    HW135159   4.373   0.112   0.778 -0.5198  2.6335 -1.0573
 7899SOL    HW235160   4.356   0.033   0.650 -1.8959 -1.5263 -0.2264
 7900SOL     OW35161   1.886   1.802   6.602  0.5784  0.1486 -0.3861
 7900SOL    HW135162   1.947   1.844   6.662  1.4966  1.1539 -2.0146
 7900SOL    HW235163   1.925   1.715   6.605 -1.4763 -0.7647 -0.4590
 7901SOL     OW35164   4.052   1.948  12.598  0.1181 -0.1355 -0.1388
 7901SOL    HW135165   4.075   1.970  12.688  0.8427  0.3663 -0.4460
 7901SOL    HW235166   3.958   1.963  12.604  0.6761  2.0956  3.1853
 7902SOL     OW35167   4.692   4.699   1.875 -0.1369 -0.5981  0.2777
 7902SOL    HW135168   4.599   4.705   1.895 -0.1812  0.0184 -0.1405
 7902SOL    HW235169   4.715   0.068   1.863  0.5580 -0.7317  0.5702
 7903SOL     OW35170   3.969   0.709   3.853 -0.1291 -0.1349 -0.4966
 7903SOL    HW135171   3.953   0.706   3.759 -1.2383  1.6128 -0.3656
 7903SOL    HW235172   3.891   0.755   3.885 -1.8221 -3.3762  0.1289
 7904SOL     OW35173   3.826   1.420  17.505 -0.2837  0.0702 -0.2811
 7904SOL    HW135174   3.860   1.361  17.572 -2.4123  1.9102  2.4228
 7904SOL    HW235175   3.886   1.495  17.513  0.5924 -0.5785 -0.7830
 7905SOL     OW35176   2.760   0.786   8.534  0.1543 -0.0231  0.4685
 7905SOL    HW135177   2.778   0.753   8.622 -0.9203  0.5121  0.8833
 7905SOL    HW235178   2.665   0.786   8.531  0.2251  1.3853 -1.4781
 7906SOL     OW35179   0.699   0.804  12.520  0.7092 -0.6104 -0.2499
 7906SOL    HW135180   0.651   0.722  12.513 -2.4857  1.1830  0.5868
 7906SOL    HW235181   0.761   0.784  12.590  0.8027  1.2650  0.2017
 7907SOL     OW35182   2.296   2.663   2.716  0.3483  0.2500  0.4304
 7907SOL    HW135183   2.267   2.730   2.779 -0.5417  0.1741  0.1066
 7907SOL    HW235184   2.269   2.702   2.633  1.8709  0.4077  0.0175
 7908SOL     OW35185   0.619   1.051  12.622 -0.2576  0.1869 -0.8172
 7908SOL    HW135186   0.548   1.100  12.581  0.6060 -0.5284 -3.1772
 7908SOL    HW235187   0.620   0.973  12.567  2.6253  1.6638 -2.8693
 7909SOL     OW35188   0.735   1.176  14.836  0.1140  0.0160 -0.2366
 7909SOL    HW135189   0.828   1.187  14.814  0.4048 -2.6578 -0.3271
 7909SOL    HW235190   0.707   1.152  14.747  0.4621  1.5341 -0.7605
 7910SOL     OW35191   0.282   0.775   4.057  0.2471 -0.6240  0.0767
 7910SOL    HW135192   0.325   0.840   4.002 -1.0320  0.2784  0.1426
 7910SOL    HW235193   0.194   0.774   4.019 -0.2443  1.6181  1.1845
 7911SOL     OW35194   3.475   4.324  14.488  0.0528  0.2970  0.7012
 7911SOL    HW135195   3.491   4.230  14.495  1.9121  0.5285 -0.5297
 7911SOL    HW235196   3.399   4.341  14.544 -0.9787  0.4112 -0.7544
 7912SOL     OW35197   0.023   2.717   1.353  0.0413 -0.5393 -0.5369
 7912SOL    HW135198   4.683   2.646   1.367  0.8809 -1.0351  0.6936
 7912SOL    HW235199   0.082   2.683   1.286 -0.1192 -4.2731  1.2464
 7913SOL     OW35200   2.196   1.110   4.085 -0.1146  0.7713 -0.2779
 7913SOL    HW135201   2.143   1.084   4.010 -1.1270  2.1348 -0.0438
 7913SOL    HW235202   2.184   1.033   4.140 -0.8220 -0.2373 -1.8477
 7914SOL     OW35203   1.598   3.265  17.540 -0.7436  0.3159  0.4035
 7914SOL    HW135204   1.537   3.207  17.495  0.3460 -0.4722 -0.0626
 7914SOL    HW235205   1.549   3.347  17.534 -0.1779  0.5455 -1.1391
 7915SOL     OW35206   2.261   3.627   5.183 -0.1668  0.2533  0.3212
 7915SOL    HW135207   2.200   3.556   5.200  1.7209 -1.5744 -0.6130
 7915SOL    HW235208   2.341   3.575   5.189 -0.1114 -0.0696 -3.5828
 7916SOL     OW35209   0.700   0.140   6.455  0.6300  0.6711  0.0619
 7916SOL    HW135210   0.665   0.124   6.543  1.6465  0.2305  0.3788
 7916SOL    HW235211   0.725   0.051   6.431  0.7511  0.0298  2.4704
 7917SOL     OW35212   1.674   2.748   8.324  0.0535  0.2327 -0.0262
 7917SOL    HW135213   1.618   2.751   8.246 -0.0106  1.9151  0.0939
 7917SOL    HW235214   1.624   2.798   8.388  0.0175  3.0024 -2.1998
 7918SOL     OW35215   2.889   3.029  10.006  0.3919 -0.0682 -0.2509
 7918SOL    HW135216   2.864   3.109   9.961  0.6587  1.1607  1.7961
 7918SOL    HW235217   2.856   3.047  10.094  2.5226 -0.7229  0.6798
 7919SOL     OW35218   3.763   1.824   5.930 -0.5947  0.2455  0.2662
 7919SOL    HW135219   3.700   1.886   5.967 -1.6257  0.1352 -1.3115
 7919SOL    HW235220   3.718   1.741   5.937 -0.9027  0.3058 -1.0253
 7920SOL     OW35221   0.329   4.591  17.262  0.1941 -1.2609 -0.2624
 7920SOL    HW135222   0.324   4.593  17.167  1.4079 -0.9708 -0.3177
 7920SOL    HW235223   0.342   4.684  17.283 -1.5039 -0.9769 -0.4543
 7921SOL     OW35224   0.219   3.027   7.785  0.2433  0.0446  0.4313
 7921SOL    HW135225   0.214   3.008   7.878 -0.4833  0.3309  0.4492
 7921SOL    HW235226   0.291   3.091   7.787 -0.2581  0.6016  0.6829
 7922SOL     OW35227   0.330   4.162   3.592  0.0849  0.2663 -0.4598
 7922SOL    HW135228   0.328   4.072   3.558  0.2905 -0.9094  2.6190
 7922SOL    HW235229   0.247   4.194   3.557 -0.3343  1.0463  1.2451
 7923SOL     OW35230   2.139   2.779   1.603 -0.2037 -0.6325 -0.9599
 7923SOL    HW135231   2.113   2.706   1.659  2.2450 -0.3424  0.5872
 7923SOL    HW235232   2.209   2.732   1.559  0.4232  0.6529 -1.3515
 7924SOL     OW35233   4.441   3.782   3.125 -0.5840 -0.4582  0.3880
 7924SOL    HW135234   4.421   3.875   3.136 -0.7712 -0.4871  0.2864
 7924SOL    HW235235   4.376   3.745   3.065 -0.9782  0.6617  0.1286
 7925SOL     OW35236   1.075   3.808   4.912 -0.0258  0.1917 -0.2929
 7925SOL    HW135237   1.071   3.758   4.994 -1.7085 -0.4936 -0.7916
 7925SOL    HW235238   0.983   3.809   4.887 -0.0926 -0.1151 -0.0561
 7926SOL     OW35239   2.691   0.535   5.639 -0.1944 -0.1657  0.0348
 7926SOL    HW135240   2.674   0.464   5.701  0.4474  1.1323  1.6952
 7926SOL    HW235241   2.651   0.496   5.561 -0.8206 -1.4662  0.9942
 7927SOL     OW35242   1.594   4.512   9.238 -0.2904 -0.8923  0.1441
 7927SOL    HW135243   1.604   4.516   9.333  2.0921 -0.4635 -0.1280
 7927SOL    HW235244   1.659   4.576   9.209 -1.4736  1.4962  2.6836
 7928SOL     OW35245   3.195   4.639   7.314 -0.1583  0.7208 -0.0361
 7928SOL    HW135246   3.151   4.640   7.229  2.2838 -1.6195 -1.3602
 7928SOL    HW235247   3.256   4.712   7.305  0.1394  0.6116  1.2009
 7929SOL     OW35248   3.063   0.426   0.114  0.4370  0.2746 -0.2676
 7929SOL    HW135249   3.143   0.463   0.151  0.5886 -1.5441  1.2761
 7929SOL    HW235250   3.082   0.332   0.117 -0.3951  0.0927 -0.6491
 7930SOL     OW35251   3.416   3.790   3.162  0.5494 -0.0624 -1.0870
 7930SOL    HW135252   3.374   3.865   3.204  1.5635 -1.5789  2.6127
 7930SOL    HW235253   3.430   3.829   3.076 -0.2419  0.0642 -1.1574
 7931SOL     OW35254   0.848   1.834  16.898 -0.8834  0.6308  0.0577
 7931SOL    HW135255   0.759   1.869  16.904  0.0797  3.2429 -1.4280
 7931SOL    HW235256   0.861   1.812  16.991 -0.4641  0.5830 -0.0148
 7932SOL     OW35257   2.322   4.676   4.614 -0.5164  0.1049 -0.0367
 7932SOL    HW135258   2.272   4.606   4.570 -3.2949  1.9645  0.1496
 7932SOL    HW235259   2.288   4.677   4.703  0.2682  0.6497  0.2485
 7933SOL     OW35260   0.535   2.107   3.495 -0.2636  0.5061 -0.3834
 7933SOL    HW135261   0.515   2.201   3.501  0.7055  0.8347 -2.3453
 7933SOL    HW235262   0.606   2.118   3.431 -0.1061 -0.0366 -0.2962
 7934SOL     OW35263   4.709   0.186   1.454 -0.2657 -0.0806 -0.1547
 7934SOL    HW135264   0.021   0.238   1.381 -0.8395 -0.2576 -0.5557
 7934SOL    HW235265   4.666   0.249   1.512  0.8645 -1.0885  1.7695
 7935SOL     OW35266   3.052   2.504  14.599  0.0974 -0.1849  0.2051
 7935SOL    HW135267   2.993   2.443  14.642 -0.7037  0.3873 -0.0683
 7935SOL    HW235268   3.118   2.440  14.574  1.4069  1.4089 -0.4910
 7936SOL     OW35269   3.043   3.339  15.450 -0.1175  0.6402 -0.3311
 7936SOL    HW135270   2.949   3.351  15.464 -0.3201 -0.7780 -0.4427
 7936SOL    HW235271   3.048   3.268  15.385 -2.3724  0.8061 -0.6741
 7937SOL     OW35272   1.197   3.645   4.670  0.2049 -0.0983  0.3438
 7937SOL    HW135273   1.201   3.550   4.653  1.3229  0.4036 -2.1776
 7937SOL    HW235274   1.244   3.652   4.753  2.1460  0.5831 -0.8109
 7938SOL     OW35275   4.041   3.817   0.798 -0.5358  0.7396 -0.1046
 7938SOL    HW135276   4.013   3.771   0.877 -0.6283 -0.6553 -0.9477
 7938SOL    HW235277   3.959   3.813   0.749 -1.3452 -2.0156  1.5115
 7939SOL     OW35278   3.723   4.659   8.373 -0.2947  0.3392 -0.3513
 7939SOL    HW135279   3.797   4.682   8.317  1.5198 -1.7541  1.1708
 7939SOL    HW235280   3.654   4.720   8.347 -2.0400 -0.2808  2.7252
 7940SOL     OW35281   2.998   3.476   2.499  0.2217  0.0615 -0.2151
 7940SOL    HW135282   2.927   3.531   2.466 -1.9899 -1.8251  1.3980
 7940SOL    HW235283   2.954   3.444   2.578 -1.3835 -0.4507 -1.3105
 7941SOL     OW35284   1.577   4.324   7.343  0.3914 -0.2222  0.1926
 7941SOL    HW135285   1.605   4.266   7.414 -0.1178 -0.2636  0.3658
 7941SOL    HW235286   1.614   4.286   7.264  0.2358 -0.7308  0.3663
 7942SOL     OW35287   1.175   4.115   3.880  0.5153  0.2254 -0.1094
 7942SOL    HW135288   1.083   4.087   3.875  0.6146 -0.5433  2.5479
 7942SOL    HW235289   1.213   4.087   3.796  0.0328  0.7808 -0.5176
 7943SOL     OW35290   0.371   1.182  12.535  0.1512  0.1489  0.3432
 7943SOL    HW135291   0.297   1.244  12.536 -1.3670 -1.6618  2.4337
 7943SOL    HW235292   0.339   1.129  12.462 -2.9995 -0.8819  2.4384
 7944SOL     OW35293   0.465   2.901   4.816 -0.6077  0.4449 -0.0302
 7944SOL    HW135294   0.439   2.813   4.790 -1.2798  0.1059  1.7676
 7944SOL    HW235295   0.455   2.889   4.911 -0.9314  0.0910 -0.1079
 7945SOL     OW35296   2.168   1.788   7.907 -0.2074  0.2684 -0.6904
 7945SOL    HW135297   2.129   1.731   7.972 -0.0833  0.5729 -0.3523
 7945SOL    HW235298   2.111   1.865   7.905  1.0934  1.2113 -3.0191
 7946SOL     OW35299   2.456   3.599  13.723 -0.0443  0.7970  0.4469
 7946SOL    HW135300   2.417   3.686  13.723  1.4659  1.4631 -0.5154
 7946SOL    HW235301   2.462   3.582  13.629  1.0687  0.3600  0.5937
 7947SOL     OW35302   0.813   1.332   6.338 -0.3846 -0.0908 -0.1581
 7947SOL    HW135303   0.905   1.352   6.322 -0.5561 -2.0017 -3.4032
 7947SOL    HW235304   0.786   1.423   6.354  2.8285  0.7622  0.3934
 7948SOL     OW35305   3.943   3.200   1.649  0.1041  0.0872  0.7302
 7948SOL    HW135306   4.018   3.255   1.627 -0.6469 -0.2428 -2.6408
 7948SOL    HW235307   3.989   3.141   1.708  2.8843  0.4411 -1.0815
 7949SOL     OW35308   0.125   3.930   9.204  0.1686  0.2446 -0.5205
 7949SOL    HW135309   0.091   3.855   9.157 -1.3675 -1.2249  2.9179
 7949SOL    HW235310   0.163   3.980   9.132 -0.4655  0.7576 -0.4923
 7950SOL     OW35311   3.057   0.934  17.479 -0.3384  0.1340  0.5649
 7950SOL    HW135312   2.989   0.884  17.525  0.7704 -1.0522  0.9163
 7950SOL    HW235313   3.137   0.888  17.504  0.8171  0.2845 -2.8672
 7951SOL     OW35314   4.231   2.872   7.384  0.4757  0.9194  0.3162
 7951SOL    HW135315   4.202   2.827   7.304  0.0924 -0.5312  1.2710
 7951SOL    HW235316   4.315   2.904   7.352  1.9796 -2.0081  1.3191
 7952SOL     OW35317   3.900   0.398   3.952  0.4368 -0.0098  0.5945
 7952SOL    HW135318   3.843   0.409   3.875  0.7497 -1.8178  0.0965
 7952SOL    HW235319   3.869   0.466   4.012 -0.5108 -0.8232  1.0347
 7953SOL     OW35320   1.201   1.717  11.646  0.0121 -0.2059 -0.2553
 7953SOL    HW135321   1.157   1.711  11.730  0.6530  0.2125  0.1091
 7953SOL    HW235322   1.131   1.704  11.581  0.3255 -0.9358 -0.4482
 7954SOL     OW35323   3.171   1.465  10.430 -0.1447  0.0074  0.0128
 7954SOL    HW135324   3.250   1.413  10.447 -2.0130 -2.6152  0.7118
 7954SOL    HW235325   3.139   1.425  10.350  2.5963 -2.8069  0.3197
 7955SOL     OW35326   0.272   4.049  13.434 -0.8113 -0.1544  0.3853
 7955SOL    HW135327   0.349   4.079  13.386 -1.6689  1.3347 -0.0747
 7955SOL    HW235328   0.210   4.122  13.438 -1.8504 -1.1217  1.8758
 7956SOL     OW35329   3.627   3.719   7.074 -0.0912 -0.0055 -0.1215
 7956SOL    HW135330   3.593   3.726   7.163 -0.3585 -2.4819 -0.0185
 7956SOL    HW235331   3.615   3.624   7.064 -2.3590  0.1857  0.9510
 7957SOL     OW35332   3.664   3.886  11.613 -0.7398 -0.0475 -0.4369
 7957SOL    HW135333   3.578   3.914  11.582 -1.8535 -1.6636  1.1998
 7957SOL    HW235334   3.714   3.965  11.590  0.4011 -0.5239  0.3783
 7958SOL     OW35335   3.859   1.128  14.075 -0.6770  0.0085 -0.1896
 7958SOL    HW135336   3.892   1.177  14.150 -1.0087 -0.1165  0.0372
 7958SOL    HW235337   3.810   1.200  14.037  0.3738  2.2637  2.7042
 7959SOL     OW35338   2.920   4.397   7.382 -0.3960 -0.4802  0.2607
 7959SOL    HW135339   2.989   4.464   7.376 -0.4393 -0.5846 -1.4482
 7959SOL    HW235340   2.893   4.387   7.474  0.3391 -0.0583  0.5236
 7960SOL     OW35341   0.430   3.178   7.802  0.4481 -0.3813  0.1215
 7960SOL    HW135342   0.501   3.206   7.744 -1.6683  1.3520 -1.6359
 7960SOL    HW235343   0.470   3.183   7.889  0.0045 -2.7900  0.4533
 7961SOL     OW35344   2.599   3.764   2.563 -0.0058 -0.1214  0.0629
 7961SOL    HW135345   2.539   3.774   2.637  0.1396  0.7664  0.0665
 7961SOL    HW235346   2.622   3.856   2.545  1.8746 -1.1090 -2.6187
 7962SOL     OW35347   2.762   1.293   9.738 -0.1269  0.2179 -0.5485
 7962SOL    HW135348   2.782   1.266   9.828 -0.3085  1.7997 -0.0258
 7962SOL    HW235349   2.724   1.215   9.698 -0.5413  0.4682 -0.6349
 7963SOL     OW35350   4.544   4.029   3.288  0.8678  0.1556  0.2708
 7963SOL    HW135351   4.456   3.995   3.303  2.6944 -3.5090  2.9996
 7963SOL    HW235352   4.529   4.104   3.231 -1.6950 -0.3121  0.3587
 7964SOL     OW35353   0.257   1.241  14.055  0.2040 -0.3473 -0.7101
 7964SOL    HW135354   0.246   1.231  14.150 -1.7683  3.3874 -0.5134
 7964SOL    HW235355   0.167   1.270  14.037  0.5431  0.4805 -1.0608
 7965SOL     OW35356   1.183   2.665   3.264 -0.7543 -0.1626  0.0380
 7965SOL    HW135357   1.239   2.709   3.328  0.1757 -0.8025 -0.3255
 7965SOL    HW235358   1.248   2.638   3.199  1.6195  0.6139  2.1097
 7966SOL     OW35359   3.234   2.170  15.576  0.2666  0.0737 -0.0847
 7966SOL    HW135360   3.288   2.133  15.507 -0.1123  0.1113 -0.4010
 7966SOL    HW235361   3.305   2.185  15.638  0.2380  0.0771 -0.0522
 7967SOL     OW35362   4.049   0.430   4.322 -0.5644 -0.3004 -0.6692
 7967SOL    HW135363   4.106   0.354   4.333  1.2289  1.7944  4.5151
 7967SOL    HW235364   4.113   0.488   4.282  0.5324  0.3044  1.9080
 7968SOL     OW35365   1.692   0.365   0.744 -0.5437  0.4672 -0.1768
 7968SOL    HW135366   1.779   0.368   0.785 -1.3531  2.1062  1.4245
 7968SOL    HW235367   1.660   0.455   0.750 -0.9316  0.1774  1.8657
 7969SOL     OW35368   0.204   1.056  12.715 -0.2252  0.3711 -0.0923
 7969SOL    HW135369   0.175   1.112  12.787 -1.0225 -0.9329  0.6179
 7969SOL    HW235370   0.286   1.092  12.682 -0.3490 -0.0223 -0.8288
 7970SOL     OW35371   3.527   1.572   0.487  0.0379  0.0301 -0.2089
 7970SOL    HW135372   3.589   1.644   0.504 -0.9242  0.0466  3.1815
 7970SOL    HW235373   3.462   1.589   0.555  2.6485 -1.0018  2.5908
 7971SOL     OW35374   1.885   2.843   4.508 -0.6476 -0.3757  0.4551
 7971SOL    HW135375   1.941   2.769   4.481 -0.3316  0.5897 -1.5214
 7971SOL    HW235376   1.880   2.843   4.604  0.6483  1.2859  0.5299
 7972SOL     OW35377   0.110   3.227   4.193  0.3733 -0.0927 -0.0630
 7972SOL    HW135378   0.114   3.318   4.166  2.7152 -0.2228 -0.1433
 7972SOL    HW235379   0.113   3.226   4.289 -0.1104  0.0274 -0.0460
 7973SOL     OW35380   2.646   2.527  16.506 -0.1972 -0.4771 -0.1843
 7973SOL    HW135381   2.596   2.451  16.537  1.8714 -1.5263  0.5984
 7973SOL    HW235382   2.594   2.568  16.437 -1.2682  0.2583  1.0755
 7974SOL     OW35383   0.068   3.010   8.866  0.1525 -0.1504  0.4955
 7974SOL    HW135384   0.114   3.062   8.801 -1.9700  1.0144 -0.0698
 7974SOL    HW235385   0.011   3.076   8.905 -1.6371 -2.7786  2.3235
 7975SOL     OW35386   0.472   1.834  11.913 -0.2654  0.2510  0.5876
 7975SOL    HW135387   0.451   1.887  11.990  0.9479  1.2982  0.2046
 7975SOL    HW235388   0.398   1.827  11.852  0.2092 -0.2305  0.0632
 7976SOL     OW35389   0.421   2.282   3.749  0.2067  0.5342 -0.4749
 7976SOL    HW135390   0.512   2.305   3.768  0.5100  1.3125 -2.8556
 7976SOL    HW235391   0.426   2.297   3.654  0.4643 -1.0914 -0.7278
 7977SOL     OW35392   0.173   3.140   5.905  0.0781 -0.2572  0.1815
 7977SOL    HW135393   0.264   3.170   5.906 -0.6857  2.1039  0.2713
 7977SOL    HW235394   0.180   3.074   5.973  0.8977 -0.3097  0.0359
 7978SOL     OW35395   0.263   3.384   9.608  0.6496 -0.6087  0.6921
 7978SOL    HW135396   0.353   3.358   9.588 -0.2301 -1.0188 -2.8024
 7978SOL    HW235397   0.279   3.447   9.679 -1.0546 -0.1997  0.7077
 7979SOL     OW35398   2.196   4.144   9.669 -1.1241 -0.7966  0.9223
 7979SOL    HW135399   2.214   4.129   9.576 -0.8007 -0.6149  0.9537
 7979SOL    HW235400   2.261   4.209   9.696  0.5034 -1.7298 -0.7408
 7980SOL     OW35401   2.553   3.768   4.375 -0.5634 -0.0199 -0.2444
 7980SOL    HW135402   2.554   3.857   4.409 -0.9843  0.9935 -2.9142
 7980SOL    HW235403   2.473   3.766   4.322  0.6679  1.0545 -2.1356
 7981SOL     OW35404   0.109   1.103  17.558 -0.3242 -0.1686  0.5923
 7981SOL    HW135405   0.183   1.138  17.608  1.2985 -0.6864 -1.4472
 7981SOL    HW235406   0.097   1.015  17.593 -0.3703 -1.0168 -1.5815
 7982SOL     OW35407   2.963   1.566  16.011  0.5405 -0.0877  0.6954
 7982SOL    HW135408   2.930   1.477  16.025 -1.0663  0.4773  0.5468
 7982SOL    HW235409   2.907   1.614  16.073 -0.6734  1.0465 -1.2659
 7983SOL     OW35410   0.567   2.579   9.283  0.2063 -0.0600 -0.6315
 7983SOL    HW135411   0.652   2.616   9.308  0.5971 -0.5519 -1.2480
 7983SOL    HW235412   0.569   2.511   9.350  2.5307 -0.7109 -1.3744
 7984SOL     OW35413   3.126   1.624   2.794  0.3781  0.0026 -0.0366
 7984SOL    HW135414   3.177   1.600   2.717 -1.6146 -2.3910 -0.6209
 7984SOL    HW235415   3.043   1.623   2.748 -0.0670  0.0407  0.7558
 7985SOL     OW35416   1.552   1.048  11.923  0.2351  0.0414  0.2455
 7985SOL    HW135417   1.579   0.956  11.923  2.6491  0.7310  0.3400
 7985SOL    HW235418   1.629   1.085  11.967  0.5137 -2.2592  1.7096
 7986SOL     OW35419   4.698   0.799   8.353  0.2932  0.6946  0.4583
 7986SOL    HW135420   4.646   0.879   8.341 -1.1391 -0.5375 -1.5846
 7986SOL    HW235421   4.654   0.743   8.289  2.1636 -3.0635  2.4711
 7987SOL     OW35422   1.077   1.385   7.861 -0.1427  0.3174 -0.5141
 7987SOL    HW135423   1.014   1.420   7.924  1.0941 -0.6413  1.2725
 7987SOL    HW235424   1.014   1.336   7.809  2.0028 -0.4371 -2.3551
 7988SOL     OW35425   2.326   1.018   4.979  0.1830  0.4012  0.0156
 7988SOL    HW135426   2.309   0.978   5.064 -1.9175  0.6261 -0.3040
 7988SOL    HW235427   2.421   1.033   4.972  0.1927 -0.2978 -1.3200
 7989SOL     OW35428   3.109   1.543  12.947  0.3898 -0.5064 -0.1231
 7989SOL    HW135429   3.169   1.469  12.951 -0.2466 -1.0529 -0.6720
 7989SOL    HW235430   3.034   1.496  12.909  0.6444 -1.5561  0.6615
 7990SOL     OW35431   3.324   3.053  10.664 -0.1026  0.0120 -0.1455
 7990SOL    HW135432   3.391   3.036  10.730 -1.1223 -2.2288  0.2911
 7990SOL    HW235433   3.378   3.109  10.608  0.8529  1.6569  2.4282
 7991SOL     OW35434   1.093   2.808   1.499  0.3188 -0.1418  0.2332
 7991SOL    HW135435   1.044   2.863   1.438  1.0237  2.7531  2.3044
 7991SOL    HW235436   1.125   2.737   1.444 -0.3814 -0.9795  0.9033
 7992SOL     OW35437   4.099   0.852   5.194 -0.0794 -0.0086  0.1889
 7992SOL    HW135438   4.147   0.928   5.163 -2.6920  1.0826 -1.1845
 7992SOL    HW235439   4.024   0.859   5.136 -0.4630 -0.6590  0.6084
 7993SOL     OW35440   4.475   2.306  13.253 -0.4596  0.7244  0.0635
 7993SOL    HW135441   4.521   2.223  13.268  1.6761  1.6659 -1.3447
 7993SOL    HW235442   4.493   2.343  13.167  0.7028 -2.1083 -0.9106
 7994SOL     OW35443   2.158   1.924  14.399  0.3625  0.3259 -0.1165
 7994SOL    HW135444   2.249   1.921  14.429 -0.5231 -0.1372  2.5531
 7994SOL    HW235445   2.181   1.976  14.322 -1.0887  0.9943 -0.1005
 7995SOL     OW35446   4.541   0.146   6.203  0.2898  0.1425  0.6958
 7995SOL    HW135447   4.607   0.077   6.211  0.7545  0.4930 -0.2266
 7995SOL    HW235448   4.463   0.096   6.227 -0.4728  0.4060 -1.2645
 7996SOL     OW35449   2.475   1.772   9.173 -0.2663 -0.0661 -0.4876
 7996SOL    HW135450   2.507   1.728   9.252 -2.0632 -0.1090  0.2050
 7996SOL    HW235451   2.500   1.704   9.110  0.1860 -1.2759  1.0110
 7997SOL     OW35452   1.191   0.486  11.177 -0.3742 -0.6577 -0.5670
 7997SOL    HW135453   1.098   0.507  11.175 -0.2152 -0.1783 -2.5065
 7997SOL    HW235454   1.215   0.521  11.262 -0.2419 -0.1718 -0.8078
 7998SOL     OW35455   1.924   3.925   7.887 -0.1585  0.0436  0.0831
 7998SOL    HW135456   2.006   3.941   7.840  0.0830  0.0212  0.4850
 7998SOL    HW235457   1.894   4.015   7.895  1.3569  0.2355  3.7108
 7999SOL     OW35458   4.107   0.385   6.204 -0.3548 -0.7570 -0.8509
 7999SOL    HW135459   4.021   0.395   6.163 -2.2570 -3.0197  2.5557
 7999SOL    HW235460   4.159   0.375   6.124 -0.4582 -3.1473 -0.6420
 8000SOL     OW35461   3.088   1.552   1.303  0.1971 -0.4401  0.1123
 8000SOL    HW135462   3.018   1.608   1.336  0.6962  1.2822 -1.7346
 8000SOL    HW235463   3.116   1.630   1.254  0.3590 -0.9596 -0.6155
 8001SOL     OW35464   0.757   4.209   1.614 -0.0883  0.7961 -0.1677
 8001SOL    HW135465   0.784   4.255   1.693  0.6835 -0.1154  0.0962
 8001SOL    HW235466   0.674   4.166   1.638  0.7173 -0.0835  1.0433
 8002SOL     OW35467   0.492   0.282  16.871  0.8954  0.4114 -0.1002
 8002SOL    HW135468   0.551   0.311  16.941  1.1636  0.5476 -0.3820
 8002SOL    HW235469   0.560   0.239  16.818 -0.7382 -0.3414 -1.5958
 8003SOL     OW35470   1.904   0.489   2.832 -0.0243  0.3470  0.2133
 8003SOL    HW135471   1.949   0.560   2.877  0.3918  0.1953  0.0297
 8003SOL    HW235472   1.819   0.480   2.876  0.8151  1.0485  1.9626
 8004SOL     OW35473   2.223   0.060   5.524  0.3436  0.5256 -0.1677
 8004SOL    HW135474   2.186   0.006   5.594  1.7335  0.3378  0.4246
 8004SOL    HW235475   2.234   0.142   5.572  3.2729  1.2470 -2.1073
 8005SOL     OW35476   1.546   4.576   4.975  0.0965 -0.8177  0.0920
 8005SOL    HW135477   1.596   4.642   5.023 -1.3983  1.0077 -0.8304
 8005SOL    HW235478   1.472   4.632   4.949  1.1857  0.3504 -0.4911
 8006SOL     OW35479   2.139   2.863   4.686 -0.0528 -0.1324 -0.1787
 8006SOL    HW135480   2.095   2.841   4.767  1.5714 -4.4791 -0.4780
 8006SOL    HW235481   2.203   2.791   4.682 -0.8018 -0.5758 -4.1270
 8007SOL     OW35482   3.377   2.396  12.521 -0.1277 -0.1094  0.3376
 8007SOL    HW135483   3.380   2.301  12.519 -3.3433 -0.1186 -3.7551
 8007SOL    HW235484   3.382   2.412  12.616 -0.6588 -3.8747  1.0086
 8008SOL     OW35485   0.210   4.643   7.265 -0.1068  0.0551 -0.0228
 8008SOL    HW135486   0.197   4.557   7.305 -2.6136  0.9658  1.1589
 8008SOL    HW235487   0.204   4.703   7.340  1.3095  0.4605 -0.2351
 8009SOL     OW35488   1.202   3.561   7.960  0.3115  0.3203 -0.4065
 8009SOL    HW135489   1.244   3.542   7.876 -1.5826 -1.9444 -0.8404
 8009SOL    HW235490   1.277   3.569   8.020  0.6485 -1.4489 -0.5789
 8010SOL     OW35491   2.382   0.766  16.960 -0.3945 -0.2319 -0.3176
 8010SOL    HW135492   2.472   0.777  16.991 -0.5902  2.0090 -0.5270
 8010SOL    HW235493   2.372   0.852  16.919 -1.0529 -0.1261  0.0602
 8011SOL     OW35494   0.827   4.332   3.142 -0.1002  0.0114 -0.3588
 8011SOL    HW135495   0.878   4.321   3.062  1.3449 -1.3323  0.7414
 8011SOL    HW235496   0.850   4.261   3.202 -1.5266 -0.1596 -0.0326
 8012SOL     OW35497   4.403   1.654   3.606 -0.3944  0.2022  0.3750
 8012SOL    HW135498   4.312   1.657   3.576 -0.0317 -2.3001 -0.9503
 8012SOL    HW235499   4.442   1.727   3.557  0.3251 -0.1738  0.3804
 8013SOL     OW35500   1.238   0.366   8.189 -0.4848  0.2202  0.2393
 8013SOL    HW135501   1.332   0.367   8.208 -0.9129  2.1239  2.2921
 8013SOL    HW235502   1.198   0.382   8.274 -0.5579  1.2902  0.0047
 8014SOL     OW35503   2.747   0.881   6.309 -0.4655 -0.6936  0.0510
 8014SOL    HW135504   2.730   0.974   6.324  1.1682 -0.3984  0.0723
 8014SOL    HW235505   2.838   0.886   6.282 -0.3028 -1.8102  0.3591
 8015SOL     OW35506   3.295   1.949  15.395  0.0098 -0.3629 -0.1129
 8015SOL    HW135507   3.365   1.884  15.385 -0.5058 -0.8360 -0.6098
 8015SOL    HW235508   3.238   1.907  15.459  0.0202  0.7795  0.6518
 8016SOL     OW35509   0.775   3.417   3.703 -0.0867  0.0678 -0.0992
 8016SOL    HW135510   0.727   3.465   3.635  1.4068  1.0650 -0.4523
 8016SOL    HW235511   0.732   3.335   3.680  0.7475 -0.9293  1.9637
 8017SOL     OW35512   0.091   3.226   4.497 -0.1114  0.1501  0.1467
 8017SOL    HW135513   0.037   3.239   4.575 -1.1424 -1.1364 -0.3490
 8017SOL    HW235514   0.148   3.153   4.520 -0.1346  0.8605  2.4408
 8018SOL     OW35515   3.804   1.323   2.762 -0.6223  0.4163 -0.4442
 8018SOL    HW135516   3.731   1.383   2.777  0.6447  2.2737 -1.6653
 8018SOL    HW235517   3.780   1.250   2.818  3.0544  0.0970  0.6643
 8019SOL     OW35518   1.131   2.668  17.495 -0.3029 -0.1725 -0.4899
 8019SOL    HW135519   1.098   2.673  17.405  2.5942  1.2291 -1.4963
 8019SOL    HW235520   1.197   2.599  17.490 -0.8527 -0.6978 -0.4646
 8020SOL     OW35521   3.368   0.304  15.762  0.3015  0.0116  0.9941
 8020SOL    HW135522   3.312   0.271  15.693  0.4876  4.2516 -1.1802
 8020SOL    HW235523   3.454   0.312  15.721  0.8587 -2.1620  1.7402
 8021SOL     OW35524   2.434   1.671   8.468 -0.0001  0.0613  0.4553
 8021SOL    HW135525   2.478   1.645   8.548  1.8100  0.5467 -0.3924
 8021SOL    HW235526   2.490   1.745   8.446  1.1695 -0.8658  0.3037
 8022SOL     OW35527   4.360   0.024   7.140  0.6073  0.1780 -0.2372
 8022SOL    HW135528   4.436   4.714   7.188 -1.1400 -1.3855  1.4592
 8022SOL    HW235529   4.307   0.063   7.209  0.3159  2.1434 -1.5748
 8023SOL     OW35530   4.654   1.063   1.323 -0.1127  0.3245 -0.0050
 8023SOL    HW135531   4.581   1.061   1.385 -1.3832 -1.4024 -1.5348
 8023SOL    HW235532   4.600   1.032   1.250  0.6798  0.3469 -0.5987
 8024SOL     OW35533   3.465   2.066  16.119 -0.3268 -1.1266  0.1541
 8024SOL    HW135534   3.411   2.087  16.043 -1.4298 -1.9238  0.7294
 8024SOL    HW235535   3.447   1.974  16.138 -0.0887 -1.3612 -0.7479
 8025SOL     OW35536   1.281   2.833   1.994  0.5266 -0.1593  0.2983
 8025SOL    HW135537   1.264   2.817   1.901 -1.4858 -0.0855  0.6642
 8025SOL    HW235538   1.376   2.845   1.992  0.2278  1.9339 -1.3632
 8026SOL     OW35539   3.907   4.423   6.104  0.1865  0.2458 -0.3464
 8026SOL    HW135540   3.918   4.508   6.144 -0.1222 -0.2960  0.8898
 8026SOL    HW235541   3.985   4.421   6.049 -0.7158 -1.1561 -1.6085
 8027SOL     OW35542   3.769   0.964  13.858  0.0684 -1.0503 -0.7019
 8027SOL    HW135543   3.864   0.957  13.858  0.2620  1.7400 -1.4889
 8027SOL    HW235544   3.756   1.012  13.940  2.4220 -2.2798  0.3940
 8028SOL     OW35545   4.692   1.276  14.131 -0.0165 -0.1100  0.2580
 8028SOL    HW135546   4.702   1.237  14.218 -1.1045  0.3541  0.5925
 8028SOL    HW235547   4.688   1.196  14.079  0.4170 -0.0380  0.1187
 8029SOL     OW35548   1.287   1.828   5.875 -0.4659 -0.1642  0.1848
 8029SOL    HW135549   1.266   1.921   5.863 -1.5323 -0.7442 -2.3323
 8029SOL    HW235550   1.382   1.826   5.883 -0.3924  2.4637 -0.0863
 8030SOL     OW35551   2.094   2.744  16.988 -0.7004 -0.5598  0.3195
 8030SOL    HW135552   2.098   2.831  17.027 -1.1541  0.2002 -1.3056
 8030SOL    HW235553   2.151   2.694  17.046  2.0840  0.6751 -1.3294
 8031SOL     OW35554   3.898   2.378   7.894  0.4996  0.4418 -0.4529
 8031SOL    HW135555   3.955   2.364   7.969 -1.0816 -1.0489  0.4722
 8031SOL    HW235556   3.809   2.358   7.923  1.0109  0.7864  1.3572
 8032SOL     OW35557   1.400   1.882  13.742 -0.3843 -0.1013 -0.5110
 8032SOL    HW135558   1.339   1.868  13.670  1.3373  0.6527 -2.1025
 8032SOL    HW235559   1.461   1.941  13.699  0.3351 -1.0236 -0.7553
 8033SOL     OW35560   1.076   0.843   7.100 -0.4283  0.2789  0.0031
 8033SOL    HW135561   1.137   0.878   7.034 -1.9947  0.9971 -1.0525
 8033SOL    HW235562   1.080   0.748   7.091  1.5512  0.3660 -0.1248
 8034SOL     OW35563   3.056   3.761   2.664  0.0735  0.8977  0.7114
 8034SOL    HW135564   2.967   3.797   2.671 -0.0300  0.7702  0.1129
 8034SOL    HW235565   3.043   3.682   2.611  1.8861  0.1310  1.4175
 8035SOL     OW35566   1.427   3.661   0.381  0.5164 -0.2588 -0.1069
 8035SOL    HW135567   1.384   3.600   0.441 -1.2733  0.6848 -0.4281
 8035SOL    HW235568   1.383   3.648   0.297  2.9941 -0.3915 -1.3687
 8036SOL     OW35569   3.726   0.663   4.691  0.5369  0.4002  0.5848
 8036SOL    HW135570   3.787   0.735   4.704  0.7071  0.5171 -0.9354
 8036SOL    HW235571   3.750   0.609   4.766 -0.3481 -1.4519 -0.4720
 8037SOL     OW35572   1.466   2.285   9.372  0.6298  0.3841 -0.0673
 8037SOL    HW135573   1.503   2.197   9.362  1.5319  0.8618 -0.9003
 8037SOL    HW235574   1.397   2.275   9.438  1.9663 -0.3732  1.1927
 8038SOL     OW35575   2.032   2.580   6.398  0.3702 -0.6346  1.1564
 8038SOL    HW135576   1.991   2.517   6.457  3.1939 -0.9324  2.7943
 8038SOL    HW235577   2.098   2.526   6.355 -0.1473 -1.7096  1.7209
 8039SOL     OW35578   1.376   3.535   4.033 -0.1183  0.8411  0.3382
 8039SOL    HW135579   1.341   3.454   4.071  3.7215 -0.4067  1.2589
 8039SOL    HW235580   1.306   3.600   4.032  0.3089  1.2834 -0.7492
 8040SOL     OW35581   2.808   0.717  15.857 -0.2782  0.3558 -0.6012
 8040SOL    HW135582   2.758   0.791  15.824 -0.0043  0.5061 -0.6751
 8040SOL    HW235583   2.748   0.681  15.923  0.7412 -0.1899  0.0266
 8041SOL     OW35584   1.506   0.362   3.179  0.1217 -0.0462  0.1748
 8041SOL    HW135585   1.486   0.275   3.144  0.6569 -0.8738  1.9303
 8041SOL    HW235586   1.434   0.375   3.241  0.3648  0.7810  0.2869
 8042SOL     OW35587   4.108   2.361   8.086 -0.5415  0.2696  0.4323
 8042SOL    HW135588   4.163   2.439   8.092 -0.7704  0.4259  0.4893
 8042SOL    HW235589   4.159   2.310   8.023 -0.7038  1.7885 -0.9082
 8043SOL     OW35590   4.491   0.750   1.050  0.2874  0.1930 -0.0685
 8043SOL    HW135591   4.426   0.798   0.999  0.0334  0.6840  0.7132
 8043SOL    HW235592   4.518   0.814   1.116  1.3542 -0.5603  0.2154
 8044SOL     OW35593   1.077   2.143   0.866 -0.3715 -0.4112  0.4056
 8044SOL    HW135594   1.053   2.064   0.818  1.8936  0.7035 -2.5243
 8044SOL    HW235595   1.030   2.215   0.823 -1.4003 -1.0550  0.4553
 8045SOL     OW35596   2.662   4.390  15.251 -0.8123  0.4618 -0.4840
 8045SOL    HW135597   2.571   4.394  15.219 -1.4117 -1.6118  0.9534
 8045SOL    HW235598   2.662   4.473  15.300  0.8287  2.3747 -3.7221
 8046SOL     OW35599   2.054   2.293   9.866  0.3829 -0.1978 -0.1022
 8046SOL    HW135600   2.142   2.278   9.899 -0.2724  0.0986  1.8183
 8046SOL    HW235601   2.088   2.321   9.782  0.3701 -0.1575 -0.0939
 8047SOL     OW35602   3.003   1.291  13.150 -0.0089  0.3002 -0.3807
 8047SOL    HW135603   2.991   1.303  13.056  0.5500  0.2246 -0.4642
 8047SOL    HW235604   2.917   1.318  13.181 -0.9233 -1.4268 -1.4620
 8048SOL     OW35605   0.075   0.742  12.552 -0.7340  0.2497  0.5237
 8048SOL    HW135606   0.103   0.756  12.462 -2.1190  0.7033  0.1530
 8048SOL    HW235607   4.702   0.742  12.540 -0.7059  0.2151  0.3107
 8049SOL     OW35608   1.703   0.421   4.244 -0.3978 -0.3129  0.4395
 8049SOL    HW135609   1.779   0.476   4.223 -1.1585  0.7346  0.4519
 8049SOL    HW235610   1.633   0.468   4.200  1.2592  1.5873 -0.1759
 8050SOL     OW35611   3.285   1.232   0.552  0.0694  0.2266  0.5971
 8050SOL    HW135612   3.339   1.310   0.536  0.3073  0.1620  1.0676
 8050SOL    HW235613   3.197   1.258   0.527 -0.2098 -0.1298  1.1922
 8051SOL     OW35614   2.663   0.239  15.280  0.2539  0.0237  0.2436
 8051SOL    HW135615   2.739   0.231  15.222 -0.2081 -2.2429 -0.0794
 8051SOL    HW235616   2.607   0.162  15.266 -3.2509  2.2281  2.2132
 8052SOL     OW35617   2.447   0.916   1.771 -0.3844 -0.0300 -0.1904
 8052SOL    HW135618   2.509   0.847   1.793 -0.4564 -0.6359 -1.9295
 8052SOL    HW235619   2.377   0.865   1.730 -1.3550  0.9314  0.2457
 8053SOL     OW35620   1.411   0.793   3.994  0.1506 -0.1215 -0.0154
 8053SOL    HW135621   1.415   0.888   3.994 -0.6131 -0.1059 -4.2912
 8053SOL    HW235622   1.498   0.774   3.958 -0.8426 -2.1611 -1.3424
 8054SOL     OW35623   2.749   2.449  12.689 -0.4065 -0.8589 -0.3265
 8054SOL    HW135624   2.718   2.388  12.623 -1.2303  1.8975 -2.4867
 8054SOL    HW235625   2.833   2.407  12.708 -0.2291 -0.1616  0.4448
 8055SOL     OW35626   1.791   4.578   6.759 -0.4991 -0.1586  0.1143
 8055SOL    HW135627   1.846   4.604   6.833  1.9171  0.7086 -1.9957
 8055SOL    HW235628   1.748   4.664   6.752 -0.4031 -0.2483 -1.4671
 8056SOL     OW35629   0.712   4.118   5.851 -0.4471 -0.0871  0.0518
 8056SOL    HW135630   0.729   4.133   5.758 -0.2706 -2.7600 -0.3471
 8056SOL    HW235631   0.790   4.159   5.889  0.2386 -1.1830 -0.1936
 8057SOL     OW35632   1.349   2.789  17.607 -0.0153  0.2620 -0.0778
 8057SOL    HW135633   1.328   2.829  17.691  0.6983 -3.2174  1.7429
 8057SOL    HW235634   1.261   2.765  17.578 -0.0539 -1.2483  1.3318
 8058SOL     OW35635   4.527   1.949   2.857  0.6652 -0.6200  0.0383
 8058SOL    HW135636   4.543   1.900   2.776  0.7895 -3.1622  1.6087
 8058SOL    HW235637   4.583   1.904   2.920  1.3554  0.6149  0.3019
 8059SOL     OW35638   2.641   2.468  16.976 -0.0529 -0.5015  0.0597
 8059SOL    HW135639   2.562   2.437  16.932  0.8676 -0.8684 -1.3411
 8059SOL    HW235640   2.627   2.449  17.069 -1.7395 -1.0816 -0.3216
 8060SOL     OW35641   1.117   3.971   6.360  0.2378 -1.1209  0.3710
 8060SOL    HW135642   1.212   3.964   6.352  0.0897 -2.4289 -0.1409
 8060SOL    HW235643   1.098   3.948   6.451 -2.8420  0.8632  0.2264
 8061SOL     OW35644   3.527   0.872   8.891 -0.2763 -0.4490  0.0080
 8061SOL    HW135645   3.477   0.944   8.853 -0.1278  0.4512  1.5176
 8061SOL    HW235646   3.592   0.914   8.947  0.3496 -1.5026  0.0604
 8062SOL     OW35647   3.414   2.963   1.662  0.3662  0.1182  0.2790
 8062SOL    HW135648   3.500   2.925   1.647 -0.2261  0.7702 -4.6394
 8062SOL    HW235649   3.393   3.008   1.580  0.2235 -0.1381  0.1754
 8063SOL     OW35650   3.630   0.675  12.344 -0.3875 -0.7431 -0.4140
 8063SOL    HW135651   3.614   0.625  12.263  0.3721  0.2733 -1.1867
 8063SOL    HW235652   3.686   0.740  12.302 -1.7183  0.3633 -0.4915
 8064SOL     OW35653   0.594   0.556  11.768 -0.4347 -0.1408 -0.3550
 8064SOL    HW135654   0.632   0.626  11.822  0.2612 -0.6898 -0.1384
 8064SOL    HW235655   0.631   0.581  11.683 -0.5915 -0.3182 -0.4742
 8065SOL     OW35656   3.306   0.244   0.731 -0.5091 -0.1393  0.4621
 8065SOL    HW135657   3.393   0.210   0.750  0.0133  0.8192 -0.2674
 8065SOL    HW235658   3.255   0.182   0.785 -1.0562  1.7631  2.1227
 8066SOL     OW35659   0.070   2.964  10.039  0.7196  0.2514  0.1808
 8066SOL    HW135660   0.023   2.881  10.041  1.6513 -0.3031 -0.9153
 8066SOL    HW235661   0.064   2.992   9.947  1.0366  0.8188  0.3303
 8067SOL     OW35662   0.893   3.265   5.302  0.3212  0.0092  0.0292
 8067SOL    HW135663   0.900   3.360   5.298  0.3544 -0.0380 -0.9004
 8067SOL    HW235664   0.888   3.228   5.214  1.4890  1.9759 -0.8533
 8068SOL     OW35665   1.020   0.401   2.100  0.4933  0.0570  1.2614
 8068SOL    HW135666   1.007   0.317   2.055  0.6653 -0.0281  1.3687
 8068SOL    HW235667   0.955   0.464   2.071  0.4330 -0.2597  0.7155
 8069SOL     OW35668   0.726   0.095  12.802 -0.2372  0.1039 -0.2737
 8069SOL    HW135669   0.822   0.103  12.803 -0.1191 -1.1937 -0.0576
 8069SOL    HW235670   0.689   0.163  12.857  0.1672 -1.0326  1.4229
 8070SOL     OW35671   1.597   2.492   7.944  0.1539  0.5011  0.3597
 8070SOL    HW135672   1.671   2.457   7.895  0.7619  0.6865  1.1428
 8070SOL    HW235673   1.539   2.416   7.950  1.0743 -0.0702  2.2239
 8071SOL     OW35674   3.988   1.529   7.830  0.2198  0.1757  0.2704
 8071SOL    HW135675   4.064   1.472   7.842 -0.5127 -0.8465  0.0891
 8071SOL    HW235676   4.023   1.599   7.776  1.3178 -2.0890 -1.9534
 8072SOL     OW35677   2.110   1.509  10.890  0.0010 -0.1666 -0.8902
 8072SOL    HW135678   2.097   1.532  10.982  0.5742  0.5194 -0.9788
 8072SOL    HW235679   2.090   1.594  10.851 -1.6699  0.8894  2.2631
 8073SOL     OW35680   2.761   2.474   2.727 -0.1063 -0.0449  0.8161
 8073SOL    HW135681   2.737   2.381   2.732  1.4262 -0.5475 -1.2223
 8073SOL    HW235682   2.678   2.513   2.753  0.3252  1.3119  0.1525
 8074SOL     OW35683   0.379   3.354  13.577 -0.2989 -0.1763  0.0269
 8074SOL    HW135684   0.433   3.432  13.588 -0.8711  0.0494  1.3068
 8074SOL    HW235685   0.332   3.382  13.499 -0.3649 -2.5282 -0.7642
 8075SOL     OW35686   2.861   0.202   9.610  0.4613 -0.0082  0.3885
 8075SOL    HW135687   2.925   0.249   9.557 -0.3607  0.8564  0.1785
 8075SOL    HW235688   2.849   0.119   9.563  0.0655 -0.0925  0.6438
 8076SOL     OW35689   0.067   1.232  17.109 -0.2261 -0.2668  1.3295
 8076SOL    HW135690   0.007   1.184  17.166 -1.9929  0.7976  0.3651
 8076SOL    HW235691   0.153   1.201  17.137  1.3429  1.0098 -2.1240
 8077SOL     OW35692   1.709   1.043   2.493 -0.7060 -0.3743 -0.3493
 8077SOL    HW135693   1.674   1.006   2.412  2.3711  0.9739 -2.2879
 8077SOL    HW235694   1.771   0.976   2.523 -1.9887 -1.8282 -0.9484
 8078SOL     OW35695   4.589   4.053  17.553 -0.4065 -0.1524 -0.1118
 8078SOL    HW135696   4.671   4.094  17.525  0.1378 -0.0149  1.6702
 8078SOL    HW235697   4.537   4.069  17.474  1.2950  1.2892 -0.9672
 8079SOL     OW35698   1.707   3.179   0.975 -0.9372  0.1197  0.7108
 8079SOL    HW135699   1.720   3.167   1.069 -0.9216  1.5073  0.8868
 8079SOL    HW235700   1.677   3.269   0.963 -1.4415 -0.2528 -0.9219
 8080SOL     OW35701   2.062   1.686   4.499 -0.1849  0.0797 -0.2652
 8080SOL    HW135702   2.004   1.610   4.496  2.2270 -1.7699 -0.0308
 8080SOL    HW235703   2.062   1.702   4.405 -0.7286  1.0043 -0.1124
 8081SOL     OW35704   2.403   4.183  13.975 -0.7751  0.0681  0.0648
 8081SOL    HW135705   2.427   4.237  13.899  0.3533 -1.4292 -0.6573
 8081SOL    HW235706   2.477   4.201  14.032 -1.6043  0.2542  1.0770
 8082SOL     OW35707   3.335   1.245   3.678  1.1561  0.3235  0.1061
 8082SOL    HW135708   3.273   1.270   3.746 -0.0196 -1.7792 -0.1921
 8082SOL    HW235709   3.418   1.231   3.724  1.2539 -4.0730 -1.4088
 8083SOL     OW35710   3.690   2.353   6.643 -1.0016 -0.4723 -0.6870
 8083SOL    HW135711   3.665   2.266   6.612 -0.3474 -1.4044  1.3739
 8083SOL    HW235712   3.605   2.376   6.681 -0.9264 -0.4598 -0.5239
 8084SOL     OW35713   3.306   1.759   7.043 -0.9636 -0.7588  0.5751
 8084SOL    HW135714   3.372   1.699   7.006 -0.6906  1.7021 -2.9920
 8084SOL    HW235715   3.266   1.807   6.970 -0.4196 -1.9459 -0.5152
 8085SOL     OW35716   3.295   2.291   0.978 -0.2277  0.2820 -0.2361
 8085SOL    HW135717   3.344   2.364   0.940  0.9492 -1.2472 -1.6509
 8085SOL    HW235718   3.279   2.316   1.069 -0.5090  0.3776 -0.3104
 8086SOL     OW35719   3.769   0.481   6.376  0.0632  0.0653 -0.3252
 8086SOL    HW135720   3.831   0.410   6.390  0.6355  0.0462 -2.9838
 8086SOL    HW235721   3.726   0.450   6.296 -1.5584 -0.4936  0.7720
 8087SOL     OW35722   4.535   2.287   4.660  0.2411 -0.0232  0.0287
 8087SOL    HW135723   4.588   2.218   4.620  0.9514  0.3079  0.3962
 8087SOL    HW235724   4.446   2.263   4.634  0.2649 -0.6319  0.5008
 8088SOL     OW35725   2.222   4.206   7.857  0.0381 -0.5578 -0.1227
 8088SOL    HW135726   2.294   4.171   7.908 -1.7106 -0.4260  2.4440
 8088SOL    HW235727   2.170   4.131   7.828  1.6772 -0.6661 -2.8227
 8089SOL     OW35728   2.231   0.375   8.306  0.0291 -0.0729 -0.4769
 8089SOL    HW135729   2.138   0.400   8.308 -0.0179 -0.2745 -0.1624
 8089SOL    HW235730   2.223   0.290   8.263 -0.7788 -0.2458  0.0062
 8090SOL     OW35731   1.171   2.671   8.040  0.0293 -0.1282  0.1178
 8090SOL    HW135732   1.122   2.636   7.966  1.4968 -1.7295 -0.0714
 8090SOL    HW235733   1.134   2.760   8.046  0.2648  0.0554 -1.3310
 8091SOL     OW35734   0.299   2.632   5.604  0.0856 -0.1029  0.6327
 8091SOL    HW135735   0.284   2.676   5.688  2.8338 -0.6342  1.3919
 8091SOL    HW235736   0.231   2.565   5.612  1.1580 -1.1720  0.8394
 8092SOL     OW35737   3.314   2.712   5.191 -0.8420 -0.2846  0.0609
 8092SOL    HW135738   3.360   2.722   5.274  0.9769  1.3330 -1.1363
 8092SOL    HW235739   3.364   2.640   5.152 -0.1668  0.1432  0.1301
 8093SOL     OW35740   0.936   4.486   2.070  0.6743  0.1062  0.5580
 8093SOL    HW135741   0.883   4.563   2.047 -0.4376 -1.4939 -2.3044
 8093SOL    HW235742   0.886   4.449   2.143  0.1262  1.0735  0.6752
 8094SOL     OW35743   3.812   0.917   4.830  0.3506  0.2416 -0.2059
 8094SOL    HW135744   3.890   0.970   4.813 -0.2322  0.9074 -0.8218
 8094SOL    HW235745   3.820   0.911   4.925 -1.1380 -1.6701 -0.1902
 8095SOL     OW35746   1.973   3.725  15.917 -0.2117  0.1106  0.5356
 8095SOL    HW135747   1.958   3.726  16.012  0.1359  1.5043  0.5802
 8095SOL    HW235748   1.882   3.718  15.889  0.2347  1.6521 -1.3015
 8096SOL     OW35749   1.793   3.453  15.740  0.3174  0.4844 -0.3698
 8096SOL    HW135750   1.703   3.441  15.770  0.2408  0.9533 -0.4086
 8096SOL    HW235751   1.834   3.390  15.799 -0.6223  1.3547  1.2100
 8097SOL     OW35752   1.844   2.083   0.955  0.2572  0.2250 -0.4187
 8097SOL    HW135753   1.793   2.143   1.009 -0.1421  0.6946 -1.3153
 8097SOL    HW235754   1.902   2.052   1.025  0.0518  1.1203  0.1512
 8098SOL     OW35755   0.258   2.086  16.598 -0.3112  0.3558  0.0522
 8098SOL    HW135756   0.165   2.108  16.590 -0.4577  0.9230  3.4933
 8098SOL    HW235757   0.307   2.159  16.560  0.4694  0.3933  1.1500
 8099SOL     OW35758   4.688   0.522  13.157 -0.1235  0.5781 -0.4147
 8099SOL    HW135759   4.673   0.558  13.244  1.1491  0.9516 -0.3396
 8099SOL    HW235760   4.670   0.600  13.104  0.6674  1.0255 -0.0245
 8100SOL     OW35761   1.044   3.933   8.612 -0.6429 -0.0934 -0.4196
 8100SOL    HW135762   0.975   3.999   8.620 -1.7049 -1.3898  1.0931
 8100SOL    HW235763   1.078   3.941   8.701  0.0111 -1.1945 -0.5632
 8101SOL     OW35764   2.685   3.208  12.128  0.0522 -0.7415  0.1805
 8101SOL    HW135765   2.723   3.127  12.162 -0.6079 -1.5486 -1.0596
 8101SOL    HW235766   2.634   3.185  12.051  0.0401  0.2264 -0.1013
 8102SOL     OW35767   4.693   2.671   9.409 -0.7921 -0.5053 -0.1309
 8102SOL    HW135768   0.037   2.736   9.432 -0.3994 -0.8355 -0.3511
 8102SOL    HW235769   4.689   2.610   9.483  2.2723  1.6926  1.8451
 8103SOL     OW35770   3.416   0.906  10.315  0.3299 -0.6406 -0.0577
 8103SOL    HW135771   3.380   0.851  10.245  0.3826 -0.9190  0.1363
 8103SOL    HW235772   3.336   0.937  10.357  2.5397  2.4607  1.8362
 8104SOL     OW35773   2.856   0.319   4.750  0.0975 -0.1306  0.9866
 8104SOL    HW135774   2.780   0.265   4.731  1.6607 -1.4433 -1.5604
 8104SOL    HW235775   2.863   0.311   4.845  1.9704 -1.9077  0.7087
 8105SOL     OW35776   4.524   3.546  13.453 -0.4521  0.4046 -0.8778
 8105SOL    HW135777   4.613   3.558  13.486 -0.4792 -0.0389 -0.6399
 8105SOL    HW235778   4.531   3.557  13.358 -0.3130 -1.5738 -1.1097
 8106SOL     OW35779   1.046   3.643   1.905 -0.3362 -0.0134 -0.0470
 8106SOL    HW135780   1.051   3.557   1.946 -0.9508  0.4652  1.0417
 8106SOL    HW235781   1.114   3.694   1.950  1.7950 -0.8015 -2.3807
 8107SOL     OW35782   4.631   1.487  17.010  0.3400 -0.7018 -0.3323
 8107SOL    HW135783   4.693   1.417  17.034  1.3672  0.0589 -0.7689
 8107SOL    HW235784   4.604   1.523  17.094  0.5838  2.1215 -1.4755
 8108SOL     OW35785   3.382   1.457  15.420 -0.0290  0.2034 -0.4342
 8108SOL    HW135786   3.321   1.384  15.424 -1.0442  0.9937 -1.4138
 8108SOL    HW235787   3.367   1.480  15.512 -0.1175 -0.8375 -0.1881
 8109SOL     OW35788   0.432   1.126   6.731  0.1315  0.5281  0.0466
 8109SOL    HW135789   0.469   1.189   6.670 -1.5717  0.4820 -1.0342
 8109SOL    HW235790   0.388   1.064   6.673 -0.7927 -0.1056  1.4018
 8110SOL     OW35791   1.532   2.867   4.024 -0.3911  0.7677  0.0882
 8110SOL    HW135792   1.582   2.946   4.001  0.4124  0.4386  0.7373
 8110SOL    HW235793   1.595   2.797   4.009  0.4877  0.9788  2.8538
 8111SOL     OW35794   3.296   0.846   2.891  0.4683 -0.6747  0.0400
 8111SOL    HW135795   3.277   0.769   2.945 -1.5115  0.2864  0.6956
 8111SOL    HW235796   3.390   0.852   2.910  0.4940 -1.9262  0.3124
 8112SOL     OW35797   3.290   4.569  10.283 -0.0740 -0.2844  0.1423
 8112SOL    HW135798   3.247   4.495  10.325 -1.1316 -0.1554 -0.7094
 8112SOL    HW235799   3.313   4.530  10.199  1.6862 -0.2636  0.6288
 8113SOL     OW35800   4.610   0.470  16.743 -0.4764  0.0028 -0.1856
 8113SOL    HW135801   4.631   0.564  16.740  0.7502 -0.3121 -1.7001
 8113SOL    HW235802   4.538   0.462  16.805 -0.7711 -0.1767 -0.5520
 8114SOL     OW35803   4.524   4.484   0.879  0.4885  0.9591 -0.6482
 8114SOL    HW135804   4.459   4.417   0.902  2.3980 -0.7800 -0.2676
 8114SOL    HW235805   4.497   4.492   0.788  0.6604  1.2855 -0.6688
 8115SOL     OW35806   0.225   1.346   5.356 -0.1061  0.3270  0.0771
 8115SOL    HW135807   0.195   1.341   5.266  0.3062  0.7577 -0.0841
 8115SOL    HW235808   0.157   1.289   5.391  1.3439 -1.9439 -0.8331
 8116SOL     OW35809   3.816   2.104   9.965  0.0448  0.1820 -0.2585
 8116SOL    HW135810   3.885   2.144  10.016  1.7539 -1.4794 -1.2630
 8116SOL    HW235811   3.737   2.131  10.011  0.6848 -0.8067  1.4184
 8117SOL     OW35812   2.336   0.854   7.990 -0.2139  0.2587 -0.0185
 8117SOL    HW135813   2.418   0.805   7.992 -0.0478  0.4952 -1.1957
 8117SOL    HW235814   2.312   0.851   7.897  1.0890 -2.3206 -0.2591
 8118SOL     OW35815   1.285   4.281   2.194 -0.3555 -0.1793  0.1104
 8118SOL    HW135816   1.211   4.247   2.144  0.9366 -1.1670 -1.1016
 8118SOL    HW235817   1.329   4.325   2.121  0.7550 -1.9255 -0.2634
 8119SOL     OW35818   4.507   1.605  11.023 -0.3330  0.3416  0.0465
 8119SOL    HW135819   4.440   1.673  11.027 -1.5949 -0.7960 -1.7574
 8119SOL    HW235820   4.546   1.607  11.110  1.0223  0.8376 -0.5694
 8120SOL     OW35821   4.488   4.623   3.765  0.0912  0.1508  0.1925
 8120SOL    HW135822   4.500   4.563   3.839  0.9884 -1.6080 -1.3782
 8120SOL    HW235823   4.441   4.698   3.801 -0.3957  1.3161 -2.8488
 8121SOL     OW35824   0.757   4.055   3.440 -0.2357  0.8356  0.1648
 8121SOL    HW135825   0.848   4.067   3.468 -0.1372  1.3661 -0.3820
 8121SOL    HW235826   0.715   4.140   3.452 -0.6260  0.3934  1.8033
 8122SOL     OW35827   2.834   2.590  11.682 -0.1047 -0.2738 -0.6326
 8122SOL    HW135828   2.752   2.557  11.718 -0.8500  1.9400 -0.3109
 8122SOL    HW235829   2.881   2.586  11.765 -1.3381  0.4091  0.1014
 8123SOL     OW35830   4.543   2.097   4.094  0.5853 -0.2561 -0.3891
 8123SOL    HW135831   4.519   2.147   4.172 -0.6435  1.2562 -1.7537
 8123SOL    HW235832   4.595   2.163   4.049  2.9829 -2.7531 -1.3370
 8124SOL     OW35833   1.454   1.396   8.651  0.5822 -0.2569  0.0876
 8124SOL    HW135834   1.510   1.470   8.674 -0.0679  0.3359 -0.2261
 8124SOL    HW235835   1.508   1.317   8.645  0.3619 -0.3256 -1.1898
 8125SOL     OW35836   3.593   1.217   1.259 -0.2183 -0.1709 -0.0294
 8125SOL    HW135837   3.522   1.227   1.196 -0.2913  0.7707  0.2028
 8125SOL    HW235838   3.553   1.207   1.345 -0.7594 -2.6613 -0.5588
 8126SOL     OW35839   0.795   0.596   7.288 -0.0797  0.4334  0.3304
 8126SOL    HW135840   0.816   0.503   7.299 -2.1012  0.0868  1.1710
 8126SOL    HW235841   0.856   0.634   7.351  1.1013 -0.3868 -0.3130
 8127SOL     OW35842   3.165   1.267   1.279 -0.2053  0.6639 -0.3143
 8127SOL    HW135843   3.192   1.254   1.369 -1.0892  1.8438  0.1309
 8127SOL    HW235844   3.143   1.361   1.281 -1.5585  0.3608 -0.7716
 8128SOL     OW35845   3.673   2.281   4.770 -0.1270 -0.5045  0.3957
 8128SOL    HW135846   3.667   2.251   4.679 -0.8300  1.1181 -0.1072
 8128SOL    HW235847   3.613   2.356   4.775  1.0589  0.5256 -0.6221
 8129SOL     OW35848   1.535   4.580  16.020  0.4859 -0.7781 -0.4743
 8129SOL    HW135849   1.513   4.531  15.941  0.8698  0.2702 -1.2276
 8129SOL    HW235850   1.553   4.671  15.996  2.3135 -0.9651  0.1513
 8130SOL     OW35851   1.299   0.478   3.982 -0.4779 -0.2839 -0.4782
 8130SOL    HW135852   1.361   0.507   3.915  0.1599  0.4435  0.4269
 8130SOL    HW235853   1.348   0.496   4.063 -2.3851 -1.0455  0.8349
 8131SOL     OW35854   2.292   2.626   1.431  0.0167  0.1792 -0.6191
 8131SOL    HW135855   2.249   2.562   1.374 -0.3540 -0.3982  0.3184
 8131SOL    HW235856   2.376   2.580   1.431  0.1909  0.5015  0.1105
 8132SOL     OW35857   4.096   3.243   4.599  0.4007 -0.0059 -0.4402
 8132SOL    HW135858   4.011   3.217   4.564  0.8031 -2.2975  0.2879
 8132SOL    HW235859   4.090   3.198   4.683 -1.0939 -0.3426 -0.7207
 8133SOL     OW35860   0.044   0.549   9.102 -0.6848 -0.5878  0.2818
 8133SOL    HW135861   4.672   0.549   9.114 -0.8395 -0.8570 -0.9263
 8133SOL    HW235862   0.073   0.560   9.193 -1.3808  0.9830  0.3130
 8134SOL     OW35863   3.394   3.825   7.588 -0.2406 -0.6688  0.3832
 8134SOL    HW135864   3.344   3.850   7.666 -2.2257 -1.4794 -0.6311
 8134SOL    HW235865   3.334   3.855   7.520  0.9267 -0.0073 -0.3477
 8135SOL     OW35866   3.173   0.038  13.830 -0.4445  0.3917  0.5178
 8135SOL    HW135867   3.140   0.105  13.890 -0.7705  0.6492  0.0570
 8135SOL    HW235868   3.240   0.085  13.780  1.1717 -0.7017  1.6367
 8136SOL     OW35869   0.499   2.275   1.225 -0.1559  0.2118  0.0094
 8136SOL    HW135870   0.421   2.231   1.259  0.6306 -0.0708  1.4046
 8136SOL    HW235871   0.471   2.364   1.203  0.1610  0.6778  1.5011
 8137SOL     OW35872   4.306   4.497   4.257  0.3428  0.5427 -0.1598
 8137SOL    HW135873   4.315   4.420   4.313 -0.1474  0.1483 -0.6257
 8137SOL    HW235874   4.361   4.560   4.304  0.9838 -0.8227  0.9061
 8138SOL     OW35875   2.996   1.799   7.996  0.3738  0.0031 -0.9009
 8138SOL    HW135876   2.956   1.720   7.959  1.1334 -0.3221 -1.0255
 8138SOL    HW235877   3.031   1.844   7.919 -0.1401  1.4031 -0.3233
 8139SOL     OW35878   2.182   0.809   5.968 -0.4019  0.4143 -0.2897
 8139SOL    HW135879   2.238   0.767   6.033  1.0103  0.0576 -1.7371
 8139SOL    HW235880   2.096   0.772   5.992 -0.8218  0.5573 -1.5919
 8140SOL     OW35881   3.960   2.090   6.105 -0.0737 -0.3634  0.0651
 8140SOL    HW135882   3.919   2.132   6.029 -0.6164 -2.0761 -0.5846
 8140SOL    HW235883   3.884   2.046   6.143 -0.5149  0.7576  0.4691
 8141SOL     OW35884   1.216   4.551   8.592  0.3421  0.0101  0.3189
 8141SOL    HW135885   1.180   4.639   8.605  1.6373  0.8073 -1.4446
 8141SOL    HW235886   1.246   4.530   8.680  1.0976 -0.0115  0.0600
 8142SOL     OW35887   1.452   0.769   6.834  0.3407 -0.3160 -0.9326
 8142SOL    HW135888   1.413   0.781   6.747 -0.5054  1.9306 -0.2565
 8142SOL    HW235889   1.402   0.832   6.887 -2.2255 -0.7036 -2.8503
 8143SOL     OW35890   3.838   4.368   3.947 -0.2198 -0.5285  0.4511
 8143SOL    HW135891   3.895   4.293   3.930 -0.5418 -1.3412  3.0498
 8143SOL    HW235892   3.904   4.437   3.939 -2.3418  1.1293 -2.7581
 8144SOL     OW35893   0.108   1.517   0.789 -0.1818 -0.1232  0.7758
 8144SOL    HW135894   0.184   1.571   0.812  0.1069  0.3441 -1.2559
 8144SOL    HW235895   0.128   1.503   0.696  0.0642 -1.3804  1.0175
 8145SOL     OW35896   1.093   2.590   4.227 -0.4681 -0.0303  0.1805
 8145SOL    HW135897   1.031   2.562   4.160  1.5345 -1.5516 -1.0217
 8145SOL    HW235898   1.158   2.523   4.206  3.5274  3.4237  1.4129
 8146SOL     OW35899   1.299   1.707   3.635  0.6426  0.3404  0.0138
 8146SOL    HW135900   1.368   1.729   3.572 -1.1175 -0.9083 -2.3447
 8146SOL    HW235901   1.293   1.615   3.609  1.0550  0.1314  0.6532
 8147SOL     OW35902   1.739   3.569  11.794 -0.1248  0.5297 -0.3797
 8147SOL    HW135903   1.734   3.621  11.874  1.4831  0.8134 -0.4665
 8147SOL    HW235904   1.823   3.526  11.805 -0.2156  0.2206 -0.9199
 8148SOL     OW35905   2.926   3.308   1.660  0.5001 -0.2020  0.3741
 8148SOL    HW135906   2.908   3.229   1.711 -0.9294  0.9364  1.6199
 8148SOL    HW235907   2.886   3.286   1.576 -1.6380 -2.2193  1.9144
 8149SOL     OW35908   3.184   1.504   5.023  0.1273 -0.1213 -0.0434
 8149SOL    HW135909   3.223   1.515   5.110  0.5723 -0.1905 -0.2328
 8149SOL    HW235910   3.192   1.411   5.001  1.1271 -0.1774  0.5332
 8150SOL     OW35911   0.602   0.070   7.605  0.2941 -0.3539 -0.3053
 8150SOL    HW135912   0.622   0.026   7.522 -1.7417 -0.1416 -0.8920
 8150SOL    HW235913   0.562   0.001   7.657 -1.4226  0.7642 -0.1463
 8151SOL     OW35914   3.551   2.271   8.365 -0.2040  1.2677 -0.5873
 8151SOL    HW135915   3.501   2.353   8.372  0.7080  1.4200  3.8704
 8151SOL    HW235916   3.539   2.228   8.450  0.2787  0.0726 -1.1275
 8152SOL     OW35917   2.484   2.851   2.878 -0.0716 -0.0079 -0.4059
 8152SOL    HW135918   2.526   2.907   2.812 -0.0784 -0.4641 -0.7964
 8152SOL    HW235919   2.398   2.892   2.885 -0.6482 -0.9944 -1.7128
 8153SOL     OW35920   1.922   4.663  15.998  0.1222  0.1129 -0.1025
 8153SOL    HW135921   1.887   0.004  16.061 -3.1418 -0.8374 -0.9917
 8153SOL    HW235922   1.879   4.707  15.924 -0.6762 -1.2242 -0.4224
 8154SOL     OW35923   1.184   2.990   7.180  0.3763  0.0058 -0.5648
 8154SOL    HW135924   1.250   3.059   7.189 -0.6407  0.8274  0.6329
 8154SOL    HW235925   1.149   3.006   7.267 -0.1681 -0.9579 -0.6121
 8155SOL     OW35926   1.734   1.008   0.940  0.1970 -0.4094 -0.4649
 8155SOL    HW135927   1.643   1.031   0.925  0.8973  1.1316 -2.3464
 8155SOL    HW235928   1.775   1.090   0.966 -2.1345  0.4074  0.5196
 8156SOL     OW35929   2.731   2.055  14.570 -0.6774 -0.1894 -0.3589
 8156SOL    HW135930   2.686   2.119  14.514  1.2710  2.7227  1.4170
 8156SOL    HW235931   2.661   2.039  14.633  1.4120 -0.5993  1.8253
 8157SOL     OW35932   1.283   0.151  15.286  0.0392 -0.6882  0.2390
 8157SOL    HW135933   1.299   0.058  15.270 -0.2099 -0.3719 -1.7511
 8157SOL    HW235934   1.215   0.159  15.219  1.3015 -0.5087 -1.0167
 8158SOL     OW35935   1.162   2.743  13.991  0.0650  0.1512 -0.6226
 8158SOL    HW135936   1.181   2.817  13.934  1.9127  1.1662  1.3004
 8158SOL    HW235937   1.234   2.683  13.972 -0.8721 -1.6122  1.3657
 8159SOL     OW35938   0.937   1.661   5.515 -0.0512  0.1995 -0.4485
 8159SOL    HW135939   0.857   1.661   5.463  0.1402  0.6879 -0.7477
 8159SOL    HW235940   0.911   1.647   5.605 -0.1353  1.1400 -0.3205
 8160SOL     OW35941   2.811   3.644   2.393 -0.3689 -0.2329 -0.2367
 8160SOL    HW135942   2.749   3.684   2.453 -0.2544 -1.1672  0.5068
 8160SOL    HW235943   2.775   3.563   2.356 -0.6525 -0.8493  1.3846
 8161SOL     OW35944   0.266   3.955   6.640  0.2345  0.3147  0.4765
 8161SOL    HW135945   0.204   4.017   6.602 -0.0906 -1.9797 -2.7843
 8161SOL    HW235946   0.349   4.003   6.640 -0.2803  1.1893  2.8640
 8162SOL     OW35947   0.668   1.867   3.879  0.3271  0.6336  0.1280
 8162SOL    HW135948   0.680   1.931   3.808  1.0492 -0.5335 -0.8109
 8162SOL    HW235949   0.760   1.852   3.899  0.9322  2.4498 -1.3252
 8163SOL     OW35950   3.184   0.397   8.834 -0.0148 -0.6524  0.2036
 8163SOL    HW135951   3.195   0.490   8.811  0.2074 -1.5549 -3.3640
 8163SOL    HW235952   3.182   0.405   8.929 -0.6257  1.2846  0.0248
 8164SOL     OW35953   2.379   1.231   2.997 -0.5927 -0.3777  0.1279
 8164SOL    HW135954   2.472   1.244   3.018 -1.4244  0.7766  3.1603
 8164SOL    HW235955   2.340   1.308   3.039  2.5203  1.8043 -0.9310
 8165SOL     OW35956   2.318   2.529   6.057 -0.6493  0.1429 -0.2339
 8165SOL    HW135957   2.324   2.529   5.962 -0.6692 -0.1867 -0.2343
 8165SOL    HW235958   2.373   2.604   6.078  1.2584 -1.3252 -0.0395
 8166SOL     OW35959   4.000   1.023   8.980  0.1659 -0.4555 -0.2607
 8166SOL    HW135960   3.956   1.040   9.064  1.2611 -0.6240  0.3545
 8166SOL    HW235961   4.045   1.106   8.966 -1.1883  0.2211 -0.5627
 8167SOL     OW35962   2.844   0.815   7.029 -0.2135 -0.2510 -0.4005
 8167SOL    HW135963   2.807   0.842   6.945  1.0433 -0.9162 -1.1650
 8167SOL    HW235964   2.820   0.722   7.029  0.6036 -0.4674 -0.8890
 8168SOL     OW35965   3.524   1.148  15.460  0.2585 -0.2690 -0.3250
 8168SOL    HW135966   3.501   1.218  15.399 -0.0973 -0.6226 -0.5875
 8168SOL    HW235967   3.551   1.079  15.400 -2.9313 -1.1465 -0.7154
 8169SOL     OW35968   1.193   0.686   3.323 -0.4690 -0.1679  0.6947
 8169SOL    HW135969   1.158   0.625   3.259 -0.2482  1.7915 -1.3157
 8169SOL    HW235970   1.114   0.737   3.340 -0.2454 -0.1062  1.5609
 8170SOL     OW35971   0.799   1.050   6.658 -0.0520  0.1570 -0.4889
 8170SOL    HW135972   0.828   1.139   6.682 -0.4272  0.3916 -0.8970
 8170SOL    HW235973   0.839   1.040   6.571 -0.2878 -0.4605 -0.5253
 8171SOL     OW35974   1.093   2.060   7.205  0.5720 -0.3374  0.1958
 8171SOL    HW135975   1.085   2.140   7.255 -0.3896 -1.5570  1.9988
 8171SOL    HW235976   1.094   2.098   7.117  1.7524  0.6348  0.6488
 8172SOL     OW35977   2.814   2.715   5.755  0.8163 -0.2938 -0.2634
 8172SOL    HW135978   2.804   2.806   5.725  1.0051 -0.7051 -1.5468
 8172SOL    HW235979   2.765   2.681   5.680 -0.5680  1.3668 -0.1320
 8173SOL     OW35980   3.332   1.461  11.310 -0.5554 -0.7241 -0.4867
 8173SOL    HW135981   3.298   1.546  11.281  0.6727 -0.5963 -1.5618
 8173SOL    HW235982   3.252   1.433  11.355 -1.7910  0.8305 -1.6936
 8174SOL     OW35983   4.305   1.414   1.549 -0.3497 -0.3262 -0.0850
 8174SOL    HW135984   4.362   1.361   1.604 -1.8921  0.3834  2.2181
 8174SOL    HW235985   4.234   1.358   1.519  0.2891 -0.4758 -1.3376
 8175SOL     OW35986   0.405   3.599   3.301 -0.2450  0.0234 -0.0307
 8175SOL    HW135987   0.476   3.553   3.257  0.3641  0.3982  0.5559
 8175SOL    HW235988   0.330   3.556   3.259 -1.3859  1.2851  0.7034
 8176SOL     OW35989   0.487   2.477  10.969  0.2004  0.3425  0.0448
 8176SOL    HW135990   0.561   2.447  11.022 -0.1885  0.3716  0.6073
 8176SOL    HW235991   0.440   2.396  10.953  0.9844 -0.1812  0.3492
 8177SOL     OW35992   3.173   1.773   7.753  0.5474  0.3351 -0.4128
 8177SOL    HW135993   3.237   1.709   7.784  0.2066 -0.7283 -1.9160
 8177SOL    HW235994   3.118   1.709   7.708  0.6653  1.1794 -1.7468
 8178SOL     OW35995   2.465   1.050   6.073  1.0090 -0.0408  0.1305
 8178SOL    HW135996   2.508   1.131   6.046  0.8502  0.2903  0.8580
 8178SOL    HW235997   2.457   1.020   5.983 -0.0072 -0.7309  0.4515
 8179SOL     OW35998   3.765   0.356   7.222 -0.8467  0.1146 -0.7341
 8179SOL    HW135999   3.738   0.342   7.132 -0.0903 -0.1832 -0.9112
 8179SOL    HW236000   3.790   0.448   7.218 -0.2027 -0.0326 -0.1807
 8180SOL     OW36001   3.571   2.105   4.062  0.3861  0.4129  0.2647
 8180SOL    HW136002   3.531   2.125   3.977  2.5531  2.8108 -0.1964
 8180SOL    HW236003   3.547   2.014   4.078 -0.2229  0.5391  0.0661
 8181SOL     OW36004   3.968   3.480   4.353  0.0459  0.3501 -0.1241
 8181SOL    HW136005   3.891   3.442   4.310 -0.3377 -0.3010  1.1301
 8181SOL    HW236006   4.029   3.505   4.284  1.6118 -0.1728  1.0978
 8182SOL     OW36007   0.582   3.718   4.306 -0.2699  0.2228 -0.0545
 8182SOL    HW136008   0.655   3.657   4.307 -1.3191 -1.0138  0.8412
 8182SOL    HW236009   0.515   3.652   4.287 -1.0614  0.5687  1.4918
 8183SOL     OW36010   0.554   1.432  11.408 -0.7621  0.8282 -0.1143
 8183SOL    HW136011   0.646   1.413  11.425 -0.3893  1.9062 -0.9284
 8183SOL    HW236012   0.524   1.354  11.362 -0.2053 -0.2953  1.4111
 8184SOL     OW36013   3.125   4.119   6.189 -0.2537  0.4866  0.2461
 8184SOL    HW136014   3.103   4.030   6.160  1.5031  0.2972 -0.5019
 8184SOL    HW236015   3.211   4.103   6.228 -1.8961 -1.7799  2.9925
 8185SOL     OW36016   4.276   3.048   9.494 -0.2030  0.5873  0.0162
 8185SOL    HW136017   4.186   3.048   9.525  0.2998 -0.3600  1.5060
 8185SOL    HW236018   4.286   2.958   9.463  1.7060  0.1159  1.9520
 8186SOL     OW36019   2.260   4.688   7.780  0.0789  0.1576 -0.2068
 8186SOL    HW136020   2.289   4.599   7.762  2.7313  0.8401  0.6284
 8186SOL    HW236021   2.348   0.004   7.782 -0.2008  0.7046  1.4213
 8187SOL     OW36022   0.894   3.053   9.015 -0.5827 -0.0285 -0.8394
 8187SOL    HW136023   0.828   3.122   9.010  0.4328  0.8553 -2.1080
 8187SOL    HW236024   0.867   3.008   9.095  0.4531  0.4662 -0.2166
 8188SOL     OW36025   4.601   3.186  10.099  0.1824  0.1918 -0.3770
 8188SOL    HW136026   4.626   3.250  10.033  0.6089 -0.2964 -0.6830
 8188SOL    HW236027   4.648   3.109  10.067 -1.0300 -0.9053  0.4535
 8189SOL     OW36028   1.244   2.378  11.534 -0.2210 -0.7310  0.2536
 8189SOL    HW136029   1.285   2.329  11.462 -1.4887  1.9617 -2.3100
 8189SOL    HW236030   1.319   2.429  11.565 -1.0686  0.7627 -0.1837
 8190SOL     OW36031   0.176   3.752   7.565  0.3756 -0.1261 -0.1665
 8190SOL    HW136032   0.184   3.773   7.658  1.0759  1.9368 -0.6865
 8190SOL    HW236033   0.262   3.710   7.560  0.1946 -0.8861  3.3001
 8191SOL     OW36034   0.368   0.968   1.691 -0.3765 -0.1426  0.4542
 8191SOL    HW136035   0.359   0.875   1.671 -0.3165  0.5257 -2.6380
 8191SOL    HW236036   0.288   0.992   1.737  1.5165  0.2631  3.5863
 8192SOL     OW36037   0.648   3.544   3.504 -0.3560 -0.0704  0.2045
 8192SOL    HW136038   0.641   3.536   3.409  1.0793  1.6117 -0.0427
 8192SOL    HW236039   0.635   3.637   3.522  0.2143  0.2095 -0.8857
 8193SOL     OW36040   4.709   3.583  10.088 -0.0179  0.0414  0.5975
 8193SOL    HW136041   0.010   3.542  10.171 -0.3558 -0.5995  0.3801
 8193SOL    HW236042   4.616   3.589  10.109  0.6396  1.1211  3.2864
 8194SOL     OW36043   0.145   0.118   3.141  0.2429  0.7883 -0.2688
 8194SOL    HW136044   0.183   0.171   3.070 -0.0217  0.6324 -0.5272
 8194SOL    HW236045   0.053   0.143   3.133  0.0868  0.5784  0.8936
 8195SOL     OW36046   3.222   1.643  15.072 -0.1937 -0.0912 -0.0225
 8195SOL    HW136047   3.158   1.587  15.029 -0.7188 -0.1567  0.8637
 8195SOL    HW236048   3.173   1.725  15.079  0.9911  0.7907 -1.9820
 8196SOL     OW36049   4.591   2.524   0.682 -0.2673  0.0064  0.7123
 8196SOL    HW136050   4.635   2.467   0.619  1.8411 -1.0527  3.1410
 8196SOL    HW236051   4.507   2.481   0.697  0.5277 -0.8760  2.5688
 8197SOL     OW36052   1.774   3.271   5.664 -0.3067 -0.3357  0.0894
 8197SOL    HW136053   1.700   3.244   5.609 -1.1658  2.5434 -0.1685
 8197SOL    HW236054   1.776   3.209   5.737 -3.4193  0.4713  0.8651
 8198SOL     OW36055   2.075   0.272   4.761 -0.0452  0.2367  0.4876
 8198SOL    HW136056   2.140   0.272   4.830  0.9039 -0.5750 -0.4044
 8198SOL    HW236057   2.022   0.193   4.775 -1.3789  1.1406  0.5839
 8199SOL     OW36058   4.307   3.597  11.154  0.1056  0.4338  0.0296
 8199SOL    HW136059   4.292   3.673  11.209  1.1843  1.2279 -0.7683
 8199SOL    HW236060   4.238   3.603  11.088  2.1909 -0.6134 -2.2827
 8200SOL     OW36061   1.078   1.922   2.209  0.4567  0.4345 -0.5352
 8200SOL    HW136062   1.051   1.965   2.127 -2.8622 -0.2490  0.2091
 8200SOL    HW236063   1.149   1.981   2.236 -1.6031  2.2485  0.8637
 8201SOL     OW36064   0.056   0.743   8.756  0.5677 -0.1069 -0.2413
 8201SOL    HW136065   4.714   0.769   8.822 -0.0760  2.8024 -2.0203
 8201SOL    HW236066   0.093   0.669   8.805  2.2291  0.6932 -0.3062
 8202SOL     OW36067   4.531   1.327   8.691 -0.1033  0.1230  0.3582
 8202SOL    HW136068   4.501   1.410   8.727 -1.7868 -1.0981  1.8220
 8202SOL    HW236069   4.454   1.278   8.660 -0.9515  1.9476 -0.3918
 8203SOL     OW36070   1.448   4.354   4.687 -0.1606  0.1325 -0.2701
 8203SOL    HW136071   1.539   4.372   4.665 -0.2092 -1.2412 -1.5130
 8203SOL    HW236072   1.399   4.417   4.634  0.5945 -0.3333 -1.5146
 8204SOL     OW36073   2.149   1.112   4.539 -0.6615  0.1247 -0.3787
 8204SOL    HW136074   2.166   1.068   4.623  1.7485  1.3539 -0.2208
 8204SOL    HW236075   2.057   1.138   4.543  0.0198  2.3403  1.2386
 8205SOL     OW36076   3.698   4.220   2.734 -0.1123 -0.3856  0.2142
 8205SOL    HW136077   3.686   4.129   2.760  3.2954 -0.7557  0.4951
 8205SOL    HW236078   3.737   4.205   2.648 -1.3337 -1.7003 -0.1035
 8206SOL     OW36079   3.344   3.789   3.617 -0.5373  0.5226  0.7166
 8206SOL    HW136080   3.378   3.700   3.625 -0.0578  0.7056  0.7613
 8206SOL    HW236081   3.428   3.832   3.631 -0.8573  1.3238  0.2022
 8207SOL     OW36082   0.900   2.058  10.604 -0.1925 -0.4115  0.7681
 8207SOL    HW136083   0.943   1.975  10.587 -0.8633 -0.6505  0.2601
 8207SOL    HW236084   0.830   2.063  10.539 -1.7122 -0.1773  2.4460
 8208SOL     OW36085   0.230   2.453   4.490  0.3336 -0.2211  0.0297
 8208SOL    HW136086   0.303   2.514   4.486 -0.2329  0.4113 -0.7624
 8208SOL    HW236087   0.268   2.383   4.543 -1.6234 -1.4380 -0.1620
 8209SOL     OW36088   1.146   0.848  13.302  0.4151  0.0898 -0.2387
 8209SOL    HW136089   1.087   0.911  13.259 -1.0057 -0.5271  0.7798
 8209SOL    HW236090   1.085   0.779  13.329  0.6359  0.3771  0.9727
 8210SOL     OW36091   4.507   0.747   8.576 -0.0851 -0.0304  0.1058
 8210SOL    HW136092   4.572   0.754   8.506 -1.3906  4.9086 -0.6044
 8210SOL    HW236093   4.561   0.750   8.655  0.3865 -1.8606 -0.1573
 8211SOL     OW36094   0.696   2.353   3.728  0.3514 -0.0749 -0.0464
 8211SOL    HW136095   0.677   2.416   3.659  1.2985 -1.1963 -1.3483
 8211SOL    HW236096   0.713   2.415   3.799  0.3983 -0.6931  0.4843
 8212SOL     OW36097   3.738   3.400  11.681  0.3064 -0.8903 -0.0092
 8212SOL    HW136098   3.774   3.438  11.761  0.3942 -0.0583 -0.4476
 8212SOL    HW236099   3.734   3.305  11.693 -2.6592 -0.7823  0.0432
 8213SOL     OW36100   0.367   2.999   8.338  0.3391  0.6029  0.2322
 8213SOL    HW136101   0.400   2.930   8.281  0.9890  2.1715 -1.2855
 8213SOL    HW236102   0.306   2.950   8.393 -0.9055  0.2871 -1.4163
 8214SOL     OW36103   0.361   3.498   6.040 -0.4245  0.8894 -0.0147
 8214SOL    HW136104   0.391   3.586   6.063 -3.0269  0.6258  4.4870
 8214SOL    HW236105   0.282   3.512   6.093 -0.2518 -0.8283  0.6770
 8215SOL     OW36106   4.421   4.284   5.432 -0.6609  0.1198 -0.6842
 8215SOL    HW136107   4.354   4.255   5.494 -0.5904  0.8115 -0.2863
 8215SOL    HW236108   4.394   4.374   5.415 -0.7808  0.4704  1.3795
 8216SOL     OW36109   1.885   3.082   3.499  0.6279  0.3426  0.1490
 8216SOL    HW136110   1.864   3.064   3.591  1.5665 -1.3051  0.0467
 8216SOL    HW236111   1.834   3.016   3.452  0.3399 -0.9822  2.3316
 8217SOL     OW36112   4.551   2.575   4.163  0.1282 -0.3199  0.0324
 8217SOL    HW136113   4.576   2.541   4.250 -0.3005  1.9119  1.0236
 8217SOL    HW236114   4.485   2.638   4.192 -0.6271 -0.3726 -1.5911
 8218SOL     OW36115   3.511   0.585   7.038 -0.5534 -0.4891  0.1929
 8218SOL    HW136116   3.603   0.568   7.058 -0.5277  0.0668  0.5355
 8218SOL    HW236117   3.521   0.633   6.956 -0.6340 -1.1337 -0.1986
 8219SOL     OW36118   4.547   1.991   3.767 -0.1011 -0.3579 -0.2959
 8219SOL    HW136119   4.506   1.991   3.680 -1.5666  0.2189  0.3914
 8219SOL    HW236120   4.495   2.056   3.815 -0.8362 -0.7269 -0.5938
 8220SOL     OW36121   2.604   3.413  15.910 -0.1142  0.6681  0.4353
 8220SOL    HW136122   2.608   3.486  15.849 -2.1596  0.0578 -0.4551
 8220SOL    HW236123   2.542   3.351  15.871 -1.2994  1.3937  1.1456
 8221SOL     OW36124   1.235   2.612   2.705  0.4558 -0.2558 -0.3278
 8221SOL    HW136125   1.296   2.608   2.780 -0.3305  1.2650  0.3956
 8221SOL    HW236126   1.228   2.707   2.702 -1.9271 -0.4204  0.3855
 8222SOL     OW36127   4.347   2.645   6.002 -0.4688  0.8112  0.4400
 8222SOL    HW136128   4.275   2.593   5.966 -0.3683  0.8992  0.1134
 8222SOL    HW236129   4.317   2.728   5.967 -1.2330 -0.0629 -0.9568
 8223SOL     OW36130   3.420   0.283   8.846 -0.1915 -0.5624 -0.2149
 8223SOL    HW136131   3.406   0.191   8.823  0.7441 -1.2327  1.8641
 8223SOL    HW236132   3.333   0.325   8.845  0.6250  1.1283 -0.6707
 8224SOL     OW36133   0.666   2.609  14.490  0.0368 -0.9730 -0.1215
 8224SOL    HW136134   0.720   2.650  14.558 -1.1553 -0.5011  0.5410
 8224SOL    HW236135   0.676   2.676  14.422  1.0447 -1.5432 -0.5331
 8225SOL     OW36136   0.503   3.893  11.457  0.2577 -0.1528  0.0553
 8225SOL    HW136137   0.416   3.924  11.480  0.4973  1.4095 -1.1221
 8225SOL    HW236138   0.524   3.924  11.369  1.3691  0.2582  0.4646
 8226SOL     OW36139   1.556   3.807   0.662 -0.1942 -0.1898 -0.4771
 8226SOL    HW136140   1.604   3.745   0.607 -0.5336  0.7114 -1.8086
 8226SOL    HW236141   1.520   3.739   0.718 -0.8602  0.9003  0.4214
 8227SOL     OW36142   2.873   2.300   5.010  0.1209  0.0150 -0.0223
 8227SOL    HW136143   2.914   2.332   4.930  2.0911 -0.4387  0.7806
 8227SOL    HW236144   2.831   2.380   5.041  2.1790  0.9516  0.4029
 8228SOL     OW36145   3.872   2.039   7.984 -0.3086 -0.1311 -0.5356
 8228SOL    HW136146   3.862   1.945   7.971  2.3102 -0.3229 -1.1337
 8228SOL    HW236147   3.821   2.062   8.062  0.3436  0.6021 -0.3266
 8229SOL     OW36148   4.446   4.438   9.174 -0.3855 -0.5182  0.0100
 8229SOL    HW136149   4.521   4.451   9.116 -1.6871  2.4299 -0.9756
 8229SOL    HW236150   4.481   4.403   9.256  0.2864  0.0555 -0.0340
 8230SOL     OW36151   4.674   0.793   6.896 -0.1324  0.3824 -0.0896
 8230SOL    HW136152   4.670   0.818   6.803 -0.3233 -0.6562 -0.3646
 8230SOL    HW236153   0.013   0.859   6.927  0.9946 -0.8414  0.3098
 8231SOL     OW36154   3.670   3.533   9.368  0.1483 -0.1062  0.0338
 8231SOL    HW136155   3.766   3.535   9.363  0.2348 -2.6340  0.9838
 8231SOL    HW236156   3.644   3.620   9.400  3.3852  0.3937  1.3663
 8232SOL     OW36157   3.527   2.991  12.641  0.0319  0.0370 -0.0163
 8232SOL    HW136158   3.553   2.902  12.667 -0.5206 -0.8821 -2.5723
 8232SOL    HW236159   3.553   2.990  12.549  1.7930 -1.4163  0.4805
 8233SOL     OW36160   4.374   1.333   3.444 -0.2015 -0.3504  0.0493
 8233SOL    HW136161   4.293   1.372   3.475  0.9455  1.7341  0.4299
 8233SOL    HW236162   4.430   1.358   3.517 -0.7262  2.0021 -0.3607
 8234SOL     OW36163   0.967   1.710  10.166  0.2511 -0.2892 -0.2920
 8234SOL    HW136164   1.000   1.698  10.255 -3.7924  0.6200  1.3054
 8234SOL    HW236165   0.944   1.620  10.142 -1.4567  0.6636 -2.2357
 8235SOL     OW36166   4.031   0.404  12.017  0.1074  0.0685 -0.4237
 8235SOL    HW136167   4.022   0.482  12.072  0.2659  0.3130 -0.7492
 8235SOL    HW236168   4.062   0.352  12.091  0.7061  0.3290 -0.4965
 8236SOL     OW36169   0.854   1.986   5.816  0.2201  0.0207  0.7284
 8236SOL    HW136170   0.904   1.945   5.886  1.4604  0.9152  0.3639
 8236SOL    HW236171   0.836   1.912   5.759 -1.8333  1.2701 -0.2439
 8237SOL     OW36172   0.835   2.472   8.842 -0.2414  0.1641 -0.2589
 8237SOL    HW136173   0.752   2.424   8.850  1.3818 -2.8530 -1.2316
 8237SOL    HW236174   0.845   2.497   8.933  4.2207  0.8920 -0.9632
 8238SOL     OW36175   1.539   1.202   6.387 -0.0137 -0.1666  0.0169
 8238SOL    HW136176   1.560   1.117   6.426  2.0887  0.4708  0.3161
 8238SOL    HW236177   1.502   1.243   6.465 -1.9043  1.7180 -1.8982
 8239SOL     OW36178   3.131   0.480   5.239 -0.1389  0.8535 -0.7514
 8239SOL    HW136179   3.038   0.466   5.226 -0.2531  1.4133 -0.5302
 8239SOL    HW236180   3.141   0.559   5.186 -1.7754  1.6418  0.1267
 8240SOL     OW36181   0.706   3.176   6.795 -0.0813  0.2757 -0.2804
 8240SOL    HW136182   0.642   3.236   6.832 -0.5718 -0.1512 -0.4249
 8240SOL    HW236183   0.772   3.243   6.780 -1.0694  1.7645  2.0515
 8241SOL     OW36184   0.481   2.608   3.208  0.7921 -0.3101  0.5867
 8241SOL    HW136185   0.441   2.679   3.257 -1.4257  0.1379 -1.8916
 8241SOL    HW236186   0.466   2.638   3.118  1.4046 -0.8064  0.3163
 8242SOL     OW36187   0.458   2.881  16.929  0.8984 -0.2336 -0.0022
 8242SOL    HW136188   0.363   2.887  16.921  0.8341 -2.1585 -0.6438
 8242SOL    HW236189   0.464   2.817  17.001 -1.4757  1.3680  1.6204
 8243SOL     OW36190   2.910   1.594   5.056 -0.3808  0.1779  0.1967
 8243SOL    HW136191   2.916   1.671   5.112 -1.3982  2.2943 -2.6420
 8243SOL    HW236192   3.004   1.593   5.036 -0.6232 -0.3498 -0.8926
 8244SOL     OW36193   3.655   2.720   4.529  0.2339  0.1130 -0.3220
 8244SOL    HW136194   3.617   2.704   4.615 -0.8039 -0.6334 -0.9253
 8244SOL    HW236195   3.584   2.683   4.477 -0.2775  0.4827  0.1158
 8245SOL     OW36196   0.698   3.979   5.345  0.1957 -0.1075  0.0787
 8245SOL    HW136197   0.698   3.999   5.439  1.6736  1.0780 -0.1597
 8245SOL    HW236198   0.646   4.054   5.315 -0.0564 -0.5179 -0.5048
 8246SOL     OW36199   0.876   0.620   9.041  0.2500  0.6827  0.6331
 8246SOL    HW136200   0.866   0.692   8.978 -0.6036 -0.3845 -0.4371
 8246SOL    HW236201   0.940   0.656   9.103  1.7569 -0.1343 -0.4362
 8247SOL     OW36202   1.176   0.223  11.498 -0.2897  0.5657  0.4914
 8247SOL    HW136203   1.231   0.229  11.420 -0.2175 -0.5774  0.4617
 8247SOL    HW236204   1.247   0.221  11.562  1.3563 -0.1851 -1.3687
 8248SOL     OW36205   0.807   2.079   2.860 -0.8467 -0.2225  0.0009
 8248SOL    HW136206   0.863   2.090   2.937 -0.2529  0.7414 -0.5693
 8248SOL    HW236207   0.867   2.045   2.794 -0.9667  0.6653 -0.5735
 8249SOL     OW36208   1.839   1.860   5.037 -0.1485 -0.6300 -0.2337
 8249SOL    HW136209   1.827   1.878   4.944 -0.9076  0.7060  0.1155
 8249SOL    HW236210   1.758   1.813   5.056 -0.6852 -0.5258 -2.2357
 8250SOL     OW36211   2.314   4.341   8.890  0.4811 -0.9318  0.7091
 8250SOL    HW136212   2.406   4.322   8.875  0.5765  2.3870 -2.8841
 8250SOL    HW236213   2.318   4.411   8.955  2.6504  0.3328 -0.7960
 8251SOL     OW36214   3.800   2.143   5.893 -0.1220  0.5612 -0.0717
 8251SOL    HW136215   3.823   2.138   5.800 -1.7730 -1.2709 -0.3697
 8251SOL    HW236216   3.732   2.210   5.895  1.5826  2.2359  2.4451
 8252SOL     OW36217   4.569   0.872   4.371 -0.1707 -0.0512 -0.8185
 8252SOL    HW136218   4.486   0.826   4.385  0.4520 -0.6272  0.9468
 8252SOL    HW236219   4.623   0.852   4.447 -1.3789  2.1565  0.6207
 8253SOL     OW36220   1.316   2.269   4.816  0.4590  0.5698 -1.5479
 8253SOL    HW136221   1.227   2.304   4.815  1.2016  2.5114  1.0570
 8253SOL    HW236222   1.337   2.229   4.732  0.9919 -0.4992 -0.8938
 8254SOL     OW36223   0.237   2.925   4.961 -0.1497 -0.0067  0.3202
 8254SOL    HW136224   0.152   2.962   4.936 -0.7039 -0.6380  1.2805
 8254SOL    HW236225   0.291   2.938   4.883 -1.4099  1.4214 -0.3250
 8255SOL     OW36226   2.590   1.681   3.803  0.2164 -0.4357  0.1182
 8255SOL    HW136227   2.621   1.596   3.832  1.6099  0.5377  1.5170
 8255SOL    HW236228   2.531   1.658   3.731 -0.2682 -0.8497  0.6445
 8256SOL     OW36229   0.093   2.293   2.101 -0.1438  0.1018  0.1611
 8256SOL    HW136230   0.179   2.262   2.073  0.5306  2.0461  0.0431
 8256SOL    HW236231   0.059   2.208   2.128 -2.5900  1.1912  0.5435
 8257SOL     OW36232   1.570   3.428   4.324  0.4961  0.5192  0.4414
 8257SOL    HW136233   1.640   3.409   4.386 -1.7316 -0.3906  2.6839
 8257SOL    HW236234   1.495   3.377   4.355  1.0804 -0.9725 -0.6515
 8258SOL     OW36235   2.536   3.811   8.667 -0.1568 -0.3918 -0.2438
 8258SOL    HW136236   2.459   3.840   8.717 -1.0024 -0.1353 -1.7188
 8258SOL    HW236237   2.542   3.719   8.693  0.9067  0.4994  2.6900
 8259SOL     OW36238   1.602   4.541  10.388  0.2704 -0.2454 -0.3943
 8259SOL    HW136239   1.682   4.589  10.368  1.2036 -1.5820  0.1744
 8259SOL    HW236240   1.551   4.618  10.414  1.0872  0.0504  0.3544
 8260SOL     OW36241   3.040   4.502   0.215 -0.0266 -0.0621  0.5569
 8260SOL    HW136242   2.973   4.513   0.147  0.6765 -0.1825 -0.1575
 8260SOL    HW236243   3.022   4.411   0.237  1.1395 -0.6834 -1.0596
 8261SOL     OW36244   1.657   0.298   6.577 -0.0760  0.6657  0.2711
 8261SOL    HW136245   1.593   0.231   6.600 -0.8747  0.5376 -2.3789
 8261SOL    HW236246   1.590   0.366   6.585 -1.7413 -0.6987 -1.9897
 8262SOL     OW36247   3.016   2.428  12.741  0.5974 -0.0563  0.0521
 8262SOL    HW136248   3.032   2.497  12.806  0.5843  1.2916 -1.3798
 8262SOL    HW236249   3.030   2.351  12.795 -0.1395 -0.0988  0.1838
 8263SOL     OW36250   3.234   3.809   3.379  0.2103 -0.1345  0.4200
 8263SOL    HW136251   3.292   3.795   3.454  0.2968 -2.1957 -0.0197
 8263SOL    HW236252   3.274   3.744   3.321 -0.8455  0.6671 -1.1892
 8264SOL     OW36253   2.529   3.102   9.843  0.3600 -0.1044  0.1205
 8264SOL    HW136254   2.502   3.108   9.751  3.5063  3.1925 -0.6123
 8264SOL    HW236255   2.604   3.158   9.859  0.7645 -0.0820 -1.7779
 8265SOL     OW36256   2.156   4.220   0.830 -0.2264 -0.0635  0.1955
 8265SOL    HW136257   2.157   4.282   0.758  3.8662  0.7950  0.9475
 8265SOL    HW236258   2.075   4.170   0.821  1.4393 -2.7498  0.1319
 8266SOL     OW36259   0.157   1.022  11.136  0.1220 -0.2788  0.7478
 8266SOL    HW136260   0.105   1.059  11.207  0.6401 -0.9283  1.4635
 8266SOL    HW236261   0.150   0.928  11.155  2.2721 -0.4773  0.5394
 8267SOL     OW36262   1.757   3.303   2.777 -0.3296 -0.8115  0.2155
 8267SOL    HW136263   1.711   3.385   2.793  0.3002 -0.3923 -0.0999
 8267SOL    HW236264   1.808   3.321   2.698  1.1904 -2.1917  0.8819
 8268SOL     OW36265   3.436   3.967  13.225 -0.5001 -0.2786  0.0581
 8268SOL    HW136266   3.355   3.967  13.174 -1.3665  0.3045  1.4193
 8268SOL    HW236267   3.434   4.055  13.263  0.2557 -0.5944  0.8086
 8269SOL     OW36268   2.698   2.777   1.793  0.4167 -0.2742 -0.2152
 8269SOL    HW136269   2.659   2.691   1.780 -1.2884  0.4556  0.0773
 8269SOL    HW236270   2.755   2.791   1.717  2.1855 -2.8044  0.6356
 8270SOL     OW36271   4.464   4.693  13.916  0.5525 -0.9574  0.3853
 8270SOL    HW136272   4.420   4.623  13.963  0.3117 -1.1576 -0.1347
 8270SOL    HW236273   4.476   4.654  13.829  1.8507  1.0120 -0.3137
 8271SOL     OW36274   0.169   1.167   9.063  0.1212 -0.0661 -0.3875
 8271SOL    HW136275   0.076   1.144   9.067 -0.0587  0.5267 -1.1508
 8271SOL    HW236276   0.192   1.111   8.990 -0.8753 -0.2228 -0.5812
 8272SOL     OW36277   2.045   2.800   3.059  0.0800  0.1808 -0.1690
 8272SOL    HW136278   2.108   2.838   2.998 -0.8582  1.7387 -0.1639
 8272SOL    HW236279   2.102   2.793   3.136 -1.5221 -1.1584  0.8996
 8273SOL     OW36280   0.295   0.913   3.261 -0.3807  0.3326  0.1359
 8273SOL    HW136281   0.336   0.827   3.249 -2.5425 -0.7734  0.7012
 8273SOL    HW236282   0.371   0.965   3.234  0.7352 -1.1509  0.3947
 8274SOL     OW36283   3.836   0.056   0.951 -0.3200 -0.2539  0.1574
 8274SOL    HW136284   3.875   0.019   1.030  0.0881 -2.3859 -1.0422
 8274SOL    HW236285   3.870   4.715   0.888  1.4620  0.6950  0.1786
 8275SOL     OW36286   3.229   3.609   2.385  0.5370  0.0151  0.0849
 8275SOL    HW136287   3.200   3.530   2.340 -1.5565  0.4907  0.6026
 8275SOL    HW236288   3.162   3.672   2.357  0.2580  0.2055  1.1951
 8276SOL     OW36289   4.272   2.640  13.894  0.5151 -0.0220  0.1531
 8276SOL    HW136290   4.281   2.609  13.984  1.4251  3.5582  1.3150
 8276SOL    HW236291   4.180   2.665  13.899 -0.2869 -2.5461 -2.1334
 8277SOL     OW36292   2.002   1.871   4.711 -0.0033  0.6139 -0.6449
 8277SOL    HW136293   1.910   1.846   4.714 -0.3026  1.5023 -2.1640
 8277SOL    HW236294   2.017   1.818   4.633 -3.0495  1.9713 -2.1496
 8278SOL     OW36295   3.815   2.285  12.764 -0.1378 -0.8667  0.0555
 8278SOL    HW136296   3.895   2.321  12.725 -1.3449  0.8323 -0.8039
 8278SOL    HW236297   3.848   2.243  12.844 -0.5451 -0.6665  0.3256
 8279SOL     OW36298   0.518   1.036   3.188 -0.3386  0.6003  0.1091
 8279SOL    HW136299   0.520   1.021   3.094  0.5876 -1.4929  0.4681
 8279SOL    HW236300   0.565   1.120   3.189 -0.6631  0.8039 -2.0207
 8280SOL     OW36301   3.454   4.534  12.919  0.5264 -0.1131  0.2102
 8280SOL    HW136302   3.468   4.516  13.012  0.1499 -3.9825 -0.4869
 8280SOL    HW236303   3.502   4.615  12.901 -1.1325  0.5599 -1.1941
 8281SOL     OW36304   0.609   1.656   6.624  0.1367  0.3487  0.6495
 8281SOL    HW136305   0.524   1.696   6.639 -0.0620  0.9301 -1.8816
 8281SOL    HW236306   0.602   1.630   6.532  1.0867  0.7818  0.4552
 8282SOL     OW36307   3.329   1.972   8.554  0.3783 -0.1080  0.5749
 8282SOL    HW136308   3.293   2.038   8.494  0.0218 -0.2992  0.5770
 8282SOL    HW236309   3.397   2.028   8.591  0.4341  0.9953 -1.1612
 8283SOL     OW36310   0.244   3.716   4.087  0.1660 -0.1359  1.1719
 8283SOL    HW136311   0.209   3.759   4.165  1.0867  0.5266  1.2166
 8283SOL    HW236312   0.288   3.788   4.043 -1.8708 -0.3466 -1.2111
 8284SOL     OW36313   1.910   4.585   6.277  0.3559  0.5033 -0.0788
 8284SOL    HW136314   1.835   4.556   6.329 -0.4353  1.7778 -0.4840
 8284SOL    HW236315   1.939   4.670   6.311  1.6184  0.0105  0.0612
 8285SOL     OW36316   2.963   4.030   5.245 -0.2649 -0.8677  0.2026
 8285SOL    HW136317   3.056   4.018   5.226 -0.6256 -2.9323 -0.1746
 8285SOL    HW236318   2.968   4.066   5.334  0.9084  1.1831 -0.6933
 8286SOL     OW36319   1.417   0.790   0.883 -0.0367  0.8710  0.3282
 8286SOL    HW136320   1.334   0.767   0.924  0.0993 -0.2055 -0.0250
 8286SOL    HW236321   1.427   0.884   0.902  0.9179  0.8420 -0.0065
 8287SOL     OW36322   0.721   2.360  10.186  0.4476 -0.1139  0.0314
 8287SOL    HW136323   0.728   2.302  10.262  0.7886  0.6443  0.5769
 8287SOL    HW236324   0.627   2.371  10.170  0.6692 -0.2382 -1.3286
 8288SOL     OW36325   0.490   4.109   6.595  0.6507  0.6074  0.5988
 8288SOL    HW136326   0.556   4.142   6.534  0.2967 -1.4189 -0.8766
 8288SOL    HW236327   0.501   4.180   6.659 -1.6806  0.4395  1.2011
 8289SOL     OW36328   0.787   3.173   2.863 -0.4870 -0.0681  0.3672
 8289SOL    HW136329   0.751   3.196   2.777 -0.6221 -1.7587 -0.0198
 8289SOL    HW236330   0.864   3.122   2.837 -0.9677  0.2047 -1.6501
 8290SOL     OW36331   4.106   4.592   0.841  0.0009  0.3530  0.5882
 8290SOL    HW136332   4.189   4.636   0.823  0.3997 -0.1027  1.2860
 8290SOL    HW236333   4.129   4.508   0.800  1.2077  0.0877  1.7961
 8291SOL     OW36334   1.302   2.943  15.581  0.6310 -0.2683  0.0738
 8291SOL    HW136335   1.256   2.864  15.609  1.8386 -0.0208  2.7715
 8291SOL    HW236336   1.295   2.995  15.662  3.0060 -2.2730  1.5904
 8292SOL     OW36337   2.087   2.339   0.778 -0.3270 -0.1734 -0.4477
 8292SOL    HW136338   2.059   2.253   0.809 -0.7105  0.0742 -0.1040
 8292SOL    HW236339   2.094   2.387   0.861  0.0880  1.7915 -1.6298
 8293SOL     OW36340   4.520   1.484  11.513 -0.4435 -0.1483 -0.2112
 8293SOL    HW136341   4.598   1.429  11.521  0.2855  0.7455 -1.1282
 8293SOL    HW236342   4.537   1.544  11.586  0.1198  1.5331 -1.7303
 8294SOL     OW36343   4.514   4.648   6.850  0.1145 -0.4136  0.4446
 8294SOL    HW136344   4.473   0.008   6.877  1.4447  0.1370  0.7909
 8294SOL    HW236345   4.603   4.682   6.837 -0.0375 -0.7164 -1.3418
 8295SOL     OW36346   0.419   3.836   8.910  0.4580  0.2644  0.4743
 8295SOL    HW136347   0.473   3.859   8.834 -1.8939  3.5370 -0.1921
 8295SOL    HW236348   0.404   3.915   8.961 -0.2540 -1.7919  3.4568
 8296SOL     OW36349   2.632   0.731   1.854  0.3848  0.0311  0.0028
 8296SOL    HW136350   2.719   0.753   1.885 -0.0794  1.7450  0.0663
 8296SOL    HW236351   2.578   0.757   1.929 -0.8910  0.2633 -0.9847
 8297SOL     OW36352   3.127   2.052  10.603  0.3153  0.0594 -0.1829
 8297SOL    HW136353   3.199   2.093  10.556  0.9368  0.5558  1.2049
 8297SOL    HW236354   3.148   2.063  10.696  2.5957  0.6519 -0.7966
 8298SOL     OW36355   0.637   0.547   3.709  0.1256  0.2059  0.0307
 8298SOL    HW136356   0.581   0.507   3.642  1.2412  1.2971 -1.5414
 8298SOL    HW236357   0.581   0.545   3.787  2.1825  1.5498  1.5420
 8299SOL     OW36358   2.881   0.211   0.281  0.1588 -0.0546 -0.4470
 8299SOL    HW136359   2.832   0.164   0.348 -0.8746  0.6762 -0.6743
 8299SOL    HW236360   2.814   0.223   0.214  0.2143 -0.4444 -0.5727
 8300SOL     OW36361   3.419   0.693   9.359  0.0322  0.1791  0.9917
 8300SOL    HW136362   3.500   0.689   9.309 -1.1751  2.1533 -1.0858
 8300SOL    HW236363   3.441   0.768   9.414  0.8866 -0.3327  1.3466
 8301SOL     OW36364   2.312   4.008  12.652 -0.1691 -0.0253 -0.5567
 8301SOL    HW136365   2.297   4.042  12.740  0.4876 -1.6529  0.1906
 8301SOL    HW236366   2.309   3.913  12.659 -1.5318  0.1863  1.6986
 8302SOL     OW36367   4.170   1.649   5.177 -0.0093  0.6518  0.2496
 8302SOL    HW136368   4.088   1.662   5.130  1.4923  2.1630 -1.9877
 8302SOL    HW236369   4.152   1.564   5.216  0.0872  1.1419  1.3486
 8303SOL     OW36370   3.250   3.324   1.142  0.3020 -0.4298 -0.2006
 8303SOL    HW136371   3.267   3.403   1.090 -0.9011 -0.0807 -0.0613
 8303SOL    HW236372   3.258   3.255   1.076  1.5547 -1.2034  0.7637
 8304SOL     OW36373   0.563   1.004  12.889  0.7135 -0.5782  0.1559
 8304SOL    HW136374   0.575   1.036  12.800  1.4813 -1.6618 -0.1265
 8304SOL    HW236375   0.509   1.075  12.924 -1.7545 -1.0962 -2.5801
 8305SOL     OW36376   0.537   4.289   7.241 -0.5515 -0.0386  0.1646
 8305SOL    HW136377   0.608   4.246   7.192 -1.5010 -0.6854 -0.6627
 8305SOL    HW236378   0.543   4.382   7.218  1.1273  0.2363  1.7343
 8306SOL     OW36379   4.202   1.109   6.836 -0.2651  0.2210  0.2274
 8306SOL    HW136380   4.205   1.152   6.922 -1.0936  0.9224 -0.0957
 8306SOL    HW236381   4.228   1.022   6.867 -0.8245  0.6094  1.7647
 8307SOL     OW36382   1.524   4.329   8.703  0.1850 -0.1651  0.2996
 8307SOL    HW136383   1.464   4.256   8.693  1.0765 -0.5267 -2.5290
 8307SOL    HW236384   1.459   4.388   8.741 -0.1611 -0.0001 -0.5380
 8308SOL     OW36385   2.680   1.744  17.173  0.0674  0.4883  0.8977
 8308SOL    HW136386   2.680   1.830  17.214  1.3423  1.7008 -1.6545
 8308SOL    HW236387   2.736   1.759  17.097 -0.7666  1.9148  0.5689
 8309SOL     OW36388   2.785   0.770  14.309 -1.2236  0.2182  0.3658
 8309SOL    HW136389   2.733   0.723  14.374 -0.6660 -0.1462  0.5472
 8309SOL    HW236390   2.758   0.860  14.328 -0.5776  0.9845 -2.3140
 8310SOL     OW36391   0.660   4.699   5.986  0.4438  0.1329  0.3744
 8310SOL    HW136392   0.735   4.650   6.020 -0.0133  0.2674  1.5550
 8310SOL    HW236393   0.671   0.051   6.045  0.1110  0.0090  0.5953
 8311SOL     OW36394   3.879   3.721   1.016  0.4238 -0.2571  0.2257
 8311SOL    HW136395   3.829   3.643   0.994 -0.6046  0.5044 -0.1504
 8311SOL    HW236396   3.902   3.709   1.108  0.9509 -2.2675 -0.1787
 8312SOL     OW36397   2.137   4.408  15.696 -0.5612 -0.3391  0.0904
 8312SOL    HW136398   2.178   4.387  15.780 -0.2139 -0.4492 -0.1071
 8312SOL    HW236399   2.201   4.471  15.663  1.7884 -1.7699  1.8301
 8313SOL     OW36400   2.113   3.568   3.998  0.2321 -0.0536  0.0564
 8313SOL    HW136401   2.148   3.483   3.971  2.1885  0.6965  0.2290
 8313SOL    HW236402   2.066   3.536   4.075  0.7385 -1.2598 -0.1354
 8314SOL     OW36403   1.030   1.336   3.411 -0.2034 -0.2135  0.2519
 8314SOL    HW136404   0.969   1.409   3.395 -1.9833 -2.0204 -1.1267
 8314SOL    HW236405   1.064   1.354   3.498  0.5063 -0.2251 -0.0237
 8315SOL     OW36406   4.659   2.969   7.946 -0.2337 -0.2008  0.0904
 8315SOL    HW136407   0.026   2.946   7.922 -0.3870 -1.0375  0.3228
 8315SOL    HW236408   4.612   2.890   7.921  2.9259 -2.1621  0.4625
 8316SOL     OW36409   4.659   1.388  12.705 -0.1362 -0.5451 -0.5177
 8316SOL    HW136410   4.640   1.481  12.713 -0.8951 -0.7977  0.7866
 8316SOL    HW236411   4.583   1.344  12.744 -1.5856  1.2570 -1.2741
 8317SOL     OW36412   0.526   3.277  14.855 -0.1707  0.1744  0.2671
 8317SOL    HW136413   0.579   3.340  14.903  1.9048 -0.5834 -1.0088
 8317SOL    HW236414   0.440   3.312  14.877 -0.2915 -1.7345  2.7959
 8318SOL     OW36415   3.577   0.652   6.776 -0.1099  0.2891  0.1728
 8318SOL    HW136416   3.662   0.650   6.733 -0.0296  0.0241  0.3499
 8318SOL    HW236417   3.562   0.747   6.773 -1.5701  0.0499 -0.1330
 8319SOL     OW36418   4.148   1.475   4.482  0.4931  0.1708  0.0350
 8319SOL    HW136419   4.159   1.440   4.570 -0.2820  1.2603  0.5632
 8319SOL    HW236420   4.182   1.564   4.494  0.4953  0.4303 -1.7853
 8320SOL     OW36421   2.719   3.220   6.238 -0.0149  0.4758  0.0377
 8320SOL    HW136422   2.751   3.209   6.327  1.1400  0.1564 -0.4138
 8320SOL    HW236423   2.650   3.286   6.246 -1.0396 -0.6796  0.6988
 8321SOL     OW36424   0.600   0.059   3.107 -0.0233  0.1923 -0.3233
 8321SOL    HW136425   0.603   4.687   3.091 -0.7404  0.0680  0.2772
 8321SOL    HW236426   0.691   0.074   3.131 -0.0836 -2.1221  1.4404
 8322SOL     OW36427   3.073   0.646  15.846  0.0775  0.4791 -0.4347
 8322SOL    HW136428   2.984   0.672  15.869 -0.3403 -2.1518  0.9525
 8322SOL    HW236429   3.094   0.711  15.780  2.3980  0.0696 -0.0818
 8323SOL     OW36430   3.337   3.217  13.378 -0.0577  0.4103 -0.1875
 8323SOL    HW136431   3.262   3.234  13.434  1.4352  0.3588  1.8115
 8323SOL    HW236432   3.333   3.123  13.360  1.1943  0.3951 -0.4223
 8324SOL     OW36433   4.687   0.083   0.332 -0.3185 -0.7906  0.3003
 8324SOL    HW136434   4.651   0.139   0.401  5.9418  0.8392  2.2146
 8324SOL    HW236435   4.691   0.000   0.380 -4.6549 -0.3634  1.3769
 8325SOL     OW36436   2.547   2.270   2.680  0.1483  0.2282 -0.3578
 8325SOL    HW136437   2.456   2.298   2.684  0.2333  0.8809 -2.9879
 8325SOL    HW236438   2.558   2.242   2.589 -0.5234 -0.2157 -0.2982
 8326SOL     OW36439   2.213   4.653  15.912 -0.2864  0.1088 -0.2224
 8326SOL    HW136440   2.137   4.606  15.946 -0.4142 -1.3742 -2.5669
 8326SOL    HW236441   2.183   0.015  15.877 -1.8865  0.5264  2.1605
 8327SOL     OW36442   3.622   3.458   2.081  0.2901 -0.4913  0.1936
 8327SOL    HW136443   3.564   3.491   2.012 -0.7435 -2.7414 -0.0134
 8327SOL    HW236444   3.693   3.522   2.076 -1.8325  1.7727 -1.2781
 8328SOL     OW36445   2.724   3.583   6.064 -0.0848 -0.6948  0.2293
 8328SOL    HW136446   2.648   3.615   6.113  1.2964  1.6939  0.8172
 8328SOL    HW236447   2.674   3.552   5.988 -2.7332 -1.0715  2.0929
 8329SOL     OW36448   2.015   1.157   2.746 -0.1794  0.2718 -0.4145
 8329SOL    HW136449   2.011   1.250   2.724 -1.8816  0.1771 -0.4600
 8329SOL    HW236450   2.110   1.152   2.732 -0.0971  1.6573 -0.3558
 8330SOL     OW36451   1.944   2.117  17.298  0.2828 -0.2231 -0.5494
 8330SOL    HW136452   2.030   2.083  17.272 -0.2676 -1.0742 -1.2470
 8330SOL    HW236453   1.978   2.194  17.344 -1.1187  0.3345 -0.4486
 8331SOL     OW36454   3.272   3.801   8.282 -0.2705 -0.3511 -0.2469
 8331SOL    HW136455   3.324   3.731   8.242  0.2171  1.7613 -3.3251
 8331SOL    HW236456   3.238   3.842   8.203  1.4833 -1.4992 -1.5914
 8332SOL     OW36457   0.611   0.731   1.944 -0.2967  0.2819  0.2501
 8332SOL    HW136458   0.539   0.779   1.987 -0.8216  1.3224 -1.7931
 8332SOL    HW236459   0.599   0.640   1.970 -2.7549  0.5619  0.1461
 8333SOL     OW36460   4.484   1.949   9.059 -0.4531  0.2005  0.3120
 8333SOL    HW136461   4.463   2.042   9.047 -0.9119  0.1866  1.0785
 8333SOL    HW236462   4.573   1.958   9.022 -0.1784 -1.3059  0.6211
 8334SOL     OW36463   3.455   2.562   8.525  0.3217 -0.1822 -0.0013
 8334SOL    HW136464   3.533   2.600   8.486 -0.5717  0.4159 -1.2139
 8334SOL    HW236465   3.426   2.639   8.574  2.7928  0.5184  0.3673
 8335SOL     OW36466   4.367   4.588   4.770 -0.2713 -0.3757  0.1668
 8335SOL    HW136467   4.385   4.504   4.813  0.8310 -0.2423 -0.0580
 8335SOL    HW236468   4.379   4.657   4.835  1.5149  0.5055 -1.1152
 8336SOL     OW36469   0.036   0.382   6.838 -0.0949  0.9085 -0.1878
 8336SOL    HW136470   4.699   0.445   6.798 -2.7960 -0.0921  2.2439
 8336SOL    HW236471   0.003   0.306   6.790 -1.4459  0.6990  1.0958
 8337SOL     OW36472   0.633   0.452   8.125  0.2502  0.2963 -0.0396
 8337SOL    HW136473   0.547   0.460   8.085  1.8492  0.9129 -3.3656
 8337SOL    HW236474   0.687   0.435   8.047  1.7432 -0.0614  1.0738
 8338SOL     OW36475   1.764   1.087   8.417  0.0978  0.7294  0.1223
 8338SOL    HW136476   1.670   1.072   8.428  0.2617 -0.0118  0.5327
 8338SOL    HW236477   1.803   1.001   8.406 -3.4901 -1.0728  1.4590
 8339SOL     OW36478   3.066   3.885  17.293  0.3420 -0.2768  0.1563
 8339SOL    HW136479   3.114   3.909  17.213  0.5267 -0.0875  0.3241
 8339SOL    HW236480   3.031   3.799  17.269 -0.6217  0.3444 -0.6979
 8340SOL     OW36481   1.696   4.268   6.264 -0.3139 -0.5983  0.0511
 8340SOL    HW136482   1.700   4.322   6.343 -1.7399 -1.2997  0.6072
 8340SOL    HW236483   1.676   4.181   6.300  0.9805 -1.8012 -2.1701
 8341SOL     OW36484   2.582   4.299  17.157 -0.3656  0.1392  0.2686
 8341SOL    HW136485   2.538   4.230  17.207 -0.2068  2.1372  3.1493
 8341SOL    HW236486   2.507   4.346  17.119  0.2924  0.4979 -0.5768
 8342SOL     OW36487   2.703   2.213   2.086  0.2672  0.2347  0.1948
 8342SOL    HW136488   2.651   2.283   2.046  1.5053 -0.6388 -2.9259
 8342SOL    HW236489   2.743   2.169   2.011 -2.2409 -0.6734 -0.6085
 8343SOL     OW36490   3.650   2.375   9.192 -0.8970 -0.0964 -0.1775
 8343SOL    HW136491   3.665   2.423   9.274 -0.7475  0.7201 -0.6880
 8343SOL    HW236492   3.658   2.283   9.219  2.0307 -0.1018 -0.9998
 8344SOL     OW36493   1.887   0.241   3.525 -0.0082 -0.1712 -0.3446
 8344SOL    HW136494   1.813   0.298   3.503  1.7462  2.4091  0.4363
 8344SOL    HW236495   1.903   0.194   3.444 -0.3758 -0.3584 -0.3086
 8345SOL     OW36496   4.632   4.603   0.536 -0.0328 -0.1920 -0.1697
 8345SOL    HW136497   4.538   4.591   0.547 -0.2583  0.8252 -1.0017
 8345SOL    HW236498   4.657   4.513   0.513 -1.5410 -0.5076 -0.5779
 8346SOL     OW36499   0.945   4.066   6.979 -0.2181 -0.2502 -0.3793
 8346SOL    HW136500   0.955   3.974   7.001 -0.2151  0.0716  0.9511
 8346SOL    HW236501   0.871   4.087   7.037  0.0632  3.0804 -1.2452
 8347SOL     OW36502   4.684   0.738   5.714 -0.0244 -0.1073  0.2451
 8347SOL    HW136503   4.629   0.711   5.788  0.7885 -0.7375  0.6270
 8347SOL    HW236504   0.028   0.790   5.759 -0.1986 -0.2602  0.6799
 8348SOL     OW36505   1.206   2.005   5.378  0.4204 -0.4410  0.2789
 8348SOL    HW136506   1.140   1.995   5.311  1.0291  0.0621 -0.3930
 8348SOL    HW236507   1.188   1.930   5.436  0.1473  0.0233  0.7928
 8349SOL     OW36508   2.966   1.074   1.297 -0.1933 -0.1425 -0.1274
 8349SOL    HW136509   2.950   1.090   1.390 -0.5798 -2.9203  0.2957
 8349SOL    HW236510   3.020   1.150   1.282  0.1461 -0.2284  0.6523
 8350SOL     OW36511   1.986   1.586   3.867 -0.3738 -0.4739 -0.6454
 8350SOL    HW136512   2.034   1.653   3.818 -0.8448 -0.7259 -1.4346
 8350SOL    HW236513   1.964   1.527   3.795  1.8645 -1.5141 -0.4811
 8351SOL     OW36514   1.972   3.198   6.631 -0.2290 -0.0889  0.0562
 8351SOL    HW136515   1.926   3.222   6.712  1.0065 -1.9080  1.3031
 8351SOL    HW236516   1.931   3.116   6.606  0.9746 -0.9111  0.7426
 8352SOL     OW36517   1.063   3.244  15.761 -0.3167  0.8651 -0.1911
 8352SOL    HW136518   1.132   3.282  15.706 -1.0193 -0.2403 -1.8590
 8352SOL    HW236519   1.034   3.322  15.808  1.1517  0.1543  1.9094
 8353SOL     OW36520   1.694   3.999   9.955 -0.3756 -0.0986 -0.0406
 8353SOL    HW136521   1.701   3.943   9.878  0.2608  0.2180 -0.2091
 8353SOL    HW236522   1.766   3.960  10.004  0.4455  2.9864  1.2320
 8354SOL     OW36523   2.837   3.686   1.994 -0.8154  0.6719  0.1358
 8354SOL    HW136524   2.885   3.611   1.959  1.6747  1.6917  1.3615
 8354SOL    HW236525   2.768   3.629   2.030 -1.9058  1.6527 -0.4404
 8355SOL     OW36526   3.940   3.797   2.552 -0.7648 -0.1598  0.2157
 8355SOL    HW136527   3.934   3.847   2.470  2.2940  0.4817  0.3711
 8355SOL    HW236528   3.958   3.709   2.519  0.3318 -0.6771  2.2646
 8356SOL     OW36529   1.025   4.243   2.650  0.0650  0.1099  0.8779
 8356SOL    HW136530   1.027   4.149   2.669 -0.2840 -0.2934 -1.0647
 8356SOL    HW236531   0.969   4.282   2.717  0.7000 -0.6586  1.8564
 8357SOL     OW36532   3.654   4.539   1.899  0.2826  0.8119  0.3272
 8357SOL    HW136533   3.719   4.595   1.941  0.1607  1.2672 -0.0934
 8357SOL    HW236534   3.584   4.539   1.964 -0.1002  0.9730 -0.0857
 8358SOL     OW36535   1.175   2.436  14.880  0.3894 -0.3318  1.5193
 8358SOL    HW136536   1.110   2.369  14.863  1.5817 -0.7832 -1.2573
 8358SOL    HW236537   1.225   2.430  14.798 -2.2645 -1.4218 -0.0116
 8359SOL     OW36538   2.172   2.105  12.555 -0.1386 -0.8164 -0.4925
 8359SOL    HW136539   2.201   2.075  12.641  1.2508  1.2126 -0.2607
 8359SOL    HW236540   2.202   2.196  12.560 -0.7824 -0.6553  0.5422
 8360SOL     OW36541   4.219   3.295   1.565 -0.0190 -0.4210 -0.0918
 8360SOL    HW136542   4.275   3.313   1.641 -1.6472  0.1395  0.9871
 8360SOL    HW236543   4.270   3.226   1.523 -0.5846 -1.1636  0.4361
 8361SOL     OW36544   3.634   1.542  16.639 -0.0254 -0.2851  0.3893
 8361SOL    HW136545   3.551   1.589  16.647 -0.4392 -0.7778 -0.9818
 8361SOL    HW236546   3.688   1.589  16.576 -0.7286  0.0415  0.0300
 8362SOL     OW36547   2.098   4.163   6.304 -0.4129 -0.5137 -0.2709
 8362SOL    HW136548   2.067   4.175   6.214  0.7930  2.7994 -0.2399
 8362SOL    HW236549   2.018   4.132   6.347 -0.5413  0.3141  0.0764
 8363SOL     OW36550   1.028   2.265   4.762 -0.2361  0.0693 -0.1815
 8363SOL    HW136551   1.002   2.193   4.705 -0.4766  0.2566 -0.3144
 8363SOL    HW236552   1.035   2.214   4.842  0.9219  0.7038  0.1207
 8364SOL     OW36553   3.972   4.144   5.869  0.1152  0.4331 -0.4218
 8364SOL    HW136554   3.887   4.170   5.904  0.7954  2.1201 -0.0328
 8364SOL    HW236555   3.956   4.161   5.777 -1.7382 -0.7003 -0.2981
 8365SOL     OW36556   1.133   0.480  12.299  0.1070 -0.5840  0.8011
 8365SOL    HW136557   1.045   0.481  12.262  0.3613 -2.2998  0.1500
 8365SOL    HW236558   1.160   0.566  12.267 -1.4074 -1.1283 -2.0046
 8366SOL     OW36559   2.673   2.677   8.947 -0.0116 -0.8590 -0.3306
 8366SOL    HW136560   2.626   2.626   9.013  0.4556 -2.1195 -0.9649
 8366SOL    HW236561   2.751   2.622   8.940 -0.6154 -1.6649 -0.7583
 8367SOL     OW36562   2.611   3.579   3.073  0.1008 -0.1663 -0.6756
 8367SOL    HW136563   2.590   3.490   3.100  0.0225  0.3587  1.0301
 8367SOL    HW236564   2.527   3.614   3.044 -0.8164 -1.1232  0.8734
 8368SOL     OW36565   0.998   3.046   4.041  0.2569  0.6792  0.5212
 8368SOL    HW136566   0.976   3.127   3.995 -0.6707  1.1949  1.8461
 8368SOL    HW236567   1.081   3.065   4.085 -0.5058  3.3196  0.8562
 8369SOL     OW36568   1.467   4.525   8.044  0.6125 -0.1037  0.1789
 8369SOL    HW136569   1.561   4.532   8.031  0.6596 -2.2045 -0.6522
 8369SOL    HW236570   1.435   4.614   8.056  2.9758  0.9456 -1.4330
 8370SOL     OW36571   4.623   1.598   4.851 -0.4267 -0.5754  0.0469
 8370SOL    HW136572   4.632   1.620   4.944  1.0095  0.6850 -0.4033
 8370SOL    HW236573   4.662   1.674   4.808  1.8465 -2.1589 -0.6647
 8371SOL     OW36574   0.082   2.501  13.060  0.2801  0.3485  0.0299
 8371SOL    HW136575   0.064   2.453  13.141  0.0568  0.7762  0.2366
 8371SOL    HW236576   0.113   2.589  13.083 -0.6766  1.5145 -3.2010
 8372SOL     OW36577   3.352   0.553   4.458 -0.0624  0.1529 -0.1298
 8372SOL    HW136578   3.352   0.476   4.401  2.9218 -0.6956  1.0366
 8372SOL    HW236579   3.338   0.623   4.394  0.1036  0.2866 -0.0193
 8373SOL     OW36580   3.517   0.897   9.506  0.5092  0.3761 -0.1111
 8373SOL    HW136581   3.525   0.992   9.507 -1.7113  0.5557  0.5008
 8373SOL    HW236582   3.473   0.877   9.589  1.0794  0.1657  0.1396
 8374SOL     OW36583   2.381   4.425  10.442 -0.4682  0.5086  0.1385
 8374SOL    HW136584   2.450   4.432  10.376 -0.0911 -0.9643  0.3793
 8374SOL    HW236585   2.413   4.469  10.521  0.1730 -0.5970  0.4964
 8375SOL     OW36586   1.815   0.886   7.346 -0.9815  0.3069  0.8675
 8375SOL    HW136587   1.722   0.907   7.355 -0.5528  1.4764  2.6578
 8375SOL    HW236588   1.820   0.799   7.385 -0.6481  0.1843  0.5430
 8376SOL     OW36589   0.579   2.416   8.054 -0.4095 -0.0197  1.0159
 8376SOL    HW136590   0.610   2.339   8.007  1.6433  0.7479  1.1345
 8376SOL    HW236591   0.647   2.477   8.027 -0.3416 -1.3749 -1.8108
 8377SOL     OW36592   0.548   2.412   8.421  0.2230  0.2218 -0.0473
 8377SOL    HW136593   0.626   2.459   8.392  1.2693 -0.9869  0.7849
 8377SOL    HW236594   0.567   2.325   8.386  0.6695  0.5231 -0.5547
 8378SOL     OW36595   3.279   2.283  14.838 -0.6367 -0.7464  0.3676
 8378SOL    HW136596   3.243   2.314  14.755 -0.3161 -1.6977 -0.1340
 8378SOL    HW236597   3.307   2.360  14.888  2.3850 -1.5192 -0.1301
 8379SOL     OW36598   2.756   3.079   8.630 -0.0349  0.1953  0.1403
 8379SOL    HW136599   2.791   3.167   8.612  1.2662 -0.3340  0.1141
 8379SOL    HW236600   2.663   3.098   8.637 -0.0710 -0.3972  1.3272
 8380SOL     OW36601   2.038   4.088   7.202 -0.2257 -0.0886  0.7481
 8380SOL    HW136602   1.950   4.089   7.240 -0.1189 -0.3470  0.9941
 8380SOL    HW236603   2.056   3.998   7.176 -1.0698 -0.0117 -0.1292
 8381SOL     OW36604   1.666   3.607   2.789  0.3008 -0.3579 -0.0394
 8381SOL    HW136605   1.686   3.656   2.868  0.2654 -1.1391  0.4452
 8381SOL    HW236606   1.743   3.634   2.739  0.8675 -2.9939 -0.5802
 8382SOL     OW36607   3.694   3.538   7.430  0.1136 -0.1644  0.3739
 8382SOL    HW136608   3.655   3.578   7.353  1.3570  2.0084  0.8483
 8382SOL    HW236609   3.734   3.612   7.477  1.4190 -0.4279 -0.3089
 8383SOL     OW36610   3.570   1.085   2.707  0.1004  0.2750  0.2920
 8383SOL    HW136611   3.635   1.123   2.766 -0.3828 -1.3332  1.8792
 8383SOL    HW236612   3.588   0.991   2.711 -1.5860 -0.2020 -2.9958
 8384SOL     OW36613   2.902   0.562   2.579  0.4049  1.5105 -0.5727
 8384SOL    HW136614   2.821   0.511   2.570  2.6567 -1.8821 -1.9776
 8384SOL    HW236615   2.913   0.585   2.487  0.1972  2.3917 -0.3741
 8385SOL     OW36616   2.119   2.512   8.792  0.6343 -0.5777 -0.1572
 8385SOL    HW136617   2.084   2.561   8.718 -1.5848 -1.9305  0.0165
 8385SOL    HW236618   2.162   2.441   8.745 -0.6206 -0.5591 -1.3179
 8386SOL     OW36619   0.412   3.445   7.728  0.1602 -0.1163 -0.2094
 8386SOL    HW136620   0.339   3.478   7.781  1.4645  1.6855  0.5124
 8386SOL    HW236621   0.355   3.390   7.675  0.7208  0.0277 -0.9572
 8387SOL     OW36622   3.380   1.600   4.858  0.1399 -0.5832 -0.2327
 8387SOL    HW136623   3.319   1.563   4.921  1.5224 -1.4136  0.6329
 8387SOL    HW236624   3.316   1.634   4.796  1.6138  1.3039 -0.7322
 8388SOL     OW36625   3.484   4.164  13.885 -0.0560  0.2860  0.2076
 8388SOL    HW136626   3.541   4.135  13.956 -0.1521  0.3437  0.3081
 8388SOL    HW236627   3.402   4.182  13.932  1.1807 -0.6993  2.7368
 8389SOL     OW36628   4.535   2.830   6.706  0.0035 -0.2007 -0.3069
 8389SOL    HW136629   4.621   2.851   6.670  1.1853 -1.0521  2.0139
 8389SOL    HW236630   4.517   2.736   6.702  2.1103 -0.6290  0.7062
 8390SOL     OW36631   4.136   2.729   9.793  0.5406  0.3501  0.5054
 8390SOL    HW136632   4.150   2.687   9.878  0.6718 -2.2213 -0.7680
 8390SOL    HW236633   4.202   2.677   9.747 -0.4156  2.3387 -3.1242
 8391SOL     OW36634   1.351   0.387  12.176 -0.3875 -0.2691 -0.6090
 8391SOL    HW136635   1.378   0.342  12.256 -0.1642 -0.8771 -1.0244
 8391SOL    HW236636   1.274   0.435  12.206  1.0435  1.3421  0.4964
 8392SOL     OW36637   4.194   1.679   7.479  0.4294  0.4667 -0.4780
 8392SOL    HW136638   4.203   1.592   7.438 -0.2387  0.1590  0.0451
 8392SOL    HW236639   4.267   1.672   7.541 -3.7839  0.0040  4.3367
 8393SOL     OW36640   2.254   4.650   2.556  0.7693 -0.2429 -0.0978
 8393SOL    HW136641   2.176   4.691   2.517  1.3578  1.4748  0.5291
 8393SOL    HW236642   2.233   4.558   2.538  1.0410 -0.2444 -0.4056
 8394SOL     OW36643   3.477   2.384   6.777 -0.0913  0.0364  0.1998
 8394SOL    HW136644   3.394   2.432   6.769 -0.0599 -0.3192 -2.3459
 8394SOL    HW236645   3.436   2.298   6.786 -1.8429  0.8012 -0.4411
 8395SOL     OW36646   3.746   0.630   9.005  0.0522 -0.2918  0.1828
 8395SOL    HW136647   3.759   0.632   8.910 -2.2344 -0.6740 -0.1413
 8395SOL    HW236648   3.769   0.539   9.020 -1.6503 -0.4389  1.9578
 8396SOL     OW36649   3.799   0.381  11.878 -0.4029  0.1428  0.5160
 8396SOL    HW136650   3.798   0.287  11.863 -0.9506  0.1825  0.2776
 8396SOL    HW236651   3.879   0.395  11.929  0.3832  1.3852 -1.0608
 8397SOL     OW36652   4.333   3.460   3.761  0.1284 -0.2091  0.0465
 8397SOL    HW136653   4.280   3.386   3.791 -0.3690  0.9346  2.0341
 8397SOL    HW236654   4.420   3.425   3.743 -1.0929 -3.1881 -0.0482
 8398SOL     OW36655   3.635   4.053   4.861 -0.0980 -1.1543  0.5973
 8398SOL    HW136656   3.677   4.136   4.838 -1.2244 -1.4574 -2.6328
 8398SOL    HW236657   3.587   4.028   4.781  0.0088 -0.3403  0.2836
 8399SOL     OW36658   2.392   1.815   6.033 -0.4057  0.0911  0.3218
 8399SOL    HW136659   2.354   1.803   5.946  0.5656 -0.7807  0.0280
 8399SOL    HW236660   2.482   1.846   6.025 -0.1569 -0.2563  1.9211
 8400SOL     OW36661   4.561   1.581  17.263  0.2948  0.4799  0.2287
 8400SOL    HW136662   4.560   1.526  17.341 -0.6508 -1.5729 -1.2345
 8400SOL    HW236663   4.530   1.664  17.299 -2.3351 -0.3524 -0.1387
 8401SOL     OW36664   0.176   3.332   5.722 -0.4771 -0.3470  0.9234
 8401SOL    HW136665   0.142   3.413   5.761  0.6727 -0.3132  1.8246
 8401SOL    HW236666   0.173   3.275   5.799 -1.8727  1.5282  2.2775
 8402SOL     OW36667   0.803   1.171  12.778  0.6556  0.7245 -0.0968
 8402SOL    HW136668   0.736   1.126  12.725  1.2504  1.1884 -1.2374
 8402SOL    HW236669   0.877   1.155  12.719 -0.3114  3.1655 -1.9635
 8403SOL     OW36670   2.826   2.078   4.820  0.1534  0.3348 -0.3584
 8403SOL    HW136671   2.817   1.983   4.816  1.1900  0.0904  2.9774
 8403SOL    HW236672   2.909   2.092   4.774  0.8320 -0.6765  0.5523
 8404SOL     OW36673   3.812   2.099   8.933 -0.0319  0.5220 -0.2542
 8404SOL    HW136674   3.782   2.050   9.010 -1.7135 -1.3349 -2.1009
 8404SOL    HW236675   3.781   2.039   8.866  0.8467  1.5927 -1.6202
 8405SOL     OW36676   0.731   1.897   4.533  0.1821 -0.2869 -0.0365
 8405SOL    HW136677   0.640   1.880   4.509  0.2298  0.0695 -0.4674
 8405SOL    HW236678   0.768   1.809   4.536  0.9912  0.0094 -1.6932
 8406SOL     OW36679   3.600   2.244   3.227 -0.3986 -0.6097  0.5667
 8406SOL    HW136680   3.613   2.208   3.140  2.5871  1.3559  0.2093
 8406SOL    HW236681   3.550   2.176   3.272  0.0506 -0.0162  1.9639
 8407SOL     OW36682   2.175   3.615   8.937  0.1162 -0.8967 -0.1209
 8407SOL    HW136683   2.248   3.585   8.991  0.0568  0.0913  0.5084
 8407SOL    HW236684   2.137   3.528   8.928  0.8750 -1.5043  2.5090
 8408SOL     OW36685   2.823   2.203   7.314 -0.0896 -0.0965  0.0979
 8408SOL    HW136686   2.895   2.262   7.293 -0.2169 -0.1976 -0.6396
 8408SOL    HW236687   2.859   2.116   7.294 -0.5681 -0.6089  1.4445
 8409SOL     OW36688   3.843   0.874  13.445  0.2036  0.4818  0.0054
 8409SOL    HW136689   3.903   0.849  13.515 -0.1547  0.7516  0.4046
 8409SOL    HW236690   3.856   0.800  13.385  0.4802 -1.2030  2.1402
 8410SOL     OW36691   3.867   3.524  17.001  0.5312  0.3511  0.2770
 8410SOL    HW136692   3.910   3.504  16.918  1.0911  0.8044  0.4560
 8410SOL    HW236693   3.807   3.593  16.974  0.2999  0.4168  0.9563
 8411SOL     OW36694   1.300   0.763   8.398 -0.1092 -0.1738 -0.0988
 8411SOL    HW136695   1.320   0.753   8.305  1.1829  0.4976  0.1128
 8411SOL    HW236696   1.242   0.839   8.396  0.0769 -0.0025  1.4313
 8412SOL     OW36697   0.812   2.302   4.363 -0.5774 -0.2685  0.1973
 8412SOL    HW136698   0.861   2.378   4.393 -1.0201 -0.0994  0.4989
 8412SOL    HW236699   0.807   2.315   4.269 -0.2802  0.0478  0.2260
 8413SOL     OW36700   4.113   1.573   6.104  0.1367 -0.3070 -0.3700
 8413SOL    HW136701   4.053   1.644   6.125 -0.5847 -1.1755  0.5186
 8413SOL    HW236702   4.116   1.530   6.189 -0.0546  1.1707  0.3899
 8414SOL     OW36703   1.887   0.043   7.318 -0.1584  0.2729  0.6265
 8414SOL    HW136704   1.950   0.094   7.367 -0.8263  1.0464  0.6750
 8414SOL    HW236705   1.871   4.681   7.361 -0.3632  0.0173  0.0630
 8415SOL     OW36706   1.036   3.871   9.628  0.7288  0.2598 -0.6477
 8415SOL    HW136707   1.130   3.859   9.616  0.4915 -1.0871 -1.1785
 8415SOL    HW236708   1.034   3.960   9.663  1.2741 -0.2864  0.7797
 8416SOL     OW36709   1.943   0.484  14.331 -0.6541 -0.4105 -0.1700
 8416SOL    HW136710   1.995   0.427  14.388  2.7431  0.6785 -2.1173
 8416SOL    HW236711   1.927   0.425  14.257 -0.6735  1.8331 -1.9299
 8417SOL     OW36712   0.807   2.196   6.755  0.1923 -0.0516  0.0795
 8417SOL    HW136713   0.748   2.248   6.700  0.3011  1.0499  1.0074
 8417SOL    HW236714   0.827   2.271   6.810 -2.7014  0.7316  0.0652
 8418SOL     OW36715   2.924   1.369   2.269 -0.2570 -0.2436  0.4660
 8418SOL    HW136716   2.863   1.314   2.220  2.4815 -2.5625 -0.2782
 8418SOL    HW236717   3.008   1.332   2.244 -0.4368  0.0322 -0.5518
 8419SOL     OW36718   2.778   3.226  17.049  0.3339 -0.1186  0.4001
 8419SOL    HW136719   2.691   3.223  17.010  0.1195  0.9608  0.8060
 8419SOL    HW236720   2.771   3.318  17.072 -0.8358  0.0200 -0.5423
 8420SOL     OW36721   3.844   2.233   4.026  0.0920  0.2822  0.1328
 8420SOL    HW136722   3.750   2.218   4.035  0.4697 -1.7591  0.5625
 8420SOL    HW236723   3.861   2.236   3.932 -1.1770  1.8276 -0.0445
 8421SOL     OW36724   2.606   1.380   8.421 -0.1604  0.1895 -0.1734
 8421SOL    HW136725   2.629   1.376   8.329 -0.1497 -0.8032 -0.1260
 8421SOL    HW236726   2.556   1.299   8.419 -0.6184  0.4202  1.7567
 8422SOL     OW36727   4.411   1.736  14.260 -0.4807  0.3120  0.4289
 8422SOL    HW136728   4.485   1.734  14.321  0.4178 -3.1345 -0.7313
 8422SOL    HW236729   4.441   1.804  14.200  1.3384  1.1633  2.3027
 8423SOL     OW36730   1.298   3.334   3.824  1.1179 -0.2017  0.3004
 8423SOL    HW136731   1.359   3.364   3.891  2.6084 -2.5155 -0.0057
 8423SOL    HW236732   1.348   3.254   3.805  0.6872 -0.4251  0.1100
 8424SOL     OW36733   3.508   1.599   2.383  0.7191  0.9488  0.6615
 8424SOL    HW136734   3.506   1.508   2.413 -1.6382  0.3995 -1.1953
 8424SOL    HW236735   3.562   1.584   2.306  0.3936 -1.5794  0.9328
 8425SOL     OW36736   2.236   1.223   2.092  0.0986  0.2366  0.4223
 8425SOL    HW136737   2.151   1.194   2.124 -1.7257  3.2917 -1.7220
 8425SOL    HW236738   2.217   1.297   2.035  2.5012 -0.4164 -1.2292
 8426SOL     OW36739   3.393   3.489  14.419 -0.3365  0.2168  0.1001
 8426SOL    HW136740   3.461   3.513  14.356  1.9030 -1.9352  1.7142
 8426SOL    HW236741   3.456   3.468  14.489  0.1799  1.3215 -0.0333
 8427SOL     OW36742   3.732   3.815   6.592 -0.6193 -0.1815  0.3935
 8427SOL    HW136743   3.704   3.774   6.674  0.9791 -1.3302  0.3609
 8427SOL    HW236744   3.793   3.881   6.623  0.5796 -0.7777 -0.6622
 8428SOL     OW36745   2.732   3.455  11.979 -0.0248 -0.1111  0.3132
 8428SOL    HW136746   2.786   3.485  12.053  1.0190  0.7310 -0.7864
 8428SOL    HW236747   2.698   3.375  12.018  1.4029 -1.4100 -1.1524
 8429SOL     OW36748   1.608   0.463   3.819  0.3817 -0.4980  0.3331
 8429SOL    HW136749   1.634   0.517   3.744  2.1506 -2.6528 -0.6000
 8429SOL    HW236750   1.687   0.468   3.873  0.5446 -1.1563  0.1528
 8430SOL     OW36751   2.318   0.099   3.588  0.3619  0.0205 -0.1090
 8430SOL    HW136752   2.328   0.022   3.532 -0.5198 -0.9720  1.0968
 8430SOL    HW236753   2.378   0.161   3.546  2.4539 -2.5150 -0.7966
 8431SOL     OW36754   3.331   1.478  17.561  0.2805 -0.4809 -0.5567
 8431SOL    HW136755   3.265   1.439  17.504 -0.1389 -0.7209  0.1003
 8431SOL    HW236756   3.408   1.422  17.552  0.3939 -0.5742  0.9544
 8432SOL     OW36757   4.376   4.033  13.511  0.0276  0.1466  0.2094
 8432SOL    HW136758   4.322   4.020  13.432  1.9536 -0.7846 -0.9599
 8432SOL    HW236759   4.331   4.091  13.572  2.5757  2.9081 -0.5308
 8433SOL     OW36760   0.531   1.316  16.341 -0.2816  0.2383 -0.1807
 8433SOL    HW136761   0.553   1.374  16.414 -0.5054 -0.1248  0.1787
 8433SOL    HW236762   0.475   1.249  16.379 -1.3105  1.2391  0.0689
 8434SOL     OW36763   1.578   0.612   7.455  0.2721 -0.1585 -0.7538
 8434SOL    HW136764   1.669   0.615   7.484  0.0606  0.5632 -0.1835
 8434SOL    HW236765   1.565   0.518   7.442 -1.1415  0.1386 -1.4995
 8435SOL     OW36766   1.148   4.123   3.187  0.0097 -0.0977 -0.1925
 8435SOL    HW136767   1.189   4.101   3.103 -0.1189 -0.2894 -0.2055
 8435SOL    HW236768   1.061   4.083   3.175  0.7308 -1.9970  0.9392
 8436SOL     OW36769   2.693   0.009   6.142  0.2812  0.2049 -0.5158
 8436SOL    HW136770   2.646   0.087   6.169  1.4342  0.7581 -0.1262
 8436SOL    HW236771   2.779   0.050   6.133 -0.0133  0.8028 -0.5711
 8437SOL     OW36772   3.931   4.429  15.120  0.4509 -0.1909 -0.2443
 8437SOL    HW136773   4.009   4.469  15.158  0.8548 -0.7972 -0.4408
 8437SOL    HW236774   3.876   4.411  15.196 -0.7459 -3.0907 -1.7942
 8438SOL     OW36775   2.840   4.102   7.887 -0.7805 -0.1748  0.0519
 8438SOL    HW136776   2.797   4.048   7.954  0.2938  0.4479  1.2403
 8438SOL    HW236777   2.769   4.117   7.825 -0.7990 -3.5333 -0.7667
 8439SOL     OW36778   2.670   3.440   8.756 -0.1897  0.6927  0.0739
 8439SOL    HW136779   2.596   3.379   8.750  1.8385 -1.8718  0.8875
 8439SOL    HW236780   2.637   3.514   8.807  1.5014  2.2182 -1.0755
 8440SOL     OW36781   1.040   3.425   2.063  0.4562  0.4502  0.7512
 8440SOL    HW136782   1.006   3.368   1.994 -0.1808  0.1361  1.3340
 8440SOL    HW236783   0.980   3.415   2.136  0.3218 -1.5487  0.3701
 8441SOL     OW36784   2.999   3.067   7.146  0.4585  0.2285 -0.1615
 8441SOL    HW136785   3.020   3.022   7.228  1.8644  2.0290  0.4812
 8441SOL    HW236786   2.943   3.003   7.102 -0.6220 -1.1123  3.1882
 8442SOL     OW36787   4.098   2.040   9.001  0.0420  0.3925  0.4980
 8442SOL    HW136788   4.154   2.118   9.005 -0.3568  0.6506  0.9896
 8442SOL    HW236789   4.010   2.069   8.978 -0.8654 -0.6396  2.6764
 8443SOL     OW36790   0.842   2.808   2.789  0.0761 -0.7603  0.0853
 8443SOL    HW136791   0.871   2.729   2.743 -1.7754 -1.5345  0.2928
 8443SOL    HW236792   0.917   2.837   2.841  1.9194 -0.1985 -2.8325
 8444SOL     OW36793   3.222   2.940   2.464  0.2422 -0.2351  0.1566
 8444SOL    HW136794   3.242   3.015   2.409 -1.1753  1.0736  1.4253
 8444SOL    HW236795   3.299   2.883   2.464 -0.8711 -1.7589 -0.5526
 8445SOL     OW36796   2.038   2.546  10.096 -0.2095 -0.1332 -0.4522
 8445SOL    HW136797   2.093   2.579  10.026 -1.7997  0.8109 -1.2513
 8445SOL    HW236798   2.102   2.521  10.163 -0.4645  0.7013  0.1003
 8446SOL     OW36799   0.292   4.050   5.688 -0.3136  0.4200  0.0587
 8446SOL    HW136800   0.302   4.048   5.593 -2.4671 -0.1785 -0.1535
 8446SOL    HW236801   0.302   4.143   5.710  2.1845 -0.0732  1.0958
 8447SOL     OW36802   0.719   4.607   3.391 -0.2934  0.1259  0.3139
 8447SOL    HW136803   0.623   4.603   3.391 -0.3105  0.3368 -1.0861
 8447SOL    HW236804   0.741   4.699   3.405  0.6744  0.0386 -0.6569
 8448SOL     OW36805   3.626   0.812  11.949  0.0722 -1.2558 -0.2334
 8448SOL    HW136806   3.540   0.796  11.989 -0.3910 -0.6500 -0.9901
 8448SOL    HW236807   3.636   0.724  11.913  1.5509 -1.1447 -0.0660
 8449SOL     OW36808   0.839   0.721   5.195  0.3998  0.0060  0.6299
 8449SOL    HW136809   0.863   0.723   5.288  0.2728 -1.6104  0.7090
 8449SOL    HW236810   0.916   0.738   5.141 -1.4655 -0.6126 -2.2137
 8450SOL     OW36811   3.842   0.072   7.990 -0.1211  0.0611  0.2178
 8450SOL    HW136812   3.899   0.025   8.051  0.2985 -1.1474 -1.0959
 8450SOL    HW236813   3.908   0.093   7.923  1.2752 -2.2144  0.8934
 8451SOL     OW36814   3.775   2.596   4.007  0.3641 -0.2701  0.0718
 8451SOL    HW136815   3.849   2.537   4.003  1.0485  0.5423  0.9399
 8451SOL    HW236816   3.716   2.537   3.960  0.1056  0.7733 -0.9361
 8452SOL     OW36817   0.280   0.306   2.732  0.1689 -0.8354  0.1953
 8452SOL    HW136818   0.348   0.362   2.695  1.5811  0.4173  4.6776
 8452SOL    HW236819   0.207   0.317   2.671  0.2077  2.1062  0.6830
 8453SOL     OW36820   1.512   2.293   1.175 -0.1272 -0.2217  0.5047
 8453SOL    HW136821   1.530   2.227   1.242  0.9787 -0.1503  0.2697
 8453SOL    HW236822   1.586   2.347   1.201  0.2158  0.2686 -1.5378
 8454SOL     OW36823   3.517   1.582   5.695 -0.2782 -0.3475  0.1120
 8454SOL    HW136824   3.585   1.631   5.647 -0.8841 -0.9684 -1.3921
 8454SOL    HW236825   3.536   1.493   5.667 -0.6047  0.3775 -2.4447
 8455SOL     OW36826   0.953   1.602  15.568 -0.3268  0.0198  0.3735
 8455SOL    HW136827   0.952   1.694  15.594  0.6812  0.4187 -1.0127
 8455SOL    HW236828   0.861   1.596  15.543 -0.1880  1.3571 -0.5027
 8456SOL     OW36829   4.576   2.376  11.337  0.3521 -0.2690  0.0391
 8456SOL    HW136830   4.499   2.342  11.382 -0.4587  1.7360  0.1515
 8456SOL    HW236831   4.645   2.327  11.382  2.4715  2.8691  0.1594
 8457SOL     OW36832   1.394   3.237   8.406  0.1687  0.0962 -0.1560
 8457SOL    HW136833   1.415   3.327   8.382 -0.0732 -0.0400 -0.8845
 8457SOL    HW236834   1.458   3.211   8.472  0.0097  3.2590  1.2516
 8458SOL     OW36835   3.746   4.599   6.741 -0.0675 -0.4156  0.1256
 8458SOL    HW136836   3.676   4.554   6.786 -0.5450  0.8459  0.6459
 8458SOL    HW236837   3.718   4.688   6.762 -3.7284 -1.0364 -2.2136
 8459SOL     OW36838   3.307   3.279   3.058 -0.1746  0.6047 -0.3782
 8459SOL    HW136839   3.365   3.223   3.109  0.3737  1.0139 -0.5589
 8459SOL    HW236840   3.334   3.369   3.075 -2.4963  1.6307 -2.1463
 8460SOL     OW36841   4.677   2.908   4.643  0.2628 -0.8957  0.0986
 8460SOL    HW136842   4.600   2.925   4.588  0.4046 -1.9009 -0.4162
 8460SOL    HW236843   0.008   2.847   4.593 -0.0611 -1.9114  0.9781
 8461SOL     OW36844   4.622   1.263   6.802 -0.5880  0.3706  0.0053
 8461SOL    HW136845   4.712   1.240   6.778 -1.8832 -1.9863 -2.6291
 8461SOL    HW236846   4.591   1.314   6.728  1.1277  2.3096  0.6106
 8462SOL     OW36847   2.952   0.462  17.553  0.0958 -0.3059 -0.1855
 8462SOL    HW136848   3.033   0.436  17.598 -1.3057 -0.6379  2.1384
 8462SOL    HW236849   2.888   0.434  17.619  0.3849 -0.4961  0.0125
 8463SOL     OW36850   2.214   0.783   7.382 -0.0020  0.1000 -0.0272
 8463SOL    HW136851   2.164   0.854   7.422  0.3037 -1.0356  2.3663
 8463SOL    HW236852   2.155   0.710   7.403 -0.3351  0.7733  1.3573
 8464SOL     OW36853   0.510   1.697   5.835  0.8201 -0.5046  0.1839
 8464SOL    HW136854   0.538   1.765   5.775 -0.4694 -1.0539 -1.0472
 8464SOL    HW236855   0.579   1.688   5.901  0.4851 -1.3926  0.4174
 8465SOL     OW36856   3.401   4.706   7.919 -0.5313  0.0491  0.4697
 8465SOL    HW136857   3.305   4.713   7.915 -0.5175 -0.3030 -0.4641
 8465SOL    HW236858   3.414   4.625   7.968  0.2827  0.1776  0.4592
 8466SOL     OW36859   2.557   4.179   0.063 -0.4495  0.1823 -0.0492
 8466SOL    HW136860   2.624   4.122   0.026 -2.4504 -1.2638 -1.4445
 8466SOL    HW236861   2.595   4.194   0.149 -2.5060 -2.5272  1.3168
 8467SOL     OW36862   2.600   4.361   7.253 -0.5646  0.2373  0.6704
 8467SOL    HW136863   2.547   4.440   7.255 -0.9750  0.1012 -3.2369
 8467SOL    HW236864   2.683   4.402   7.277 -0.2749 -0.2218  0.4632
 8468SOL     OW36865   1.232   4.302   9.700 -0.1402  0.0179 -0.6233
 8468SOL    HW136866   1.319   4.341   9.709  0.1396 -0.1482 -2.4844
 8468SOL    HW236867   1.179   4.378   9.724 -0.5367 -0.3760 -0.2444
 8469SOL     OW36868   0.089   2.950   0.818 -0.2650  0.5252 -0.0966
 8469SOL    HW136869   0.063   2.950   0.910  0.0657 -1.3630 -0.0077
 8469SOL    HW236870   0.158   2.884   0.822 -0.2427  0.4781 -1.2294
 8470SOL     OW36871   3.349   1.305   3.346  0.1259  0.1418 -0.0515
 8470SOL    HW136872   3.427   1.327   3.396 -0.7546  1.4374  0.7459
 8470SOL    HW236873   3.281   1.343   3.402 -1.1360 -2.9153  0.5198
 8471SOL     OW36874   3.760   3.737   5.545  0.2741  0.3826 -0.0732
 8471SOL    HW136875   3.750   3.664   5.484 -1.9523  0.5659  0.0670
 8471SOL    HW236876   3.672   3.774   5.552  0.3768  0.9262 -1.5641
 8472SOL     OW36877   1.759   3.287  11.370 -0.0207 -0.0351 -0.1186
 8472SOL    HW136878   1.707   3.208  11.386 -0.2601  0.3377  0.9443
 8472SOL    HW236879   1.847   3.259  11.347  0.5759  1.1040  0.7770
 8473SOL     OW36880   1.673   2.966   3.357  0.0368  0.0215 -0.2754
 8473SOL    HW136881   1.612   2.923   3.416  0.0571  0.9110  0.4112
 8473SOL    HW236882   1.743   2.905   3.335 -0.4657 -0.4580 -0.5364
 8474SOL     OW36883   3.895   2.450   3.260  0.3423  0.6113  0.9274
 8474SOL    HW136884   3.912   2.544   3.268  1.3355  0.1283  4.6493
 8474SOL    HW236885   3.934   2.436   3.174 -1.9298  0.4675 -0.0871
 8475SOL     OW36886   2.566   1.062   0.593  0.2301 -0.1103  0.2085
 8475SOL    HW136887   2.581   1.004   0.667  0.5563 -0.2096  0.0654
 8475SOL    HW236888   2.657   1.084   0.571  0.1648  0.2937  0.3491
 8476SOL     OW36889   2.184   0.656   5.027  0.1665 -0.7277 -0.0680
 8476SOL    HW136890   2.191   0.725   5.093  1.2969 -1.7411  0.8926
 8476SOL    HW236891   2.128   0.593   5.073 -0.7848 -0.6877 -1.1816
 8477SOL     OW36892   0.281   3.682   9.970 -0.1147  0.3503  1.6635
 8477SOL    HW136893   0.307   3.590   9.969 -0.2353  0.3305 -0.0421
 8477SOL    HW236894   0.195   3.672  10.013 -0.8264  3.8448  1.0803
 8478SOL     OW36895   4.345   4.485  14.065 -0.3822 -0.3704 -0.3025
 8478SOL    HW136896   4.374   4.456  14.152 -1.5002  0.1124  0.2372
 8478SOL    HW236897   4.252   4.505  14.073 -0.3721  0.0316 -1.2114
 8479SOL     OW36898   0.841   3.121  15.635  0.4888  0.1579 -0.3729
 8479SOL    HW136899   0.913   3.160  15.684  1.0074  0.6102 -1.4972
 8479SOL    HW236900   0.853   3.028  15.655 -1.0209  0.2413  0.8870
 8480SOL     OW36901   0.231   3.632   8.861  0.6521  0.2329 -0.6737
 8480SOL    HW136902   0.274   3.629   8.776 -2.1193 -2.0315 -1.9965
 8480SOL    HW236903   0.293   3.683   8.913  0.9252 -0.8701  0.0670
 8481SOL     OW36904   3.640   3.941   8.908 -0.5487 -0.1563  0.1090
 8481SOL    HW136905   3.655   4.036   8.905 -1.8257  0.0035 -0.9278
 8481SOL    HW236906   3.600   3.929   8.822  3.4923 -0.7581 -1.6735
 8482SOL     OW36907   1.782   0.152   4.784  0.3206 -0.1718  0.4152
 8482SOL    HW136908   1.736   0.191   4.859  0.2631  0.8399 -0.1480
 8482SOL    HW236909   1.713   0.142   4.719  0.5343  0.3539  0.1087
 8483SOL     OW36910   0.857   1.332  12.125 -0.0383  0.4165 -0.3097
 8483SOL    HW136911   0.877   1.253  12.077  0.8282 -1.6691  3.4542
 8483SOL    HW236912   0.783   1.301  12.177  0.9781  0.0706  0.9364
 8484SOL     OW36913   4.090   2.083   9.674 -0.0355 -0.3864 -0.2571
 8484SOL    HW136914   4.106   2.162   9.726 -1.5115  0.1868 -0.6638
 8484SOL    HW236915   4.118   2.018   9.738  0.7274  1.4273  1.2444
 8485SOL     OW36916   0.495   2.409   0.541 -0.1079  0.5061  0.5235
 8485SOL    HW136917   0.541   2.465   0.478 -0.6630  0.4570  0.0766
 8485SOL    HW236918   0.543   2.422   0.623 -0.1617 -1.0789  0.8145
 8486SOL     OW36919   4.538   2.745   6.189 -0.0067  0.1780  0.1598
 8486SOL    HW136920   4.510   2.833   6.213  0.5986  0.4956 -0.2956
 8486SOL    HW236921   4.488   2.722   6.111  0.4303  0.6455 -0.2603
 8487SOL     OW36922   3.147   0.021   3.199 -0.1437  0.2185 -0.2792
 8487SOL    HW136923   3.106   0.005   3.284  0.8051 -1.5742 -0.1670
 8487SOL    HW236924   3.238   0.026   3.227 -0.2854 -2.7375  0.6682
 8488SOL     OW36925   4.130   0.322  13.808  0.3831 -0.2778 -0.0992
 8488SOL    HW136926   4.220   0.302  13.781  1.0531  1.1618  1.0573
 8488SOL    HW236927   4.091   0.297  13.724  1.1930  1.2721 -0.9334
 8489SOL     OW36928   3.575   3.751   2.369  0.3292  0.2513 -0.0185
 8489SOL    HW136929   3.578   3.655   2.369  1.5449  0.2903 -1.0856
 8489SOL    HW236930   3.538   3.766   2.282 -0.9222 -1.2737  0.2570
 8490SOL     OW36931   0.536   4.174   8.563  0.0544  1.2165  0.1103
 8490SOL    HW136932   0.582   4.208   8.486 -0.6836 -0.0821 -0.9092
 8490SOL    HW236933   0.455   4.221   8.545 -0.9780 -1.2011 -1.4406
 8491SOL     OW36934   0.448   3.340   3.576  0.7597 -0.6170  0.1076
 8491SOL    HW136935   0.486   3.271   3.522  2.0952 -0.3637  0.7056
 8491SOL    HW236936   0.485   3.419   3.537  0.1623 -0.0924  0.6025
 8492SOL     OW36937   1.981   4.625   8.097 -0.2904 -0.0803 -0.1291
 8492SOL    HW136938   2.004   4.674   8.176  0.0190 -0.9485  0.3213
 8492SOL    HW236939   2.003   4.697   8.038  1.4492 -0.3125  0.2273
 8493SOL     OW36940   3.866   2.289  17.200 -0.0619  0.0903 -0.7757
 8493SOL    HW136941   3.887   2.213  17.255  1.2570  0.9244 -0.1324
 8493SOL    HW236942   3.886   2.360  17.261  0.8177  0.8226 -1.9321
 8494SOL     OW36943   3.544   0.124   0.782 -0.2210 -0.1105 -0.2374
 8494SOL    HW136944   3.613   0.182   0.814 -0.3316 -0.2692  0.2982
 8494SOL    HW236945   3.557   0.042   0.831  0.2466 -0.1716 -0.4672
 8495SOL     OW36946   0.133   4.155   6.992 -0.1204  0.0749 -0.4169
 8495SOL    HW136947   0.089   4.170   6.908  0.0108 -1.7971 -0.8318
 8495SOL    HW236948   0.225   4.147   6.970  0.4661  0.1959  1.9564
 8496SOL     OW36949   0.257   3.325   7.539 -0.0767  0.4468  0.3751
 8496SOL    HW136950   0.307   3.243   7.539 -1.3766 -0.3340 -1.7158
 8496SOL    HW236951   0.241   3.341   7.446  0.3833  0.1473  0.2444
 8497SOL     OW36952   1.113   1.438  12.996 -0.7169  0.0493 -0.3116
 8497SOL    HW136953   1.116   1.461  12.904 -1.0351  0.6432 -0.1712
 8497SOL    HW236954   1.096   1.522  13.039 -0.8329 -0.8119  1.3375
 8498SOL     OW36955   2.712   1.983   2.211 -0.1952  0.0185  0.3746
 8498SOL    HW136956   2.620   1.963   2.192  0.4512 -1.6423 -0.9258
 8498SOL    HW236957   2.719   2.071   2.174 -0.5935  0.7779  2.0849
 8499SOL     OW36958   4.259   2.943   5.890 -0.1614 -0.2793  0.2059
 8499SOL    HW136959   4.213   2.995   5.823 -1.8548 -2.3790 -0.2568
 8499SOL    HW236960   4.224   2.985   5.969 -0.2273 -2.2815  1.2528
 8500SOL     OW36961   0.332   4.630  16.410  0.0824 -0.1083 -0.1136
 8500SOL    HW136962   0.239   4.616  16.425 -0.3335  1.2240 -1.4345
 8500SOL    HW236963   0.351   4.709  16.460  1.3875  1.0787 -2.4465
 8501SOL     OW36964   2.914   2.499  13.119 -0.0434 -0.5357  0.2935
 8501SOL    HW136965   2.965   2.573  13.085 -2.6754  0.6020 -1.1334
 8501SOL    HW236966   2.847   2.488  13.052  0.9515  1.4102 -1.0512
 8502SOL     OW36967   3.247   2.464   8.414 -0.2869 -0.4780 -0.2270
 8502SOL    HW136968   3.331   2.493   8.449 -0.2837 -1.3079  0.4447
 8502SOL    HW236969   3.275   2.498   8.329 -2.5418  1.6068 -0.1452
 8503SOL     OW36970   3.546   4.403   6.143  0.4455  0.5685 -0.0504
 8503SOL    HW136971   3.516   4.480   6.095  1.3436  0.9508  0.0039
 8503SOL    HW236972   3.578   4.443   6.223  0.4647 -0.1522  0.3024
 8504SOL     OW36973   3.079   1.038   5.771  1.1526  0.2250  0.0646
 8504SOL    HW136974   3.077   0.954   5.726 -3.0911  1.0355 -1.2047
 8504SOL    HW236975   3.132   1.087   5.709  0.9443  1.6345  0.9976
 8505SOL     OW36976   4.163   2.936   8.782  0.1650  0.4299  0.3681
 8505SOL    HW136977   4.068   2.936   8.773  0.0966  1.9937  1.0065
 8505SOL    HW236978   4.199   2.917   8.695 -0.5875 -1.6722  0.5246
 8506SOL     OW36979   3.573   4.444   2.852  0.0025  0.7218  0.1291
 8506SOL    HW136980   3.622   4.363   2.843  1.3122  1.4801  0.5570
 8506SOL    HW236981   3.511   4.420   2.921 -0.4865 -0.9345 -0.8691
 8507SOL     OW36982   0.144   3.034  10.857  0.9321 -0.3133  0.4278
 8507SOL    HW136983   0.239   3.029  10.853  0.9771  0.1299  0.8654
 8507SOL    HW236984   0.111   2.945  10.863 -0.1974 -0.1558 -3.8154
 8508SOL     OW36985   0.888   3.386   6.766  0.5028  0.6315  0.7009
 8508SOL    HW136986   0.855   3.439   6.838  0.8315 -0.8129  1.9040
 8508SOL    HW236987   0.931   3.455   6.714  2.2401  0.4767  1.9308
 8509SOL     OW36988   0.047   1.673   6.924 -0.4087 -0.3849 -0.0607
 8509SOL    HW136989   4.688   1.655   6.877 -0.6823  1.5689 -0.3339
 8509SOL    HW236990   0.018   1.657   7.014 -1.2876  3.0931  0.2905
 8510SOL     OW36991   1.265   3.422   3.532  0.8707 -0.3363  0.2053
 8510SOL    HW136992   1.347   3.395   3.573  1.6321  1.6467  0.0071
 8510SOL    HW236993   1.291   3.397   3.443  4.2563  0.6427  0.9276
 8511SOL     OW36994   0.633   2.991   3.001  0.0350  0.8589  0.1605
 8511SOL    HW136995   0.697   2.936   3.046 -1.9234  1.1774  3.3372
 8511SOL    HW236996   0.686   3.070   2.985  2.5844 -0.2257  3.1481
 8512SOL     OW36997   0.198   2.415   9.392  0.2171 -0.4730 -0.1115
 8512SOL    HW136998   0.200   2.480   9.322 -0.2294  0.1539  0.4486
 8512SOL    HW236999   0.280   2.367   9.381  0.4733  0.0915 -0.6561
 8513SOL     OW37000   0.062   4.537   4.169 -0.5087  0.0539 -0.0072
 8513SOL    HW137001   0.099   4.472   4.110  1.0260 -0.0793  1.0961
 8513SOL    HW237002   0.127   4.606   4.162 -0.5027  0.0019 -0.4313
 8514SOL     OW37003   0.522   3.098   6.235 -0.1505 -1.0289 -0.1311
 8514SOL    HW137004   0.494   3.038   6.166 -1.2724 -0.4443 -0.1995
 8514SOL    HW237005   0.464   3.174   6.229 -0.2828 -0.9883  1.5796
 8515SOL     OW37006   0.337   2.214   1.982 -0.0474 -0.5276 -0.2298
 8515SOL    HW137007   0.363   2.130   2.021 -1.4171  0.0782  1.9623
 8515SOL    HW237008   0.416   2.258   1.950 -0.2228 -1.0660 -1.4175
 8516SOL     OW37009   3.145   1.440  17.347 -1.2376 -0.1628  0.3753
 8516SOL    HW137010   3.126   1.351  17.317 -0.6702 -0.7561  1.7522
 8516SOL    HW237011   3.233   1.450  17.310 -1.9207 -0.1025 -1.2303
 8517SOL     OW37012   1.146   0.377   2.868  0.1327  0.0851  1.1312
 8517SOL    HW137013   1.162   0.324   2.790 -2.2849  0.4490  0.3816
 8517SOL    HW237014   1.060   0.341   2.888  0.8816 -1.3670  1.7690
 8518SOL     OW37015   0.556   1.081   1.309  0.0382 -0.3601 -0.6108
 8518SOL    HW137016   0.556   1.168   1.348 -1.2154 -0.9147  0.6476
 8518SOL    HW237017   0.465   1.079   1.279 -0.5156 -1.8509  1.0811
 8519SOL     OW37018   3.436   3.175   6.814  0.3993  0.2154  0.3717
 8519SOL    HW137019   3.455   3.182   6.721 -0.5696  1.5196  0.2647
 8519SOL    HW237020   3.382   3.252   6.832 -1.0976 -1.2403  2.2171
 8520SOL     OW37021   3.064   0.161   4.479  0.2293  0.4110 -0.3352
 8520SOL    HW137022   3.138   0.198   4.527  0.6916  0.8255 -1.3709
 8520SOL    HW237023   3.117   0.119   4.411 -2.7367 -0.9323 -1.8367
 8521SOL     OW37024   4.010   4.716   5.417 -0.2162 -0.1998 -0.0264
 8521SOL    HW137025   4.042   4.640   5.368  0.2768 -0.0676  0.0872
 8521SOL    HW237026   3.936   0.033   5.371 -0.3348  2.2508  2.2429
 8522SOL     OW37027   2.522   0.112   0.297  0.2070 -0.6260  0.0198
 8522SOL    HW137028   2.443   0.112   0.242 -1.2834  0.5438  2.1478
 8522SOL    HW237029   2.540   0.018   0.303 -0.0655 -0.5839  1.4978
 8523SOL     OW37030   2.704   4.506   0.297 -0.2059 -0.3807  0.4830
 8523SOL    HW137031   2.741   4.495   0.210 -0.7507  2.0596 -0.0543
 8523SOL    HW237032   2.683   4.415   0.319  1.5334 -0.6411  1.0450
 8524SOL     OW37033   0.317   4.330   5.734  0.4643 -0.4392  0.0453
 8524SOL    HW137034   0.361   4.412   5.758  0.3205 -0.1201 -0.7835
 8524SOL    HW237035   0.224   4.354   5.742  0.7986  1.1021 -0.6584
 8525SOL     OW37036   0.779   3.733   0.868  0.3294 -0.2937  0.4906
 8525SOL    HW137037   0.868   3.705   0.891  0.8867  0.7719 -0.3802
 8525SOL    HW237038   0.730   3.651   0.854 -0.0390  0.2065 -1.1539
 8526SOL     OW37039   4.101   0.059  11.775 -0.0954 -0.0937  0.0877
 8526SOL    HW137040   4.162   0.026  11.841 -1.4027 -0.3287  1.1768
 8526SOL    HW237041   4.133   0.147  11.753 -0.1839  0.0347  0.4704
 8527SOL     OW37042   0.253   0.730   2.014 -0.0185  0.3193  0.6853
 8527SOL    HW137043   0.181   0.764   2.067  0.6967 -1.4343  2.7812
 8527SOL    HW237044   0.318   0.800   2.020  0.3866  0.1623 -1.6847
 8528SOL     OW37045   3.542   3.948   8.388  0.1954 -0.1240  0.3945
 8528SOL    HW137046   3.472   3.986   8.335  1.0170  0.1159 -0.5235
 8528SOL    HW237047   3.601   3.906   8.325 -1.6342 -0.1074 -1.3054
 8529SOL     OW37048   2.201   1.967   5.672  0.2996 -0.0224 -0.4040
 8529SOL    HW137049   2.110   1.997   5.677  0.4414  0.0817  1.4321
 8529SOL    HW237050   2.199   1.928   5.584  0.7641  0.2532 -0.5380
 8530SOL     OW37051   1.098   0.229   2.642 -0.1227  0.1878 -0.1167
 8530SOL    HW137052   1.018   0.182   2.617  0.0628 -0.1414 -0.0876
 8530SOL    HW237053   1.122   0.279   2.564  0.8273  0.1690  0.1723
 8531SOL     OW37054   3.569   2.945   8.092 -0.0812  0.0357  0.8422
 8531SOL    HW137055   3.613   2.860   8.095 -0.0588 -0.1257 -4.7990
 8531SOL    HW237056   3.608   2.966   8.007 -0.2561 -0.1507  0.7151
 8532SOL     OW37057   3.852   2.343   8.738  0.5576 -0.1930  0.0447
 8532SOL    HW137058   3.942   2.371   8.718 -0.9561  4.3476 -0.2898
 8532SOL    HW237059   3.858   2.263   8.790 -1.7533  0.2668  1.0168
 8533SOL     OW37060   0.448   0.833   0.807  0.4331 -0.2475 -0.1553
 8533SOL    HW137061   0.418   0.748   0.776 -1.7339 -0.7403  3.3048
 8533SOL    HW237062   0.536   0.816   0.842 -0.0444 -1.9890  0.1816
 8534SOL     OW37063   3.865   2.209   3.358 -0.2755  0.0447  0.1498
 8534SOL    HW137064   3.913   2.273   3.306 -0.7534  0.4651  0.2293
 8534SOL    HW237065   3.778   2.227   3.323 -0.7566 -2.7022 -0.0600
 8535SOL     OW37066   1.651   0.240   6.315  0.4606 -0.2138  0.2410
 8535SOL    HW137067   1.688   0.314   6.267  1.4587 -1.8112 -1.4009
 8535SOL    HW237068   1.665   0.273   6.404  0.3224 -0.3210  0.3019
 8536SOL     OW37069   3.502   1.117   6.884  0.0870  0.3354  0.2068
 8536SOL    HW137070   3.476   1.102   6.975  1.0374  1.6057  0.6902
 8536SOL    HW237071   3.451   1.195   6.864 -0.6204  0.4079  2.3311
 8537SOL     OW37072   1.743   4.099   1.171  0.5306  0.0235  0.0696
 8537SOL    HW137073   1.671   4.149   1.210  0.4816  0.1799 -0.2207
 8537SOL    HW237074   1.697   4.016   1.156  0.8842 -0.4026  1.3405
 8538SOL     OW37075   0.240   0.001   5.003 -0.0107  0.0285 -0.1795
 8538SOL    HW137076   0.162   0.041   4.966  1.2613  1.4162 -1.3507
 8538SOL    HW237077   0.285   0.085   5.014 -2.1505  0.8086  2.6083
 8539SOL     OW37078   3.510   2.355  15.897 -0.3058  0.0098  0.1341
 8539SOL    HW137079   3.504   2.387  15.807 -0.9104  0.8248  0.4691
 8539SOL    HW237080   3.588   2.299  15.896  0.1880  0.6471  3.5835
 8540SOL     OW37081   0.968   3.197   7.989 -0.3092  0.2678 -0.1648
 8540SOL    HW137082   0.960   3.285   8.026 -0.9550  0.0859  0.1196
 8540SOL    HW237083   1.025   3.212   7.914  0.1422 -0.6733 -0.0219
 8541SOL     OW37084   4.238   0.739   3.765 -0.1195 -0.4446 -0.3484
 8541SOL    HW137085   4.198   0.717   3.681 -0.6066 -0.5684 -0.0880
 8541SOL    HW237086   4.164   0.730   3.826  0.1984 -0.6344  0.0078
 8542SOL     OW37087   3.407   2.357  15.176  0.1494 -0.0648 -0.2862
 8542SOL    HW137088   3.335   2.303  15.144  0.8479 -1.2811  0.1835
 8542SOL    HW237089   3.482   2.336  15.120  0.8996 -0.9984  1.0610
 8543SOL     OW37090   0.765   1.548   3.321 -0.4482 -0.7012  0.1508
 8543SOL    HW137091   0.831   1.616   3.329  0.4752 -1.6577  0.6449
 8543SOL    HW237092   0.777   1.528   3.228 -0.8523  2.9763 -0.6730
 8544SOL     OW37093   4.057   4.600  14.097  0.1095  0.1584 -0.4736
 8544SOL    HW137094   4.032   4.683  14.056 -0.6284 -0.0011 -0.3597
 8544SOL    HW237095   3.986   4.583  14.159 -0.1965 -1.2230 -1.2056
 8545SOL     OW37096   2.475   0.299   2.871 -0.2042  0.1911  0.8098
 8545SOL    HW137097   2.489   0.380   2.822 -1.9251 -0.3926 -0.6604
 8545SOL    HW237098   2.463   0.232   2.803 -0.9148 -0.0981  1.2236
 8546SOL     OW37099   0.504   1.133   7.416 -0.1962  0.3338  0.2304
 8546SOL    HW137100   0.572   1.163   7.356 -0.4208  1.4468  0.5295
 8546SOL    HW237101   0.518   1.200   7.483  0.4497  1.8744 -1.4334
 8547SOL     OW37102   3.908   1.325   3.804  0.2439 -0.3275 -0.5645
 8547SOL    HW137103   3.985   1.363   3.847  0.6013  1.7545 -3.0100
 8547SOL    HW237104   3.897   1.251   3.863  0.2559 -1.4072 -1.9367
 8548SOL     OW37105   2.062   2.966   0.400 -0.5576 -0.8127 -0.1979
 8548SOL    HW137106   2.120   3.039   0.379 -1.5964 -0.3498 -1.3620
 8548SOL    HW237107   2.066   2.903   0.328 -0.4579 -0.3559 -0.5859
 8549SOL     OW37108   3.340   0.063  11.929  0.7081 -0.4180 -0.0506
 8549SOL    HW137109   3.293   4.720  11.980  1.3115  0.8553  2.1032
 8549SOL    HW237110   3.431   0.049  11.956  0.2148  0.3159  1.9596
 8550SOL     OW37111   3.979   1.279   3.158  0.3411  0.2657  0.9867
 8550SOL    HW137112   4.052   1.253   3.214  0.4341  0.5142  0.9777
 8550SOL    HW237113   4.021   1.306   3.076 -2.9727 -1.8869 -1.4500
 8551SOL     OW37114   2.625   2.246   6.283  0.3896  0.1649  0.1877
 8551SOL    HW137115   2.542   2.241   6.236  0.9426 -0.3906 -0.7206
 8551SOL    HW237116   2.614   2.310   6.354  0.7976  0.7322 -0.2713
 8552SOL     OW37117   0.828   3.782  10.100  0.3367  0.4184 -0.4668
 8552SOL    HW137118   0.861   3.711  10.045 -0.2714 -1.4064  1.5186
 8552SOL    HW237119   0.859   3.859  10.052 -3.9512  1.7162 -1.0974
 8553SOL     OW37120   1.895   3.238   7.833  0.4982 -0.5168 -0.1400
 8553SOL    HW137121   1.951   3.247   7.755 -1.5309  1.5114 -1.3310
 8553SOL    HW237122   1.954   3.178   7.879  0.6677 -1.9057 -2.1502
 8554SOL     OW37123   1.939   1.359  11.208  0.4167  0.6446 -0.3874
 8554SOL    HW137124   1.967   1.445  11.177 -2.2347  1.4340 -0.6532
 8554SOL    HW237125   1.844   1.372  11.212 -0.0864 -3.5398  1.3703
 8555SOL     OW37126   3.399   2.436   2.479 -0.2729  0.5800 -0.8822
 8555SOL    HW137127   3.335   2.451   2.410 -0.1599  0.6235 -0.9791
 8555SOL    HW237128   3.480   2.415   2.432  0.3606 -0.5359  0.6789
 8556SOL     OW37129   1.806   2.364   7.323  0.9365 -0.6579 -0.3963
 8556SOL    HW137130   1.827   2.452   7.356 -1.5350 -0.1332 -0.2082
 8556SOL    HW237131   1.764   2.390   7.241  1.6092  4.1119  0.7529
 8557SOL     OW37132   3.298   2.190   3.510  0.3650 -0.1796 -0.2967
 8557SOL    HW137133   3.390   2.174   3.533  0.5501 -1.8284 -2.1326
 8557SOL    HW237134   3.264   2.221   3.593  0.2600  1.5101 -0.9784
 8558SOL     OW37135   1.569   4.518  12.566  0.1628  0.2419 -0.3446
 8558SOL    HW137136   1.492   4.563  12.600 -0.6594 -1.5674  0.1800
 8558SOL    HW237137   1.606   4.503  12.653  1.6133  1.3251 -0.7829
 8559SOL     OW37138   2.786   4.177  15.165 -0.0509 -0.2426  0.4161
 8559SOL    HW137139   2.778   4.123  15.244  2.1031 -1.0498  0.0866
 8559SOL    HW237140   2.749   4.259  15.198  2.3359  0.3893  1.5642
 8560SOL     OW37141   3.640   2.971   9.274  0.2956  0.4622 -0.0529
 8560SOL    HW137142   3.622   3.044   9.215  3.3027  1.7138  0.5917
 8560SOL    HW237143   3.661   2.902   9.211  0.4479 -2.0682  2.7894
 8561SOL     OW37144   0.531   0.970   8.629  0.0117  0.0214  0.0472
 8561SOL    HW137145   0.489   1.052   8.604  1.7436 -0.0809 -3.1711
 8561SOL    HW237146   0.453   0.919   8.650  0.7339 -0.2218  2.1491
 8562SOL     OW37147   0.623   3.002   4.057  0.0771  0.4138 -0.2313
 8562SOL    HW137148   0.549   3.040   4.104  0.9516  1.1390  0.5343
 8562SOL    HW237149   0.601   3.001   3.964  1.4621  0.7136 -0.5486
 8563SOL     OW37150   4.481   1.184   2.426  0.3670 -0.4294  0.2470
 8563SOL    HW137151   4.498   1.254   2.489  0.4593 -1.5426  1.4479
 8563SOL    HW237152   4.428   1.123   2.478  1.1240 -1.9547 -0.7893
 8564SOL     OW37153   0.793   0.474  12.295  1.0043  0.2414 -0.1717
 8564SOL    HW137154   0.843   0.550  12.324 -0.3893  0.9097  0.5024
 8564SOL    HW237155   0.807   0.472  12.201  0.3135  1.8904 -0.3048
 8565SOL     OW37156   3.870   2.733   3.243  0.4748  0.0407 -0.0445
 8565SOL    HW137157   3.790   2.777   3.215 -0.3461 -0.2371  1.8731
 8565SOL    HW237158   3.937   2.791   3.206  0.5420  1.3255  2.1515
 8566SOL     OW37159   3.908   2.466   6.984 -0.0214 -0.1711  0.2555
 8566SOL    HW137160   3.868   2.542   7.025 -0.9134 -0.7214  0.4155
 8566SOL    HW237161   3.899   2.493   6.893  2.8269 -1.3098 -0.3912
 8567SOL     OW37162   4.300   3.359  13.926  0.1727 -0.6931 -0.2648
 8567SOL    HW137163   4.303   3.281  13.981  3.3779 -0.0646  0.4385
 8567SOL    HW237164   4.374   3.411  13.955 -0.5082 -1.1759  2.2774
 8568SOL     OW37165   0.762   3.512   4.340 -0.2606 -0.5144  0.2339
 8568SOL    HW137166   0.776   3.443   4.276 -0.9954 -1.6962  1.3454
 8568SOL    HW237167   0.836   3.484   4.394  0.6910  1.1223 -0.2150
 8569SOL     OW37168   2.897   2.593   1.960  0.1534  0.0927  0.5103
 8569SOL    HW137169   2.911   2.598   2.055  4.3168 -0.6336 -0.0679
 8569SOL    HW237170   2.912   2.499   1.950  1.3337  0.3566 -0.1891
 8570SOL     OW37171   3.758   1.306   6.269  0.2121  0.1504  0.2070
 8570SOL    HW137172   3.851   1.310   6.292  0.6772 -0.5402 -1.6296
 8570SOL    HW237173   3.721   1.370   6.330  0.2025  0.8994 -0.5834
 8571SOL     OW37174   4.161   4.302   2.291 -0.1872  0.2621  0.4276
 8571SOL    HW137175   4.098   4.286   2.361  0.5597  0.2543  1.0909
 8571SOL    HW237176   4.104   4.351   2.232 -2.5575 -0.8723  1.7796
 8572SOL     OW37177   3.486   2.582   7.122 -1.0024  0.7458 -0.7101
 8572SOL    HW137178   3.537   2.503   7.102 -1.5854  0.0971  0.3317
 8572SOL    HW237179   3.434   2.583   7.042 -0.9618  2.3584 -0.6996
 8573SOL     OW37180   3.183   0.791  14.736 -0.0135 -0.2239 -0.4003
 8573SOL    HW137181   3.106   0.735  14.727 -1.2837  1.2612  1.2103
 8573SOL    HW237182   3.184   0.816  14.828  0.0760 -0.7854 -0.2477
 8574SOL     OW37183   1.040   2.251   7.822 -0.2536 -0.0064  0.3510
 8574SOL    HW137184   0.994   2.171   7.847 -1.3005  0.6837  0.6290
 8574SOL    HW237185   1.067   2.278   7.910 -2.9145 -1.9515  1.7587
 8575SOL     OW37186   2.733   4.370   4.080  0.2360 -0.0312  0.2925
 8575SOL    HW137187   2.699   4.455   4.107  0.0472  0.1782 -0.6225
 8575SOL    HW237188   2.655   4.315   4.085 -0.0874  0.5852  2.2695
 8576SOL     OW37189   3.769   4.151   4.349 -0.2407 -0.4395  0.2450
 8576SOL    HW137190   3.785   4.238   4.312  1.3877 -0.5526  0.7088
 8576SOL    HW237191   3.808   4.096   4.281 -0.7535  0.9815 -1.1954
 8577SOL     OW37192   1.738   3.700  10.437  0.0328  0.4666  0.0334
 8577SOL    HW137193   1.828   3.704  10.470  0.1976 -0.1725 -0.3473
 8577SOL    HW237194   1.737   3.774  10.375  0.1925 -0.3971 -0.9950
 8578SOL     OW37195   2.104   0.532  10.350  0.2392 -0.2557 -0.9330
 8578SOL    HW137196   2.088   0.608  10.295 -0.2112  0.4805  0.2096
 8578SOL    HW237197   2.082   0.567  10.436  0.7207 -0.8907 -0.5478
 8579SOL     OW37198   2.921   1.646  13.835 -0.4254 -0.2068  0.9318
 8579SOL    HW137199   2.985   1.681  13.897  0.4787  2.4158 -1.4789
 8579SOL    HW237200   2.858   1.605  13.895 -0.9805 -0.2406  0.3288
 8580SOL     OW37201   0.642   3.845   3.567  0.0573 -0.4991 -0.3110
 8580SOL    HW137202   0.691   3.898   3.504 -0.3006 -1.6446 -1.5567
 8580SOL    HW237203   0.677   3.866   3.653  1.9056  2.0808 -1.6851
 8581SOL     OW37204   0.163   1.912   6.938  0.2231 -0.4624  0.0909
 8581SOL    HW137205   0.124   1.827   6.917 -1.1042  0.3573 -0.8298
 8581SOL    HW237206   0.104   1.952   7.001  1.3932  2.2562 -0.5563
 8582SOL     OW37207   1.067   2.135   5.009 -0.3174 -0.5761  0.1951
 8582SOL    HW137208   1.114   2.059   5.042  0.7065  1.1274  2.6461
 8582SOL    HW237209   1.091   2.199   5.075 -0.6128 -0.7586  0.4808
 8583SOL     OW37210   1.633   3.254   6.082  0.2684 -0.0900 -0.1951
 8583SOL    HW137211   1.704   3.190   6.070  1.3186  1.2224 -1.0705
 8583SOL    HW237212   1.614   3.279   5.991 -1.4176 -0.6775  0.0003
 8584SOL     OW37213   0.331   1.293   9.226 -0.2197  0.1750 -0.6512
 8584SOL    HW137214   0.406   1.233   9.225 -0.3453 -0.0087  0.7698
 8584SOL    HW237215   0.268   1.248   9.170 -0.6314 -0.6691  0.5061
 8585SOL     OW37216   1.135   4.000   2.425  0.0181 -0.5082 -0.5682
 8585SOL    HW137217   1.091   4.001   2.510 -0.1038  2.4195 -0.6775
 8585SOL    HW237218   1.069   4.007   2.357  1.1793 -0.1733 -1.6600
 8586SOL     OW37219   4.533   0.699  12.451  0.4367  0.3320 -0.1654
 8586SOL    HW137220   4.455   0.665  12.493  0.2830  0.4286 -0.3732
 8586SOL    HW237221   4.494   0.759  12.387 -1.6995  1.0668  1.8348
 8587SOL     OW37222   1.885   0.695   3.226  0.2648 -0.2714 -0.3671
 8587SOL    HW137223   1.954   0.761   3.224 -0.1995  0.2491  1.5863
 8587SOL    HW237224   1.821   0.723   3.291 -1.1243 -2.6500 -0.7016
 8588SOL     OW37225   0.424   4.483   8.837 -0.4180 -0.2056  0.1679
 8588SOL    HW137226   0.413   4.558   8.779 -2.2041 -0.8017 -0.2477
 8588SOL    HW237227   0.409   4.514   8.926  1.1065  2.4130 -0.4963
 8589SOL     OW37228   1.670   0.844  14.457  0.1200 -0.1096  0.1832
 8589SOL    HW137229   1.622   0.820  14.536 -1.6997 -1.0726 -1.2034
 8589SOL    HW237230   1.672   0.940  14.453 -1.1012 -0.1305 -1.0070
 8590SOL     OW37231   1.479   2.315   7.267 -0.5560 -0.0281 -0.2865
 8590SOL    HW137232   1.474   2.254   7.341 -1.9389 -0.8239 -1.0377
 8590SOL    HW237233   1.542   2.379   7.301 -0.8289  0.0048  0.1580
 8591SOL     OW37234   2.975   4.522   5.656  1.1517 -0.4962 -0.1841
 8591SOL    HW137235   2.925   4.465   5.597  1.1894 -0.1905 -0.5132
 8591SOL    HW237236   3.066   4.513   5.627  1.0172  0.7579 -0.9863
 8592SOL     OW37237   2.015   1.408   5.599  0.3862 -0.2998 -0.3291
 8592SOL    HW137238   1.971   1.338   5.552  0.5840 -0.8312  0.2815
 8592SOL    HW237239   2.102   1.369   5.609  0.1078 -1.1703 -1.3337
 8593SOL     OW37240   3.148   1.608  16.739  0.3573 -0.0875  0.1373
 8593SOL    HW137241   3.150   1.568  16.826 -0.4950  0.5179  0.4356
 8593SOL    HW237242   3.131   1.700  16.761 -2.5773 -1.2435  2.7665
 8594SOL     OW37243   2.908   3.783   5.390  0.4449 -0.0772  1.0026
 8594SOL    HW137244   2.860   3.807   5.469 -0.9784  1.4671 -0.3632
 8594SOL    HW237245   2.909   3.860   5.334 -1.1358 -0.8134 -0.0282
 8595SOL     OW37246   0.833   3.559   5.329 -0.5291 -0.1831 -0.2472
 8595SOL    HW137247   0.742   3.537   5.310 -0.7017  1.2266 -1.0998
 8595SOL    HW237248   0.844   3.643   5.283  0.6066 -0.3595 -0.3014
 8596SOL     OW37249   3.489   2.499  14.904  0.1767 -0.4210  0.2094
 8596SOL    HW137250   3.583   2.485  14.914  0.4170  1.1732  0.1096
 8596SOL    HW237251   3.475   2.523  14.812 -0.7505  2.5479  1.1452
 8597SOL     OW37252   3.578   1.292   5.666  0.3932 -0.5875 -0.7174
 8597SOL    HW137253   3.643   1.238   5.711 -1.3313 -3.2296 -1.3212
 8597SOL    HW237254   3.593   1.269   5.574  0.3732 -1.6014 -0.4682
 8598SOL     OW37255   1.499   3.109   4.516 -0.6342 -0.1071 -0.0932
 8598SOL    HW137256   1.496   3.091   4.423  3.6580  0.2510 -0.3265
 8598SOL    HW237257   1.505   3.019   4.548 -0.1775  0.5148  1.6139
 8599SOL     OW37258   3.367   4.014  11.944 -0.2195  0.5182 -0.0778
 8599SOL    HW137259   3.457   4.015  11.912 -0.0167  0.7044  0.5176
 8599SOL    HW237260   3.352   3.919  11.938 -0.4390  0.6104 -0.9916
 8600SOL     OW37261   3.881   0.703   7.031 -0.0402 -0.1007  0.0521
 8600SOL    HW137262   3.870   0.673   6.941 -0.7047  1.1609 -0.2925
 8600SOL    HW237263   3.922   0.633   7.082 -3.1975 -1.6598  0.4561
 8601SOL     OW37264   0.048   1.056  10.875 -0.2329  0.3220  0.0080
 8601SOL    HW137265   4.686   1.090  10.906  0.1144 -0.2809  1.6501
 8601SOL    HW237266   0.094   1.049  10.959 -1.7207  0.6279  0.8541
 8602SOL     OW37267   1.890   1.458  10.375  0.2123 -0.2381  0.6105
 8602SOL    HW137268   1.885   1.499  10.461  1.2897 -2.1652  1.6038
 8602SOL    HW237269   1.951   1.384  10.382  0.8075  0.1920 -0.0657
 8603SOL     OW37270   3.223   4.029  15.040  0.0853 -0.3792 -0.4826
 8603SOL    HW137271   3.132   4.032  15.010  1.0025  0.0465 -3.1912
 8603SOL    HW237272   3.262   3.974  14.972 -1.8606 -1.2246 -0.8987
 8604SOL     OW37273   3.669   2.758   5.127  0.5063  0.2657 -0.4340
 8604SOL    HW137274   3.643   2.812   5.201 -2.0888 -2.2439  0.5045
 8604SOL    HW237275   3.752   2.726   5.162 -2.5818 -2.1012  4.6601
 8605SOL     OW37276   2.656   1.101   4.972  0.2318 -0.3883 -0.2190
 8605SOL    HW137277   2.641   1.191   4.945 -1.4896 -0.2993  1.0552
 8605SOL    HW237278   2.752   1.098   4.967  0.2905 -0.9589  1.4093
 8606SOL     OW37279   2.186   1.954  17.303 -0.2786 -0.8324 -0.2862
 8606SOL    HW137280   2.267   1.985  17.262 -1.4512  2.0163 -0.4266
 8606SOL    HW237281   2.202   1.961  17.397  1.0136  1.2363 -0.6663
 8607SOL     OW37282   0.342   0.382   8.221 -0.0657 -0.1046  0.3530
 8607SOL    HW137283   0.296   0.466   8.229 -1.8672 -0.9566 -1.0880
 8607SOL    HW237284   0.273   0.323   8.252  0.7558 -0.8769  0.6905
 8608SOL     OW37285   4.323   2.354  12.606 -0.1023 -0.6667  0.0706
 8608SOL    HW137286   4.371   2.427  12.567 -0.6643  0.0741  0.7732
 8608SOL    HW237287   4.351   2.285  12.547  1.9468 -0.0708  0.3478
 8609SOL     OW37288   0.998   2.688   7.617  0.2351 -0.3245  0.2606
 8609SOL    HW137289   0.932   2.756   7.623 -0.4574 -0.8070 -1.7039
 8609SOL    HW237290   0.977   2.639   7.537  0.4271  1.3497 -0.8191
 8610SOL     OW37291   1.841   3.994  13.350 -0.4648  0.5246  0.4216
 8610SOL    HW137292   1.845   4.064  13.284 -0.0620  1.3834  1.3614
 8610SOL    HW237293   1.754   3.954  13.354 -0.4469  0.9019  3.9819
 8611SOL     OW37294   2.871   1.402   7.102 -0.5972  0.0939  0.5484
 8611SOL    HW137295   2.943   1.391   7.164  0.1949  0.3847 -0.3307
 8611SOL    HW237296   2.847   1.314   7.073  2.5533 -0.8391  0.7289
 8612SOL     OW37297   3.930   2.870   8.034 -0.1782 -0.2934  0.4407
 8612SOL    HW137298   3.936   2.785   7.991  0.0867 -0.4121  0.7092
 8612SOL    HW237299   3.947   2.928   7.960  2.3010 -2.6147 -0.8103
 8613SOL     OW37300   4.576   1.372   7.069 -0.1445  0.2706 -0.2137
 8613SOL    HW137301   4.574   1.306   7.139 -0.0267 -0.2846 -0.7310
 8613SOL    HW237302   4.592   1.326   6.986 -1.2042 -2.2121  0.9639
 8614SOL     OW37303   2.026   0.957   8.405  0.3145  0.2253  0.0296
 8614SOL    HW137304   2.078   0.955   8.325  0.3354 -0.1671  0.0548
 8614SOL    HW237305   2.080   1.025   8.447  0.8292 -1.3242  1.8412
 8615SOL     OW37306   3.087   4.031  15.355 -0.5224  0.3502 -0.1858
 8615SOL    HW137307   3.000   3.998  15.335  0.2799 -0.6788 -1.9568
 8615SOL    HW237308   3.086   4.042  15.451  0.5194  1.9264 -0.3492
 8616SOL     OW37309   1.456   1.426   5.600  0.1622  0.4441 -0.7338
 8616SOL    HW137310   1.463   1.336   5.568  1.4415  0.5302 -0.7237
 8616SOL    HW237311   1.519   1.434   5.672 -0.2729 -0.8318 -0.2115
 8617SOL     OW37312   0.311   2.944  13.657 -0.6790  0.3721  0.4520
 8617SOL    HW137313   0.318   2.921  13.750  1.8783  1.9008  0.6299
 8617SOL    HW237314   0.381   3.009  13.655 -0.1014 -0.2725 -0.3549
 8618SOL     OW37315   1.575   1.881   6.199 -0.1282 -0.2236  0.6575
 8618SOL    HW137316   1.618   1.959   6.234 -0.5135  0.6447 -0.8314
 8618SOL    HW237317   1.588   1.885   6.105 -1.2086 -1.4550  0.4499
 8619SOL     OW37318   1.217   3.786   2.057  0.0571  0.4784 -0.0299
 8619SOL    HW137319   1.256   3.867   2.090 -1.5620  1.4226 -0.4394
 8619SOL    HW237320   1.198   3.742   2.140 -0.9311  2.8600  1.0157
 8620SOL     OW37321   3.138   1.246   2.196 -0.1251 -0.7785 -0.4276
 8620SOL    HW137322   3.107   1.159   2.219 -3.0868  1.1140  2.7972
 8620SOL    HW237323   3.129   1.238   2.101 -2.7204 -3.0870  0.0153
 8621SOL     OW37324   1.201   1.738   3.068 -0.1214  0.4054 -0.0015
 8621SOL    HW137325   1.105   1.739   3.062  0.0109 -3.3285 -3.0222
 8621SOL    HW237326   1.211   1.671   3.136  0.5442 -1.2048 -1.6678
 8622SOL     OW37327   3.412   3.368   7.585  0.3085 -0.6008  0.1951
 8622SOL    HW137328   3.499   3.330   7.599  1.1570  1.5160  0.8128
 8622SOL    HW237329   3.405   3.436   7.652 -0.3260  1.2291 -1.7366
 8623SOL     OW37330   2.443   2.483   7.600 -0.2755 -0.9538 -0.4645
 8623SOL    HW137331   2.480   2.571   7.590 -1.3218 -0.6180 -1.4394
 8623SOL    HW237332   2.516   2.426   7.621 -0.3870 -0.9096  0.0335
 8624SOL     OW37333   0.805   0.373   3.963  0.5876  0.4906 -0.3609
 8624SOL    HW137334   0.821   0.400   4.054  0.6768 -1.1875  0.1140
 8624SOL    HW237335   0.721   0.419   3.965 -0.6357 -1.7112 -1.3554
 8625SOL     OW37336   2.001   1.459   7.495  0.2121 -0.5566 -0.7647
 8625SOL    HW137337   2.028   1.520   7.564 -2.2063 -0.4891  0.1062
 8625SOL    HW237338   2.004   1.501   7.409 -0.2036  0.5636 -0.2287
 8626SOL     OW37339   1.612   1.712   5.140 -0.1465  0.3760 -0.1236
 8626SOL    HW137340   1.541   1.770   5.170  1.5348  2.2207  0.3164
 8626SOL    HW237341   1.568   1.674   5.064 -1.1000 -0.4015  0.8248
 8627SOL     OW37342   1.049   1.319   8.834 -0.1543 -0.2179  0.5386
 8627SOL    HW137343   1.043   1.301   8.928  2.1365 -0.6870  0.5820
 8627SOL    HW237344   1.042   1.414   8.837 -2.6777 -0.3988  0.6627
 8628SOL     OW37345   2.354   3.407   3.959  0.0759  0.6292 -0.1477
 8628SOL    HW137346   2.398   3.373   4.036 -1.1048  2.6497  1.4317
 8628SOL    HW237347   2.425   3.404   3.895  0.4936 -0.5139  0.3836
 8629SOL     OW37348   1.707   3.575   3.370  0.9462  1.0727 -0.3955
 8629SOL    HW137349   1.751   3.526   3.439  1.2239  2.8613  0.6986
 8629SOL    HW237350   1.780   3.592   3.310  1.8753  1.1883  0.7781
 8630SOL     OW37351   0.929   3.469   9.213 -0.1424 -0.3806  0.4067
 8630SOL    HW137352   0.955   3.475   9.121 -0.7160  1.6550  0.3777
 8630SOL    HW237353   0.920   3.375   9.231 -1.5443 -0.5370 -1.0284
 8631SOL     OW37354   2.314   3.001  14.666  0.3848  0.5523 -0.4864
 8631SOL    HW137355   2.367   2.923  14.681 -1.6692 -0.5301  1.1035
 8631SOL    HW237356   2.368   3.041  14.597  0.5146 -0.6577 -1.0918
 8632SOL     OW37357   1.800   1.033   3.377 -0.0768 -0.0760 -0.2120
 8632SOL    HW137358   1.762   0.947   3.362  2.1581 -1.2256  0.7464
 8632SOL    HW237359   1.726   1.092   3.361  0.1750  0.3515  0.1900
 8633SOL     OW37360   3.408   2.839   2.656 -0.6576 -0.6858 -0.1098
 8633SOL    HW137361   3.366   2.881   2.732  0.8657  0.8277 -0.1198
 8633SOL    HW237362   3.392   2.748   2.680 -0.9729 -0.8480 -0.9412
 8634SOL     OW37363   2.364   1.303   3.808 -0.6933  0.7751 -0.6474
 8634SOL    HW137364   2.350   1.397   3.823 -0.0590  0.5818  1.1098
 8634SOL    HW237365   2.280   1.276   3.771 -0.6398  0.3981 -0.4889
 8635SOL     OW37366   1.259   4.694   5.133  0.1103 -0.0371 -0.2714
 8635SOL    HW137367   1.310   4.625   5.174 -0.8042 -1.0971 -0.8963
 8635SOL    HW237368   1.176   4.694   5.181 -0.1147  0.1988 -0.6508
 8636SOL     OW37369   0.651   3.768   8.295 -0.2056 -0.0227 -0.3924
 8636SOL    HW137370   0.684   3.715   8.368 -0.4463  1.2853  0.6813
 8636SOL    HW237371   0.724   3.776   8.233  0.8026  2.6959  1.1269
 8637SOL     OW37372   2.789   3.364   3.360 -0.1396  0.2565 -0.2667
 8637SOL    HW137373   2.836   3.302   3.304 -1.0865 -0.2886 -0.4461
 8637SOL    HW237374   2.826   3.447   3.330  0.8601  0.0287  0.3384
 8638SOL     OW37375   4.394   0.965   3.492 -0.1032  0.1883 -0.4590
 8638SOL    HW137376   4.396   0.952   3.397 -3.7091  0.1646 -0.5363
 8638SOL    HW237377   4.465   1.026   3.512  0.0908  0.1035 -0.8798
 8639SOL     OW37378   2.258   3.087  15.019 -0.0847 -0.3008  0.0350
 8639SOL    HW137379   2.171   3.098  15.059 -1.2965  0.1856 -2.6944
 8639SOL    HW237380   2.265   3.162  14.959 -0.1464 -0.5776 -0.3147
 8640SOL     OW37381   4.384   2.127   6.322  0.0567  0.4117  0.3636
 8640SOL    HW137382   4.289   2.132   6.326  0.1275  0.2865  2.1258
 8640SOL    HW237383   4.414   2.197   6.380 -2.1373  1.2004  0.5467
 8641SOL     OW37384   0.669   2.679  13.013  0.2605 -0.3159 -0.3044
 8641SOL    HW137385   0.675   2.750  13.077 -3.4623  0.2598 -0.5996
 8641SOL    HW237386   0.652   2.607  13.073  2.1378 -3.0996 -3.1012
 8642SOL     OW37387   3.962   3.956   7.554  0.0198 -0.1448  0.1566
 8642SOL    HW137388   4.052   3.987   7.567 -0.3469  1.5598 -1.4127
 8642SOL    HW237389   3.903   4.017   7.597  0.7933 -0.1339  1.2047
 8643SOL     OW37390   3.279   1.054  14.549 -0.2167 -0.5271  0.1482
 8643SOL    HW137391   3.316   1.136  14.516  1.0792 -0.7869  0.9334
 8643SOL    HW237392   3.299   1.061  14.642  1.2960 -1.0145 -0.1313
 8644SOL     OW37393   3.456   1.619   9.290  0.2599  0.6822 -0.4561
 8644SOL    HW137394   3.426   1.536   9.255  1.3107 -0.3795  1.1718
 8644SOL    HW237395   3.501   1.653   9.212  0.1072 -0.7009 -1.1360
 8645SOL     OW37396   0.698   1.249   3.187 -0.3253  0.9028 -0.5341
 8645SOL    HW137397   0.736   1.265   3.273 -1.8803 -1.4142  0.5852
 8645SOL    HW237398   0.772   1.254   3.126  0.4110 -0.0584  0.2778
 8646SOL     OW37399   3.188   2.467   6.908 -0.4144  0.5969 -0.2057
 8646SOL    HW137400   3.173   2.422   6.991  2.0471  0.0128 -0.0621
 8646SOL    HW237401   3.204   2.557   6.936 -1.8156 -0.1917  3.0832
 8647SOL     OW37402   1.404   1.581   1.988  0.5442 -0.1489  0.3828
 8647SOL    HW137403   1.419   1.608   1.898  0.9279 -1.0112  0.1894
 8647SOL    HW237404   1.447   1.496   1.998 -1.4891 -0.8513  3.4773
 8648SOL     OW37405   2.716   2.104   8.681  0.0034  0.4112  0.1058
 8648SOL    HW137406   2.774   2.028   8.674  1.2236  1.3255  0.3080
 8648SOL    HW237407   2.629   2.065   8.671  1.3428 -1.7068 -3.4603
 8649SOL     OW37408   3.207   3.156   5.925 -0.2240 -0.3797 -0.2083
 8649SOL    HW137409   3.233   3.172   5.835  0.9529 -0.1718  0.1588
 8649SOL    HW237410   3.151   3.234   5.925  1.3535  0.7789  4.0982
 8650SOL     OW37411   2.160   4.297   8.226 -0.0078  0.4815  0.1738
 8650SOL    HW137412   2.224   4.226   8.240 -0.9159 -0.0946  1.4739
 8650SOL    HW237413   2.104   4.299   8.304  3.6922 -2.0176  2.9309
 8651SOL     OW37414   1.075   0.154   6.792  0.0775  0.6898  0.1283
 8651SOL    HW137415   1.071   0.229   6.731 -0.1438 -1.0351 -1.9824
 8651SOL    HW237416   1.050   0.078   6.740  0.8048  0.2289  0.4624
 8652SOL     OW37417   3.481   3.013  11.880 -0.2939  0.0061 -0.4336
 8652SOL    HW137418   3.519   3.076  11.940 -1.0321 -1.1128  1.2254
 8652SOL    HW237419   3.487   2.933  11.932 -0.8889 -0.8920 -1.7164
 8653SOL     OW37420   4.591   3.525   3.483  0.7874 -0.1264  0.1250
 8653SOL    HW137421   4.635   3.602   3.446 -0.1423 -0.1113 -0.9489
 8653SOL    HW237422   4.660   3.459   3.485  2.5210  1.6497 -2.1072
 8654SOL     OW37423   2.873   0.831   1.176 -0.0875  0.7601  0.8211
 8654SOL    HW137424   2.926   0.871   1.245  1.6996 -2.4693  1.3648
 8654SOL    HW237425   2.834   0.755   1.220  1.8702 -0.9140 -0.3341
 8655SOL     OW37426   1.552   2.886   6.200 -0.3581 -0.0320 -0.7583
 8655SOL    HW137427   1.560   2.933   6.117  1.5672  2.7197  0.9951
 8655SOL    HW237428   1.458   2.896   6.212 -0.1598  0.1293  0.7213
 8656SOL     OW37429   1.616   1.583   7.310  0.2946 -0.0989  0.3433
 8656SOL    HW137430   1.616   1.678   7.297 -0.5905  0.0074  1.0753
 8656SOL    HW237431   1.677   1.548   7.245 -1.9693 -2.3181 -0.5997
 8657SOL     OW37432   3.853   3.767   3.304  0.3455  0.2404  0.2709
 8657SOL    HW137433   3.821   3.678   3.311  2.4132 -0.3371  2.4529
 8657SOL    HW237434   3.935   3.761   3.255 -0.4924 -0.1746 -1.0499
 8658SOL     OW37435   2.884   2.205   7.971  0.0219  1.0338 -0.2003
 8658SOL    HW137436   2.853   2.220   8.060  0.1686  2.9268 -0.4649
 8658SOL    HW237437   2.834   2.125   7.954  0.2415  0.7685  0.4309
 8659SOL     OW37438   4.710   2.225   8.845 -0.0130 -0.3094  0.4876
 8659SOL    HW137439   4.708   2.183   8.932 -1.6706  0.3374  0.7553
 8659SOL    HW237440   0.058   2.171   8.808  0.5042  0.6798  0.0333
 8660SOL     OW37441   0.297   1.015  16.206 -0.2949  0.2716  0.0096
 8660SOL    HW137442   0.272   1.058  16.124 -0.4367  0.3008  0.0685
 8660SOL    HW237443   0.344   1.076  16.264  0.1857  0.7779 -0.9173
 8661SOL     OW37444   2.603   0.369   3.695 -0.6853  0.1530 -0.4279
 8661SOL    HW137445   2.589   0.303   3.627 -0.6949  2.3753 -2.5847
 8661SOL    HW237446   2.522   0.420   3.699 -2.2694 -2.2981 -1.4494
 8662SOL     OW37447   1.187   2.573   2.042 -0.5800  0.2993 -0.4368
 8662SOL    HW137448   1.135   2.628   2.100 -2.5201 -1.6362 -0.3189
 8662SOL    HW237449   1.245   2.636   1.999  0.5339 -0.5834 -0.2292
 8663SOL     OW37450   3.407   0.099   3.260  0.0782 -0.4511  0.1065
 8663SOL    HW137451   3.393   0.169   3.324 -0.8014 -0.9207  0.4309
 8663SOL    HW237452   3.395   0.150   3.180 -1.6190  0.5297  0.9918
 8664SOL     OW37453   1.905   3.234   8.781 -0.0633 -0.5744 -0.2193
 8664SOL    HW137454   1.834   3.170   8.783  1.5661 -2.3416  0.5091
 8664SOL    HW237455   1.876   3.294   8.850  1.1158  0.1397 -0.3493
 8665SOL     OW37456   1.970   0.362   5.515 -0.8616 -0.0494  0.4784
 8665SOL    HW137457   1.979   0.458   5.516  3.2281 -0.4330  2.0420
 8665SOL    HW237458   2.054   0.342   5.555 -0.6542 -1.4274 -0.6497
 8666SOL     OW37459   0.504   0.411  16.069  0.0838  0.2300 -0.3644
 8666SOL    HW137460   0.479   0.422  15.977  1.1150 -1.6364 -0.8893
 8666SOL    HW237461   0.551   0.492  16.088  1.3753  0.3343 -3.9249
 8667SOL     OW37462   2.969   4.126   4.540  0.2913  0.0614 -0.0621
 8667SOL    HW137463   3.017   4.181   4.478 -0.3744  0.6480 -0.0585
 8667SOL    HW237464   2.882   4.123   4.500 -0.1047  0.9275  0.7305
 8668SOL     OW37465   2.785   4.149   3.916  0.0311 -0.0142 -0.1666
 8668SOL    HW137466   2.694   4.154   3.886 -0.2857  0.4416  0.8758
 8668SOL    HW237467   2.783   4.219   3.980 -1.8046  1.9838 -2.4037
 8669SOL     OW37468   3.233   3.901   1.754  0.5075 -0.4023  0.0609
 8669SOL    HW137469   3.230   3.817   1.708 -0.5857  0.1231 -0.8246
 8669SOL    HW237470   3.147   3.936   1.730  1.2488  0.3856 -1.4232
 8670SOL     OW37471   0.443   4.600   3.419  0.6841  0.5006  0.0648
 8670SOL    HW137472   0.407   4.688   3.409 -3.8105 -1.5233 -1.4134
 8670SOL    HW237473   0.364   4.547   3.426  1.1871 -0.2499  0.0347
 8671SOL     OW37474   2.427   1.968   1.640 -0.2882  0.0398  0.9329
 8671SOL    HW137475   2.377   1.986   1.720  0.7470  0.0276  1.5801
 8671SOL    HW237476   2.450   1.878   1.662 -1.4569 -1.2229 -2.9043
 8672SOL     OW37477   4.409   0.336   4.903 -0.4547 -0.5755 -0.1535
 8672SOL    HW137478   4.434   0.426   4.923  1.5206 -1.1733 -0.0024
 8672SOL    HW237479   4.407   0.297   4.991 -0.0779 -1.6614 -0.6268
 8673SOL     OW37480   2.369   0.631   6.750 -0.5327 -0.2596 -0.2415
 8673SOL    HW137481   2.403   0.615   6.662  1.5317 -0.9403  0.6901
 8673SOL    HW237482   2.371   0.546   6.793 -3.3282 -1.3979 -2.3752
 8674SOL     OW37483   3.413   0.013   9.325  0.0043 -0.4868  0.5521
 8674SOL    HW137484   3.440   4.647   9.352 -1.7449 -0.6045  1.8875
 8674SOL    HW237485   3.499   0.054   9.339 -0.0178 -0.6533  1.1467
 8675SOL     OW37486   2.984   3.500   6.481 -0.2754 -0.5552 -0.1283
 8675SOL    HW137487   3.048   3.436   6.449  0.5512  0.3362 -0.2666
 8675SOL    HW237488   2.913   3.436   6.491  1.0262 -2.3084 -1.9324
 8676SOL     OW37489   2.946   1.764   8.451 -0.6537 -0.2722  0.5462
 8676SOL    HW137490   3.012   1.696   8.435  0.1565  0.3407  1.3200
 8676SOL    HW237491   2.863   1.718   8.439 -0.4773  0.0969 -2.1510
 8677SOL     OW37492   3.704   2.714   8.096 -0.5498 -0.1493  0.2652
 8677SOL    HW137493   3.707   2.670   8.011  2.0269 -2.1180  1.3566
 8677SOL    HW237494   3.779   2.773   8.084  1.2447 -2.6610 -0.8943
 8678SOL     OW37495   3.313   1.359   2.371 -0.2229  0.2078  0.0218
 8678SOL    HW137496   3.267   1.319   2.445 -0.1776 -0.2750 -0.2084
 8678SOL    HW237497   3.275   1.314   2.296  1.9667 -0.1557 -0.8770
 8679SOL     OW37498   2.918   4.365   6.693  0.4920  0.6138  0.0437
 8679SOL    HW137499   2.933   4.424   6.767  2.7016  0.3427 -0.1919
 8679SOL    HW237500   2.868   4.302   6.745  0.9635  1.1093  1.1031
 8680SOL     OW37501   4.583   0.379  14.031  0.2370 -0.1478 -0.4859
 8680SOL    HW137502   4.648   0.447  14.051  0.7630 -0.9930  0.6492
 8680SOL    HW237503   4.598   0.313  14.099 -0.1318  1.9676  1.6618
 8681SOL     OW37504   2.146   4.316  12.711  0.2595 -0.0062  0.4104
 8681SOL    HW137505   2.143   4.409  12.732 -1.4871 -0.4576  2.1157
 8681SOL    HW237506   2.225   4.318  12.657 -1.3667  4.0724 -1.8070
 8682SOL     OW37507   1.233   0.354   4.552  0.1558  0.1397 -0.5540
 8682SOL    HW137508   1.146   0.315   4.549  0.7928 -1.2443 -1.2709
 8682SOL    HW237509   1.286   0.280   4.523  2.6441  2.0841 -0.9871
 8683SOL     OW37510   3.091   1.712  17.105  0.3794  0.0736 -0.1764
 8683SOL    HW137511   3.184   1.735  17.099  0.3316  0.6129  1.3500
 8683SOL    HW237512   3.085   1.629  17.056  1.6381 -0.4128  0.4909
 8684SOL     OW37513   1.818   0.552   5.239 -0.2949 -0.0987 -0.1471
 8684SOL    HW137514   1.869   0.627   5.271 -0.1918 -0.3948  0.3810
 8684SOL    HW237515   1.760   0.592   5.175  0.5875  0.0909 -0.8252
 8685SOL     OW37516   2.896   4.402   6.077 -0.3408  0.2865 -0.3428
 8685SOL    HW137517   2.924   4.453   6.000 -0.6004  1.0711  0.0814
 8685SOL    HW237518   2.985   4.378   6.105 -1.0639  1.0476  2.5796
 8686SOL     OW37519   1.770   1.874   7.479  0.1693 -0.3704  0.2200
 8686SOL    HW137520   1.789   1.968   7.484  1.7801 -0.6808 -0.1960
 8686SOL    HW237521   1.689   1.877   7.427  0.7978  0.8168 -0.6864
 8687SOL     OW37522   2.442   3.568   2.483 -0.2520  0.0986  0.0616
 8687SOL    HW137523   2.356   3.608   2.468 -0.3101  0.2246  0.7151
 8687SOL    HW237524   2.499   3.645   2.478 -0.6027  0.2424 -1.8447
 8688SOL     OW37525   4.077   3.289   2.824 -0.1769  0.3446 -0.1127
 8688SOL    HW137526   4.138   3.246   2.764  1.7495 -0.2339  2.2495
 8688SOL    HW237527   4.035   3.209   2.858 -2.2011  2.8925  3.3547
 8689SOL     OW37528   4.307   1.931   4.020 -0.4723 -0.6770 -0.1794
 8689SOL    HW137529   4.397   1.959   4.038 -0.7789 -0.7772  1.4903
 8689SOL    HW237530   4.257   1.972   4.091  0.2544 -3.4739  1.9158
 8690SOL     OW37531   0.006   0.211   8.508 -0.2544  0.0312 -0.2926
 8690SOL    HW137532   0.042   0.185   8.593  1.6923 -2.4528 -1.8634
 8690SOL    HW237533   4.643   0.168   8.496 -1.1323  2.0371 -1.0831
 8691SOL     OW37534   3.768   3.162   8.305 -0.1970 -0.2827 -0.1153
 8691SOL    HW137535   3.697   3.099   8.300  1.8886 -2.9054  3.5495
 8691SOL    HW237536   3.774   3.184   8.398 -0.6544 -0.2127 -0.0993
 8692SOL     OW37537   4.338   3.785   4.010  0.0754 -0.5822  0.0066
 8692SOL    HW137538   4.429   3.759   3.995 -0.0221 -0.9195 -0.0041
 8692SOL    HW237539   4.309   3.778   3.919  2.2406 -1.1360 -0.6533
 8693SOL     OW37540   4.520   0.749  16.120 -0.4363 -0.2471  0.1143
 8693SOL    HW137541   4.614   0.740  16.103 -0.4537 -0.8603  0.3376
 8693SOL    HW237542   4.505   0.840  16.093 -1.7409 -0.4480  0.1445
 8694SOL     OW37543   0.797   0.066  13.900  0.0320 -0.4838 -0.1722
 8694SOL    HW137544   0.830   0.147  13.940  0.6593 -2.0874  2.5861
 8694SOL    HW237545   0.736   0.102  13.836 -1.5397  0.4841  1.8597
 8695SOL     OW37546   4.055   4.540   4.184  0.4578 -0.2301  0.5594
 8695SOL    HW137547   4.141   4.502   4.203  0.6489  0.6538  1.4992
 8695SOL    HW237548   4.070   4.556   4.091 -0.7327 -0.3676  0.3492
 8696SOL     OW37549   1.090   3.301   6.432  0.3954  0.5145 -0.3463
 8696SOL    HW137550   1.106   3.250   6.511 -0.6931 -0.2369 -0.6091
 8696SOL    HW237551   1.022   3.245   6.395  1.4320  1.4811 -3.7376
 8697SOL     OW37552   4.134   2.906   2.259 -0.0819  0.3465 -0.2306
 8697SOL    HW137553   4.146   2.990   2.214 -1.6517  0.2901 -0.7453
 8697SOL    HW237554   4.093   2.941   2.337  0.8030 -1.8035  1.2026
 8698SOL     OW37555   1.430   2.776   5.132  0.0340  0.3884  0.7067
 8698SOL    HW137556   1.526   2.772   5.130 -0.0383  0.3883 -2.6612
 8698SOL    HW237557   1.424   2.870   5.147  1.4985  0.7916 -1.1785
 8699SOL     OW37558   2.543   3.113  16.826 -0.2307 -0.0288  0.5874
 8699SOL    HW137559   2.587   3.033  16.796 -1.3691 -0.5152  0.1984
 8699SOL    HW237560   2.591   3.175  16.771 -0.9484  0.4114  0.4512
 8700SOL     OW37561   4.722   2.239   5.164 -0.1913  0.0375  0.2312
 8700SOL    HW137562   0.017   2.331   5.184  2.1574 -0.3315 -0.0882
 8700SOL    HW237563   4.654   2.251   5.097 -1.5873  1.8864  1.9617
 8701SOL     OW37564   3.412   2.753   5.694 -0.7283  0.1230  0.6726
 8701SOL    HW137565   3.467   2.739   5.617 -0.7031  1.6415  0.4064
 8701SOL    HW237566   3.461   2.824   5.736  1.5768  0.1228 -1.9840
 8702SOL     OW37567   2.495   2.483   3.168  0.5160  0.2150  0.0908
 8702SOL    HW137568   2.591   2.481   3.173  0.5200 -0.2655 -0.1589
 8702SOL    HW237569   2.484   2.536   3.089 -0.0295 -0.6654 -0.4270
 8703SOL     OW37570   0.386   2.523   1.306  0.0256 -0.3323  0.0546
 8703SOL    HW137571   0.298   2.539   1.272 -0.4144 -1.4134  0.6933
 8703SOL    HW237572   0.373   2.483   1.392  0.2306  0.8715  0.6492
 8704SOL     OW37573   1.950   0.549   4.837  0.0762 -0.7202  0.1402
 8704SOL    HW137574   1.959   0.491   4.913  1.1612 -1.9114 -0.9096
 8704SOL    HW237575   1.892   0.501   4.778 -1.8994  1.7605  0.0359
 8705SOL     OW37576   0.061   2.774  17.164 -1.0566  0.3486 -0.0480
 8705SOL    HW137577   0.070   2.865  17.191 -1.5018  0.7192 -1.1468
 8705SOL    HW237578   4.706   2.745  17.212 -2.0681  0.4135 -1.6279
 8706SOL     OW37579   1.338   2.265   2.467  0.0057  0.1649  0.6283
 8706SOL    HW137580   1.387   2.311   2.400 -0.7850 -1.3406 -1.0043
 8706SOL    HW237581   1.252   2.284   2.429  0.3784 -2.8642 -1.7839
 8707SOL     OW37582   2.149   2.270   1.084  0.5505 -0.1321 -0.0788
 8707SOL    HW137583   2.237   2.231   1.076  0.4045  0.1164 -2.8509
 8707SOL    HW237584   2.094   2.192   1.090  0.8381 -0.3748 -0.5912
 8708SOL     OW37585   1.425   1.984  17.664  0.2233 -0.5477  0.3918
 8708SOL    HW137586   1.495   1.975  17.600 -0.0784 -0.5907  0.0642
 8708SOL    HW237587   1.449   2.075  17.685 -0.8883 -0.8197  2.8612
 8709SOL     OW37588   1.450   3.427   6.214  0.4549  0.0033 -0.0741
 8709SOL    HW137589   1.400   3.443   6.134 -0.6485 -2.4840  0.1269
 8709SOL    HW237590   1.496   3.351   6.180 -1.2069 -0.9475 -0.1377
 8710SOL     OW37591   2.467   3.761   2.799 -0.2500 -0.1672  0.3685
 8710SOL    HW137592   2.390   3.813   2.774 -0.2671 -0.0098  0.7475
 8710SOL    HW237593   2.450   3.719   2.884 -1.8403 -0.8573 -0.2880
 8711SOL     OW37594   1.465   3.834  16.052 -0.1384 -0.2262 -0.5275
 8711SOL    HW137595   1.457   3.745  16.085 -1.0798  0.0745  0.0597
 8711SOL    HW237596   1.505   3.873  16.130  0.2415 -1.2273 -0.2261
 8712SOL     OW37597   2.162   3.896  11.679 -0.8652 -0.6439 -0.6546
 8712SOL    HW137598   2.173   3.989  11.661  1.6090 -0.9938 -1.0829
 8712SOL    HW237599   2.253   3.871  11.695 -0.7596  1.1499  1.6189
 8713SOL     OW37600   4.356   1.488  15.700  0.0077  0.3938  0.2115
 8713SOL    HW137601   4.329   1.579  15.712 -1.6076 -0.1266  0.4784
 8713SOL    HW237602   4.304   1.444  15.767 -1.7198 -1.1698 -2.1447
 8714SOL     OW37603   2.978   2.084   3.650  0.1639 -0.0409 -0.3816
 8714SOL    HW137604   2.993   2.013   3.712 -0.1379  0.3869  0.1821
 8714SOL    HW237605   3.045   2.146   3.680  0.4034 -0.0758 -0.8306
 8715SOL     OW37606   4.498   4.230   3.053 -0.0309 -0.1607  0.3198
 8715SOL    HW137607   4.561   4.301   3.039 -0.7046  0.5457  0.8851
 8715SOL    HW237608   4.532   4.162   2.995  2.0517  0.3530  0.9453
 8716SOL     OW37609   1.026   3.428   8.106 -0.1272  0.2064 -0.3119
 8716SOL    HW137610   1.092   3.376   8.153  1.2799  0.3736 -2.1259
 8716SOL    HW237611   1.085   3.467   8.041 -0.2898 -0.5599 -0.9124
 8717SOL     OW37612   3.737   3.485   4.161 -0.2297  0.2416 -0.5519
 8717SOL    HW137613   3.715   3.575   4.183  1.3414  0.7432 -1.0563
 8717SOL    HW237614   3.649   3.459   4.134  1.4740 -2.9205 -3.1888
 8718SOL     OW37615   2.504   2.417   5.506 -0.4389  0.3549  0.1684
 8718SOL    HW137616   2.499   2.458   5.592 -3.4515 -0.4389  0.3677
 8718SOL    HW237617   2.582   2.361   5.508 -1.6293 -1.2875  0.9894
 8719SOL     OW37618   4.581   4.453   3.993 -0.7448  0.1687  0.3590
 8719SOL    HW137619   4.655   4.487   4.043 -2.3577  3.9839  0.1146
 8719SOL    HW237620   4.532   4.410   4.064 -0.0733  1.9641  1.9000
 8720SOL     OW37621   1.955   3.237   5.446  0.1561 -0.0084 -0.1365
 8720SOL    HW137622   1.977   3.144   5.445 -1.2487 -0.3572  1.6247
 8720SOL    HW237623   1.895   3.245   5.520 -0.5988 -1.2351 -0.6137
 8721SOL     OW37624   0.790   0.495   2.437  0.1237  0.3342  0.7975
 8721SOL    HW137625   0.756   0.426   2.380  1.0775  1.2426 -0.8829
 8721SOL    HW237626   0.710   0.519   2.484 -1.1452 -0.9612 -0.7395
 8722SOL     OW37627   0.580   4.676  12.633 -0.1441 -0.2626  0.3762
 8722SOL    HW137628   0.534   4.627  12.701  0.5981 -1.5289 -0.0417
 8722SOL    HW237629   0.632   0.009  12.691 -0.5192 -0.3080  0.7630
 8723SOL     OW37630   1.001   0.321   6.110  0.3210  0.0562  0.1678
 8723SOL    HW137631   1.075   0.368   6.148  1.3407 -1.3526 -0.0845
 8723SOL    HW237632   0.978   0.262   6.181 -0.4837 -0.5156 -0.5726
 8724SOL     OW37633   4.200   0.417   0.702  0.8059  0.2943  0.8794
 8724SOL    HW137634   4.184   0.345   0.764  1.1584 -0.6843 -0.1571
 8724SOL    HW237635   4.117   0.465   0.704  0.7609  0.1878  1.5552
 8725SOL     OW37636   3.458   3.500   6.541  0.2711  0.1859  0.4190
 8725SOL    HW137637   3.423   3.558   6.609  1.3192  0.1797  0.9532
 8725SOL    HW237638   3.433   3.547   6.461  1.0276 -0.7894 -0.3825
 8726SOL     OW37639   3.021   4.669   3.954  0.5764 -0.4784 -0.0909
 8726SOL    HW137640   3.018   0.003   3.877  0.8456  0.6049  0.6965
 8726SOL    HW237641   3.041   0.016   4.016  0.8100 -0.0188 -0.6810
 8727SOL     OW37642   1.688   0.936   9.718  0.1060 -0.7194  0.2217
 8727SOL    HW137643   1.772   0.983   9.719  1.5326 -3.2236 -2.1334
 8727SOL    HW237644   1.655   0.954   9.630 -1.9203 -0.2156  1.0829
 8728SOL     OW37645   4.574   3.708  15.139  0.1548 -0.2047  0.5000
 8728SOL    HW137646   4.609   3.793  15.112 -2.6128  0.9436  0.4827
 8728SOL    HW237647   4.496   3.724  15.086  1.5717  0.7644 -1.2775
 8729SOL     OW37648   1.763   2.130  16.604  0.4218  0.3708 -0.3695
 8729SOL    HW137649   1.757   2.218  16.567 -0.1838 -0.0837 -1.3502
 8729SOL    HW237650   1.844   2.146  16.652  0.1121  3.0500 -0.7325
 8730SOL     OW37651   1.837   1.020   4.260  0.7052  0.3121  0.1116
 8730SOL    HW137652   1.829   1.065   4.176  0.3479 -0.4831 -0.2862
 8730SOL    HW237653   1.754   0.971   4.261  0.5665  0.5632  0.7472
 8731SOL     OW37654   2.125   2.612   2.340  0.0661 -0.4136  0.5015
 8731SOL    HW137655   2.145   2.688   2.395  0.4377 -1.3227  1.6264
 8731SOL    HW237656   2.157   2.537   2.391  1.3866 -0.8556 -0.9659
 8732SOL     OW37657   1.864   2.076   4.862  0.1734 -0.3639  0.2283
 8732SOL    HW137658   1.912   2.024   4.798 -0.1459 -0.3390 -0.0302
 8732SOL    HW237659   1.857   2.156   4.811  2.0426  0.6357  1.5319
 8733SOL     OW37660   4.495   4.641   2.969  0.6412  0.0435 -0.0263
 8733SOL    HW137661   4.400   4.646   2.964  0.4228 -0.0166  4.4412
 8733SOL    HW237662   4.515   4.659   2.877 -0.6975 -0.6902 -0.4625
 8734SOL     OW37663   3.396   3.572   3.340 -0.4719 -0.4425 -0.0639
 8734SOL    HW137664   3.453   3.495   3.341 -0.7754 -0.6496  1.4936
 8734SOL    HW237665   3.441   3.617   3.269 -1.6619 -0.9107 -1.1015
 8735SOL     OW37666   0.088   1.397  13.841  0.5739 -0.1080 -0.3421
 8735SOL    HW137667   0.066   1.453  13.767 -0.2441  1.9834  1.4975
 8735SOL    HW237668   0.184   1.400  13.831  0.4574  1.4162 -0.9402
 8736SOL     OW37669   3.527   3.145   9.116  0.1891 -0.2830  0.2376
 8736SOL    HW137670   3.447   3.192   9.090  1.6750  2.1766  0.0764
 8736SOL    HW237671   3.584   3.210   9.157  0.0316  0.0131 -0.0094
 8737SOL     OW37672   2.617   4.247   6.748 -0.4915  0.0523 -0.1474
 8737SOL    HW137673   2.636   4.215   6.836  1.0354  3.8772  0.9208
 8737SOL    HW237674   2.541   4.193   6.726  1.2914 -2.2874 -0.6253
 8738SOL     OW37675   1.030   1.400   4.960  0.1123 -0.5013  0.0027
 8738SOL    HW137676   0.964   1.438   4.902 -0.6091 -0.0079  1.1603
 8738SOL    HW237677   0.992   1.317   4.987 -1.1767 -0.1348 -0.6518
 8739SOL     OW37678   3.401   2.184   7.993  0.2024 -0.0234  0.4676
 8739SOL    HW137679   3.395   2.114   8.057 -1.7436  0.9406  1.3646
 8739SOL    HW237680   3.349   2.145   7.923 -1.2014  2.4110  0.1222
 8740SOL     OW37681   2.267   3.471   0.156 -0.7629  0.0337 -0.4261
 8740SOL    HW137682   2.205   3.431   0.217 -0.4283 -0.5404 -0.4617
 8740SOL    HW237683   2.210   3.463   0.080 -2.1274  0.7014  0.5349
 8741SOL     OW37684   4.663   3.158  10.739  0.2137  0.7411  0.0019
 8741SOL    HW137685   4.580   3.115  10.755  1.6235 -0.4887  4.0064
 8741SOL    HW237686   0.002   3.098  10.781 -1.8131 -2.0265 -1.0181
 8742SOL     OW37687   3.644   0.921  16.281 -0.0389  0.5234 -0.5074
 8742SOL    HW137688   3.692   0.973  16.217 -0.4915  0.9365 -0.5156
 8742SOL    HW237689   3.646   0.832  16.248 -0.6717 -0.1228  1.2086
 8743SOL     OW37690   0.986   4.218   5.482 -0.2235  0.4304  0.2569
 8743SOL    HW137691   1.044   4.221   5.559 -1.8672 -1.1708  1.5459
 8743SOL    HW237692   1.019   4.141   5.437  0.7566 -0.7986  3.1107
 8744SOL     OW37693   0.031   3.555   2.063 -0.0632  0.2818  0.2528
 8744SOL    HW137694   4.661   3.578   2.066  0.9516  4.3331  0.3527
 8744SOL    HW237695   0.026   3.495   1.988  1.1004  1.2709 -0.6099
 8745SOL     OW37696   1.214   3.090   4.286 -0.2533  0.2453 -0.6307
 8745SOL    HW137697   1.175   3.009   4.318  0.9871 -1.6862 -4.1422
 8745SOL    HW237698   1.301   3.060   4.261  0.4024  0.5663  1.2171
 8746SOL     OW37699   3.660   2.335  13.473 -0.0833  0.2889 -0.3329
 8746SOL    HW137700   3.623   2.342  13.386  0.1067  1.9465 -0.2899
 8746SOL    HW237701   3.600   2.391  13.523  1.7861  2.1061 -0.1184
 8747SOL     OW37702   4.593   3.682   7.899  0.9786 -0.3638  0.1584
 8747SOL    HW137703   4.547   3.631   7.833  2.5484 -0.0705 -1.1549
 8747SOL    HW237704   4.527   3.679   7.969  0.7959 -0.6991 -0.0316
 8748SOL     OW37705   4.102   4.561  16.909  0.5374 -0.3081 -0.0773
 8748SOL    HW137706   4.037   4.494  16.931 -0.8406  0.7345 -0.9472
 8748SOL    HW237707   4.057   4.614  16.843  0.2491  0.7258  0.9466
 8749SOL     OW37708   3.870   2.205  12.471 -0.0921 -0.6514 -0.1771
 8749SOL    HW137709   3.910   2.288  12.498  1.6415 -2.4678  2.7454
 8749SOL    HW237710   3.839   2.156  12.547  0.1165  0.0706  0.3664
 8750SOL     OW37711   4.112   2.951   0.090 -0.2967  0.1675  0.1923
 8750SOL    HW137712   4.141   2.888   0.025 -2.6672 -0.5386 -0.1774
 8750SOL    HW237713   4.198   2.980   0.122 -0.0171  0.0112 -0.4157
 8751SOL     OW37714   3.568   1.142   9.659  0.2148 -0.3693  0.0382
 8751SOL    HW137715   3.576   1.234   9.683  1.5135 -0.8444  1.4592
 8751SOL    HW237716   3.485   1.133   9.706  0.2513 -4.2823 -0.6094
 8752SOL     OW37717   0.172   3.779  14.505  0.6903 -0.0750  0.3759
 8752SOL    HW137718   0.186   3.778  14.410 -2.6297 -0.3528 -0.1175
 8752SOL    HW237719   0.228   3.706  14.529  0.2002 -1.4916 -2.7250
 8753SOL     OW37720   1.082   2.309   7.440 -0.1203 -0.0111  0.1170
 8753SOL    HW137721   1.111   2.379   7.382 -2.3261 -0.5006 -1.5874
 8753SOL    HW237722   0.990   2.332   7.457 -0.1586  0.1872 -0.3561
 8754SOL     OW37723   4.170   3.953   4.866 -0.1962  0.2013  0.0305
 8754SOL    HW137724   4.195   3.981   4.954  0.9869  1.2740 -0.6505
 8754SOL    HW237725   4.092   4.006   4.850  1.2747  2.3211 -0.1639
 8755SOL     OW37726   1.145   1.917  14.996 -0.3577 -0.5823  0.2758
 8755SOL    HW137727   1.235   1.906  14.967 -0.0694  1.4177  0.4533
 8755SOL    HW237728   1.171   1.918  15.088 -1.2378 -1.0241  0.5311
 8756SOL     OW37729   3.806   3.246   3.584 -0.3568 -0.3731  0.2041
 8756SOL    HW137730   3.726   3.203   3.613  0.6689 -1.5307  1.2869
 8756SOL    HW237731   3.844   3.181   3.525  0.4418  1.3243 -1.1835
 8757SOL     OW37732   4.229   1.887  16.413 -0.4426 -0.4525 -0.8619
 8757SOL    HW137733   4.248   1.845  16.497 -0.4637  0.3890 -0.4427
 8757SOL    HW237734   4.305   1.863  16.358  1.0812  3.1369 -0.3203
 8758SOL     OW37735   2.819   3.882   0.272  0.1989 -0.0401 -0.1355
 8758SOL    HW137736   2.793   3.795   0.241  1.7547 -0.0295 -1.5249
 8758SOL    HW237737   2.841   3.912   0.183 -1.1957 -2.5614 -1.3361
 8759SOL     OW37738   0.784   2.646   8.568 -0.7602 -0.4837 -0.4155
 8759SOL    HW137739   0.828   2.723   8.603  1.3088 -2.3387  1.0381
 8759SOL    HW237740   0.702   2.650   8.618 -0.2885 -2.1073  0.4994
 8760SOL     OW37741   2.074   2.178   3.321 -0.1158  0.2524 -0.1109
 8760SOL    HW137742   2.070   2.264   3.363 -3.4484 -0.2509  0.5881
 8760SOL    HW237743   2.133   2.186   3.246  0.0202 -0.4743 -0.0845
 8761SOL     OW37744   1.048   2.886   3.277 -0.3401  0.2676 -0.3962
 8761SOL    HW137745   1.095   2.805   3.259 -1.6484 -0.7104  0.6002
 8761SOL    HW237746   1.119   2.950   3.271 -1.8515  2.1674  1.5916
 8762SOL     OW37747   1.707   0.790   3.417 -0.6240  0.3091  0.4104
 8762SOL    HW137748   1.712   0.750   3.503 -0.4020 -1.3292 -0.3618
 8762SOL    HW237749   1.621   0.829   3.436 -0.2640  0.2359  2.1966
 8763SOL     OW37750   0.334   3.813   9.729  0.2060  0.0510 -0.2348
 8763SOL    HW137751   0.339   3.793   9.822  0.2010 -1.3752 -0.5399
 8763SOL    HW237752   0.241   3.790   9.721  0.6831 -2.8985  2.8582
 8764SOL     OW37753   3.232   0.849   9.016 -0.3720  0.2433 -0.1694
 8764SOL    HW137754   3.213   0.937   8.981  2.1251  0.4772 -0.9052
 8764SOL    HW237755   3.274   0.886   9.094 -0.9342  0.3046  0.1030
 8765SOL     OW37756   3.377   3.737   7.908 -0.2133 -0.1686  0.4843
 8765SOL    HW137757   3.422   3.815   7.942  0.9021 -0.2612 -0.7938
 8765SOL    HW237758   3.453   3.680   7.906  0.8261  1.2606 -0.7401
 8766SOL     OW37759   0.245   2.094   7.797  0.0997 -0.5384 -0.7254
 8766SOL    HW137760   0.273   2.026   7.735  1.1760 -1.6629  0.9723
 8766SOL    HW237761   0.153   2.068   7.806  0.1484 -0.1138  0.9183
 8767SOL     OW37762   1.985   1.303  17.606  0.4767 -0.2765  0.3918
 8767SOL    HW137763   1.966   1.316   0.008 -3.7663 -0.8756 -0.4062
 8767SOL    HW237764   2.080   1.290  17.596  0.3414 -0.3483 -0.8226
 8768SOL     OW37765   3.534   2.563   3.068 -0.3376 -0.4904  0.5347
 8768SOL    HW137766   3.563   2.531   3.154  1.0448 -2.3788 -0.6390
 8768SOL    HW237767   3.585   2.497   3.022  0.9227  0.0498  1.1531
 8769SOL     OW37768   2.208   2.397   7.752  0.2173  0.0950 -0.0938
 8769SOL    HW137769   2.294   2.429   7.723 -0.5545  2.3147  0.1100
 8769SOL    HW237770   2.230   2.378   7.843 -0.7406  2.9582  0.7328
 8770SOL     OW37771   3.652   1.805   0.548  0.0010 -0.3074  0.3139
 8770SOL    HW137772   3.736   1.852   0.540 -0.9418  1.2879 -0.1752
 8770SOL    HW237773   3.661   1.784   0.641  0.7634 -0.7497  0.1466
 8771SOL     OW37774   1.586   3.863  13.362 -0.1961  0.1817 -0.0929
 8771SOL    HW137775   1.523   3.907  13.420  0.8515  1.2893  0.2135
 8771SOL    HW237776   1.623   3.804  13.428  1.8507  0.4919 -0.9637
 8772SOL     OW37777   1.830   4.068   7.395 -0.2657 -0.7428 -0.4776
 8772SOL    HW137778   1.899   4.073   7.460 -1.0177  0.7503  0.1974
 8772SOL    HW237779   1.776   3.999   7.433  0.4196 -1.2476 -0.4203
 8773SOL     OW37780   3.251   2.912  15.220 -0.1932 -0.1893 -0.3669
 8773SOL    HW137781   3.269   2.823  15.250  1.0408  0.4319  0.7434
 8773SOL    HW237782   3.209   2.953  15.296 -0.4196 -0.9580 -0.0770
 8774SOL     OW37783   2.746   1.716   7.423 -0.2249  0.1608  0.5921
 8774SOL    HW137784   2.657   1.746   7.407  0.1906 -0.0945 -2.1848
 8774SOL    HW237785   2.783   1.786   7.369 -0.0972  0.6552  1.3161
 8775SOL     OW37786   0.897   1.965   8.792 -0.3094  0.1257  0.0684
 8775SOL    HW137787   0.812   1.938   8.827 -0.6279  1.3190  0.2050
 8775SOL    HW237788   0.936   2.024   8.857 -0.6028  2.0837 -1.5319
 8776SOL     OW37789   1.179   3.691   5.172  0.3937 -0.1887  0.9463
 8776SOL    HW137790   1.264   3.663   5.205 -0.4281 -1.6391  1.8369
 8776SOL    HW237791   1.154   3.758   5.235  0.7486  0.9364 -0.1154
 8777SOL     OW37792   0.990   1.916  14.795  0.6399  0.0582  0.0987
 8777SOL    HW137793   1.036   1.916  14.879 -0.2214  0.7745  0.5760
 8777SOL    HW237794   0.925   1.984  14.812 -1.1270 -1.2795 -1.4570
 8778SOL     OW37795   2.991   0.538   3.809  0.0033 -0.0342 -0.3696
 8778SOL    HW137796   2.943   0.512   3.730 -0.3600 -1.7809  0.4235
 8778SOL    HW237797   2.940   0.615   3.834 -1.3780 -1.3456  0.8929
 8779SOL     OW37798   1.880   1.863  12.281 -0.0457 -0.1694  0.2735
 8779SOL    HW137799   1.913   1.861  12.370 -2.5912 -0.3543  1.2027
 8779SOL    HW237800   1.945   1.919  12.239 -0.9039 -0.4770 -1.4632
 8780SOL     OW37801   2.620   3.828   4.767 -0.1810  0.4743  0.1223
 8780SOL    HW137802   2.532   3.835   4.731 -1.2782 -1.7324  2.3487
 8780SOL    HW237803   2.625   3.912   4.812  2.1709  0.7175 -0.5626
 8781SOL     OW37804   1.467   3.299   8.897  0.1450  0.1940 -0.5180
 8781SOL    HW137805   1.545   3.252   8.869  0.2748 -0.0330  0.2390
 8781SOL    HW237806   1.406   3.242   8.850 -1.5464  2.0508 -0.5914
 8782SOL     OW37807   0.005   3.007   9.785 -0.1674 -0.0653  0.2852
 8782SOL    HW137808   4.643   3.038   9.754  0.8729  3.7647  1.2197
 8782SOL    HW237809   0.052   2.981   9.705  0.4985 -2.1777  1.3583
 8783SOL     OW37810   1.413   0.293  12.424 -0.3982  0.2918  0.5341
 8783SOL    HW137811   1.432   0.230  12.493 -2.2823 -0.0314  0.7655
 8783SOL    HW237812   1.429   0.374  12.472 -0.5329  0.0692  0.9567
 8784SOL     OW37813   1.200   1.461   8.603 -0.1327  0.6588 -0.2297
 8784SOL    HW137814   1.149   1.408   8.665  0.3336  1.0822  0.5194
 8784SOL    HW237815   1.290   1.439   8.624 -0.1608  1.4260  0.6802
 8785SOL     OW37816   4.500   4.503  12.900  0.6030 -0.2646  0.3596
 8785SOL    HW137817   4.423   4.451  12.879 -0.1200  1.1643 -0.5484
 8785SOL    HW237818   4.499   4.502  12.996 -1.7792 -1.3673  0.3212
 8786SOL     OW37819   0.915   2.660   2.472 -0.6232 -0.1726  0.3473
 8786SOL    HW137820   0.905   2.613   2.555 -0.6573  0.5016  0.7267
 8786SOL    HW237821   1.004   2.630   2.453  0.5709  2.0462  2.4220
 8787SOL     OW37822   2.524   4.242   3.856 -0.2520  0.2611  0.2856
 8787SOL    HW137823   2.451   4.299   3.834  0.5313  1.6635  1.3017
 8787SOL    HW237824   2.513   4.231   3.951 -0.2530  0.1990  0.2779
 8788SOL     OW37825   1.867   4.169  12.259 -0.4398  0.8599 -0.1136
 8788SOL    HW137826   1.820   4.229  12.202 -0.2052 -0.6049 -1.8287
 8788SOL    HW237827   1.814   4.158  12.338  2.2347 -0.4588  1.5023
 8789SOL     OW37828   0.197   1.455   1.618  0.1391  0.4159 -0.0117
 8789SOL    HW137829   0.152   1.378   1.652  0.8883  0.4212  1.0033
 8789SOL    HW237830   0.168   1.442   1.527 -1.8716  1.5983  0.4581
 8790SOL     OW37831   2.469   1.004  11.786 -0.0195  0.1340 -0.3908
 8790SOL    HW137832   2.492   1.028  11.876  0.2794  2.3507 -1.0642
 8790SOL    HW237833   2.463   1.089  11.742 -2.8040  0.7777  1.1646
 8791SOL     OW37834   0.196   3.502  17.029 -0.0655  0.1261 -0.2201
 8791SOL    HW137835   0.285   3.467  17.030 -0.0565  0.1518  0.0004
 8791SOL    HW237836   0.218   3.594  17.016 -2.1100  0.7789  0.8638
 8792SOL     OW37837   1.984   3.155   9.305 -0.3902 -0.4597 -0.6602
 8792SOL    HW137838   1.958   3.116   9.222 -1.5405  0.2696 -0.6392
 8792SOL    HW237839   1.912   3.208   9.339  1.2684 -0.4199  2.8316
 8793SOL     OW37840   1.483   3.496   8.696  0.3819 -0.0749 -0.3871
 8793SOL    HW137841   1.464   3.453   8.780  0.2741  0.0080 -0.3691
 8793SOL    HW237842   1.402   3.537   8.665 -0.5177  0.7648  3.0486
 8794SOL     OW37843   4.320   1.696  15.434 -0.1999 -0.0796  0.1734
 8794SOL    HW137844   4.322   1.766  15.500  0.7137 -1.4811  1.6481
 8794SOL    HW237845   4.230   1.704  15.402 -0.5201  0.2023  1.1283
 8795SOL     OW37846   2.290   1.860   7.167  0.0337 -0.0398 -0.0326
 8795SOL    HW137847   2.227   1.932   7.165  0.1824  0.0419 -1.8972
 8795SOL    HW237848   2.335   1.885   7.085  1.0829  0.4889  0.6939
 8796SOL     OW37849   0.701   0.146  16.748 -0.2355 -0.1347 -0.0316
 8796SOL    HW137850   0.786   0.187  16.761 -1.4464  3.0808 -2.1704
 8796SOL    HW237851   0.729   0.078  16.687 -2.3499 -1.7636  0.8125
 8797SOL     OW37852   1.536   3.322  14.984  0.5193 -0.1162 -0.0215
 8797SOL    HW137853   1.510   3.253  15.045 -0.4692  0.0176 -0.2971
 8797SOL    HW237854   1.539   3.398  15.041 -0.5426 -0.8771  1.0489
 8798SOL     OW37855   4.271   0.328   7.498  0.0351 -0.0803  0.3116
 8798SOL    HW137856   4.201   0.393   7.488  1.0517  0.9733  0.0478
 8798SOL    HW237857   4.274   0.298   7.407 -2.2851 -0.6843  0.4374
 8799SOL     OW37858   4.664   1.710  10.085 -0.3340 -0.9543  0.2557
 8799SOL    HW137859   4.651   1.623  10.122  0.9275 -0.2995  2.1815
 8799SOL    HW237860   4.574   1.721  10.053 -0.3145 -3.1299 -0.4984
 8800SOL     OW37861   4.657   2.804  16.928  0.6169  1.1248 -0.3170
 8800SOL    HW137862   4.708   2.792  17.009  0.3020 -0.3513 -0.3254
 8800SOL    HW237863   4.605   2.724  16.925 -0.4674  1.7692  1.1666
 8801SOL     OW37864   2.198   1.806  11.963  0.4375  1.5809  0.2297
 8801SOL    HW137865   2.116   1.852  11.983  1.1209  2.9778 -0.2548
 8801SOL    HW237866   2.191   1.723  12.011  1.6005  2.2702  1.6105
 8802SOL     OW37867   3.593   3.504  14.613  0.3657 -0.5352 -0.9179
 8802SOL    HW137868   3.668   3.461  14.654 -1.0149 -1.8604  0.2453
 8802SOL    HW237869   3.622   3.595  14.614 -1.1750 -0.0203 -3.3937
 8803SOL     OW37870   1.309   3.340   5.483  0.3217 -0.6483  0.6131
 8803SOL    HW137871   1.305   3.244   5.477 -0.2787 -0.5517 -0.6532
 8803SOL    HW237872   1.222   3.364   5.514 -0.3961 -1.5192 -0.7115
 8804SOL     OW37873   2.588   3.734   3.566 -0.3088  0.3640  0.0043
 8804SOL    HW137874   2.532   3.658   3.551  0.1567 -0.3033  1.5510
 8804SOL    HW237875   2.538   3.807   3.531  0.2688  0.4273 -0.6847
 8805SOL     OW37876   0.660   3.096  11.964 -0.2196  0.6713  0.6803
 8805SOL    HW137877   0.649   3.005  11.992  1.3203 -0.0791 -1.0863
 8805SOL    HW237878   0.654   3.089  11.868  0.1198  1.2396  0.6161
 8806SOL     OW37879   2.596   3.421   5.501 -0.0683 -0.3359  0.0818
 8806SOL    HW137880   2.678   3.470   5.486 -0.8943  0.6619 -1.1372
 8806SOL    HW237881   2.625   3.366   5.574 -0.0130  0.9981  1.0739
 8807SOL     OW37882   3.112   1.421   3.445  0.1997  0.3530 -0.5481
 8807SOL    HW137883   3.050   1.478   3.400  0.9482 -2.0122 -4.5661
 8807SOL    HW237884   3.064   1.410   3.527  0.5966  3.6029  0.1246
 8808SOL     OW37885   2.081   2.034   0.828 -0.1035 -0.4674 -0.3121
 8808SOL    HW137886   2.094   1.957   0.773 -1.1970  0.1759 -1.4766
 8808SOL    HW237887   1.989   2.037   0.856 -0.3017  1.5997 -1.1280
 8809SOL     OW37888   4.332   0.646  14.862  0.8212 -0.3245  0.5708
 8809SOL    HW137889   4.272   0.645  14.787  1.4803 -0.2268  0.0322
 8809SOL    HW237890   4.373   0.559  14.865  0.7552 -0.3950 -0.4827
 8810SOL     OW37891   2.187   3.964   1.608  0.5441 -0.3871 -0.2805
 8810SOL    HW137892   2.099   3.962   1.645  0.7905  0.9676  0.4102
 8810SOL    HW237893   2.179   3.985   1.515 -1.9258  1.6959  0.4143
 8811SOL     OW37894   3.121   3.266   4.121 -0.8584 -0.1731  0.0987
 8811SOL    HW137895   3.053   3.333   4.125  0.0276  0.6166  2.0865
 8811SOL    HW237896   3.122   3.248   4.027  1.4925  2.9289 -0.4490
 8812SOL     OW37897   2.796   0.633   2.991  0.2211 -0.0529  0.0634
 8812SOL    HW137898   2.775   0.722   2.964 -2.8830 -0.2182  1.9449
 8812SOL    HW237899   2.858   0.607   2.923  0.3460  1.0138 -0.2305
 8813SOL     OW37900   0.035   0.268   9.329 -0.1554 -0.7140  0.1744
 8813SOL    HW137901   0.020   0.349   9.378 -1.2551 -2.2544  2.4050
 8813SOL    HW237902   0.130   0.266   9.321 -0.0724  0.1666  0.8686
 8814SOL     OW37903   1.738   0.578   3.613 -0.0435  0.5366 -0.0911
 8814SOL    HW137904   1.833   0.590   3.606  0.0698  0.4407  1.3047
 8814SOL    HW237905   1.718   0.511   3.548  1.4829 -1.2708  1.3011
 8815SOL     OW37906   0.205   2.236   5.474 -0.0078 -0.0457 -0.4870
 8815SOL    HW137907   0.158   2.307   5.518  0.0268 -0.7580  0.6943
 8815SOL    HW237908   0.237   2.197   5.554  2.0500  3.2666  0.3216
 8816SOL     OW37909   4.208   1.865   5.453  0.1916 -0.3779 -0.1430
 8816SOL    HW137910   4.292   1.830   5.423  0.1787 -0.7948  0.3198
 8816SOL    HW237911   4.207   1.939   5.392 -0.0302 -0.2449  0.0214
 8817SOL     OW37912   1.224   3.279   8.203  0.4142  0.0765 -0.3190
 8817SOL    HW137913   1.259   3.202   8.159 -1.3312  0.1346 -1.7882
 8817SOL    HW237914   1.261   3.271   8.291  3.3227  0.8283 -1.4578
 8818SOL     OW37915   0.167   1.456   7.645  0.2470 -0.0541 -0.0924
 8818SOL    HW137916   0.163   1.383   7.707  1.3264  0.5430  0.6903
 8818SOL    HW237917   0.107   1.514   7.691 -1.2173 -0.4734 -1.4855
 8819SOL     OW37918   4.256   2.423  16.897 -0.0455  0.0527  0.1828
 8819SOL    HW137919   4.165   2.452  16.899  0.2857  1.0296  0.8078
 8819SOL    HW237920   4.298   2.509  16.906 -0.5772  0.4010 -0.6755
 8820SOL     OW37921   1.534   3.381   2.199  0.1718 -0.6309 -0.0554
 8820SOL    HW137922   1.532   3.462   2.250  1.2494 -0.6977  0.1022
 8820SOL    HW237923   1.442   3.366   2.179 -0.0341  0.9622 -0.2774
 8821SOL     OW37924   3.289   1.454   8.304  0.3370  0.2596  0.4338
 8821SOL    HW137925   3.225   1.500   8.250 -0.6441 -0.7214  0.7603
 8821SOL    HW237926   3.230   1.399   8.356 -1.0881  0.0852 -1.4070
 8822SOL     OW37927   1.173   3.829  12.905  1.0035 -0.3728  0.1828
 8822SOL    HW137928   1.178   3.896  12.837  0.5662 -1.3887 -0.8616
 8822SOL    HW237929   1.198   3.752  12.853  0.6069  0.6138 -1.4837
 8823SOL     OW37930   0.243   1.621  15.197  0.4158  0.0189 -0.2787
 8823SOL    HW137931   0.177   1.688  15.179  0.1794  0.1628  1.1430
 8823SOL    HW237932   0.185   1.547  15.216  0.1436  0.2002 -0.4071
 8824SOL     OW37933   2.315   1.394   7.269 -0.0386 -0.1401  0.3734
 8824SOL    HW137934   2.319   1.457   7.341  0.3997 -0.1804  0.3785
 8824SOL    HW237935   2.394   1.341   7.266 -0.1130 -0.1354 -1.5922
 8825SOL     OW37936   1.370   4.595  16.232  0.0262 -0.3189  1.3194
 8825SOL    HW137937   1.428   4.570  16.160 -1.6612  0.1931 -0.2202
 8825SOL    HW237938   1.327   4.509  16.235  0.1859 -0.4836 -1.3113
 8826SOL     OW37939   3.182   1.879  15.885  0.2386 -0.0792  0.0547
 8826SOL    HW137940   3.090   1.904  15.876  0.1315  0.6287  3.0383
 8826SOL    HW237941   3.205   1.880  15.792  0.4709 -1.7248  0.0955
 8827SOL     OW37942   1.412   1.076   4.140  0.1629 -0.2704 -0.1273
 8827SOL    HW137943   1.462   1.149   4.104 -0.1364  0.0407  0.0897
 8827SOL    HW237944   1.323   1.100   4.115  0.5871 -1.1646 -2.5469
 8828SOL     OW37945   0.507   1.459  11.867 -0.3651 -0.2302 -0.4279
 8828SOL    HW137946   0.603   1.457  11.865 -0.3101 -1.4751  3.2157
 8828SOL    HW237947   0.495   1.364  11.873 -0.3005 -0.1797  0.6665
 8829SOL     OW37948   3.787   0.277   2.189  0.3418 -0.8388  0.0495
 8829SOL    HW137949   3.837   0.229   2.256 -0.7036 -2.0529 -0.0304
 8829SOL    HW237950   3.719   0.209   2.192 -0.7752  0.2258 -1.0305
 8830SOL     OW37951   3.214   1.419   6.081  0.1309  0.1688 -0.9101
 8830SOL    HW137952   3.179   1.482   6.017 -1.2145  0.6017  0.2543
 8830SOL    HW237953   3.297   1.462   6.099  0.7476 -1.3930 -0.0383
 8831SOL     OW37954   0.574   3.295   8.773  0.3164  0.0011 -0.2487
 8831SOL    HW137955   0.518   3.260   8.705 -0.5604  0.2945  0.3191
 8831SOL    HW237956   0.660   3.280   8.733  1.2583  0.9634  1.3566
 8832SOL     OW37957   2.542   4.474   6.921  0.3231  0.3973  0.4222
 8832SOL    HW137958   2.484   4.407   6.956 -0.1394 -0.0541 -1.2175
 8832SOL    HW237959   2.615   4.421   6.891  0.7322  0.4061  1.4095
 8833SOL     OW37960   3.098   1.042   1.739  0.1359  0.6728  0.4232
 8833SOL    HW137961   3.013   1.024   1.700  0.6290  1.0272 -0.8390
 8833SOL    HW237962   3.093   0.992   1.820  1.3502 -2.0531 -1.1970
 8834SOL     OW37963   4.468   2.651   2.626  0.0400 -0.2290 -0.5225
 8834SOL    HW137964   4.423   2.647   2.710 -2.0301 -1.6317 -1.6853
 8834SOL    HW237965   4.497   2.742   2.632 -2.5960  0.6549 -0.9961
 8835SOL     OW37966   1.980   1.483   4.281  0.1556 -0.1912 -0.7093
 8835SOL    HW137967   2.019   1.567   4.259  0.5198 -0.1188  0.1910
 8835SOL    HW237968   2.055   1.424   4.268  0.1487 -0.0135 -1.5574
 8836SOL     OW37969   0.331   4.629   2.531 -0.5431 -0.1794 -0.4252
 8836SOL    HW137970   0.261   4.661   2.474 -2.1809  0.0902  1.7004
 8836SOL    HW237971   0.286   4.583   2.602 -1.2965  2.3511  0.7540
 8837SOL     OW37972   2.386   1.010   3.586 -0.2324 -0.2496 -0.2099
 8837SOL    HW137973   2.336   0.960   3.521  1.2029  2.5270 -3.4424
 8837SOL    HW237974   2.433   0.940   3.631 -1.0095 -0.3858  0.4040
 8838SOL     OW37975   2.377   0.888   6.637 -0.1669  0.2152  0.3385
 8838SOL    HW137976   2.440   0.852   6.575 -1.3007  1.1690 -1.3471
 8838SOL    HW237977   2.377   0.810   6.692 -0.9327 -0.0879 -0.1022
 8839SOL     OW37978   3.458   1.577   3.926  0.0319 -0.2945 -0.2558
 8839SOL    HW137979   3.414   1.578   3.841  3.3823  0.8185 -1.9937
 8839SOL    HW237980   3.547   1.567   3.890  0.0572 -0.7571 -0.0523
 8840SOL     OW37981   1.109   2.356   2.778 -0.0769  0.1146 -0.0515
 8840SOL    HW137982   1.136   2.275   2.733  1.8557  0.3537  0.6687
 8840SOL    HW237983   1.192   2.391   2.812  0.1753 -1.4975  1.0042
 8841SOL     OW37984   0.935   1.556   8.049  0.1975 -0.5013 -0.3896
 8841SOL    HW137985   0.850   1.590   8.023  0.8561  0.0645 -1.7745
 8841SOL    HW237986   0.924   1.542   8.143  2.3453 -2.3073 -0.4065
 8842SOL     OW37987   2.639   2.244   4.738  0.3168 -0.2396 -0.0634
 8842SOL    HW137988   2.709   2.180   4.745  1.1285  0.3746 -2.6119
 8842SOL    HW237989   2.621   2.260   4.831 -0.2162 -2.1587  0.1604
 8843SOL     OW37990   0.020   2.244   8.501  0.6497 -0.7035 -0.1579
 8843SOL    HW137991   0.114   2.227   8.508  1.2862  2.3071 -1.1883
 8843SOL    HW237992   0.016   2.299   8.422  1.2385  1.4883  1.3340
 8844SOL     OW37993   3.155   1.064   2.866  0.0846  0.4220 -0.2224
 8844SOL    HW137994   3.213   0.988   2.870  0.1522  0.3528 -2.4163
 8844SOL    HW237995   3.222   1.131   2.882  2.2985 -1.7755 -0.3398
 8845SOL     OW37996   1.654   1.171  11.584  0.6571 -0.8527 -0.5109
 8845SOL    HW137997   1.610   1.220  11.653  2.0188  0.2558 -0.4213
 8845SOL    HW237998   1.598   1.195  11.510 -0.2667 -1.3972  0.0175
 8846SOL     OW37999   0.720   4.332   5.130  0.2866  0.3633 -0.1339
 8846SOL    HW138000   0.801   4.282   5.117  1.3708  1.4508  2.4195
 8846SOL    HW238001   0.760   4.418   5.143 -0.7712  1.1816 -2.3219
 8847SOL     OW38002   3.838   2.099   5.619  0.0731 -0.7598 -0.2950
 8847SOL    HW138003   3.750   2.114   5.583 -0.3105 -1.3200  0.4036
 8847SOL    HW238004   3.896   2.138   5.554  0.1512  0.5483  0.5656
 8848SOL     OW38005   1.637   3.472   5.400 -0.5967 -0.1241  0.0670
 8848SOL    HW138006   1.718   3.507   5.437 -0.9944  0.0336  0.8010
 8848SOL    HW238007   1.667   3.397   5.349  0.3075  1.0669 -1.1591
 8849SOL     OW38008   3.666   1.862   1.878 -0.0940 -0.4131 -0.0246
 8849SOL    HW138009   3.684   1.842   1.786 -2.4319 -0.0879 -0.5543
 8849SOL    HW238010   3.664   1.957   1.862 -0.8382 -0.3297  0.5682
 8850SOL     OW38011   4.213   1.909   7.272 -0.3961  0.3727  0.2276
 8850SOL    HW138012   4.252   1.955   7.346  0.6139 -1.3413  0.7695
 8850SOL    HW238013   4.218   1.819   7.304 -1.8148 -0.0959 -0.8349
 8851SOL     OW38014   2.225   0.108   6.105 -0.0071  0.0441 -0.3384
 8851SOL    HW138015   2.147   0.163   6.110 -0.9425 -1.3097 -0.1248
 8851SOL    HW238016   2.273   0.128   6.186  0.7657  0.9042 -1.0019
 8852SOL     OW38017   0.883   4.080   9.407  0.2305  0.0168 -0.1467
 8852SOL    HW138018   0.918   4.161   9.370  1.0694  0.0371  0.6829
 8852SOL    HW238019   0.931   4.016   9.355  1.2349  0.5326  0.1446
 8853SOL     OW38020   3.350   2.441  12.792 -0.5155 -0.6273  0.4259
 8853SOL    HW138021   3.407   2.374  12.829 -1.1909 -1.1488  0.5393
 8853SOL    HW238022   3.290   2.443  12.867 -0.4768 -0.1618  0.4427
 8854SOL     OW38023   2.324   4.520  11.773 -0.4090  0.0459  0.0195
 8854SOL    HW138024   2.248   4.494  11.721 -0.5720 -1.6331  1.1095
 8854SOL    HW238025   2.318   4.615  11.762 -1.3775 -0.1893 -1.5239
 8855SOL     OW38026   2.179   2.336   7.036  0.1068  0.4745  0.2320
 8855SOL    HW138027   2.103   2.396   7.032  1.4460  1.9576 -2.5773
 8855SOL    HW238028   2.205   2.334   6.945  1.0047  1.3693  0.4653
 8856SOL     OW38029   0.136   4.093  10.441 -0.6763 -0.6048  0.0593
 8856SOL    HW138030   0.119   4.032  10.513 -1.3071 -0.5064 -0.0076
 8856SOL    HW238031   0.204   4.153  10.472 -2.3087  0.9919  0.5496
 8857SOL     OW38032   4.045   2.083   0.893 -0.0923 -0.1697 -0.1118
 8857SOL    HW138033   4.004   2.065   0.808 -0.6256 -0.1624  0.1389
 8857SOL    HW238034   4.127   2.035   0.892  0.7092  1.1763  0.5694
 8858SOL     OW38035   2.384   2.437   2.207 -0.3924  0.0232 -0.0121
 8858SOL    HW138036   2.371   2.519   2.159 -0.3983  0.3605  0.5611
 8858SOL    HW238037   2.309   2.381   2.190 -0.3836 -0.7402  2.4004
 8859SOL     OW38038   3.481   2.794   6.174  0.4703  0.0762 -0.5832
 8859SOL    HW138039   3.428   2.723   6.138  0.2671 -0.2837  0.4457
 8859SOL    HW238040   3.427   2.871   6.154  2.2692  0.9965 -1.9255
 8860SOL     OW38041   2.026   3.569   7.235  0.1486 -0.3786  0.0435
 8860SOL    HW138042   1.973   3.490   7.249  1.5701 -1.3049  0.2345
 8860SOL    HW238043   2.040   3.565   7.140  3.6329  0.0133  0.5665
 8861SOL     OW38044   2.858   2.467  14.891  0.3049 -0.7354  0.1333
 8861SOL    HW138045   2.887   2.399  14.951  0.0552 -2.3396 -1.5540
 8861SOL    HW238046   2.862   2.416  14.810  1.1889 -0.8667  0.2619
 8862SOL     OW38047   1.720   1.114   6.721  0.2797 -0.1983 -0.0409
 8862SOL    HW138048   1.645   1.165   6.752  1.9453  1.2848  1.5335
 8862SOL    HW238049   1.680   1.044   6.669  1.0634  0.5186 -1.6059
 8863SOL     OW38050   4.375   2.740  16.932 -0.2615 -0.2269 -0.4226
 8863SOL    HW138051   4.384   2.752  16.838  2.5331  0.3506 -0.0780
 8863SOL    HW238052   4.383   2.832  16.956  1.1355 -1.0721  2.3710
 8864SOL     OW38053   2.302   3.721   4.271  0.8885 -0.4470 -0.3329
 8864SOL    HW138054   2.323   3.725   4.178  0.0821 -0.7395 -0.5345
 8864SOL    HW238055   2.255   3.804   4.277  0.4879 -0.7515  0.9984
 8865SOL     OW38056   3.191   4.655  12.624 -0.5825 -0.1518 -0.1618
 8865SOL    HW138057   3.206   4.721  12.692  1.5695 -1.7171  0.8798
 8865SOL    HW238058   3.263   4.685  12.568 -1.2645  2.0561  0.1603
 8866SOL     OW38059   0.236   2.273  14.068 -0.3353 -0.4320  0.2481
 8866SOL    HW138060   0.172   2.296  14.001  1.4670  0.8412 -1.0462
 8866SOL    HW238061   0.219   2.351  14.121 -1.5226 -0.7322  0.2982
 8867SOL     OW38062   0.730   4.200   5.559 -0.2023 -0.3026 -0.1946
 8867SOL    HW138063   0.819   4.206   5.526 -0.1858 -0.1388 -0.1221
 8867SOL    HW238064   0.693   4.286   5.541  1.0835  0.2769 -0.0215
 8868SOL     OW38065   1.389   2.840   5.608 -0.2438 -0.0454  0.6965
 8868SOL    HW138066   1.380   2.766   5.548 -0.8289 -0.3576  1.1762
 8868SOL    HW238067   1.367   2.804   5.694  1.2299 -0.4539  0.9014
 8869SOL     OW38068   3.598   1.550  17.106 -0.5634  0.5749 -0.8244
 8869SOL    HW138069   3.573   1.600  17.184 -1.4254 -0.6612 -0.3176
 8869SOL    HW238070   3.612   1.619  17.041  5.6307  1.4592  1.4719
 8870SOL     OW38071   1.038   0.867   9.178  0.0975 -0.1112 -0.0164
 8870SOL    HW138072   1.084   0.883   9.096 -0.2667 -1.8516 -0.5496
 8870SOL    HW238073   0.965   0.926   9.157 -0.6611 -0.4470  1.7023
 8871SOL     OW38074   4.294   3.806   2.560 -0.2404  0.3555  0.0660
 8871SOL    HW138075   4.204   3.791   2.589  0.3362  1.2032  2.3431
 8871SOL    HW238076   4.344   3.766   2.631 -2.1085 -1.4925  0.3349
 8872SOL     OW38077   4.404   1.810  13.709  0.2661 -0.1421 -1.1116
 8872SOL    HW138078   4.370   1.876  13.648 -1.3615  0.5974  0.5956
 8872SOL    HW238079   4.496   1.835  13.709 -0.0739  1.1008 -1.2598
 8873SOL     OW38080   1.014   1.768   7.677 -0.2570 -0.2426  0.0019
 8873SOL    HW138081   1.072   1.731   7.744  0.8036 -1.4869 -1.5922
 8873SOL    HW238082   1.013   1.862   7.692  1.1398  0.0730 -1.8457
 8874SOL     OW38083   3.784   3.490   4.974  0.5063 -0.3132 -0.1534
 8874SOL    HW138084   3.805   3.554   5.042  2.2413  0.1865 -1.1302
 8874SOL    HW238085   3.764   3.542   4.896  0.1820 -0.0704  0.0942
 8875SOL     OW38086   3.633   3.192   0.151  0.2168  0.4567  0.5197
 8875SOL    HW138087   3.677   3.155   0.228 -0.0114 -0.3459  0.2614
 8875SOL    HW238088   3.598   3.272   0.188  0.5281  0.0991  1.5928
 8876SOL     OW38089   2.931   3.244   6.949 -0.4717  0.0380  0.9653
 8876SOL    HW138090   2.889   3.214   7.030 -1.1928 -1.5568  0.0045
 8876SOL    HW238091   3.008   3.290   6.983 -0.2534 -0.1092  0.6685
 8877SOL     OW38092   3.935   2.516   6.709  0.2027 -0.2681 -0.1548
 8877SOL    HW138093   3.946   2.594   6.654 -2.1761  0.1769  0.0092
 8877SOL    HW238094   3.876   2.459   6.661 -2.7332  1.2381  1.6388
 8878SOL     OW38095   1.941   3.276   6.348  0.5411  0.0076  0.3727
 8878SOL    HW138096   2.014   3.336   6.333 -0.2017  0.9421  0.4851
 8878SOL    HW238097   1.956   3.246   6.438 -1.8158 -2.5203 -0.0938
 8879SOL     OW38098   4.446   2.870   4.127  0.6944  0.4186 -0.1958
 8879SOL    HW138099   4.422   2.834   4.041 -1.6872 -0.7621  0.9441
 8879SOL    HW238100   4.535   2.902   4.113  1.2081  0.0143  2.1888
 8880SOL     OW38101   3.564   4.069   5.788  0.4890 -0.1532  0.7285
 8880SOL    HW138102   3.542   3.978   5.771  0.7379 -0.7492  3.6142
 8880SOL    HW238103   3.550   4.078   5.882  0.8325 -0.4490  0.8091
 8881SOL     OW38104   3.033   4.722   7.075 -0.1881 -0.1810 -0.2316
 8881SOL    HW138105   3.028   0.095   7.073 -1.1220 -0.2257 -0.1943
 8881SOL    HW238106   3.102   4.711   7.010  0.6416 -0.3469  0.6747
 8882SOL     OW38107   1.569   2.809   3.572  0.1832 -0.5549  0.5034
 8882SOL    HW138108   1.591   2.765   3.654 -0.0909 -1.0436  0.3177
 8882SOL    HW238109   1.563   2.737   3.509  0.1285  1.0753 -1.3589
 8883SOL     OW38110   3.902   4.268   3.126  0.2121  0.2044 -0.0493
 8883SOL    HW138111   3.937   4.291   3.039 -0.0710 -0.8597 -0.4447
 8883SOL    HW238112   3.838   4.339   3.129  0.3122  0.3787 -1.9006
 8884SOL     OW38113   2.999   0.427   3.229 -0.0285 -0.2226  0.3219
 8884SOL    HW138114   3.074   0.399   3.176  0.3490 -0.0649  0.7773
 8884SOL    HW238115   2.930   0.370   3.195  0.9470 -1.2713  0.1083
 8885SOL     OW38116   2.458   1.319   4.964  0.2964  0.0659  0.1068
 8885SOL    HW138117   2.448   1.402   4.918  1.1910  0.4018  0.5074
 8885SOL    HW238118   2.394   1.263   4.921 -0.3420  0.1761  0.9243
 8886SOL     OW38119   2.536   3.270   3.442 -0.3650  0.5050 -0.6774
 8886SOL    HW138120   2.626   3.287   3.414 -0.5293  0.9102 -0.9589
 8886SOL    HW238121   2.548   3.181   3.473 -1.7695  0.3997 -0.4301
 8887SOL     OW38122   2.409   3.940   0.938 -0.1881 -0.2045 -0.1013
 8887SOL    HW138123   2.425   3.904   1.025  0.6190  0.4522  0.0238
 8887SOL    HW238124   2.476   3.889   0.891  0.1146  1.2433 -1.2661
 8888SOL     OW38125   3.067   4.305   4.738  0.1134 -0.1156  0.1660
 8888SOL    HW138126   3.149   4.349   4.717 -0.4448  1.1443  0.6063
 8888SOL    HW238127   3.067   4.228   4.680 -2.4827 -0.3159  0.4362
 8889SOL     OW38128   2.865   2.648   2.537  0.1045  0.3228  0.0948
 8889SOL    HW138129   2.829   2.580   2.594  0.9626  0.0261  0.2868
 8889SOL    HW238130   2.942   2.596   2.512  1.3815  0.7053  3.2996
 8890SOL     OW38131   2.659   3.339   8.431  0.5764  0.3208 -0.4421
 8890SOL    HW138132   2.605   3.314   8.506  1.2210 -4.9104 -1.7139
 8890SOL    HW238133   2.646   3.433   8.442 -0.3096  0.4652 -2.8681
 8891SOL     OW38134   3.982   0.286  17.035 -0.4526 -0.2522 -0.4664
 8891SOL    HW138135   4.041   0.361  17.025  0.9325 -1.6005 -2.5135
 8891SOL    HW238136   4.037   0.229  17.089 -0.8372  0.1360  0.3378
 8892SOL     OW38137   3.229   1.078  13.682  0.1534 -0.0567  0.2912
 8892SOL    HW138138   3.142   1.085  13.722  1.4133 -2.0684  3.3511
 8892SOL    HW238139   3.289   1.120  13.745  0.7154 -0.4203 -0.0076
 8893SOL     OW38140   3.246   4.138  12.441  0.1962  0.2090 -0.5628
 8893SOL    HW138141   3.207   4.154  12.356 -2.3433  0.0206  0.5548
 8893SOL    HW238142   3.316   4.075  12.421  0.9163 -0.0932  2.7651
 8894SOL     OW38143   4.295   1.040   2.584 -0.5514  0.1397 -0.2363
 8894SOL    HW138144   4.265   0.950   2.578 -0.2884  0.0820 -0.7570
 8894SOL    HW238145   4.238   1.072   2.654  0.4350 -0.2872  0.7670
 8895SOL     OW38146   3.090   2.698   4.870 -0.3945  0.7528 -0.3036
 8895SOL    HW138147   3.078   2.625   4.809 -0.1935  2.2607 -2.1367
 8895SOL    HW238148   3.051   2.770   4.821 -1.8666  2.0769  2.8106
 8896SOL     OW38149   3.927   1.018   9.297  0.2545 -0.5551  0.1392
 8896SOL    HW138150   3.880   0.956   9.353 -0.3015 -0.5469 -0.3220
 8896SOL    HW238151   3.989   1.057   9.359 -0.7927 -0.0579  0.8814
 8897SOL     OW38152   3.785   4.538   7.873  0.1528 -0.0982 -0.0019
 8897SOL    HW138153   3.790   4.629   7.903  0.5093 -0.3146  0.5720
 8897SOL    HW238154   3.717   4.556   7.807  1.8186 -1.6327 -2.1427
 8898SOL     OW38155   4.170   2.706   2.013  0.3973 -0.2484 -0.0782
 8898SOL    HW138156   4.163   2.661   2.097  0.0365  1.0293  0.5856
 8898SOL    HW238157   4.085   2.750   2.006  1.2597  1.3443 -0.6319
 8899SOL     OW38158   2.877   3.375   3.057  0.0746  0.3875  0.1708
 8899SOL    HW138159   2.844   3.294   3.096  0.7143 -0.7051 -1.5996
 8899SOL    HW238160   2.877   3.441   3.127 -1.4655 -1.1345  1.6200
 8900SOL     OW38161   0.212   2.746  15.062 -0.4022 -0.0630 -0.0843
 8900SOL    HW138162   0.199   2.772  15.153 -1.8408  3.4950 -1.2859
 8900SOL    HW238163   0.187   2.653  15.058 -2.3463  0.5034 -1.0703
 8901SOL     OW38164   4.264   0.221  12.138 -0.1113  0.1236 -0.2293
 8901SOL    HW138165   4.182   0.177  12.161 -0.0322  0.5348  0.8207
 8901SOL    HW238166   4.286   0.183  12.052 -3.6328 -0.0312 -1.0502
 8902SOL     OW38167   2.056   2.474   9.460 -0.0983 -0.3687 -0.4690
 8902SOL    HW138168   2.016   2.518   9.535  1.2658 -0.4395  0.2928
 8902SOL    HW238169   2.098   2.401   9.505  0.0516  0.0669  0.0799
 8903SOL     OW38170   2.756   3.099   8.088  0.0434  0.3539  0.2936
 8903SOL    HW138171   2.807   3.018   8.081  0.0919  0.5103 -1.1066
 8903SOL    HW238172   2.798   3.158   8.026 -0.7515 -1.3772 -1.9147
 8904SOL     OW38173   0.118   2.799  13.467  0.3416  0.1006 -0.0828
 8904SOL    HW138174   0.118   2.893  13.484  0.6512  0.4300 -1.9034
 8904SOL    HW238175   0.024   2.788  13.456  0.6305 -2.9704  0.5963
 8905SOL     OW38176   0.397   2.367   2.479 -0.8244 -0.0712 -0.0932
 8905SOL    HW138177   0.429   2.436   2.421  0.6418 -0.8827 -0.2449
 8905SOL    HW238178   0.482   2.341   2.514  0.6623  0.0171 -3.6120
 8906SOL     OW38179   4.576   1.359   3.940  0.2006  0.4121 -0.1292
 8906SOL    HW138180   4.536   1.434   3.985  0.2436  0.9479 -0.9862
 8906SOL    HW238181   4.552   1.378   3.849 -1.6991 -1.3223  0.0047
 8907SOL     OW38182   1.012   1.109   4.315 -0.4315  0.0638  0.1448
 8907SOL    HW138183   1.035   1.098   4.407 -1.7119 -0.2957  0.4102
 8907SOL    HW238184   1.016   1.022   4.277 -0.3598 -0.4910  1.4321
 8908SOL     OW38185   2.975   0.859  11.026  0.2538 -0.1498 -0.0863
 8908SOL    HW138186   2.987   0.954  11.028 -0.3292 -0.0797  0.3979
 8908SOL    HW238187   3.037   0.841  11.097 -1.2069 -0.2057  1.1877
 8909SOL     OW38188   3.485   0.307  11.847 -0.2260  0.0192 -0.3625
 8909SOL    HW138189   3.578   0.321  11.860 -0.3695  1.2944 -0.6718
 8909SOL    HW238190   3.468   0.233  11.906 -0.8370 -0.6628 -1.3948
 8910SOL     OW38191   1.250   2.957   3.856 -0.4428 -0.2754  0.5745
 8910SOL    HW138192   1.214   2.888   3.800  0.3731 -1.4025  1.4407
 8910SOL    HW238193   1.200   3.036   3.835  1.0972  1.0963  2.0547
 8911SOL     OW38194   4.685   0.220   6.633 -0.0571  0.0157  0.3084
 8911SOL    HW138195   4.714   0.279   6.564 -1.3144  0.1054 -0.1485
 8911SOL    HW238196   4.706   0.133   6.600 -0.7863 -1.0204  2.5288
 8912SOL     OW38197   0.824   1.541   4.780  0.1777 -0.1236 -0.2567
 8912SOL    HW138198   0.832   1.591   4.698 -1.7236 -1.6756 -1.3949
 8912SOL    HW238199   0.763   1.599   4.826 -1.7612 -2.2883 -0.0902
 8913SOL     OW38200   3.543   0.714  17.253  0.2269 -0.4060  0.5435
 8913SOL    HW138201   3.464   0.673  17.219 -0.5648 -0.5373  2.5224
 8913SOL    HW238202   3.544   0.657  17.330 -0.4893 -2.1176 -0.7412
 8914SOL     OW38203   2.256   2.021   4.461 -0.0217 -0.1378  0.0921
 8914SOL    HW138204   2.246   1.939   4.413  1.9602  0.5447 -1.4999
 8914SOL    HW238205   2.168   2.056   4.445 -0.3172 -0.1536  1.7317
 8915SOL     OW38206   2.915   1.631   6.663 -0.3096  0.2144 -0.1486
 8915SOL    HW138207   2.848   1.697   6.644 -2.0388 -1.3800  0.4275
 8915SOL    HW238208   2.990   1.680   6.630 -0.0190 -1.0971 -1.4526
 8916SOL     OW38209   2.278   0.451   4.048  0.2171 -0.0291 -0.4625
 8916SOL    HW138210   2.276   0.416   4.137 -1.5010 -1.3592 -1.0219
 8916SOL    HW238211   2.254   0.542   4.066  0.5542  0.0727 -0.5225
 8917SOL     OW38212   3.742   1.382   7.847 -0.6695 -0.1656  0.4849
 8917SOL    HW138213   3.820   1.437   7.850 -2.8181  2.7410  1.6942
 8917SOL    HW238214   3.735   1.388   7.942 -2.2082 -1.2018  0.4325
 8918SOL     OW38215   4.451   2.404   7.586  0.1088 -0.0613  0.0624
 8918SOL    HW138216   4.438   2.495   7.614  1.1362  0.0203  0.2846
 8918SOL    HW238217   4.406   2.408   7.502  1.9148  0.2599 -0.8971
 8919SOL     OW38218   2.998   4.060   8.522  0.0281  0.1525  0.1150
 8919SOL    HW138219   2.983   4.104   8.438 -0.5894 -2.0967 -0.9307
 8919SOL    HW238220   2.907   4.035   8.535 -0.0312 -0.0871 -0.7244
 8920SOL     OW38221   3.568   2.064   4.967  0.7531 -0.5071  0.5196
 8920SOL    HW138222   3.476   2.046   4.986  0.0552  2.1578 -0.2694
 8920SOL    HW238223   3.560   2.149   4.923 -1.1221 -0.6792  0.5153
 8921SOL     OW38224   1.831   2.927   0.909  0.2128 -0.5068 -0.0572
 8921SOL    HW138225   1.879   3.008   0.929 -0.5188  0.3227 -1.7028
 8921SOL    HW238226   1.900   2.861   0.899 -0.6244 -1.2940 -0.5595
 8922SOL     OW38227   4.658   4.121   5.475  0.0362 -0.5574 -0.5336
 8922SOL    HW138228   4.641   4.079   5.559 -0.3290  0.9081  0.1182
 8922SOL    HW238229   4.604   4.200   5.472 -0.3714 -0.8073  0.1063
 8923SOL     OW38230   1.013   0.676   7.468  0.2521  0.1310  1.0702
 8923SOL    HW138231   1.018   0.770   7.455 -3.0078  0.0478 -0.7699
 8923SOL    HW238232   1.103   0.647   7.488  0.3481  0.4685  1.1245
 8924SOL     OW38233   1.000   3.464   4.475 -0.0992 -0.1493 -0.3434
 8924SOL    HW138234   0.984   3.387   4.530 -0.2886  1.5176  1.9501
 8924SOL    HW238235   1.067   3.433   4.414 -0.6101  0.2371 -1.1075
 8925SOL     OW38236   0.303   4.077   5.384 -0.7957 -0.3483  0.0322
 8925SOL    HW138237   0.392   4.089   5.352 -1.2200  0.7817 -0.7042
 8925SOL    HW238238   0.248   4.151   5.360  2.0850  2.0914  0.9958
 8926SOL     OW38239   1.512   3.507   9.519 -0.0039  0.3967  0.1619
 8926SOL    HW138240   1.527   3.507   9.613  2.2026  0.1031 -0.1846
 8926SOL    HW238241   1.483   3.417   9.505 -0.3426  0.4732  0.3693
 8927SOL     OW38242   1.907   4.295  12.575 -0.2070 -0.1252 -0.1972
 8927SOL    HW138243   1.846   4.288  12.648 -0.5977  1.4848 -0.3706
 8927SOL    HW238244   1.993   4.286  12.617  0.9105  1.5651 -2.1195
 8928SOL     OW38245   2.654   0.649   5.984  0.3287 -0.1319  0.1998
 8928SOL    HW138246   2.684   0.729   6.027 -0.7542  0.1183  0.4780
 8928SOL    HW238247   2.733   0.603   5.955 -0.5402 -0.5139 -1.5410
 8929SOL     OW38248   2.818   0.097   5.394  0.0738 -0.4596 -0.5948
 8929SOL    HW138249   2.866   0.031   5.343  1.6994  1.7090 -1.8629
 8929SOL    HW238250   2.735   0.051   5.387 -0.3723  0.1289  0.9449
 8930SOL     OW38251   2.449   0.231  10.158  0.4228 -0.0332  0.8483
 8930SOL    HW138252   2.486   0.153  10.118  0.1054  0.7687 -1.0474
 8930SOL    HW238253   2.520   0.293  10.141  0.0906 -0.5622 -2.5094
 8931SOL     OW38254   2.172   0.899   2.625  0.0243  0.5196  0.2710
 8931SOL    HW138255   2.233   0.831   2.657  1.2623  0.4546 -2.2574
 8931SOL    HW238256   2.217   0.974   2.664 -0.3046  0.8212  0.0616
 8932SOL     OW38257   2.894   0.959   0.835  0.1358  0.7728  0.5889
 8932SOL    HW138258   2.876   1.022   0.765 -2.4736 -1.1701 -0.5052
 8932SOL    HW238259   2.890   1.018   0.910 -0.0443 -1.1419  2.0700
 8933SOL     OW38260   0.338   2.532  13.405 -0.2889 -0.1466  0.0829
 8933SOL    HW138261   0.339   2.488  13.490  1.1550 -0.4227 -0.0739
 8933SOL    HW238262   0.385   2.463  13.359  0.1673  0.5943 -0.5716
 8934SOL     OW38263   1.831   0.258   4.431  0.0381 -0.3080 -0.0711
 8934SOL    HW138264   1.780   0.316   4.376  0.2298  1.3261  1.4710
 8934SOL    HW238265   1.763   0.239   4.496  1.5831 -2.6647  0.9047
 8935SOL     OW38266   1.208   0.239   5.542  0.0316  0.3820 -0.6681
 8935SOL    HW138267   1.192   0.145   5.541 -0.7910  0.4939  0.9079
 8935SOL    HW238268   1.301   0.239   5.519  0.0114  0.1661 -0.7472
 8936SOL     OW38269   3.292   1.644   3.393 -0.6584  0.5440 -0.7614
 8936SOL    HW138270   3.256   1.674   3.477  1.0842  3.7404 -1.1875
 8936SOL    HW238271   3.273   1.552   3.412 -2.4865  1.1274  0.2224
 8937SOL     OW38272   3.168   1.144  17.317  0.4414  0.0903  0.3522
 8937SOL    HW138273   3.102   1.093  17.364 -1.2513  1.4642 -0.5087
 8937SOL    HW238274   3.249   1.098  17.339  1.2145  0.9226 -0.7401
 8938SOL     OW38275   1.448   2.584  11.585 -0.2093  0.3822 -0.0534
 8938SOL    HW138276   1.484   2.617  11.502 -0.7325 -0.3036 -0.5616
 8938SOL    HW238277   1.517   2.528  11.620 -0.4641 -1.5401 -2.5839
 8939SOL     OW38278   4.579   3.161   6.023  0.1704  0.7028 -0.3264
 8939SOL    HW138279   4.546   3.233   6.077 -2.1431 -0.2552 -0.4678
 8939SOL    HW238280   4.577   3.201   5.936  0.2176 -0.3507 -0.8066
 8940SOL     OW38281   4.342   4.562   6.124 -0.1073 -0.2885  0.4041
 8940SOL    HW138282   4.373   4.585   6.212  2.2396 -1.4443 -0.1342
 8940SOL    HW238283   4.418   4.511   6.097 -0.8019 -0.9967 -0.2093
 8941SOL     OW38284   2.455   0.804   2.057  0.5946 -0.1620  0.0934
 8941SOL    HW138285   2.401   0.725   2.048  2.2687 -1.1512 -1.1216
 8941SOL    HW238286   2.389   0.873   2.068  1.9720  1.0238  0.7720
 8942SOL     OW38287   4.514   1.074   5.836 -0.0029  0.2066 -0.0779
 8942SOL    HW138288   4.492   1.012   5.767  0.8453  0.4499 -0.5752
 8942SOL    HW238289   4.609   1.061   5.837 -0.0172  0.1793  2.6915
 8943SOL     OW38290   0.971   0.549  16.839 -0.0322 -0.2631  0.4275
 8943SOL    HW138291   1.005   0.578  16.923  0.0335  2.4939 -0.5702
 8943SOL    HW238292   1.040   0.571  16.777 -1.3677  0.1743 -0.9056
 8944SOL     OW38293   0.281   0.512   4.088  0.3428 -0.1470 -0.2160
 8944SOL    HW138294   0.247   0.595   4.121 -0.1109 -0.4522  0.0945
 8944SOL    HW238295   0.240   0.455   4.153  0.2843  0.8472  0.6159
 8945SOL     OW38296   3.243   2.161   6.131 -0.0031  0.1713  0.4094
 8945SOL    HW138297   3.157   2.202   6.119  0.5147  1.4907  1.2922
 8945SOL    HW238298   3.301   2.235   6.115  0.1330  0.7170  3.3223
 8946SOL     OW38299   0.669   2.370   1.034 -0.7375  0.1907  0.0214
 8946SOL    HW138300   0.755   2.385   1.072  0.2404  1.0340 -2.5197
 8946SOL    HW238301   0.616   2.329   1.103  0.2780  0.5692  1.0253
 8947SOL     OW38302   2.533   4.605   7.998 -0.0853 -0.5018  0.0063
 8947SOL    HW138303   2.569   4.524   8.035  1.1830  0.7716  1.5600
 8947SOL    HW238304   2.439   4.593   8.013  0.3255 -1.9823  1.3741
 8948SOL     OW38305   3.771   3.011   4.792  0.1105  1.0183  0.4781
 8948SOL    HW138306   3.679   3.020   4.765 -0.2010  0.5482  1.3598
 8948SOL    HW238307   3.762   3.084   4.854  0.1956  0.8253  0.7190
 8949SOL     OW38308   1.925   3.241   4.016  0.4465  0.1612 -0.1356
 8949SOL    HW138309   1.955   3.306   4.080  0.8397  0.4805 -0.6367
 8949SOL    HW238310   1.861   3.192   4.068 -2.2704  0.0120 -3.5712
 8950SOL     OW38311   3.920   1.336   9.226 -0.2840 -0.4058  0.0378
 8950SOL    HW138312   3.958   1.393   9.293 -2.2777 -0.1989  0.9734
 8950SOL    HW238313   3.907   1.253   9.273  0.0427 -0.5703 -0.1571
 8951SOL     OW38314   3.441   0.640   5.324  0.1700  0.5090  0.5020
 8951SOL    HW138315   3.515   0.580   5.331 -0.2672  0.2154  2.4189
 8951SOL    HW238316   3.380   0.582   5.278 -1.0123  0.0428  2.6743
 8952SOL     OW38317   2.536   3.065   4.539  0.2644  0.0309 -0.0066
 8952SOL    HW138318   2.501   3.007   4.472 -2.2623  1.2770  0.2254
 8952SOL    HW238319   2.531   3.017   4.622 -1.1576  2.2887  1.2267
 8953SOL     OW38320   1.888   4.276   0.622 -0.3872 -0.1314  0.4351
 8953SOL    HW138321   1.833   4.315   0.689 -0.0033 -0.1556  0.7667
 8953SOL    HW238322   1.959   4.337   0.602 -0.5596  0.7009  2.3333
 8954SOL     OW38323   2.588   0.362  13.571 -0.4421 -0.1788  0.7888
 8954SOL    HW138324   2.540   0.317  13.641  0.3143 -0.4756  1.1221
 8954SOL    HW238325   2.515   0.388  13.516 -0.4317 -2.0981 -0.1190
 8955SOL     OW38326   4.678   3.739   2.955  0.0181 -0.5757 -0.0643
 8955SOL    HW138327   4.693   3.648   2.931 -1.2110 -0.3852 -1.5247
 8955SOL    HW238328   4.608   3.732   3.020 -0.7188 -0.4475 -0.8516
 8956SOL     OW38329   1.757   4.230   8.160 -0.0312  0.5705 -0.4755
 8956SOL    HW138330   1.822   4.183   8.212 -0.0855  0.7886 -0.2092
 8956SOL    HW238331   1.711   4.285   8.224  0.7952  0.2956  0.3596
 8957SOL     OW38332   0.417   3.996   4.934 -0.2099  0.4228 -0.2569
 8957SOL    HW138333   0.340   4.052   4.921  0.6629  1.1328 -2.3227
 8957SOL    HW238334   0.385   3.952   5.013  1.4149 -2.1353 -1.0277
 8958SOL     OW38335   3.787   4.459   5.249  0.4586  0.1199 -0.7080
 8958SOL    HW138336   3.797   4.472   5.154  0.1178 -3.0808 -1.1902
 8958SOL    HW238337   3.711   4.516   5.262  1.0699  0.6131  0.5880
 8959SOL     OW38338   0.426   2.016  15.937 -0.4878 -0.7839  0.2383
 8959SOL    HW138339   0.413   2.057  16.023  0.3444  0.9057 -0.4488
 8959SOL    HW238340   0.336   2.033  15.910 -0.8543 -0.9176  1.3684
 8960SOL     OW38341   3.252   3.394   8.495 -0.4876 -0.5240 -0.2119
 8960SOL    HW138342   3.335   3.418   8.535  0.1790 -2.5431 -0.4071
 8960SOL    HW238343   3.217   3.483   8.497 -0.0502 -0.3442 -0.6158
 8961SOL     OW38344   2.171   4.396   4.181  0.5861  0.0552 -0.1654
 8961SOL    HW138345   2.083   4.414   4.146  0.5292 -0.9050 -0.5195
 8961SOL    HW238346   2.205   4.344   4.107 -0.3332  1.5870 -1.6654
 8962SOL     OW38347   0.141   3.487  14.309  0.6586  0.3556 -0.3642
 8962SOL    HW138348   0.177   3.489  14.398  3.4100 -1.0042 -1.4665
 8962SOL    HW238349   0.217   3.527  14.267 -0.4980  1.6457 -1.2396
 8963SOL     OW38350   0.322   2.318  16.477 -0.1241  0.5881  0.3054
 8963SOL    HW138351   0.329   2.267  16.396 -1.0513 -1.1665  1.3144
 8963SOL    HW238352   0.381   2.392  16.470  1.1630 -0.4968 -0.2730
 8964SOL     OW38353   4.363   0.141   0.290  0.7696 -0.3618  0.2035
 8964SOL    HW138354   4.392   0.051   0.302  1.4882 -0.4659 -2.2019
 8964SOL    HW238355   4.379   0.151   0.196 -0.3665 -0.2380  0.0227
 8965SOL     OW38356   2.726   1.476   3.902 -0.2105  0.1736  0.0516
 8965SOL    HW138357   2.778   1.540   3.949  0.7283  0.2034 -1.0238
 8965SOL    HW238358   2.709   1.404   3.963  0.2757  1.0902  1.2499
 8966SOL     OW38359   0.952   1.010  15.756 -0.4058 -0.0608  0.0642
 8966SOL    HW138360   0.949   0.943  15.688  1.4635 -2.6385  2.5269
 8966SOL    HW238361   1.045   1.027  15.741 -0.3733  0.4456  0.8152
 8967SOL     OW38362   2.298   1.546   9.367 -0.4411 -0.2701 -0.6943
 8967SOL    HW138363   2.221   1.491   9.383  0.7254 -2.2228 -1.8053
 8967SOL    HW238364   2.274   1.620   9.423  0.4754 -0.1382 -0.4765
 8968SOL     OW38365   1.864   4.414   2.032  0.4935  0.4020  0.3398
 8968SOL    HW138366   1.876   4.319   2.035  1.5704  0.6411  3.0941
 8968SOL    HW238367   1.834   4.423   1.941  1.7472  0.9445 -0.0147
 8969SOL     OW38368   1.456   1.833  14.017 -0.7349 -0.0442 -0.6031
 8969SOL    HW138369   1.441   1.860  13.926  0.7950 -0.3698 -0.9600
 8969SOL    HW238370   1.453   1.738  14.007  0.0101 -0.1306 -0.0501
 8970SOL     OW38371   1.846   0.927   3.746 -0.2730  0.6403  0.2354
 8970SOL    HW138372   1.937   0.945   3.770  0.0563  0.2175 -0.6997
 8970SOL    HW238373   1.869   0.924   3.653 -0.9994  2.8049 -0.0193
 8971SOL     OW38374   3.218   1.897   8.821  0.0437 -0.1785 -0.1471
 8971SOL    HW138375   3.160   1.973   8.821 -0.4191 -0.5389  2.1743
 8971SOL    HW238376   3.268   1.908   8.740  0.5689 -1.3197  0.0175
 8972SOL     OW38377   1.842   1.900  15.168  0.0065  0.0183  0.0719
 8972SOL    HW138378   1.811   1.817  15.205 -0.4130  0.4076  0.5908
 8972SOL    HW238379   1.932   1.908  15.200  0.7275 -0.2509 -1.8829
 8973SOL     OW38380   2.117   0.387   5.095 -0.1455 -0.1153 -0.1672
 8973SOL    HW138381   2.144   0.326   5.163  1.8619 -0.8545 -1.6260
 8973SOL    HW238382   2.180   0.364   5.026  0.6978 -0.5517  0.7414
 8974SOL     OW38383   2.805   3.515   3.603 -0.2768  0.6382 -0.0895
 8974SOL    HW138384   2.763   3.487   3.522 -2.3975 -0.7417  1.5041
 8974SOL    HW238385   2.899   3.514   3.584 -0.0797 -0.4537  0.9646
 8975SOL     OW38386   3.976   4.206   9.596 -0.2649  0.0476 -0.6117
 8975SOL    HW138387   4.027   4.207   9.678 -0.5056  0.4230 -0.4664
 8975SOL    HW238388   4.038   4.163   9.538  2.2077 -1.2380  2.9795
 8976SOL     OW38389   4.436   0.480   0.960 -0.6358 -0.7703 -0.1308
 8976SOL    HW138390   4.438   0.521   0.874 -1.7475 -1.4408 -0.4712
 8976SOL    HW238391   4.458   0.550   1.021 -1.8388  0.2430 -0.8595
 8977SOL     OW38392   1.575   2.229   5.566  0.4561 -0.3414  0.0139
 8977SOL    HW138393   1.526   2.211   5.485 -1.4651  0.4511  0.9847
 8977SOL    HW238394   1.525   2.298   5.611  1.4146  0.6411 -0.4237
 8978SOL     OW38395   4.351   2.580   9.110 -0.0662  0.1010 -0.1864
 8978SOL    HW138396   4.302   2.650   9.066  0.6616  0.2713 -0.7254
 8978SOL    HW238397   4.414   2.566   9.039  0.4761 -0.3051  0.3716
 8979SOL     OW38398   2.658   0.830   9.556  0.0568  0.1407  0.2517
 8979SOL    HW138399   2.748   0.798   9.547  0.3296  0.3648  2.2391
 8979SOL    HW238400   2.640   0.820   9.649 -0.2060  0.5755  0.2469
 8980SOL     OW38401   2.158   1.520  16.992 -0.3870  0.4336  0.0682
 8980SOL    HW138402   2.155   1.446  17.053 -1.4874 -0.4219 -1.0380
 8980SOL    HW238403   2.192   1.578  17.060 -1.7386  0.9785  0.2793
 8981SOL     OW38404   3.563   1.027  13.645  0.3263  0.1772 -1.0249
 8981SOL    HW138405   3.641   1.015  13.699  0.0438  0.7135 -0.4997
 8981SOL    HW238406   3.524   1.109  13.674 -0.1226  0.1396 -1.5283
 8982SOL     OW38407   0.034   2.511   5.228 -0.2345 -0.5821  0.3433
 8982SOL    HW138408   0.055   2.545   5.315 -2.9633 -1.4196  1.3446
 8982SOL    HW238409   0.079   2.582   5.184 -0.1750 -2.4810 -2.6381
 8983SOL     OW38410   2.485   2.359  10.056 -0.2305  0.2559 -0.8622
 8983SOL    HW138411   2.517   2.447  10.039  0.8204 -0.2647 -1.6019
 8983SOL    HW238412   2.545   2.305  10.004  0.2235  0.9246 -1.0257
 8984SOL     OW38413   0.590   1.935   8.503  0.0346 -0.4887 -0.0054
 8984SOL    HW138414   0.669   1.989   8.497  1.0156 -1.7103  1.7769
 8984SOL    HW238415   0.618   1.881   8.577  0.1581  0.8317  0.9044
 8985SOL     OW38416   3.838   4.384   5.520 -0.1248 -0.1019  0.5275
 8985SOL    HW138417   3.825   4.414   5.430  2.3110  0.5615  0.4017
 8985SOL    HW238418   3.754   4.340   5.533  0.2661 -1.1555 -0.4497
 8986SOL     OW38419   1.211   2.454   8.817 -0.1680  0.1761  0.1016
 8986SOL    HW138420   1.159   2.417   8.889 -2.8574  1.1096 -1.3659
 8986SOL    HW238421   1.219   2.378   8.759  0.9252  1.1065 -0.9587
 8987SOL     OW38422   3.426   2.519  14.648 -0.0598  0.3485  0.2169
 8987SOL    HW138423   3.427   2.576  14.570  1.8933  0.7421  0.5359
 8987SOL    HW238424   3.362   2.455  14.616 -2.1163  2.6188 -0.1975
 8988SOL     OW38425   1.796   1.989   0.172  0.1591  0.3221  0.6170
 8988SOL    HW138426   1.872   1.997   0.230  0.5409 -1.7824  0.4185
 8988SOL    HW238427   1.835   1.986   0.084 -1.4925 -0.8365 -0.0924
 8989SOL     OW38428   0.900   0.587   4.648  0.0930 -0.0302  0.3765
 8989SOL    HW138429   0.894   0.648   4.574 -0.1849 -0.6551 -0.1081
 8989SOL    HW238430   0.933   0.636   4.724  1.2043  0.4625 -0.4285
 8990SOL     OW38431   3.198   1.776   8.283  0.0222 -0.4341 -0.1795
 8990SOL    HW138432   3.134   1.736   8.224 -3.8226  2.4337  2.0106
 8990SOL    HW238433   3.261   1.818   8.225  1.3641 -1.1176  0.7867
 8991SOL     OW38434   3.075   2.587   9.995  0.0063 -0.0323 -0.2068
 8991SOL    HW138435   3.030   2.550   9.919  0.1082  0.5942 -0.5734
 8991SOL    HW238436   3.159   2.618   9.963 -0.8418  1.8822 -0.5587
 8992SOL     OW38437   0.568   1.197   5.828 -1.0474 -0.0527  0.1338
 8992SOL    HW138438   0.615   1.253   5.889 -0.2286 -0.6335  0.0470
 8992SOL    HW238439   0.517   1.137   5.883 -1.5726 -0.0725 -0.3704
 8993SOL     OW38440   1.451   4.567   8.445 -0.1382  0.8335 -0.2373
 8993SOL    HW138441   1.407   4.577   8.360 -0.0401 -2.5902 -0.6826
 8993SOL    HW238442   1.381   4.534   8.501  2.2098 -1.5734  1.2791
 8994SOL     OW38443   0.173   3.119  13.486  0.5157  0.1007 -0.4699
 8994SOL    HW138444   0.135   3.198  13.526  2.3437  0.2767  0.9323
 8994SOL    HW238445   0.206   3.078  13.566 -1.0355 -0.3227 -0.0408
 8995SOL     OW38446   0.625   3.225   3.371 -0.2140  0.2147 -0.1262
 8995SOL    HW138447   0.605   3.301   3.317  0.8149 -0.1093 -0.9468
 8995SOL    HW238448   0.719   3.215   3.355  0.0185 -0.9906  1.8789
 8996SOL     OW38449   3.626   3.117   2.020  0.2773  0.1053 -0.0099
 8996SOL    HW138450   3.698   3.180   2.012  0.2293 -0.2595 -3.6345
 8996SOL    HW238451   3.558   3.148   1.959 -0.1041  0.6961  0.7162
 8997SOL     OW38452   0.451   2.319   9.292  0.0699  0.0934 -0.2163
 8997SOL    HW138453   0.505   2.265   9.234  0.4221 -0.8791  1.0014
 8997SOL    HW238454   0.520   2.349   9.352  1.7324 -1.0795 -1.5645
 8998SOL     OW38455   3.315   0.517   7.663 -0.4179 -0.2743  0.0781
 8998SOL    HW138456   3.341   0.521   7.755 -0.1722  0.2758 -0.0182
 8998SOL    HW238457   3.239   0.576   7.660  0.5183  0.9159 -0.0222
 8999SOL     OW38458   0.379   2.689  17.160 -0.3595  0.7755  0.2625
 8999SOL    HW138459   0.323   2.689  17.237  0.7532  3.1984  1.0886
 8999SOL    HW238460   0.345   2.618  17.105  0.8498 -1.2472  2.1502
 9000SOL     OW38461   1.684   4.058   4.673  0.1377 -0.3763 -0.2761
 9000SOL    HW138462   1.671   3.977   4.624  0.5302  0.1152 -1.1921
 9000SOL    HW238463   1.694   4.125   4.606 -1.9133 -0.2191 -0.4133
 9001SOL     OW38464   2.822   3.914   4.161 -0.1324 -0.3198  0.5006
 9001SOL    HW138465   2.743   3.959   4.132  0.7927 -1.2095 -3.3044
 9001SOL    HW238466   2.880   3.980   4.124  0.1657 -0.0813  1.3717
 9002SOL     OW38467   2.486   1.632   5.528  0.2116 -0.3137 -0.0075
 9002SOL    HW138468   2.488   1.639   5.432 -2.6155 -1.6728 -0.1696
 9002SOL    HW238469   2.581   1.641   5.534  0.1509 -1.4986  2.4422
 9003SOL     OW38470   4.016   2.955   7.156  0.3590 -0.1234  0.1375
 9003SOL    HW138471   4.025   2.874   7.206  1.2628 -1.5267 -2.2922
 9003SOL    HW238472   4.035   2.920   7.069  0.0848 -4.4411  1.7873
 9004SOL     OW38473   3.778   1.411  16.008 -0.2914 -0.0262 -0.1800
 9004SOL    HW138474   3.765   1.376  16.096  0.6166  0.7743  0.2716
 9004SOL    HW238475   3.833   1.485  16.033 -2.9459  1.8606  0.0825
 9005SOL     OW38476   2.664   0.067   7.088 -0.4443 -0.2946  0.0939
 9005SOL    HW138477   2.714   0.066   7.006 -1.4567 -0.6797 -0.5258
 9005SOL    HW238478   2.657   4.695   7.103  0.0598 -0.0567  1.7292
 9006SOL     OW38479   3.818   1.666   6.830  0.1736  0.0607  0.2093
 9006SOL    HW138480   3.869   1.718   6.767  0.8960 -1.6731 -0.6183
 9006SOL    HW238481   3.849   1.576   6.823  0.2912 -0.1348  3.4934
 9007SOL     OW38482   4.478   1.713   8.169 -0.2149  0.0757 -0.3816
 9007SOL    HW138483   4.541   1.768   8.123  0.4324 -0.0973  0.3016
 9007SOL    HW238484   4.512   1.719   8.258  0.9250 -0.6232 -0.7589
 9008SOL     OW38485   1.735   4.381  12.397 -0.4352  0.4107  0.2096
 9008SOL    HW138486   1.676   4.430  12.454 -2.0060 -1.9284  0.6299
 9008SOL    HW238487   1.799   4.351  12.462  0.0496  0.9266 -0.0433
 9009SOL     OW38488   0.421   1.140   6.084  0.0478  0.3292  0.1564
 9009SOL    HW138489   0.412   1.193   6.164 -0.7225  2.1448 -1.1319
 9009SOL    HW238490   0.455   1.056   6.115 -0.1527  0.2848  0.2572
 9010SOL     OW38491   0.004   0.955   0.177  0.3207  0.3893  0.6823
 9010SOL    HW138492   4.666   0.888   0.145 -0.1017  0.3136  1.6092
 9010SOL    HW238493   4.678   1.034   0.154 -0.6380  0.0343  1.4445
 9011SOL     OW38494   2.126   3.852   7.059  0.2374 -0.1106 -0.2473
 9011SOL    HW138495   2.221   3.847   7.050  0.2010 -0.5249 -0.3801
 9011SOL    HW238496   2.101   3.884   6.972 -0.7600  0.6638  0.3154
 9012SOL     OW38497   2.493   2.381   4.411  0.3091  0.9227 -0.3905
 9012SOL    HW138498   2.418   2.369   4.352 -1.1171  0.6627  1.4892
 9012SOL    HW238499   2.513   2.289   4.430  0.5195  1.1665  0.5410
 9013SOL     OW38500   2.198   1.075   5.923  0.1008 -0.3898 -0.3724
 9013SOL    HW138501   2.248   1.079   5.841 -1.6906 -0.1471 -1.4470
 9013SOL    HW238502   2.217   0.986   5.951  0.9845  1.1528  3.9358
 9014SOL     OW38503   0.625   2.242   8.860 -1.0464 -0.4909 -0.6416
 9014SOL    HW138504   0.574   2.316   8.827  1.9844  1.6881 -0.4803
 9014SOL    HW238505   0.607   2.176   8.794 -0.0413 -0.2388 -1.1660
 9015SOL     OW38506   3.317   3.265   4.645 -0.4439  0.0785  0.6507
 9015SOL    HW138507   3.233   3.240   4.608 -0.9083  2.3756  0.1163
 9015SOL    HW238508   3.304   3.342   4.701 -1.3738  2.2935 -2.6122
 9016SOL     OW38509   0.480   3.849   9.500  0.2662  0.2690 -0.6132
 9016SOL    HW138510   0.429   3.841   9.581 -0.1690 -0.8056 -0.9896
 9016SOL    HW238511   0.564   3.864   9.543 -0.8237 -1.1992  2.0395
 9017SOL     OW38512   3.126   4.717   6.674  0.4302 -0.0806  0.1538
 9017SOL    HW138513   3.063   4.694   6.605  1.8741  0.6365 -1.3969
 9017SOL    HW238514   3.078   0.065   6.718 -1.0280 -1.9436  1.5528
 9018SOL     OW38515   3.090   2.511   8.624  0.1817  0.0255 -0.1408
 9018SOL    HW138516   3.142   2.470   8.555  1.0887  0.7761  0.1004
 9018SOL    HW238517   3.012   2.543   8.579 -0.6675 -0.1214  1.2238
 9019SOL     OW38518   0.288   4.047  11.568  0.2806  0.3145  0.1018
 9019SOL    HW138519   0.202   4.006  11.560  1.0287 -1.7312  2.3680
 9019SOL    HW238520   0.303   4.038  11.662  0.6525  0.7268  0.0852
 9020SOL     OW38521   3.898   2.512   4.878  0.0354  0.3492 -0.3087
 9020SOL    HW138522   3.921   2.593   4.831  0.4285  0.1384 -0.4822
 9020SOL    HW238523   3.817   2.490   4.831 -0.3689  0.9726  0.1031
 9021SOL     OW38524   1.068   3.176   6.686  0.5516  0.0246 -0.1439
 9021SOL    HW138525   0.978   3.204   6.701  0.2858  0.6273 -2.9370
 9021SOL    HW238526   1.113   3.246   6.733 -1.1512  0.6350  0.5826
 9022SOL     OW38527   2.416   1.096   6.812 -0.1382  0.2159  0.3548
 9022SOL    HW138528   2.389   1.017   6.765  0.8256  0.3224 -0.3651
 9022SOL    HW238529   2.405   1.168   6.750  0.1417 -1.3370 -1.5051
 9023SOL     OW38530   3.965   0.769  13.663  0.3819 -0.0316  0.1513
 9023SOL    HW138531   3.998   0.806  13.744 -0.2087  2.2586 -0.6614
 9023SOL    HW238532   4.026   0.695  13.666  0.0108 -0.3220  0.4824
 9024SOL     OW38533   2.278   4.338   3.786 -0.1911 -0.2997  1.0305
 9024SOL    HW138534   2.205   4.291   3.745 -0.5824 -0.9576  2.4784
 9024SOL    HW238535   2.237   4.424   3.795 -1.4836 -0.5767 -2.4920
 9025SOL     OW38536   4.675   2.952   3.630 -0.8600 -0.3043  0.1060
 9025SOL    HW138537   4.689   3.036   3.586  1.0448  0.3761  2.0173
 9025SOL    HW238538   4.585   2.966   3.661 -1.2406  2.3627 -2.2269
 9026SOL     OW38539   3.096   3.667   1.634  0.0455  0.2503 -0.4167
 9026SOL    HW138540   3.089   3.756   1.599 -1.0169 -1.0168 -3.3836
 9026SOL    HW238541   3.077   3.610   1.560 -0.8793 -1.0516  0.8380
 9027SOL     OW38542   2.796   1.359   1.222 -0.2074  0.0806  0.1874
 9027SOL    HW138543   2.735   1.288   1.243  0.6166 -1.2332 -1.8540
 9027SOL    HW238544   2.837   1.324   1.143  0.4422 -0.0320  0.5719
 9028SOL     OW38545   0.160   3.270   6.498  0.3560  0.0358 -0.1133
 9028SOL    HW138546   0.228   3.281   6.431  1.3025  1.4484  1.0813
 9028SOL    HW238547   0.193   3.326   6.568  2.0267 -1.8479  0.6130
 9029SOL     OW38548   3.596   3.150   1.266 -0.2481 -0.2397 -0.6621
 9029SOL    HW138549   3.654   3.138   1.341  0.5130  2.5565 -0.8133
 9029SOL    HW238550   3.569   3.060   1.248 -1.4214  0.2149 -1.1487
 9030SOL     OW38551   3.470   1.254   2.113 -0.0324  0.5844  0.0556
 9030SOL    HW138552   3.551   1.281   2.156  1.8000 -1.9085 -1.8031
 9030SOL    HW238553   3.455   1.173   2.162  3.6105 -0.2204 -0.1133
 9031SOL     OW38554   0.270   0.577   9.319  0.3836 -0.7643 -0.7146
 9031SOL    HW138555   0.324   0.552   9.393 -2.0151 -0.5220  1.1251
 9031SOL    HW238556   0.185   0.584   9.363  1.1071  1.1728  0.3660
 9032SOL     OW38557   1.854   3.382  17.265 -0.1838 -0.2409  0.8156
 9032SOL    HW138558   1.924   3.374  17.200  0.7508 -0.4267  1.8332
 9032SOL    HW238559   1.824   3.471  17.245 -0.2779 -0.6259 -0.7548
 9033SOL     OW38560   1.961   0.491   8.957  0.3064 -0.3539  0.1080
 9033SOL    HW138561   1.941   0.404   8.991 -1.2939  0.3500  0.9398
 9033SOL    HW238562   1.876   0.536   8.953 -0.5070 -1.8654  0.3015
 9034SOL     OW38563   0.334   4.044   2.213 -0.1481 -0.6550  0.0229
 9034SOL    HW138564   0.413   4.088   2.244  1.0721 -2.8246  0.0071
 9034SOL    HW238565   0.283   4.064   2.292 -1.1285  0.0318 -0.7901
 9035SOL     OW38566   1.657   1.623   3.106 -0.1966  0.1739 -0.0474
 9035SOL    HW138567   1.725   1.620   3.038 -1.8268 -0.6425 -1.6429
 9035SOL    HW238568   1.649   1.533   3.135 -2.6384  1.4322  3.1085
 9036SOL     OW38569   3.683   2.441   0.778  0.2642 -0.1454  0.6155
 9036SOL    HW138570   3.666   2.348   0.787 -0.3197  0.0176  1.1513
 9036SOL    HW238571   3.727   2.465   0.860  0.9352 -0.1945  0.2719
 9037SOL     OW38572   2.039   2.895   6.756  0.2175 -0.5613  0.7136
 9037SOL    HW138573   2.112   2.874   6.698 -0.7828 -2.2159  0.0617
 9037SOL    HW238574   2.056   2.988   6.771 -3.0688  0.4938 -1.9936
 9038SOL     OW38575   4.291   1.261  12.243  0.5952 -0.7831 -0.2310
 9038SOL    HW138576   4.380   1.279  12.213  0.5342 -1.7561 -0.9744
 9038SOL    HW238577   4.308   1.176  12.283  1.5337  0.3557  1.7840
 9039SOL     OW38578   0.305   2.055   2.310  0.1987  0.2657  0.0084
 9039SOL    HW138579   0.374   2.059   2.243 -0.7640  0.6798 -0.9458
 9039SOL    HW238580   0.228   2.053   2.255 -0.3123  1.1844  0.6904
 9040SOL     OW38581   3.215   4.697   5.854  0.0471 -0.0702 -0.6071
 9040SOL    HW138582   3.182   0.024   5.779  1.3799 -0.2578 -1.3271
 9040SOL    HW238583   3.310   4.698   5.839 -0.0308 -1.7308 -1.1623
 9041SOL     OW38584   3.119   1.022  13.229  0.0775 -0.7084 -0.4085
 9041SOL    HW138585   3.073   0.964  13.169 -0.9904  0.0603 -0.3331
 9041SOL    HW238586   3.090   1.109  13.204  0.2878 -0.8179 -1.0326
 9042SOL     OW38587   1.526   4.228  12.342  0.0169 -0.3895 -0.0899
 9042SOL    HW138588   1.598   4.290  12.334  0.7111 -1.6445 -3.8973
 9042SOL    HW238589   1.541   4.206  12.434 -2.3981  0.0036  0.3979
 9043SOL     OW38590   3.565   0.238  14.777 -0.1903  0.3885 -0.3090
 9043SOL    HW138591   3.657   0.212  14.765  0.1176  1.7515 -0.8629
 9043SOL    HW238592   3.565   0.333  14.780 -1.1206  0.3769 -0.0278
 9044SOL     OW38593   4.012   0.290   6.450 -0.1063 -0.0725  0.2318
 9044SOL    HW138594   4.060   0.323   6.373 -1.0243  0.5749 -0.0576
 9044SOL    HW238595   4.072   0.330   6.514  0.0789  2.6735 -1.6423
 9045SOL     OW38596   0.052   4.369  13.373  0.5935  0.3265  0.6038
 9045SOL    HW138597   0.116   4.354  13.443  3.2006  0.7381 -1.7412
 9045SOL    HW238598   0.104   4.414  13.307  1.7422 -0.5535  0.9127
 9046SOL     OW38599   2.402   0.486  16.011  0.5421 -0.2396  0.1026
 9046SOL    HW138600   2.331   0.485  15.947  0.8329  0.6471 -0.2230
 9046SOL    HW238601   2.405   0.395  16.041 -0.7445  0.3216  1.9798
 9047SOL     OW38602   3.709   2.726  11.532 -0.6264  0.7415  0.0297
 9047SOL    HW138603   3.661   2.786  11.475  3.8461  0.9057 -3.5464
 9047SOL    HW238604   3.803   2.726  11.514 -0.1360  3.4756  2.5823
 9048SOL     OW38605   2.793   2.919   0.956 -0.4219 -0.4849 -0.0883
 9048SOL    HW138606   2.808   2.959   1.041  2.1196  0.8739 -1.2028
 9048SOL    HW238607   2.865   2.962   0.910 -0.4838 -0.7378 -0.4261
 9049SOL     OW38608   3.002   3.936   1.603  0.3856  0.5542  0.1399
 9049SOL    HW138609   2.944   3.916   1.677 -1.7589 -0.5240 -1.8170
 9049SOL    HW238610   2.936   3.979   1.548  1.4159  0.6678 -1.0119
 9050SOL     OW38611   0.747   3.751  17.249 -0.4953  0.0958 -0.2808
 9050SOL    HW138612   0.767   3.832  17.296 -2.3786  1.1971 -1.3927
 9050SOL    HW238613   0.661   3.765  17.211 -0.7151  0.0500  0.1911
 9051SOL     OW38614   2.915   1.318  16.126  0.5367  0.0856  0.2937
 9051SOL    HW138615   2.871   1.363  16.198 -2.6671  0.4481 -1.9046
 9051SOL    HW238616   2.944   1.235  16.164  0.4740 -0.3820 -0.6800
 9052SOL     OW38617   3.144   3.370   2.283  0.1253  0.7886 -0.2735
 9052SOL    HW138618   3.098   3.394   2.364  0.3028  2.5432 -0.6853
 9052SOL    HW238619   3.067   3.348   2.230 -0.7793  0.8837  0.9807
 9053SOL     OW38620   2.235   0.890  11.711  0.1066  0.0950  0.1240
 9053SOL    HW138621   2.226   0.816  11.771  0.1506 -1.6490 -2.0223
 9053SOL    HW238622   2.313   0.933  11.744 -0.5430  2.2873 -1.1452
 9054SOL     OW38623   2.498   0.889   2.397  0.0320 -0.2238  0.3022
 9054SOL    HW138624   2.408   0.857   2.401  0.7190 -2.4684 -2.8100
 9054SOL    HW238625   2.504   0.933   2.312 -1.4513 -0.6559 -0.0323
 9055SOL     OW38626   1.566   3.891   0.406  0.1030 -0.2827  0.3389
 9055SOL    HW138627   1.516   3.811   0.387  0.2888  0.6636 -4.1770
 9055SOL    HW238628   1.650   3.873   0.362  0.0656  0.6083 -0.0775
 9056SOL     OW38629   0.233   0.045   5.938 -0.4596 -0.3409  0.4107
 9056SOL    HW138630   0.280   0.033   5.855 -0.2561  0.5505  0.4006
 9056SOL    HW238631   0.232   4.674   5.961 -2.6912 -0.7532 -1.3794
 9057SOL     OW38632   1.482   2.608   1.946 -0.3988 -0.4970  0.0390
 9057SOL    HW138633   1.469   2.617   1.852 -0.9370 -3.2546 -0.1393
 9057SOL    HW238634   1.556   2.548   1.940  0.1153 -0.0564  1.7905
 9058SOL     OW38635   2.859   4.060   7.178  0.1419 -0.3128 -0.7164
 9058SOL    HW138636   2.941   4.098   7.209 -0.6871  1.5938 -0.8329
 9058SOL    HW238637   2.856   4.084   7.086 -0.0441  1.0030 -0.3765
 9059SOL     OW38638   4.488   2.323   3.565 -0.1504  0.1745 -0.3458
 9059SOL    HW138639   4.461   2.256   3.502  0.3263  1.0006 -1.4173
 9059SOL    HW238640   4.579   2.294   3.572  0.1329  0.9515 -0.8117
 9060SOL     OW38641   3.957   1.630  16.048  0.4432  0.4915  0.4207
 9060SOL    HW138642   3.968   1.688  16.124 -0.5996  0.7063  0.4099
 9060SOL    HW238643   4.040   1.583  16.055 -0.3562 -1.0480 -0.6973
 9061SOL     OW38644   4.180   2.404   6.776 -0.4473 -0.4208  0.0491
 9061SOL    HW138645   4.109   2.460   6.744  0.3024  0.4318 -0.1167
 9061SOL    HW238646   4.252   2.449   6.732  1.8964 -3.3650  0.9400
 9062SOL     OW38647   4.645   2.267   7.033  0.0315  0.2178  0.2506
 9062SOL    HW138648   4.670   2.211   7.106 -0.3634 -1.5735 -0.9781
 9062SOL    HW238649   4.719   2.266   6.973 -1.7291  2.5857 -1.9812
 9063SOL     OW38650   3.638   3.478   5.430 -0.0723  0.6048  0.1190
 9063SOL    HW138651   3.612   3.420   5.501  1.3812 -1.7915 -1.2945
 9063SOL    HW238652   3.571   3.466   5.363 -1.0552  0.1319  1.1917
 9064SOL     OW38653   3.221   3.716   9.025  0.1899 -0.3143  0.1412
 9064SOL    HW138654   3.299   3.744   9.075  2.7440 -1.8528 -3.0095
 9064SOL    HW238655   3.160   3.783   9.057  0.9767  0.1605  0.6721
 9065SOL     OW38656   4.283   2.160   9.291 -0.1567 -0.6316 -0.1603
 9065SOL    HW138657   4.320   2.225   9.351  0.0088 -1.4651  0.6426
 9065SOL    HW238658   4.334   2.179   9.212  2.1008 -0.9830  1.2153
 9066SOL     OW38659   0.576   0.527  10.225 -0.3035  0.3313 -0.2054
 9066SOL    HW138660   0.640   0.560  10.162  0.6144  0.4458  0.7901
 9066SOL    HW238661   0.636   0.503  10.295 -1.0173 -0.2235  0.2098
 9067SOL     OW38662   2.810   2.610  15.810  0.4235  0.5143  0.3770
 9067SOL    HW138663   2.785   2.666  15.737 -0.6215  0.6065  0.7967
 9067SOL    HW238664   2.750   2.538  15.790  0.9519 -0.8264  3.6264
 9068SOL     OW38665   1.056   2.863   5.073 -0.2079 -0.1833  0.2725
 9068SOL    HW138666   1.021   2.906   4.995  0.1243 -0.9407 -0.3021
 9068SOL    HW238667   1.075   2.940   5.126  0.4967  0.3074 -0.6888
 9069SOL     OW38668   0.963   3.441   1.117  0.2166 -0.0026 -0.0117
 9069SOL    HW138669   0.957   3.511   1.052 -1.0799 -2.3218 -2.4083
 9069SOL    HW238670   0.981   3.369   1.056  1.4173 -0.0904  0.4514
 9070SOL     OW38671   2.548   1.252   3.547  0.2898  0.7685  0.5434
 9070SOL    HW138672   2.544   1.275   3.639  1.5520  1.0366  0.5255
 9070SOL    HW238673   2.506   1.167   3.556  0.4318  0.7584  1.0688
 9071SOL     OW38674   0.521   4.470  15.359 -0.1728 -0.1457  0.4940
 9071SOL    HW138675   0.615   4.450  15.352 -0.1133  0.9718 -1.8893
 9071SOL    HW238676   0.528   4.565  15.348 -1.2953 -0.3850 -2.2410
 9072SOL     OW38677   3.400   3.484   1.671 -0.6624 -0.3221 -0.1397
 9072SOL    HW138678   3.438   3.426   1.606 -0.3601 -3.2859  2.6691
 9072SOL    HW238679   3.318   3.513   1.630 -0.1194  0.6220 -0.5615
 9073SOL     OW38680   2.726   2.595   0.612 -0.2699 -0.3044  0.1903
 9073SOL    HW138681   2.819   2.607   0.632 -0.6214 -1.1060  2.2878
 9073SOL    HW238682   2.689   2.682   0.600 -0.4653 -0.5298 -0.8869
 9074SOL     OW38683   0.987   4.203   6.763 -0.1620  0.3010 -0.6142
 9074SOL    HW138684   0.953   4.149   6.834 -0.0900  0.8739 -0.1351
 9074SOL    HW238685   0.996   4.287   6.809 -0.0389 -0.1225  0.1360
 9075SOL     OW38686   1.872   3.683   2.633 -0.4263  0.4110  0.7358
 9075SOL    HW138687   1.960   3.676   2.670 -0.4437  2.0275  1.0653
 9075SOL    HW238688   1.862   3.778   2.633  3.2551  0.7836 -0.5916
 9076SOL     OW38689   0.939   0.705  12.341  0.5241 -0.1116 -0.0169
 9076SOL    HW138690   1.032   0.724  12.335  0.5137 -0.2589 -0.6001
 9076SOL    HW238691   0.900   0.792  12.344  0.7764  0.0082 -0.3386
 9077SOL     OW38692   3.636   2.540  16.201  0.7776 -0.7241  0.1538
 9077SOL    HW138693   3.641   2.479  16.128  0.2593  0.0965 -0.5718
 9077SOL    HW238694   3.660   2.480  16.271 -1.7504 -0.0945  1.5343
 9078SOL     OW38695   2.376   4.393   4.975 -0.1782  0.1605  1.0990
 9078SOL    HW138696   2.379   4.327   4.906  2.2740 -0.6750  2.0048
 9078SOL    HW238697   2.333   4.468   4.934  0.3507  0.7481  1.6128
 9079SOL     OW38698   0.078   2.936   1.075  0.1135 -0.0503 -0.2274
 9079SOL    HW138699   0.017   2.865   1.096  1.7437 -1.1695  0.6957
 9079SOL    HW238700   0.046   2.998   1.141  0.2551 -1.1856  0.9080
 9080SOL     OW38701   3.101   1.227   5.512 -0.0847 -0.8208  0.5517
 9080SOL    HW138702   3.019   1.214   5.465  0.4778 -2.8657  0.1403
 9080SOL    HW238703   3.075   1.286   5.583 -0.0444  1.8826 -1.6707
 9081SOL     OW38704   3.657   0.830  10.007 -0.2673  0.3456  0.4623
 9081SOL    HW138705   3.709   0.751   9.992  0.5214  0.2937  3.3714
 9081SOL    HW238706   3.675   0.878   9.927  0.7737 -1.1424 -0.1847
 9082SOL     OW38707   4.676   2.569   3.930 -0.0343 -0.3609 -0.0824
 9082SOL    HW138708   4.651   2.560   4.022 -4.7961  1.0938 -1.1990
 9082SOL    HW238709   0.030   2.512   3.926 -0.1150 -0.6019  1.6213
 9083SOL     OW38710   0.847   1.441  16.938  0.2775  0.0378 -0.5056
 9083SOL    HW138711   0.757   1.475  16.933  0.0622 -0.3503  0.8238
 9083SOL    HW238712   0.889   1.488  16.866 -0.8774 -0.9174 -1.7952
 9084SOL     OW38713   0.199   2.359  13.598  0.1206  0.6462 -1.2602
 9084SOL    HW138714   0.253   2.287  13.630  0.8328  0.9973 -1.6616
 9084SOL    HW238715   0.114   2.319  13.577  1.5184 -0.9238 -3.9193
 9085SOL     OW38716   2.594   4.351   3.061 -0.4842 -0.2965 -0.0902
 9085SOL    HW138717   2.683   4.323   3.082  1.0780  5.2334  0.7493
 9085SOL    HW238718   2.583   4.436   3.105  0.1865  0.5748 -1.5963
 9086SOL     OW38719   1.808   1.360   1.321  0.5699  0.0571  0.0334
 9086SOL    HW138720   1.875   1.296   1.297  0.1374  0.0230 -1.0770
 9086SOL    HW238721   1.729   1.307   1.318  0.4811 -0.0151  4.1371
 9087SOL     OW38722   0.244   3.249   9.923  0.8040 -0.1908  0.2952
 9087SOL    HW138723   0.264   3.200   9.843  2.8424  0.1807  0.5675
 9087SOL    HW238724   0.251   3.181   9.991  0.4936  0.6301  1.1431
 9088SOL     OW38725   3.475   1.252  15.221  0.3858 -0.7789 -0.1232
 9088SOL    HW138726   3.430   1.182  15.174 -2.5196  0.3830  0.9309
 9088SOL    HW238727   3.559   1.256  15.176  1.1311 -2.3351  1.1623
 9089SOL     OW38728   0.538   1.391   2.079 -0.1686 -0.4051 -0.3980
 9089SOL    HW138729   0.465   1.413   2.021  1.0208  0.0277 -1.7122
 9089SOL    HW238730   0.487   1.359   2.154  1.1667 -0.3332  0.5397
 9090SOL     OW38731   4.588   1.762  12.356 -0.1899  0.1361  0.0214
 9090SOL    HW138732   4.653   1.786  12.423  0.3582  0.9865 -0.8101
 9090SOL    HW238733   4.518   1.821  12.386  0.0596  1.1370 -1.3348
 9091SOL     OW38734   0.330   1.520   8.718 -0.2250 -0.1034 -0.3093
 9091SOL    HW138735   0.345   1.555   8.631  0.1059  2.9310  0.9612
 9091SOL    HW238736   0.411   1.474   8.740 -0.9348 -0.8374  0.7790
 9092SOL     OW38737   0.181   2.076   5.695 -0.6444  0.3897 -0.0651
 9092SOL    HW138738   0.156   2.113   5.780  2.2825 -0.4763  1.1940
 9092SOL    HW238739   0.094   2.082   5.656 -1.2983  2.1958  1.6865
 9093SOL     OW38740   4.159   2.948  16.378 -0.1017 -0.4192 -0.5313
 9093SOL    HW138741   4.198   3.020  16.328  0.9000  1.1534  2.5001
 9093SOL    HW238742   4.186   2.974  16.466 -0.8874  1.8708 -0.9680
 9094SOL     OW38743   1.347   3.399   2.490 -0.2846  0.3048  0.0168
 9094SOL    HW138744   1.363   3.416   2.397 -3.5777  0.6959 -0.4575
 9094SOL    HW238745   1.291   3.468   2.524 -3.0731 -1.1550 -1.5600
 9095SOL     OW38746   4.189   4.296   6.597 -0.2951  0.3569  0.1076
 9095SOL    HW138747   4.108   4.327   6.638 -0.5787  1.3184 -1.2001
 9095SOL    HW238748   4.180   4.305   6.502 -1.2353  0.0130  0.1676
 9096SOL     OW38749   3.644   0.074   2.646 -0.3907  0.6345  0.0231
 9096SOL    HW138750   3.601   0.157   2.628 -0.4096  0.5822 -0.1660
 9096SOL    HW238751   3.737   0.095   2.652  0.0077 -0.5398 -2.0508
 9097SOL     OW38752   1.852   3.316   4.998 -0.2519 -0.6360 -0.3374
 9097SOL    HW138753   1.840   3.409   4.979  0.9889 -0.8439 -2.0832
 9097SOL    HW238754   1.861   3.282   4.909 -1.0581  0.3693 -0.8000
 9098SOL     OW38755   4.589   1.782  15.442 -0.3531  0.2892  0.3204
 9098SOL    HW138756   4.510   1.753  15.396  0.3340  0.1562 -0.7785
 9098SOL    HW238757   4.549   1.846  15.501  0.9816  1.4740 -0.0660
 9099SOL     OW38758   4.044   4.481  10.016  0.1970 -0.1631 -0.2968
 9099SOL    HW138759   4.104   4.525  10.077 -0.8954  0.1432  0.5570
 9099SOL    HW238760   3.962   4.522  10.042  0.1963 -0.0324 -0.5026
 9100SOL     OW38761   1.202   3.710   4.176 -0.3252  0.8622 -0.3634
 9100SOL    HW138762   1.227   3.729   4.267  1.5115  2.7695 -1.2711
 9100SOL    HW238763   1.107   3.700   4.179 -0.2657 -0.0692 -1.9249
 9101SOL     OW38764   2.436   3.927   6.322  0.3175  0.1920  0.3415
 9101SOL    HW138765   2.511   3.903   6.375  0.2740 -1.8782 -0.5505
 9101SOL    HW238766   2.452   4.021   6.313  1.8374 -0.2140 -1.2583
 9102SOL     OW38767   3.560   0.751   0.338  0.0791  0.3620  0.4606
 9102SOL    HW138768   3.471   0.728   0.365 -0.3759  1.5781 -0.0098
 9102SOL    HW238769   3.589   0.802   0.414  0.7228  2.7641 -1.4114
 9103SOL     OW38770   1.002   0.438   1.376  0.4002 -0.2186  0.2202
 9103SOL    HW138771   0.922   0.490   1.373  1.1011  0.9092  1.1869
 9103SOL    HW238772   0.979   0.367   1.316  1.8661 -0.6003  0.1029
 9104SOL     OW38773   1.637   3.809   4.555 -0.9572  0.1245  0.3807
 9104SOL    HW138774   1.570   3.776   4.615  0.7728 -0.0125  2.2248
 9104SOL    HW238775   1.613   3.770   4.471  1.6629 -3.0449  1.1265
 9105SOL     OW38776   0.605   2.204   4.967 -0.9278  0.9770  0.1200
 9105SOL    HW138777   0.511   2.227   4.966 -0.7624  1.7393  1.4237
 9105SOL    HW238778   0.632   2.258   4.893  1.1159  1.3771  1.1600
 9106SOL     OW38779   1.754   0.661  11.383 -0.2401 -0.2293 -0.0648
 9106SOL    HW138780   1.668   0.621  11.368 -0.8168  0.8662  0.2663
 9106SOL    HW238781   1.728   0.732  11.443 -1.6426 -0.8909  0.1062
 9107SOL     OW38782   1.078   0.051   2.965 -0.0518 -0.4566 -0.0094
 9107SOL    HW138783   1.098   0.076   3.056 -3.0011 -0.4966  0.6388
 9107SOL    HW238784   1.022   0.119   2.927 -1.4705 -1.7513 -0.2414
 9108SOL     OW38785   2.850   2.023  16.803 -0.4988 -0.0440 -0.3665
 9108SOL    HW138786   2.831   2.097  16.745 -1.1494  1.1232  1.3220
 9108SOL    HW238787   2.789   2.050  16.871  2.1451  1.1144  1.5386
 9109SOL     OW38788   2.505   4.609   7.245  0.2785  0.2854  0.3849
 9109SOL    HW138789   2.548   4.626   7.329  2.0434  0.4756 -0.5469
 9109SOL    HW238790   2.429   4.667   7.242  1.1032  1.3518 -0.4338
 9110SOL     OW38791   0.643   3.985  12.064 -0.0157  0.1039  0.0606
 9110SOL    HW138792   0.645   3.913  12.001 -1.9716  0.3317 -0.2536
 9110SOL    HW238793   0.679   4.066  12.029  1.4780 -0.5051  0.1857
 9111SOL     OW38794   1.491   1.089   0.963 -0.1199  0.8167  0.7187
 9111SOL    HW138795   1.506   1.175   1.002  0.0301  0.0118  2.4245
 9111SOL    HW238796   1.409   1.093   0.913  1.2117 -0.0828 -1.5595
 9112SOL     OW38797   1.429   3.886   9.039  0.6358 -0.0679 -0.1515
 9112SOL    HW138798   1.486   3.905   9.114 -0.0215  2.0642 -0.1753
 9112SOL    HW238799   1.489   3.908   8.968  1.2405  0.2448  0.4468
 9113SOL     OW38800   1.801   3.376   3.538  0.2386 -0.1466  0.0922
 9113SOL    HW138801   1.822   3.287   3.510 -3.0546 -1.0753  0.5799
 9113SOL    HW238802   1.839   3.369   3.626 -1.0603  1.0560  0.7425
 9114SOL     OW38803   2.506   4.487  13.988 -0.6167  0.6082 -0.3318
 9114SOL    HW138804   2.518   4.422  13.919 -1.6583  0.3024 -0.2240
 9114SOL    HW238805   2.579   4.468  14.048 -0.7363 -0.8896 -0.6777
 9115SOL     OW38806   2.568   1.928   6.313  0.0281 -0.1917 -0.0953
 9115SOL    HW138807   2.542   1.837   6.308 -1.1126  0.1250  0.1152
 9115SOL    HW238808   2.545   1.961   6.226 -0.6794 -0.4454  0.0003
 9116SOL     OW38809   2.116   4.027   6.620  0.6619 -0.7572 -0.0459
 9116SOL    HW138810   2.071   4.016   6.703  1.6058  0.4644  0.6258
 9116SOL    HW238811   2.067   4.095   6.573  0.1971  0.3096  1.9905
 9117SOL     OW38812   3.332   1.517   2.135  0.1595 -0.1303  0.4469
 9117SOL    HW138813   3.333   1.468   2.217  2.8261  0.5001  0.7720
 9117SOL    HW238814   3.349   1.438   2.084  2.5664  1.0983 -0.6137
 9118SOL     OW38815   1.659   4.247  11.101  0.1789 -0.3474  0.6039
 9118SOL    HW138816   1.571   4.212  11.115 -0.3489  0.8208  0.2131
 9118SOL    HW238817   1.709   4.174  11.135  0.4616 -0.6719 -0.5336
 9119SOL     OW38818   0.372   0.329  17.124 -0.0686 -0.1037  0.0287
 9119SOL    HW138819   0.290   0.288  17.098  0.1160 -0.3245 -0.2136
 9119SOL    HW238820   0.393   0.363  17.037  0.7543  1.0730  0.6827
 9120SOL     OW38821   0.195   3.315   8.080  0.0829  0.2595  0.4710
 9120SOL    HW138822   0.197   3.348   7.990 -0.9066 -1.1518 -0.0828
 9120SOL    HW238823   0.211   3.222   8.065  0.4717  0.5852 -1.1135
 9121SOL     OW38824   0.732   3.109  11.681  0.1838  0.3399 -0.3017
 9121SOL    HW138825   0.712   3.151  11.598  0.5967 -0.8132 -0.9890
 9121SOL    HW238826   0.812   3.061  11.659  1.3355  2.5111 -0.8551
 9122SOL     OW38827   1.645   0.996   9.431  0.0441  0.2358  0.6938
 9122SOL    HW138828   1.672   0.906   9.413  0.0383  0.3676  0.0196
 9122SOL    HW238829   1.551   0.999   9.415  0.2578  0.0009 -0.6734
 9123SOL     OW38830   1.119   1.665   7.251  0.6625  0.0772  0.2433
 9123SOL    HW138831   1.024   1.667   7.258  0.6349 -1.4594  0.1905
 9123SOL    HW238832   1.128   1.687   7.159  0.4163  1.7609  0.6174
 9124SOL     OW38833   2.669   1.528   6.491  0.3302 -0.0276 -0.2833
 9124SOL    HW138834   2.651   1.562   6.579 -0.4485  1.2839 -0.9525
 9124SOL    HW238835   2.595   1.555   6.436  0.2027  1.7430  0.7505
 9125SOL     OW38836   2.917   1.511   5.975  0.4232 -0.3386 -0.4050
 9125SOL    HW138837   2.896   1.544   6.062 -0.0570  2.0880 -1.4171
 9125SOL    HW238838   2.826   1.512   5.943  0.0412 -1.2139  0.6923
 9126SOL     OW38839   1.046   2.186   3.482 -0.0064 -0.5223  0.6759
 9126SOL    HW138840   0.991   2.149   3.550  0.3184  1.9460  2.2823
 9126SOL    HW238841   1.092   2.104   3.463 -2.5894 -1.4149 -1.7720
 9127SOL     OW38842   3.402   1.535   3.668  0.2992  0.3463  0.0192
 9127SOL    HW138843   3.420   1.459   3.613 -2.4895  1.3879 -2.3272
 9127SOL    HW238844   3.473   1.590   3.636 -0.9935  2.0909  0.1335
 9128SOL     OW38845   2.639   4.491   3.683 -0.0581  0.4132  0.0804
 9128SOL    HW138846   2.722   4.470   3.725  0.1623 -1.1371 -1.1443
 9128SOL    HW238847   2.655   4.579   3.650 -1.9708 -0.1247 -2.2425
 9129SOL     OW38848   4.391   4.651   6.368  0.4383 -0.1227  0.1443
 9129SOL    HW138849   4.333   4.705   6.420  0.2248  2.7855 -3.1110
 9129SOL    HW238850   4.449   4.617   6.436 -0.2098 -0.8208  0.3497
 9130SOL     OW38851   2.699   0.370   2.486  0.6471  0.1825 -0.3453
 9130SOL    HW138852   2.774   0.311   2.482  1.3894  1.1692 -0.9609
 9130SOL    HW238853   2.634   0.313   2.447 -2.5678  2.4999  1.5466
 9131SOL     OW38854   1.774   1.835   8.389 -0.0919 -0.2229  0.0020
 9131SOL    HW138855   1.729   1.808   8.309  0.2793  1.7753 -0.8621
 9131SOL    HW238856   1.803   1.754   8.431  2.4838 -1.1525 -3.5900
 9132SOL     OW38857   4.697   0.936  16.039 -0.2967  0.1364  0.1879
 9132SOL    HW138858   0.053   0.969  15.995 -0.7772 -0.3293 -1.0182
 9132SOL    HW238859   4.715   0.959  16.131  0.4424 -0.3328  0.1657
 9133SOL     OW38860   4.707   2.779  10.476  0.0022  0.2461  0.1596
 9133SOL    HW138861   0.043   2.844  10.437  1.8474 -1.0523  0.7376
 9133SOL    HW238862   4.629   2.774  10.420  0.6282 -2.0347 -0.5427
 9134SOL     OW38863   1.999   2.263   5.766  0.0792 -0.1171 -0.0805
 9134SOL    HW138864   1.921   2.317   5.781  0.2096 -0.0752  0.4628
 9134SOL    HW238865   1.962   2.186   5.722  0.0807  0.4881 -1.1430
 9135SOL     OW38866   2.927   2.549  12.286 -0.4425 -1.1632 -0.0389
 9135SOL    HW138867   2.859   2.591  12.339  0.4070 -0.2610  0.3386
 9135SOL    HW238868   2.961   2.494  12.356  0.2471 -1.2537 -0.4465
 9136SOL     OW38869   2.224   4.363   2.546  0.1769 -0.3114  0.1960
 9136SOL    HW138870   2.257   4.313   2.621  0.5808  0.3647  0.4654
 9136SOL    HW238871   2.221   4.295   2.479 -0.5377 -1.4772  1.3914
 9137SOL     OW38872   2.237   3.878   2.714 -0.1235 -0.0786 -0.1827
 9137SOL    HW138873   2.241   3.969   2.743 -2.3358  0.0371 -0.2320
 9137SOL    HW238874   2.245   3.889   2.619 -2.7318  1.2383 -0.2439
 9138SOL     OW38875   0.076   1.422   8.551  1.1145 -0.6421  0.3414
 9138SOL    HW138876   4.716   1.467   8.532  0.5428 -2.1109 -0.7222
 9138SOL    HW238877   0.151   1.480   8.538 -0.1983  0.4800 -2.3179
 9139SOL     OW38878   1.186   4.539   1.662 -0.1933 -0.3833 -0.2777
 9139SOL    HW138879   1.120   4.609   1.667 -0.8150 -1.1507  2.0428
 9139SOL    HW238880   1.191   4.504   1.751 -0.2396 -1.5754 -0.7514
 9140SOL     OW38881   1.214   0.171  10.486 -0.6053 -0.2197  0.0366
 9140SOL    HW138882   1.199   0.218  10.404 -0.3617  2.5641  1.5710
 9140SOL    HW238883   1.136   0.116  10.485 -1.0560  0.4457 -0.9752
 9141SOL     OW38884   2.298   0.219   6.362  0.1537  0.3885  0.4715
 9141SOL    HW138885   2.251   0.167   6.427 -3.7616  1.5186 -1.4801
 9141SOL    HW238886   2.236   0.290   6.351 -0.7519 -0.1961  1.8791
 9142SOL     OW38887   3.519   1.872  16.760  0.1770  0.2082  0.6454
 9142SOL    HW138888   3.503   1.948  16.703 -1.1636  0.5201  1.4428
 9142SOL    HW238889   3.468   1.806  16.714 -1.8139  1.9730  0.3267
 9143SOL     OW38890   1.550   0.470  11.336 -0.4578 -0.6523 -0.7418
 9143SOL    HW138891   1.609   0.408  11.293  0.0186 -0.7641  0.0643
 9143SOL    HW238892   1.482   0.412  11.371  0.0076 -0.5989  0.2518
 9144SOL     OW38893   0.541   0.235   1.751  0.3052 -0.0646  0.1821
 9144SOL    HW138894   0.469   0.246   1.689  0.0902 -1.0636  0.2435
 9144SOL    HW238895   0.614   0.279   1.708  2.3747 -2.1033  1.5824
 9145SOL     OW38896   2.468   0.117   3.090 -0.3632 -0.0266  0.6638
 9145SOL    HW138897   2.388   0.145   3.134 -1.0022 -1.3193  0.3238
 9145SOL    HW238898   2.483   0.193   3.033 -1.0968 -1.8975 -2.0152
 9146SOL     OW38899   4.661   0.125  12.128 -0.3753  0.1046  0.7201
 9146SOL    HW138900   4.605   0.128  12.050 -0.6063 -1.0461  0.8415
 9146SOL    HW238901   0.018   0.092  12.086  0.9993 -0.3735  3.6972
 9147SOL     OW38902   3.865   3.874   1.598  0.2769 -0.0411 -0.4482
 9147SOL    HW138903   3.884   3.795   1.648 -0.7353 -0.8920 -1.3945
 9147SOL    HW238904   3.939   3.877   1.537  0.9650  0.3276  0.4010
 9148SOL     OW38905   2.906   3.583   3.246 -0.1744 -0.1289 -0.0862
 9148SOL    HW138906   2.931   3.671   3.216 -0.4998 -0.0292 -0.0590
 9148SOL    HW238907   2.985   3.544   3.283 -0.7933 -1.5876 -0.3215
 9149SOL     OW38908   2.140   0.682  14.475  0.6851  0.0807 -0.2122
 9149SOL    HW138909   2.078   0.610  14.468 -0.8504  1.3867 -0.0058
 9149SOL    HW238910   2.090   0.746  14.425 -2.0225 -1.7032  0.2264
 9150SOL     OW38911   1.098   1.053   8.506  0.2944  0.3168 -0.0497
 9150SOL    HW138912   1.008   1.074   8.532 -0.1156  1.1368 -2.0996
 9150SOL    HW238913   1.138   1.071   8.591 -0.2989  0.0964  0.2728
 9151SOL     OW38914   4.159   0.092   6.769 -0.4052 -0.1675  0.5050
 9151SOL    HW138915   4.130   0.073   6.679 -0.2007  2.0374 -0.0255
 9151SOL    HW238916   4.252   0.109   6.750 -0.9715  0.1764 -2.0122
 9152SOL     OW38917   4.541   0.136   5.488 -0.7953 -0.1653  0.0697
 9152SOL    HW138918   4.634   0.145   5.508 -0.4622 -0.1897 -1.4956
 9152SOL    HW238919   4.518   0.223   5.455  1.9821  0.1908 -0.9328
 9153SOL     OW38920   1.899   2.290  16.856 -0.4519 -0.0944  0.5848
 9153SOL    HW138921   1.824   2.266  16.911 -2.0695  1.0309 -1.1141
 9153SOL    HW238922   1.895   2.384  16.873  0.2114 -0.9004  5.2494
 9154SOL     OW38923   1.152   3.249   9.153  0.2734 -0.2595 -0.1111
 9154SOL    HW138924   1.124   3.165   9.190  1.2103  0.2879  1.8406
 9154SOL    HW238925   1.207   3.296   9.215  0.2316  1.9627 -1.7740
 9155SOL     OW38926   1.272   4.206   4.819 -0.0372 -0.5350  0.1618
 9155SOL    HW138927   1.347   4.245   4.774 -1.0398  0.4470 -0.6496
 9155SOL    HW238928   1.231   4.282   4.860 -1.8338 -0.4871 -1.7164
 9156SOL     OW38929   0.919   1.786   3.238 -0.8532  0.2395 -0.2477
 9156SOL    HW138930   1.002   1.795   3.285 -0.5127  0.7093 -0.9346
 9156SOL    HW238931   0.901   1.878   3.220 -1.6797 -0.1167 -1.2924
 9157SOL     OW38932   3.953   3.574   2.390  0.2541  0.1619  0.1307
 9157SOL    HW138933   3.860   3.590   2.374  0.1849 -1.8406 -1.3902
 9157SOL    HW238934   3.981   3.519   2.317 -0.7780  0.9905 -0.8858
 9158SOL     OW38935   3.467   3.544   2.812 -0.0177 -0.2690  0.2035
 9158SOL    HW138936   3.427   3.605   2.751 -2.1633  0.5536  2.4440
 9158SOL    HW238937   3.452   3.462   2.764  0.0382 -0.2398  0.1356
 9159SOL     OW38938   2.334   0.988  10.382 -0.1821 -0.4832  0.7238
 9159SOL    HW138939   2.344   1.078  10.413  1.4853 -0.5682  0.4234
 9159SOL    HW238940   2.414   0.975  10.331 -0.5621 -0.5886  0.1456
 9160SOL     OW38941   0.329   1.054   3.934 -0.7736 -0.2581  0.3115
 9160SOL    HW138942   0.322   1.114   4.008 -1.0692  1.5213 -1.1731
 9160SOL    HW238943   0.235   1.044   3.917 -0.7893 -2.5886  1.8064
 9161SOL     OW38944   0.176   0.077   4.179  0.0544 -0.2094  0.3491
 9161SOL    HW138945   0.123   0.148   4.144  0.9591 -0.2355 -1.0802
 9161SOL    HW238946   0.204   0.115   4.262  2.4754 -0.4398 -0.3652
 9162SOL     OW38947   4.641   3.939  15.023  0.5099 -0.2294  0.7515
 9162SOL    HW138948   4.637   3.900  14.936  2.2632 -1.2684  1.1336
 9162SOL    HW238949   4.722   3.990  15.016  0.5810 -0.4668 -0.1836
 9163SOL     OW38950   4.262   2.179   3.801 -0.2628  0.2376 -1.0235
 9163SOL    HW138951   4.239   2.272   3.794  1.8286  0.6745 -2.0303
 9163SOL    HW238952   4.282   2.160   3.893 -0.4269 -0.8737 -1.2244
 9164SOL     OW38953   1.062   1.704   5.014  0.4095  0.1001 -0.0381
 9164SOL    HW138954   0.980   1.731   5.054  1.5988 -1.5118  3.4716
 9164SOL    HW238955   1.065   1.745   4.927 -1.1399  2.7653  1.1717
 9165SOL     OW38956   3.584   1.384   9.745  0.1753  0.4164 -0.1408
 9165SOL    HW138957   3.577   1.383   9.841  1.8966 -0.5992 -0.0310
 9165SOL    HW238958   3.610   1.475   9.730 -2.2463  1.2065  0.4758
 9166SOL     OW38959   0.266   3.899  16.811 -0.3023 -0.4197 -0.0500
 9166SOL    HW138960   0.207   3.846  16.758 -1.3915  0.0538  0.6938
 9166SOL    HW238961   0.267   3.980  16.760 -1.2932 -0.3459  0.0573
 9167SOL     OW38962   4.362   0.177  16.957 -0.5348  0.2042 -0.0274
 9167SOL    HW138963   4.325   0.156  16.872  2.7104  1.0911 -1.6589
 9167SOL    HW238964   4.329   0.109  17.017  0.4052  0.4701  0.7982
 9168SOL     OW38965   0.075   4.319  15.368  0.1445 -0.1012 -0.5472
 9168SOL    HW138966   0.096   4.232  15.336 -1.6159 -0.2380 -1.2938
 9168SOL    HW238967   0.152   4.318  15.426 -0.8847 -0.9003  0.7991
 9169SOL     OW38968   4.344   3.100  13.157 -0.6042  0.4111 -0.0027
 9169SOL    HW138969   4.318   3.093  13.065  0.3580 -1.5842 -0.1127
 9169SOL    HW238970   4.403   3.026  13.167  0.7095  1.6440  1.4197
 9170SOL     OW38971   4.191   1.944  17.478 -0.2244  0.1629 -0.5256
 9170SOL    HW138972   4.192   1.958  17.573  3.1977  2.6373 -0.9311
 9170SOL    HW238973   4.260   2.003  17.449 -0.2001 -0.0580 -0.9228
 9171SOL     OW38974   1.380   3.319   7.903 -0.1711  0.0524  0.0403
 9171SOL    HW138975   1.463   3.285   7.869  0.4919 -0.1341  1.8309
 9171SOL    HW238976   1.354   3.254   7.969  0.2655  0.2239  0.3869
 9172SOL     OW38977   1.555   2.780  15.200  0.4563 -0.5256 -0.0576
 9172SOL    HW138978   1.534   2.854  15.258 -3.4629 -3.0085  1.6779
 9172SOL    HW238979   1.522   2.823  15.121 -1.1884  1.2941  1.6085
 9173SOL     OW38980   2.642   3.158   0.939 -0.0700  0.2209  0.5953
 9173SOL    HW138981   2.661   3.075   0.895  1.1318 -0.1126  1.7302
 9173SOL    HW238982   2.652   3.130   1.030 -2.0975 -0.4401  0.6064
 9174SOL     OW38983   4.387   3.014   0.145 -0.3848  0.0482 -0.3353
 9174SOL    HW138984   4.391   3.059   0.230  0.0017 -0.4552 -0.0890
 9174SOL    HW238985   4.473   3.016   0.105  0.1117 -0.0894  0.7238
 9175SOL     OW38986   0.491   2.056   2.859 -0.0745  0.0705 -0.5035
 9175SOL    HW138987   0.564   2.117   2.862 -2.1834  2.5957  0.1564
 9175SOL    HW238988   0.522   1.995   2.792 -1.4874 -0.4890 -0.6572
 9176SOL     OW38989   1.736   2.741  14.760 -0.4403  0.1085 -0.1108
 9176SOL    HW138990   1.813   2.711  14.710 -1.3353 -0.4348 -1.1784
 9176SOL    HW238991   1.782   2.785  14.831 -0.3916  0.1406 -0.1619
 9177SOL     OW38992   3.942   2.442  17.420  0.2636  0.3854 -0.1026
 9177SOL    HW138993   3.973   2.523  17.380  0.5842 -0.1668 -0.9615
 9177SOL    HW238994   4.007   2.439  17.491 -0.5820 -0.4734  0.6492
 9178SOL     OW38995   0.337   1.360   3.498 -0.0810  0.2293 -0.8697
 9178SOL    HW138996   0.310   1.269   3.494  0.3753  0.0869 -0.7131
 9178SOL    HW238997   0.431   1.359   3.482  0.3099  1.4453  1.3319
 9179SOL     OW38998   1.313   1.801  15.458 -0.0731  0.0444  0.1200
 9179SOL    HW138999   1.271   1.780  15.542  0.1194  0.3649  0.2941
 9179SOL    HW239000   1.388   1.742  15.456 -0.4355 -0.4237  0.4002
 9180SOL     OW39001   1.662   2.786   6.704 -0.1632 -0.0096  0.5761
 9180SOL    HW139002   1.578   2.826   6.726  0.7076  1.9768  0.3906
 9180SOL    HW239003   1.639   2.742   6.623  2.5224  2.3330 -1.4787
 9181SOL     OW39004   1.482   4.256   6.098 -0.4237  0.2218 -0.5603
 9181SOL    HW139005   1.531   4.309   6.035 -1.6143  0.3329 -1.3936
 9181SOL    HW239006   1.547   4.238   6.166  0.1142 -1.2333 -1.4633
 9182SOL     OW39007   2.252   0.441   7.146 -0.2740  0.1098  0.3486
 9182SOL    HW139008   2.239   0.439   7.051 -2.1179  3.0930  0.5385
 9182SOL    HW239009   2.164   0.468   7.174  0.2516  0.0832  2.0264
 9183SOL     OW39010   1.324   1.303   7.945  0.7146 -0.1668  0.0575
 9183SOL    HW139011   1.388   1.372   7.925  1.0143 -0.6124 -0.5113
 9183SOL    HW239012   1.240   1.343   7.924 -0.3642 -2.0424  0.8422
 9184SOL     OW39013   0.816   4.655   6.306 -0.4199 -0.9498 -0.0687
 9184SOL    HW139014   0.799   4.580   6.249  0.7918 -0.1920 -1.4211
 9184SOL    HW239015   0.851   4.610   6.383 -2.5917 -0.8769  0.9642
 9185SOL     OW39016   1.144   1.745   7.954  0.1866  0.7060  0.3308
 9185SOL    HW139017   1.100   1.677   8.007  1.0274 -0.1726 -0.1011
 9185SOL    HW239018   1.087   1.821   7.967 -2.4788 -1.5639  2.0689
 9186SOL     OW39019   0.092   4.612   5.210  0.3453  0.0231 -0.4350
 9186SOL    HW139020   0.125   4.673   5.277 -1.1584  0.8033 -0.3964
 9186SOL    HW239021   0.126   4.654   5.131 -0.4890 -2.2017 -1.9769
 9187SOL     OW39022   2.243   1.708  17.167 -0.3979  0.0825  0.8235
 9187SOL    HW139023   2.335   1.714  17.195 -0.3525 -0.4843  0.7869
 9187SOL    HW239024   2.206   1.774  17.226  0.3515  1.0114  0.2688
 9188SOL     OW39025   4.610   4.586   4.393 -0.5654  0.0061 -0.3956
 9188SOL    HW139026   4.673   4.571   4.323  0.1809 -1.6562  0.6567
 9188SOL    HW239027   4.628   4.516   4.456  1.4216  0.1040 -0.8622
 9189SOL     OW39028   2.680   1.398  12.422 -0.3646 -0.1132 -0.2431
 9189SOL    HW139029   2.685   1.492  12.404 -3.0253  0.1899  0.7644
 9189SOL    HW239030   2.640   1.371  12.339  2.7138 -0.5540 -1.5961
 9190SOL     OW39031   3.482   3.993  11.150 -0.1119 -0.2481  0.3408
 9190SOL    HW139032   3.413   3.931  11.173  1.7486 -2.2373  0.5028
 9190SOL    HW239033   3.552   3.938  11.117  0.6760  1.8171 -1.4660
 9191SOL     OW39034   2.365   2.387   6.531 -0.0089 -0.1215  0.4166
 9191SOL    HW139035   2.365   2.296   6.499 -1.9879 -0.7021  2.1041
 9191SOL    HW239036   2.330   2.416   6.447  0.2647  3.2821  1.4960
 9192SOL     OW39037   3.375   0.952  13.434  0.2980 -0.3392 -0.0770
 9192SOL    HW139038   3.412   0.952  13.522  0.8349 -0.8643 -0.2995
 9192SOL    HW239039   3.421   0.880  13.391  1.2911  0.2869 -0.0623
 9193SOL     OW39040   0.436   2.831  16.183  0.5575 -0.3281  0.5830
 9193SOL    HW139041   0.379   2.819  16.107 -1.9237 -0.4550  2.4794
 9193SOL    HW239042   0.379   2.785  16.245  1.6905 -2.1547  0.2673
 9194SOL     OW39043   3.355   0.776  11.134 -0.2193  0.4102 -0.0026
 9194SOL    HW139044   3.377   0.760  11.042 -0.1461 -0.9406  0.2435
 9194SOL    HW239045   3.297   0.705  11.163  0.2869  0.9722  2.3701
 9195SOL     OW39046   1.174   4.399   3.509  0.6842  0.1435 -0.4048
 9195SOL    HW139047   1.206   4.320   3.465  0.6269 -0.4962  0.7160
 9195SOL    HW239048   1.100   4.423   3.454 -0.9735 -1.7751  1.0041
 9196SOL     OW39049   3.245   0.157   8.330  0.4804  0.0024  0.1358
 9196SOL    HW139050   3.209   0.243   8.307  1.9459  0.8347  0.9512
 9196SOL    HW239051   3.170   0.097   8.330  1.4500 -1.1932 -0.3981
 9197SOL     OW39052   1.498   4.681   7.579 -0.2556  0.0565 -0.1257
 9197SOL    HW139053   1.576   4.717   7.620  0.1748 -0.3672 -0.5536
 9197SOL    HW239054   1.505   0.003   7.494  1.2834 -2.2645 -1.2285
 9198SOL     OW39055   3.514   4.330   9.346 -0.1459  0.9613  0.2940
 9198SOL    HW139056   3.566   4.249   9.343 -0.7973  0.4922  1.9118
 9198SOL    HW239057   3.522   4.369   9.259  0.6084  0.7807  0.2767
 9199SOL     OW39058   0.004   0.431   4.597  0.6124 -0.3450  0.4415
 9199SOL    HW139059   0.009   0.414   4.503  2.1560  0.8458  0.3057
 9199SOL    HW239060   0.095   0.452   4.617  0.0025  0.9466  1.8535
 9200SOL     OW39061   3.110   3.302   6.321  0.1487  0.1742  1.0341
 9200SOL    HW139062   3.064   3.350   6.252 -0.2650  0.8849  1.8097
 9200SOL    HW239063   3.199   3.337   6.313  0.2400 -0.1499  0.6272
 9201SOL     OW39064   2.044   1.647  17.622 -0.1667 -0.2037  0.4798
 9201SOL    HW139065   1.962   1.603  17.598  0.7472 -2.5874  1.8171
 9201SOL    HW239066   2.096   1.571  17.648 -0.1817  0.0237  1.1647
 9202SOL     OW39067   3.830   3.156   2.504  0.4274 -0.6104 -0.6969
 9202SOL    HW139068   3.844   3.240   2.549 -1.9589 -0.7138  0.2596
 9202SOL    HW239069   3.786   3.180   2.422 -0.4128  0.3642  0.0246
 9203SOL     OW39070   1.738   3.171   4.185 -0.0295 -0.3461 -0.1416
 9203SOL    HW139071   1.644   3.157   4.192  0.0868 -0.8543  0.3748
 9203SOL    HW239072   1.772   3.128   4.264 -0.7887  1.1683  1.0074
 9204SOL     OW39073   2.485   3.129   1.954  0.1205 -0.0145 -0.4270
 9204SOL    HW139074   2.400   3.137   1.911  1.4972  1.8134 -2.7686
 9204SOL    HW239075   2.479   3.042   1.995 -0.8737 -0.4312 -1.4539
 9205SOL     OW39076   1.127   0.472   5.409 -0.4603  0.1875 -0.4060
 9205SOL    HW139077   1.146   0.393   5.461  0.7364  0.7273  0.0001
 9205SOL    HW239078   1.214   0.506   5.389 -0.1772  0.0815  0.6256
 9206SOL     OW39079   1.228   4.053   7.892 -0.3935  0.1613 -0.2386
 9206SOL    HW139080   1.218   4.130   7.948  1.3813  1.1940 -1.3413
 9206SOL    HW239081   1.293   4.007   7.945  0.0386 -0.1528 -1.0291
 9207SOL     OW39082   2.217   0.212   4.517  0.3318 -0.2580  0.1941
 9207SOL    HW139083   2.192   0.259   4.597  2.0885 -0.8300  1.0791
 9207SOL    HW239084   2.297   0.166   4.543  0.3815 -0.2514  0.0528
 9208SOL     OW39085   2.852   1.355   4.663  0.2074  0.0164  0.0237
 9208SOL    HW139086   2.808   1.303   4.596 -1.8457 -1.3967  2.4482
 9208SOL    HW239087   2.875   1.285   4.726 -0.9176 -1.1579 -0.8793
 9209SOL     OW39088   3.957   2.935   9.007 -0.0559  0.4328 -0.6267
 9209SOL    HW139089   4.025   3.001   9.022  2.3768 -2.3066  0.2541
 9209SOL    HW239090   3.925   2.977   8.927 -1.0422  0.8674 -0.0005
 9210SOL     OW39091   3.849   0.719   5.966 -0.8901 -0.2758 -0.4402
 9210SOL    HW139092   3.782   0.762   6.018  1.4700  0.1873  2.2203
 9210SOL    HW239093   3.922   0.777   5.989 -1.3517 -0.0177  0.3389
 9211SOL     OW39094   4.207   3.561   3.434 -0.4137  0.2614 -0.3390
 9211SOL    HW139095   4.241   3.483   3.478 -1.5785  0.7597  1.4643
 9211SOL    HW239096   4.234   3.537   3.345  1.8776 -2.8081  1.1614
 9212SOL     OW39097   0.408   1.674  15.671  0.1557  0.0225 -0.3353
 9212SOL    HW139098   0.418   1.661  15.765  0.9406 -0.9642 -0.5518
 9212SOL    HW239099   0.410   1.769  15.662 -1.6164  0.2670  1.8809
 9213SOL     OW39100   2.744   3.689   1.662 -0.0943 -0.0724  0.7808
 9213SOL    HW139101   2.756   3.609   1.611 -1.1668  1.0041 -1.1907
 9213SOL    HW239102   2.691   3.638   1.723 -1.1762 -0.2280 -0.2677
 9214SOL     OW39103   2.340   2.789   6.169  0.3935  0.0801 -0.4495
 9214SOL    HW139104   2.303   2.724   6.229  0.8131  1.0129  0.8147
 9214SOL    HW239105   2.265   2.818   6.117  0.4349 -0.9442 -1.0960
 9215SOL     OW39106   4.142   3.225   6.306 -0.2896  0.0181  0.2759
 9215SOL    HW139107   4.106   3.314   6.318  1.2947  0.9143 -1.7508
 9215SOL    HW239108   4.195   3.225   6.386  1.5581  1.2877 -0.9665
 9216SOL     OW39109   0.726   0.973   4.803 -0.8632 -0.0582 -0.2791
 9216SOL    HW139110   0.644   1.018   4.823 -0.7886  1.0562 -2.5399
 9216SOL    HW239111   0.781   0.993   4.879  1.4450 -1.2415 -1.6363
 9217SOL     OW39112   4.502   3.241   4.276 -0.4522  0.2834 -0.5058
 9217SOL    HW139113   4.520   3.303   4.206 -1.1673 -0.0005 -0.9430
 9217SOL    HW239114   4.577   3.182   4.273  0.0807  1.0010 -1.1392
 9218SOL     OW39115   2.075   0.352   6.234  0.0301  0.1217 -0.0594
 9218SOL    HW139116   2.113   0.392   6.156  1.3113  1.1374  1.0845
 9218SOL    HW239117   2.016   0.412   6.279 -3.3925 -2.4577 -1.0965
 9219SOL     OW39118   1.864   4.379  10.950  0.5259  0.1485  0.1551
 9219SOL    HW139119   1.795   4.320  10.981  1.1241 -0.2474  0.7324
 9219SOL    HW239120   1.844   4.451  11.010 -1.7572  0.3741 -0.8578
 9220SOL     OW39121   0.606   1.808   8.743 -0.8134 -0.2441 -0.2704
 9220SOL    HW139122   0.662   1.730   8.740 -0.0058  0.3974 -2.1031
 9220SOL    HW239123   0.556   1.786   8.822  2.0738  0.4347  1.7552
 9221SOL     OW39124   3.204   2.691  14.139 -0.0609  0.2320 -0.2731
 9221SOL    HW139125   3.264   2.617  14.136 -0.2703  0.1082 -1.2840
 9221SOL    HW239126   3.260   2.757  14.098 -0.0226 -1.5306 -3.0597
 9222SOL     OW39127   0.332   0.860   3.728  0.5000  0.0462 -0.4174
 9222SOL    HW139128   0.328   0.909   3.810  0.7776 -1.4552  0.5062
 9222SOL    HW239129   0.238   0.866   3.708  0.6300 -0.2533 -1.1310
 9223SOL     OW39130   3.206   0.936  14.979  0.1685  0.5030  0.0426
 9223SOL    HW139131   3.111   0.936  14.966  0.0157 -1.3964  1.2977
 9223SOL    HW239132   3.208   0.965  15.070 -1.0513 -0.5165  0.3875
 9224SOL     OW39133   0.070   1.335   8.179 -0.3469  0.0107 -0.1943
 9224SOL    HW139134   0.002   1.281   8.220 -2.8626  0.4654 -3.8017
 9224SOL    HW239135   0.022   1.376   8.107  0.0295  1.0409  0.1446
 9225SOL     OW39136   2.915   2.273  17.674  0.2246 -0.2655 -0.1587
 9225SOL    HW139137   2.941   2.297  17.584 -0.1747 -1.6270 -0.6333
 9225SOL    HW239138   2.900   2.179  17.669  0.4711 -0.3097 -0.0925
 9226SOL     OW39139   1.970   1.191   6.635  0.9132  0.0478  0.6382
 9226SOL    HW139140   1.897   1.146   6.678 -1.3521  3.4977  0.3003
 9226SOL    HW239141   2.019   1.115   6.602  1.1244  0.7197 -0.6018
 9227SOL     OW39142   0.790   2.778   7.393  0.2923  0.3393  0.6066
 9227SOL    HW139143   0.712   2.732   7.427 -1.3939  1.8613 -1.2362
 9227SOL    HW239144   0.810   2.840   7.463  0.8040  0.7882  0.0608
 9228SOL     OW39145   1.761   2.225  10.288  0.1507 -0.1164 -0.2440
 9228SOL    HW139146   1.855   2.243  10.292 -0.0055  0.3649  1.1310
 9228SOL    HW239147   1.742   2.254  10.199  0.1835  1.8230  0.3654
 9229SOL     OW39148   0.727   1.353  15.742  0.4191  0.4850 -0.6061
 9229SOL    HW139149   0.701   1.428  15.794  0.5404  0.4078 -0.4336
 9229SOL    HW239150   0.669   1.353  15.665 -0.3995  0.2547  0.0027
 9230SOL     OW39151   3.742   2.725   7.019 -0.6098  0.0121  0.6364
 9230SOL    HW139152   3.675   2.757   6.958  0.8816  1.6218 -0.1290
 9230SOL    HW239153   3.750   2.795   7.084  0.9235  0.5015 -0.0760
 9231SOL     OW39154   3.815   3.692   8.943 -0.6471 -0.1940  0.0622
 9231SOL    HW139155   3.756   3.657   8.876  1.9921  0.0764 -2.3943
 9231SOL    HW239156   3.768   3.771   8.971 -1.0976 -0.8076  1.0529
 9232SOL     OW39157   1.709   3.899   5.129  0.2141  0.5429  0.0766
 9232SOL    HW139158   1.795   3.935   5.153  1.1771 -0.3647 -1.9930
 9232SOL    HW239159   1.700   3.914   5.035 -2.8418  1.2844  0.4806
 9233SOL     OW39160   0.914   4.400   8.663  0.6959  0.5836  0.1053
 9233SOL    HW139161   0.925   4.495   8.671  2.2840  0.2383  1.9968
 9233SOL    HW239162   0.974   4.371   8.732 -1.8392 -3.7334  0.4680
 9234SOL     OW39163   4.708   0.398   0.792  0.3607 -0.0074 -0.8680
 9234SOL    HW139164   4.691   0.306   0.773 -1.4597 -0.0597  1.0324
 9234SOL    HW239165   0.023   0.393   0.880  0.0369  1.8605 -0.6080
 9235SOL     OW39166   3.534   2.628   7.836  0.1449 -0.1658 -0.9069
 9235SOL    HW139167   3.537   2.536   7.808  1.6666 -0.0890 -1.0224
 9235SOL    HW239168   3.598   2.676   7.783 -1.3151  0.4945 -2.0507
 9236SOL     OW39169   1.722   2.605   9.278 -0.1779 -0.7545  0.2364
 9236SOL    HW139170   1.714   2.661   9.355  0.3791 -1.1063  0.5437
 9236SOL    HW239171   1.744   2.660   9.202  0.1888 -2.3869 -0.8449
 9237SOL     OW39172   0.473   3.598   7.275  0.1409 -0.5193 -0.5220
 9237SOL    HW139173   0.547   3.646   7.239  1.0036  0.8088  3.1213
 9237SOL    HW239174   0.482   3.511   7.236  2.1990 -1.0800  1.2316
 9238SOL     OW39175   3.398   1.381  17.207 -0.3976 -0.8151  0.2714
 9238SOL    HW139176   3.458   1.449  17.174 -1.6712  0.1649 -0.0351
 9238SOL    HW239177   3.457   1.321  17.252 -0.8406 -1.1886  0.3410
 9239SOL     OW39178   0.353   1.010   2.391 -0.3135 -0.1377  0.5298
 9239SOL    HW139179   0.275   0.995   2.337  0.6874 -0.0327 -0.9627
 9239SOL    HW239180   0.321   1.070   2.459  2.0684 -0.2177  1.7047
 9240SOL     OW39181   4.222   3.212   8.826  0.0469  0.5508 -0.5795
 9240SOL    HW139182   4.212   3.128   8.780  0.0081 -0.0696  0.5731
 9240SOL    HW239183   4.318   3.222   8.824  0.2278 -0.7785  1.2404
 9241SOL     OW39184   3.837   0.952   6.766 -0.8264  0.4336 -0.4539
 9241SOL    HW139185   3.742   0.948   6.778 -0.4851 -0.2970  1.9796
 9241SOL    HW239186   3.868   1.010   6.835  0.2205 -0.9250  0.2158
 9242SOL     OW39187   1.978   1.136   2.182 -0.2906 -0.1282  0.8273
 9242SOL    HW139188   1.932   1.142   2.266 -0.9879 -0.5787  0.4814
 9242SOL    HW239189   1.934   1.064   2.137 -0.6777  1.5478 -1.4322
 9243SOL     OW39190   1.054   2.764   2.143  0.3525  0.2481  0.3472
 9243SOL    HW139191   1.015   2.851   2.137 -0.7067 -0.3591 -1.2785
 9243SOL    HW239192   1.145   2.786   2.164  0.7255 -0.1977 -0.8656
 9244SOL     OW39193   3.016   1.035  10.647  0.2627  0.7145  0.3533
 9244SOL    HW139194   2.931   1.040  10.688 -0.5824  1.2064 -1.4506
 9244SOL    HW239195   3.050   0.946  10.661  0.9659  1.1424  1.3946
 9245SOL     OW39196   0.570   4.452   4.135 -0.0943  0.5728  0.2490
 9245SOL    HW139197   0.645   4.506   4.161 -0.1570  0.9246 -0.3103
 9245SOL    HW239198   0.500   4.517   4.136  0.4980  1.2104  0.1850
 9246SOL     OW39199   4.050   2.414   3.042 -0.1647 -0.1009 -0.2026
 9246SOL    HW139200   4.054   2.330   2.997 -0.7648 -0.4203  0.3238
 9246SOL    HW239201   4.143   2.424   3.061 -0.2928  0.3522  0.1991
 9247SOL     OW39202   3.496   3.731   9.967 -0.4775 -0.1096 -0.1698
 9247SOL    HW139203   3.578   3.720  10.016  0.7994 -1.2220 -2.5636
 9247SOL    HW239204   3.447   3.694  10.040  1.3666  1.3138  1.7989
 9248SOL     OW39205   4.147   4.365  10.957  0.0976  0.4913 -0.5198
 9248SOL    HW139206   4.143   4.304  11.030 -0.5951  0.8286 -0.2751
 9248SOL    HW239207   4.162   4.451  10.998 -0.1923  0.4129 -0.2545
 9249SOL     OW39208   1.630   1.570   4.484 -0.0348 -0.1589 -0.5946
 9249SOL    HW139209   1.667   1.511   4.418  0.6912 -0.0029 -0.3291
 9249SOL    HW239210   1.561   1.601   4.425  0.5241  1.6903 -0.2534
 9250SOL     OW39211   4.644   4.354  15.082 -0.2569 -0.2231 -0.2316
 9250SOL    HW139212   4.688   4.364  15.166  0.6040 -2.4762 -0.4141
 9250SOL    HW239213   4.553   4.360  15.112  0.1590 -0.1130  1.0197
 9251SOL     OW39214   0.573   1.231   4.585  0.3141  0.1782  0.0384
 9251SOL    HW139215   0.621   1.272   4.513 -1.5696 -0.0340 -1.3597
 9251SOL    HW239216   0.488   1.276   4.584  0.6122  0.7242 -0.4237
 9252SOL     OW39217   3.710   2.501  14.502  0.1727 -0.5825 -0.2261
 9252SOL    HW139218   3.641   2.526  14.440 -0.7814 -3.2855 -0.2200
 9252SOL    HW239219   3.706   2.575  14.563  1.5568  1.2660 -2.3847
 9253SOL     OW39220   0.162   2.749  14.466  0.1817 -0.3218 -0.0917
 9253SOL    HW139221   0.100   2.714  14.531  1.0666  0.5093  1.1906
 9253SOL    HW239222   0.234   2.705  14.510 -0.5750  1.1750  2.6431
 9254SOL     OW39223   0.224   4.338   5.244  0.2267  0.1881 -0.0316
 9254SOL    HW139224   0.276   4.401   5.195 -0.3877  1.1839  0.5900
 9254SOL    HW239225   0.159   4.405   5.266  1.1173  0.9560  0.2943
 9255SOL     OW39226   3.303   0.812   5.478 -0.1126 -0.3848 -0.4421
 9255SOL    HW139227   3.370   0.799   5.545 -2.4354 -1.1679  1.7273
 9255SOL    HW239228   3.330   0.758   5.403  1.5330 -1.2556  0.7924
 9256SOL     OW39229   1.406   2.614   6.741 -0.2385  0.1489 -0.3113
 9256SOL    HW139230   1.422   2.684   6.804  0.7768 -0.0995 -0.2886
 9256SOL    HW239231   1.456   2.537   6.771 -3.1012 -1.6093 -0.0680
 9257SOL     OW39232   3.042   3.534   8.095 -0.6464 -0.4535 -0.0135
 9257SOL    HW139233   3.114   3.473   8.114  0.2823  0.0287 -2.0138
 9257SOL    HW239234   2.970   3.472   8.101 -2.3499  1.5947  0.4261
 9258SOL     OW39235   4.663   2.482   4.443  0.7062 -0.1704  0.1047
 9258SOL    HW139236   4.623   2.453   4.525 -0.4998  1.9093  0.2634
 9258SOL    HW239237   0.031   2.457   4.466  0.1263 -2.1217  0.2575
 9259SOL     OW39238   3.556   1.834   0.063  0.6250  0.2202 -0.2471
 9259SOL    HW139239   3.475   1.797   0.096  0.6552 -0.9569 -1.4960
 9259SOL    HW239240   3.613   1.770   0.105  1.4883  0.8133 -0.5206
 9260SOL     OW39241   1.686   3.822   7.935 -0.1935 -0.0949 -0.5974
 9260SOL    HW139242   1.645   3.794   7.853  1.7310 -3.4048 -0.4411
 9260SOL    HW239243   1.774   3.816   7.899 -0.5394 -1.0006 -1.3190
 9261SOL     OW39244   3.620   0.805   3.547 -0.0446 -0.0807  0.0000
 9261SOL    HW139245   3.603   0.820   3.640 -0.4811 -2.8536  0.3891
 9261SOL    HW239246   3.714   0.790   3.549  0.1090  0.8357 -0.2957
 9262SOL     OW39247   0.034   0.876   7.844 -0.1365  0.5526  0.5285
 9262SOL    HW139248   4.685   0.825   7.884 -1.0259  2.0466  0.8819
 9262SOL    HW239249   0.093   0.895   7.917 -0.9560 -0.9193  1.5734
 9263SOL     OW39250   2.329   3.499   4.751 -0.9341 -0.3481  0.1743
 9263SOL    HW139251   2.394   3.517   4.683 -0.3442  1.8340  1.3393
 9263SOL    HW239252   2.297   3.584   4.781  3.9523  1.9725 -1.2153
 9264SOL     OW39253   4.436   3.112   1.614  0.2636 -0.1604  0.4560
 9264SOL    HW139254   4.380   3.063   1.675  0.8358 -1.1828  0.1639
 9264SOL    HW239255   4.495   3.046   1.577 -2.2737 -1.3330 -1.5105
 9265SOL     OW39256   3.146   0.260   4.980 -0.0238  0.4838  0.6791
 9265SOL    HW139257   3.102   0.176   4.994  0.2596  0.2137 -0.0548
 9265SOL    HW239258   3.072   0.317   4.999  0.4643  3.0022 -5.0058
 9266SOL     OW39259   3.592   4.304  12.879  0.2538  0.0597 -0.2195
 9266SOL    HW139260   3.522   4.367  12.895 -0.4606 -0.3614 -1.6740
 9266SOL    HW239261   3.561   4.235  12.937 -0.6681  0.1627 -0.5983
 9267SOL     OW39262   2.775   3.104  12.968  0.3087 -0.1443 -0.4283
 9267SOL    HW139263   2.711   3.175  12.958 -0.3098 -0.7540 -0.8158
 9267SOL    HW239264   2.727   3.048  13.029  1.2018  1.7112  1.9926
 9268SOL     OW39265   2.904   4.530   6.323  0.5534  0.7526 -0.7294
 9268SOL    HW139266   2.892   4.485   6.239  0.7157  0.0302 -0.3683
 9268SOL    HW239267   2.819   4.523   6.367  1.1801  1.9282  0.6736
 9269SOL     OW39268   2.162   1.008   6.512 -0.2400 -0.6976 -0.6911
 9269SOL    HW139269   2.243   0.972   6.548 -1.0673 -1.5405  0.3535
 9269SOL    HW239270   2.172   0.993   6.418 -0.3494  2.0014 -1.1345
 9270SOL     OW39271   3.558   0.250   5.711 -0.5601  0.3628  0.2751
 9270SOL    HW139272   3.535   0.190   5.640  1.7111 -0.5208  0.2833
 9270SOL    HW239273   3.491   0.315   5.690 -0.8081  0.1675  0.4420
 9271SOL     OW39274   0.913   1.245   8.166 -0.8702  0.0489  0.1446
 9271SOL    HW139275   0.996   1.228   8.209 -0.3590  2.3607  0.1173
 9271SOL    HW239276   0.895   1.330   8.207 -0.8649  0.5391 -0.8732
 9272SOL     OW39277   3.793   3.263   7.757 -0.9592  0.6151  0.9795
 9272SOL    HW139278   3.760   3.271   7.668 -1.5742 -1.2982  1.0213
 9272SOL    HW239279   3.881   3.300   7.752  0.0672 -1.5795  2.7781
 9273SOL     OW39280   4.471   3.399   7.954 -0.0181  0.2002  0.2556
 9273SOL    HW139281   4.381   3.379   7.928  0.2815 -2.3829  1.2254
 9273SOL    HW239282   4.518   3.337   7.898  0.4750 -0.1903  1.0987
 9274SOL     OW39283   2.759   4.110   3.387  0.1244 -0.2294  0.4944
 9274SOL    HW139284   2.799   4.149   3.464  0.7682  0.7114 -0.3308
 9274SOL    HW239285   2.788   4.018   3.388 -0.8403 -0.5347  1.3407
 9275SOL     OW39286   0.009   0.081   4.513 -0.1532  0.1825  0.1155
 9275SOL    HW139287   4.656   0.112   4.563 -1.1030  0.1323 -1.2762
 9275SOL    HW239288   4.690   0.012   4.460  1.1935  0.5236 -1.3819
 9276SOL     OW39289   4.522   4.077  15.233  0.3848 -0.8656 -0.6552
 9276SOL    HW139290   4.453   4.043  15.176 -0.0180  0.0090 -0.6947
 9276SOL    HW239291   4.596   4.068  15.174  0.6781 -4.9044  0.3430
 9277SOL     OW39292   2.702   2.396   9.588  0.2540  0.1247 -0.1793
 9277SOL    HW139293   2.721   2.330   9.522  2.7210 -0.5473  1.1721
 9277SOL    HW239294   2.723   2.479   9.546 -0.7680  0.1948 -0.5244
 9278SOL     OW39295   3.508   3.170  16.907 -0.0148  0.1629 -0.4237
 9278SOL    HW139296   3.515   3.078  16.883 -1.9514 -0.3460  0.9110
 9278SOL    HW239297   3.413   3.161  16.918  0.1790 -0.6120  0.5855
 9279SOL     OW39298   4.023   2.447  14.947  0.4673 -0.3422  0.5308
 9279SOL    HW139299   4.078   2.429  15.024  2.0645 -0.3409 -0.6029
 9279SOL    HW239300   4.047   2.537  14.926  0.1604 -1.2024 -3.4651
 9280SOL     OW39301   4.318   0.733  11.934 -0.2562  0.6096  0.4471
 9280SOL    HW139302   4.328   0.691  12.019  0.6311  0.6018  0.3414
 9280SOL    HW239303   4.305   0.826  11.951  0.1584  0.4235  1.7885
 9281SOL     OW39304   3.060   0.735   1.029  0.5399  0.2612 -0.0126
 9281SOL    HW139305   3.096   0.668   1.087 -1.7670  0.5441  1.7405
 9281SOL    HW239306   2.982   0.765   1.076 -0.1206 -0.9747 -0.3431
 9282SOL     OW39307   3.605   4.011   9.525 -0.4292 -0.0051  0.4087
 9282SOL    HW139308   3.692   3.986   9.557  0.3377  2.5691  0.3096
 9282SOL    HW239309   3.584   4.079   9.589 -2.6826 -1.0170  0.7542
 9283SOL     OW39310   2.227   2.722  13.416  0.6959  0.2544 -0.2154
 9283SOL    HW139311   2.140   2.719  13.376  0.3520  1.0182  0.4658
 9283SOL    HW239312   2.204   2.735  13.508  0.9006 -1.7700  0.1173
 9284SOL     OW39313   4.476   2.697   7.542 -0.1294 -0.1785  0.0404
 9284SOL    HW139314   4.544   2.764   7.527  1.5108 -1.5894  1.2066
 9284SOL    HW239315   4.473   2.649   7.459 -0.9817  0.0411 -0.0514
 9285SOL     OW39316   3.598   2.131   4.556 -0.5295 -0.0727 -0.0400
 9285SOL    HW139317   3.616   2.040   4.530  1.5733 -0.2307  1.9183
 9285SOL    HW239318   3.515   2.111   4.599 -1.5751  4.6588  0.0404
 9286SOL     OW39319   3.897   3.111   5.498  0.2168 -0.0184  0.4180
 9286SOL    HW139320   3.806   3.142   5.505  1.0287  2.6547 -0.9027
 9286SOL    HW239321   3.918   3.136   5.588  0.8036 -0.0811  0.2958
 9287SOL     OW39322   0.103   3.161   2.406  0.1661  0.4700  0.7427
 9287SOL    HW139323   0.171   3.184   2.470  1.0750 -2.2272  0.7773
 9287SOL    HW239324   0.111   3.065   2.406  0.3573  0.4861  1.1151
 9288SOL     OW39325   4.248   2.903   4.304 -0.1597  0.5027 -0.7031
 9288SOL    HW139326   4.333   2.905   4.260  0.5935  0.6539  0.7834
 9288SOL    HW239327   4.254   2.996   4.325  1.4824  0.7446 -2.1651
 9289SOL     OW39328   1.097   4.334   8.412 -0.3022  0.0165  0.0222
 9289SOL    HW139329   1.016   4.375   8.383 -0.3577  0.4017  0.7251
 9289SOL    HW239330   1.125   4.404   8.471  1.0178  0.4042 -1.0754
 9290SOL     OW39331   1.709   2.506  11.675  0.3407  0.0633  0.0290
 9290SOL    HW139332   1.756   2.452  11.737 -2.3381  0.1099  2.0992
 9290SOL    HW239333   1.784   2.541  11.627  0.0469 -1.7479 -1.7699
 9291SOL     OW39334   0.717   2.061   3.700 -0.3131  0.1367  0.3354
 9291SOL    HW139335   0.654   2.033   3.634 -0.8332 -0.5873  1.1379
 9291SOL    HW239336   0.702   2.155   3.696  2.3370  0.5839  0.7548
 9292SOL     OW39337   3.418   3.463  10.446  0.3346 -0.2109 -0.2120
 9292SOL    HW139338   3.395   3.545  10.401 -0.2022  0.0824  0.5850
 9292SOL    HW239339   3.384   3.492  10.531 -0.2436 -3.8362  0.8033
 9293SOL     OW39340   3.253   0.792  17.624 -0.2182 -0.3448 -0.3833
 9293SOL    HW139341   3.291   0.712  17.589 -0.2284 -0.1333 -0.8867
 9293SOL    HW239342   3.218   0.762   0.017 -1.2458 -1.0150 -1.0544
 9294SOL     OW39343   4.346   4.140  14.279  0.9243 -0.0358 -0.5522
 9294SOL    HW139344   4.395   4.222  14.288 -0.0481  0.5703 -0.7517
 9294SOL    HW239345   4.266   4.171  14.237  0.9342 -1.0273 -1.2988
 9295SOL     OW39346   2.562   2.152   2.424 -0.0004 -0.5398 -0.0760
 9295SOL    HW139347   2.626   2.101   2.374  2.5531  2.9215 -0.3453
 9295SOL    HW239348   2.489   2.154   2.362  0.6097 -1.9934 -0.8329
 9296SOL     OW39349   4.258   3.726   6.863  0.5026  0.1502 -0.3359
 9296SOL    HW139350   4.306   3.688   6.936 -2.3014  0.0096  1.4370
 9296SOL    HW239351   4.180   3.671   6.874  0.7299 -0.0458  0.3227
 9297SOL     OW39352   4.686   1.894   4.175  0.1035 -0.1010  0.1672
 9297SOL    HW139353   4.623   1.833   4.213  0.8159  0.1640  1.7835
 9297SOL    HW239354   4.631   1.964   4.139  0.8457  0.4695  0.1313
 9298SOL     OW39355   3.842   1.972   0.404  0.2713  0.1617  0.6114
 9298SOL    HW139356   3.916   1.965   0.344 -0.4896 -1.5060 -0.1287
 9298SOL    HW239357   3.768   1.991   0.345 -1.5629 -1.1222  2.5140
 9299SOL     OW39358   4.074   3.870   3.161  0.7502 -0.3909 -0.2583
 9299SOL    HW139359   4.156   3.912   3.135  2.8879 -3.1844  1.9766
 9299SOL    HW239360   4.025   3.896   3.083  0.3894 -0.1632  0.0455
 9300SOL     OW39361   1.898   0.132   8.841 -0.8544  0.2445 -0.4947
 9300SOL    HW139362   1.967   0.130   8.775  1.2340 -4.3487  1.8218
 9300SOL    HW239363   1.954   0.156   8.915  0.6904 -2.2015 -0.8791
 9301SOL     OW39364   3.614   3.694   8.746 -0.4416 -0.5877 -0.2924
 9301SOL    HW139365   3.523   3.712   8.770 -0.1942  1.3057 -0.7212
 9301SOL    HW239366   3.628   3.772   8.691 -1.7202 -0.2502 -0.1316
 9302SOL     OW39367   0.480   4.672  12.201 -0.0192  0.0585  0.3691
 9302SOL    HW139368   0.393   4.708  12.218 -1.6340 -3.9201  0.5140
 9302SOL    HW239369   0.514   0.021  12.148  2.4354 -2.0942 -0.9260
 9303SOL     OW39370   0.074   1.925   9.051  0.4721  0.0380 -0.2784
 9303SOL    HW139371   0.109   1.844   9.087  1.4972  0.4843 -0.2496
 9303SOL    HW239372   0.101   1.981   9.123 -0.1774  0.1171 -0.0963
 9304SOL     OW39373   4.562   4.545   5.098 -0.2419 -0.1786  0.0762
 9304SOL    HW139374   4.636   4.571   5.153 -0.4221  0.4032  0.0401
 9304SOL    HW239375   4.525   4.467   5.140  1.3488 -1.0301 -0.1004
 9305SOL     OW39376   0.196   1.468   8.963  0.4568  0.4677  0.1468
 9305SOL    HW139377   0.226   1.378   8.955 -1.6210 -0.1483 -0.6263
 9305SOL    HW239378   0.218   1.499   8.875  0.7240  0.0528  0.0658
 9306SOL     OW39379   1.437   0.449   8.352  0.2009  0.2168  0.1900
 9306SOL    HW139380   1.363   0.499   8.386 -1.2080 -2.8090  1.5088
 9306SOL    HW239381   1.500   0.520   8.365  1.2251 -0.4875 -0.8743
 9307SOL     OW39382   2.760   3.870   5.601 -0.0862  0.7173 -0.3260
 9307SOL    HW139383   2.769   3.964   5.585  0.1026  0.9010  0.8979
 9307SOL    HW239384   2.698   3.873   5.673 -0.2724  0.6997 -0.4858
 9308SOL     OW39385   0.691   4.013  10.247  0.0754 -0.1149 -0.2584
 9308SOL    HW139386   0.664   4.070  10.175 -2.6749 -1.7279 -0.4823
 9308SOL    HW239387   0.707   3.929  10.205 -0.6634 -1.0815  1.3983
 9309SOL     OW39388   4.593   1.637  13.169 -0.1468 -0.2917 -0.3256
 9309SOL    HW139389   4.662   1.575  13.145  1.3111  1.3008 -0.2195
 9309SOL    HW239390   4.628   1.713  13.122  0.7811  1.1687  2.7332
 9310SOL     OW39391   0.584   2.445   5.382  0.2694 -0.1527 -0.2046
 9310SOL    HW139392   0.574   2.437   5.287 -2.2676 -0.4766  0.1019
 9310SOL    HW239393   0.523   2.515   5.404  1.1575  0.3125  0.7574
 9311SOL     OW39394   1.423   3.544  16.114 -0.1436 -0.2477 -0.9080
 9311SOL    HW139395   1.328   3.534  16.103 -0.1529  0.8680 -1.8838
 9311SOL    HW239396   1.429   3.482  16.186  1.7778 -0.6538 -1.4164
 9312SOL     OW39397   1.260   3.180   2.612  0.5242  0.1960 -0.2278
 9312SOL    HW139398   1.324   3.112   2.591  0.5234 -0.4550  1.8432
 9312SOL    HW239399   1.293   3.248   2.553  0.6728 -0.6776 -1.1530
 9313SOL     OW39400   0.567   3.196   8.040  0.1827  0.4000 -0.7464
 9313SOL    HW139401   0.505   3.206   8.112  0.7192 -0.9112 -0.0976
 9313SOL    HW239402   0.599   3.287   8.035  0.0647  0.4484 -0.5902
 9314SOL     OW39403   0.145   0.818  12.300  0.0018 -0.3643 -0.3306
 9314SOL    HW139404   0.072   0.876  12.275  1.2288  1.8381  1.1519
 9314SOL    HW239405   0.189   0.810  12.216 -0.9383  1.1326 -0.9729
 9315SOL     OW39406   0.847   3.447  15.109 -0.4639  0.4968  0.4325
 9315SOL    HW139407   0.843   3.531  15.063  0.7715 -0.5197 -1.5042
 9315SOL    HW239408   0.936   3.424  15.084 -0.2279  0.5863  1.1859
 9316SOL     OW39409   0.713   3.500  17.286  0.1302 -0.7085 -0.7963
 9316SOL    HW139410   0.714   3.594  17.265 -0.9173 -0.0607  2.0448
 9316SOL    HW239411   0.803   3.485  17.316  0.1960 -0.3778 -0.8249
 9317SOL     OW39412   3.287   1.820   4.225  0.2414  0.2208 -0.2332
 9317SOL    HW139413   3.314   1.787   4.311 -1.2650 -2.4185 -0.7755
 9317SOL    HW239414   3.366   1.798   4.176  0.0663  0.4387 -0.6087
 9318SOL     OW39415   1.402   1.058  13.669 -0.1707  0.1123 -0.8128
 9318SOL    HW139416   1.369   0.969  13.683  2.5090 -0.9434 -1.2957
 9318SOL    HW239417   1.323   1.111  13.660 -0.9159 -1.1335 -1.6715
 9319SOL     OW39418   1.585   1.130  14.419 -0.2103  0.4111  0.0515
 9319SOL    HW139419   1.534   1.190  14.473 -0.8298  0.7189 -0.8910
 9319SOL    HW239420   1.569   1.172  14.335 -2.0169 -0.1299  0.1294
 9320SOL     OW39421   0.203   1.683   9.124  0.3389  0.3768 -0.4261
 9320SOL    HW139422   0.179   1.607   9.071 -0.2066  0.5272 -0.4030
 9320SOL    HW239423   0.272   1.645   9.178  0.1947  1.6065  0.6294
 9321SOL     OW39424   3.862   4.672  14.805 -0.1371  0.8093  0.2678
 9321SOL    HW139425   3.865   0.028  14.750 -0.9365  0.0031 -0.9214
 9321SOL    HW239426   3.904   4.606  14.750 -1.6249 -1.5120  1.9220
 9322SOL     OW39427   1.916   2.475   2.746  0.3637 -0.1425  0.0355
 9322SOL    HW139428   1.980   2.473   2.817  0.3765  0.3236  0.0410
 9322SOL    HW239429   1.938   2.393   2.702  0.8024  0.1426 -0.2739
 9323SOL     OW39430   4.376   1.570  12.633  0.0523 -0.1225 -0.3280
 9323SOL    HW139431   4.360   1.539  12.722 -0.5810  0.1123 -0.3558
 9323SOL    HW239432   4.471   1.579  12.636 -0.0340  1.3657 -2.2330
 9324SOL     OW39433   1.204   3.566   2.759 -0.3251  0.1443 -0.1561
 9324SOL    HW139434   1.284   3.538   2.802  1.8882 -0.1422 -4.5281
 9324SOL    HW239435   1.133   3.509   2.788  1.0777 -1.4931  0.0087
 9325SOL     OW39436   3.444   4.551   3.249 -0.3698 -0.6995 -0.3043
 9325SOL    HW139437   3.489   4.634   3.266 -0.4936 -0.3703 -1.5851
 9325SOL    HW239438   3.373   4.570   3.311 -0.2447 -0.3142 -0.2787
 9326SOL     OW39439   3.193   3.540  17.096 -0.6513 -0.0300  0.1735
 9326SOL    HW139440   3.111   3.587  17.115 -1.9308 -1.9125 -0.7162
 9326SOL    HW239441   3.217   3.517  17.186  2.2664 -1.6494 -1.0317
 9327SOL     OW39442   1.427   3.508   2.914 -0.3184 -0.4934  0.5413
 9327SOL    HW139443   1.495   3.569   2.886 -1.6085  1.3038  1.3292
 9327SOL    HW239444   1.447   3.497   3.007  1.4189  0.9313  0.3308
 9328SOL     OW39445   0.245   2.985   4.515 -0.6252 -0.0609 -0.0027
 9328SOL    HW139446   0.304   2.990   4.439  1.1053 -0.6699  1.2900
 9328SOL    HW239447   0.185   2.913   4.500 -4.3947  3.3849 -1.3375
 9329SOL     OW39448   2.427   2.466  13.029 -0.2061  0.2039  0.2336
 9329SOL    HW139449   2.380   2.403  13.084  0.8088 -1.3043 -0.6331
 9329SOL    HW239450   2.426   2.540  13.090 -0.9836 -1.6926  2.5315
 9330SOL     OW39451   1.888   0.681   8.412  0.1229  0.1600  0.2905
 9330SOL    HW139452   1.945   0.758   8.409 -0.3026  0.4805  0.4134
 9330SOL    HW239453   1.930   0.632   8.483 -2.2628 -0.2503  1.4323
 9331SOL     OW39454   1.398   4.431   0.205 -0.2672  0.0762  0.3205
 9331SOL    HW139455   1.479   4.386   0.183 -0.2548  0.1937  0.1329
 9331SOL    HW239456   1.428   4.521   0.204 -0.8789  0.2990  1.5486
 9332SOL     OW39457   4.496   0.223   0.888 -0.0516 -0.0808 -0.0008
 9332SOL    HW139458   4.442   0.183   0.956  0.9880 -0.3530  0.6767
 9332SOL    HW239459   4.504   0.312   0.922  0.9306  0.3406 -1.3400
 9333SOL     OW39460   4.443   2.131   3.372 -0.1825  0.0343  0.7016
 9333SOL    HW139461   4.352   2.127   3.343  0.0549  1.3320 -0.2479
 9333SOL    HW239462   4.444   2.060   3.436 -3.5940 -0.1451  0.5581
 9334SOL     OW39463   4.304   3.801  11.387 -0.4233  0.1898 -0.1128
 9334SOL    HW139464   4.338   3.745  11.457  0.1961  0.1094 -0.4771
 9334SOL    HW239465   4.217   3.760  11.384 -0.3741  0.0174  1.1661
 9335SOL     OW39466   1.453   2.579   8.607 -0.4746  0.6186 -0.2339
 9335SOL    HW139467   1.398   2.563   8.530  1.3222 -0.9521 -1.2135
 9335SOL    HW239468   1.407   2.646   8.657  2.2252  2.4627 -0.2369
 9336SOL     OW39469   3.075   0.675  13.074 -0.0692  0.0399  0.8650
 9336SOL    HW139470   3.028   0.682  13.157 -1.4177  0.3471  0.0685
 9336SOL    HW239471   3.146   0.739  13.079 -0.0708 -0.0674  2.4027
 9337SOL     OW39472   1.658   4.186  11.608 -0.6226  0.3948  0.2014
 9337SOL    HW139473   1.664   4.282  11.607  0.2951  0.3604  1.6304
 9337SOL    HW239474   1.729   4.162  11.668 -1.0140 -0.3272  0.3708
 9338SOL     OW39475   2.592   4.707   4.700  0.1283  0.7649  0.2516
 9338SOL    HW139476   2.637   4.659   4.769 -2.4332 -0.7902  0.8467
 9338SOL    HW239477   2.537   4.642   4.656 -1.9654  3.5012 -1.1518
 9339SOL     OW39478   3.971   1.386   5.145  0.1527  0.5209 -0.4332
 9339SOL    HW139479   4.043   1.352   5.092 -0.9218  0.5921 -1.9438
 9339SOL    HW239480   3.936   1.305   5.182 -2.2081  0.9233 -1.7601
 9340SOL     OW39481   1.921   1.119   5.913  0.7968 -0.0055 -0.4169
 9340SOL    HW139482   2.013   1.108   5.940  0.3202 -0.1877  1.1539
 9340SOL    HW239483   1.869   1.099   5.991  0.0210  2.5528 -0.2745
 9341SOL     OW39484   3.806   1.762   7.522  0.2191 -0.2545  0.0999
 9341SOL    HW139485   3.883   1.752   7.578 -0.0878  0.0493  0.5728
 9341SOL    HW239486   3.740   1.706   7.563  0.5848 -0.7929 -0.0444
 9342SOL     OW39487   2.738   3.991  17.690 -0.0004  0.4109 -0.0168
 9342SOL    HW139488   2.736   3.936  17.611  0.8928  0.2651  0.0621
 9342SOL    HW239489   2.832   3.990   0.017  0.5208  3.3165 -2.5933
 9343SOL     OW39490   3.711   3.216   0.794 -0.9872 -0.2997 -0.0714
 9343SOL    HW139491   3.650   3.203   0.867  0.0633 -0.1874  0.8179
 9343SOL    HW239492   3.652   3.245   0.725 -1.9434  2.6126  1.9691
 9344SOL     OW39493   1.641   4.419   0.023 -0.9507  0.6659 -0.3355
 9344SOL    HW139494   1.663   4.384  17.628  0.0996  3.4405 -1.1995
 9344SOL    HW239495   1.683   4.505   0.021 -2.9259  1.6452 -0.1977
 9345SOL     OW39496   0.353   2.848   8.857 -0.6079 -0.6670 -0.0966
 9345SOL    HW139497   0.266   2.851   8.818 -0.9958  1.7751  0.9388
 9345SOL    HW239498   0.341   2.917   8.923  1.5510 -0.4394  0.0623
 9346SOL     OW39499   1.108   0.740   1.585  0.2666  0.3451  0.0236
 9346SOL    HW139500   1.151   0.657   1.605  0.2545 -0.5756 -3.7377
 9346SOL    HW239501   1.015   0.730   1.608 -0.0507 -0.1756 -1.4778
 9347SOL     OW39502   1.581   0.665   7.188  0.3460 -0.0781 -0.0539
 9347SOL    HW139503   1.597   0.754   7.157  0.0163  0.1075  0.3186
 9347SOL    HW239504   1.573   0.666   7.283  1.3445  1.9330  0.0120
 9348SOL     OW39505   0.854   1.787  13.234 -0.2430 -0.1253  0.0845
 9348SOL    HW139506   0.814   1.834  13.308 -3.4457 -0.3768 -1.5125
 9348SOL    HW239507   0.823   1.831  13.156  2.2121  0.1553 -0.7270
 9349SOL     OW39508   3.660   2.814   2.300 -0.5390 -0.0734 -0.6775
 9349SOL    HW139509   3.597   2.884   2.286 -0.0432  0.2684 -1.1733
 9349SOL    HW239510   3.669   2.808   2.395 -2.6993 -1.1106 -0.5303
 9350SOL     OW39511   3.280   0.448   5.914 -0.1134  0.3271  0.2068
 9350SOL    HW139512   3.306   0.532   5.951 -2.0466  1.0835 -0.1359
 9350SOL    HW239513   3.325   0.447   5.830 -0.7655  0.0146 -0.1353
 9351SOL     OW39514   3.237   2.368   1.255 -0.1182  0.5146  0.2030
 9351SOL    HW139515   3.209   2.293   1.307  2.2199 -0.4868  0.0437
 9351SOL    HW239516   3.303   2.413   1.308 -0.8415  1.0175  0.6561
 9352SOL     OW39517   0.144   2.214   6.709 -0.0548 -1.8699 -0.0526
 9352SOL    HW139518   0.051   2.229   6.727  0.2509 -0.2796  0.2159
 9352SOL    HW239519   0.183   2.236   6.794  2.0515 -1.7127 -1.0590
 9353SOL     OW39520   0.723   3.409   7.679 -0.1732 -0.6277  0.3242
 9353SOL    HW139521   0.633   3.415   7.710 -0.4059 -1.5681 -0.1672
 9353SOL    HW239522   0.744   3.318   7.701  0.0257 -0.8046 -0.5908
 9354SOL     OW39523   2.245   2.784   5.454 -0.3463  0.0760 -0.8144
 9354SOL    HW139524   2.338   2.799   5.438 -0.9926  2.9535 -1.7560
 9354SOL    HW239525   2.224   2.874   5.481 -0.4663 -1.0054  2.7920
 9355SOL     OW39526   1.399   4.291   5.739 -0.0237 -0.3425  0.5150
 9355SOL    HW139527   1.333   4.250   5.684  0.7328 -0.8699 -0.0045
 9355SOL    HW239528   1.460   4.218   5.753  0.5163 -0.4256 -2.3334
 9356SOL     OW39529   3.929   3.607   3.886 -0.0022  0.7368 -0.0088
 9356SOL    HW139530   3.921   3.600   3.791  1.9343 -1.9580  0.0510
 9356SOL    HW239531   3.853   3.559   3.918  1.1025 -0.7355  0.3750
 9357SOL     OW39532   2.427   0.678   5.735  0.0940  0.0498 -0.4409
 9357SOL    HW139533   2.469   0.609   5.785  2.1753  0.3597 -1.7396
 9357SOL    HW239534   2.468   0.748   5.787  1.2102 -0.0090 -1.2390
 9358SOL     OW39535   1.076   1.281   9.131  0.3750  0.3406  0.2597
 9358SOL    HW139536   1.166   1.250   9.141 -0.5214 -2.0363  1.0221
 9358SOL    HW239537   1.091   1.365   9.175  0.5621 -1.0146  2.7706
 9359SOL     OW39538   2.323   2.765   7.401  0.2109  0.3493  0.3252
 9359SOL    HW139539   2.409   2.759   7.440  0.2648  0.4233  0.2187
 9359SOL    HW239540   2.299   2.850   7.438  0.8004  2.0916 -3.2027
 9360SOL     OW39541   0.996   3.515   5.054  0.3927  0.0767  0.0814
 9360SOL    HW139542   1.045   3.595   5.074 -0.1969  0.3074  0.6014
 9360SOL    HW239543   0.907   3.545   5.069  0.0289 -1.2332  0.5370
 9361SOL     OW39544   3.967   2.026   9.445 -0.0432 -0.9207 -0.0803
 9361SOL    HW139545   4.010   2.066   9.521 -1.4773 -0.7933  0.6561
 9361SOL    HW239546   3.874   2.027   9.465 -0.2301  2.1555 -1.1502
 9362SOL     OW39547   0.276   1.067  12.319  0.1286 -0.1235  0.1845
 9362SOL    HW139548   0.236   0.982  12.334 -0.4919  0.3550  1.2712
 9362SOL    HW239549   0.260   1.067  12.225 -0.3434  0.9522  0.2651
 9363SOL     OW39550   4.414   4.242   7.602  0.3305  0.0907  0.6085
 9363SOL    HW139551   4.492   4.256   7.656  1.2278 -0.3372 -0.5813
 9363SOL    HW239552   4.411   4.334   7.576 -3.3705  0.5857  2.7470
 9364SOL     OW39553   3.989   2.207  12.984 -0.0303  0.4311  0.5775
 9364SOL    HW139554   4.012   2.180  13.073  1.4987  0.7016  0.2576
 9364SOL    HW239555   4.031   2.137  12.933  1.3449  1.0003  0.9577
 9365SOL     OW39556   3.067   3.942   9.045 -0.3602 -0.2335  0.0046
 9365SOL    HW139557   3.057   4.017   9.104 -1.1981 -1.5399  1.5003
 9365SOL    HW239558   3.033   3.970   8.960  2.7320  0.4630 -0.9923
 9366SOL     OW39559   2.988   3.767   7.635  0.0454 -0.9433  0.0570
 9366SOL    HW139560   3.052   3.830   7.605 -1.3024 -1.1680 -3.2619
 9366SOL    HW239561   3.039   3.731   7.708 -0.2034 -0.6159  0.3976
 9367SOL     OW39562   0.224   4.553  14.740  0.0464  0.0582  0.1117
 9367SOL    HW139563   0.148   4.496  14.745 -1.9001  2.4606 -1.7202
 9367SOL    HW239564   0.266   4.538  14.824 -0.2805 -0.8844  0.0999
 9368SOL     OW39565   2.204   2.021   6.725  0.1280 -0.1769 -0.0588
 9368SOL    HW139566   2.164   2.082   6.662  0.1240  1.5402  1.5903
 9368SOL    HW239567   2.289   2.063   6.737 -0.1524  0.4522 -0.2443
 9369SOL     OW39568   3.660   1.713   2.100  0.1927 -0.6324 -0.0228
 9369SOL    HW139569   3.702   1.775   2.159  3.1885 -0.2058 -2.6248
 9369SOL    HW239570   3.638   1.760   2.019 -0.1997  0.5162  0.7560
 9370SOL     OW39571   3.754   1.580   8.822 -0.1569 -0.3926 -0.6236
 9370SOL    HW139572   3.823   1.624   8.771 -1.9189  2.3485 -0.6757
 9370SOL    HW239573   3.776   1.493   8.791 -0.9650  0.0046 -2.3554
 9371SOL     OW39574   2.908   3.590   3.856  0.7852 -0.6269 -0.3277
 9371SOL    HW139575   2.853   3.595   3.778 -1.4981  1.7145  1.4539
 9371SOL    HW239576   2.980   3.648   3.832  0.0436  0.6971  0.6551
 9372SOL     OW39577   2.785   0.186   9.306  0.1169  0.0223  0.3592
 9372SOL    HW139578   2.849   0.220   9.243 -1.5154 -0.3312 -1.4621
 9372SOL    HW239579   2.813   0.095   9.313  1.0306  0.2783  0.1233
 9373SOL     OW39580   2.320   0.702   2.728  0.8639  0.2450 -0.7017
 9373SOL    HW139581   2.346   0.611   2.712 -1.1342 -0.3118 -0.8058
 9373SOL    HW239582   2.386   0.739   2.787 -1.2960 -0.4406  2.1164
 9374SOL     OW39583   3.591   3.484  16.771  0.1876 -0.9873 -0.0435
 9374SOL    HW139584   3.510   3.471  16.720  0.3265 -0.0001 -0.5284
 9374SOL    HW239585   3.551   3.482  16.858  1.8853 -0.3605  0.7507
 9375SOL     OW39586   2.167   1.637   2.533  0.1597 -0.2627  0.4991
 9375SOL    HW139587   2.114   1.716   2.528 -0.7342 -0.9045 -0.1754
 9375SOL    HW239588   2.216   1.636   2.450 -2.7630 -0.4616 -1.2374
 9376SOL     OW39589   3.491   3.103   4.764 -0.2912 -0.1644 -0.0670
 9376SOL    HW139590   3.513   3.150   4.844 -2.9132 -0.3247  0.7542
 9376SOL    HW239591   3.419   3.156   4.730 -0.7023 -0.7532 -0.1292
 9377SOL     OW39592   4.700   4.231   6.080 -0.0199  0.1820 -0.4118
 9377SOL    HW139593   4.650   4.301   6.121  0.2290 -1.3676  2.5543
 9377SOL    HW239594   4.706   4.240   5.985  0.8072  0.1417 -0.3656
 9378SOL     OW39595   4.441   2.461   2.188  0.2528  0.1407 -0.1258
 9378SOL    HW139596   4.359   2.414   2.199  0.6538 -1.1986 -3.0528
 9378SOL    HW239597   4.479   2.455   2.276  0.1051  0.3893 -0.0454
 9379SOL     OW39598   1.915   1.279  13.229  0.0491  0.3820 -0.0475
 9379SOL    HW139599   1.912   1.227  13.149  3.2110  2.2136 -1.3436
 9379SOL    HW239600   2.007   1.297  13.246  0.2668 -0.1160 -0.7150
 9380SOL     OW39601   3.101   4.362   8.745  0.6130  0.0355  0.1271
 9380SOL    HW139602   3.084   4.449   8.782  0.4917 -0.6160  1.6030
 9380SOL    HW239603   3.141   4.316   8.818 -1.0612 -1.1244  0.3066
 9381SOL     OW39604   4.600   1.226   7.351 -0.3676 -0.6145  0.2442
 9381SOL    HW139605   4.694   1.237   7.364 -0.4080 -0.3123  0.2962
 9381SOL    HW239606   4.588   1.133   7.370  0.1193 -0.9430 -1.1057
 9382SOL     OW39607   3.273   4.490   9.382 -0.5705  0.1310  0.1697
 9382SOL    HW139608   3.329   4.412   9.374 -0.1886  0.3757  0.4651
 9382SOL    HW239609   3.274   4.512   9.475 -0.6593 -0.3676  0.2907
 9383SOL     OW39610   1.971   1.616   6.379  0.0281  0.1631 -0.5007
 9383SOL    HW139611   2.016   1.670   6.314 -0.2760 -0.6987 -1.4225
 9383SOL    HW239612   1.881   1.642   6.360  0.0107  0.7533  0.3750
 9384SOL     OW39613   4.698   3.147   1.192  0.0038 -0.1742 -0.6152
 9384SOL    HW139614   4.618   3.186   1.227 -0.3636  0.1808 -1.8682
 9384SOL    HW239615   0.036   3.188   1.255 -1.1332  0.7128 -0.1003
 9385SOL     OW39616   1.854   2.240   9.555 -0.4482 -0.5506  0.2686
 9385SOL    HW139617   1.828   2.244   9.463  1.7074  2.9136 -0.2216
 9385SOL    HW239618   1.803   2.315   9.585  1.5435  1.4056 -1.2142
 9386SOL     OW39619   0.140   3.458   4.034 -0.0764  0.9066  0.1827
 9386SOL    HW139620   0.178   3.546   4.034  0.8748  0.4949 -0.0788
 9386SOL    HW239621   0.047   3.480   4.026  0.0294  1.6800  0.9964
 9387SOL     OW39622   1.845   2.010   6.924 -0.2930 -0.4435 -0.0391
 9387SOL    HW139623   1.863   2.016   7.018  0.1495 -1.5775 -0.0487
 9387SOL    HW239624   1.848   2.104   6.905 -2.5963 -0.8665 -2.3361
 9388SOL     OW39625   1.307   3.780   8.660 -0.0780 -0.3071 -0.4749
 9388SOL    HW139626   1.371   3.793   8.590  0.8596 -1.6507  0.1200
 9388SOL    HW239627   1.257   3.708   8.621 -2.3366  1.1726 -0.3308
 9389SOL     OW39628   3.729   0.199  13.708 -0.5590 -0.4963 -0.2147
 9389SOL    HW139629   3.645   0.230  13.741 -0.7536 -2.2034  0.9262
 9389SOL    HW239630   3.737   0.110  13.743  1.1686  0.2947  1.3996
 9390SOL     OW39631   1.644   4.255   3.264 -0.0459 -0.2391 -0.1910
 9390SOL    HW139632   1.737   4.279   3.272  0.0643 -1.5571  2.4784
 9390SOL    HW239633   1.664   4.165   3.239 -1.5697 -0.5957 -0.1370
 9391SOL     OW39634   2.026   3.128   1.444 -0.4351  0.1409 -0.2222
 9391SOL    HW139635   2.003   3.164   1.529  1.4343  0.4770  0.1316
 9391SOL    HW239636   2.119   3.114   1.462 -0.2272  1.6586 -0.1254
 9392SOL     OW39637   0.347   1.215   4.776  0.2449  0.5029 -0.3559
 9392SOL    HW139638   0.366   1.149   4.843 -1.0719  0.1712 -0.3092
 9392SOL    HW239639   0.258   1.198   4.746  1.4150 -2.4598 -2.2683
 9393SOL     OW39640   2.970   0.229   9.083  0.1260 -0.0313 -1.0038
 9393SOL    HW139641   2.996   0.321   9.071 -2.8656  0.8890 -0.6850
 9393SOL    HW239642   3.037   0.195   9.141  0.1054  0.2919 -0.7889
 9394SOL     OW39643   4.314   3.835   8.804  0.0923  0.1547 -0.2988
 9394SOL    HW139644   4.262   3.911   8.780 -0.7526  0.1178  1.4745
 9394SOL    HW239645   4.365   3.812   8.726  1.9468  0.3111  0.8599
 9395SOL     OW39646   1.215   4.349   2.484 -0.1874 -0.1450 -0.0061
 9395SOL    HW139647   1.165   4.314   2.558 -3.0856  3.7229 -0.1083
 9395SOL    HW239648   1.200   4.292   2.410 -2.7208  1.8901 -1.0605
 9396SOL     OW39649   0.593   1.273   4.109 -0.2987  0.1454  0.6408
 9396SOL    HW139650   0.510   1.253   4.153 -1.4402  2.4622 -0.4466
 9396SOL    HW239651   0.651   1.322   4.167  0.5535 -0.6301  0.4502
 9397SOL     OW39652   1.398   2.686   9.672 -0.5022 -0.5942  0.0198
 9397SOL    HW139653   1.488   2.656   9.686 -0.3016 -0.5938 -1.2386
 9397SOL    HW239654   1.387   2.642   9.588 -0.9352 -2.5000  1.0864
 9398SOL     OW39655   3.574   2.978   8.346 -0.1057  0.2119  0.0462
 9398SOL    HW139656   3.559   2.969   8.252  0.5566 -0.0760 -0.0321
 9398SOL    HW239657   3.489   3.011   8.373 -1.2873 -2.6448 -0.1901
 9399SOL     OW39658   1.648   3.476   7.760 -0.1602 -0.3106 -0.5413
 9399SOL    HW139659   1.644   3.383   7.738 -1.0852 -0.1168 -1.2138
 9399SOL    HW239660   1.701   3.471   7.839 -0.9476 -0.4695 -0.0174
 9400SOL     OW39661   4.647   2.929  17.522 -0.2544 -0.8431  0.1738
 9400SOL    HW139662   4.636   2.844  17.480  1.1969 -0.7179 -0.4614
 9400SOL    HW239663   0.019   2.916  17.537  0.0658  1.6915  0.4583
 9401SOL     OW39664   0.596   2.302   4.601 -0.0517 -0.2825 -0.3935
 9401SOL    HW139665   0.630   2.345   4.522  1.0821 -1.2722 -0.4484
 9401SOL    HW239666   0.660   2.315   4.672  0.0162  0.9993 -0.6820
 9402SOL     OW39667   3.156   4.519   8.523 -0.3064  0.0034 -0.3367
 9402SOL    HW139668   3.074   4.485   8.487 -0.4325 -2.1278  2.0156
 9402SOL    HW239669   3.168   4.456   8.593  3.0717  1.5697  0.5055
 9403SOL     OW39670   4.228   0.590   1.545  0.2591  0.1262  0.4750
 9403SOL    HW139671   4.203   0.509   1.502 -1.6695  1.5297 -1.0007
 9403SOL    HW239672   4.236   0.652   1.472  0.7147 -1.4955 -0.8447
 9404SOL     OW39673   2.923   0.627   7.258  0.0869 -0.2808  0.2802
 9404SOL    HW139674   2.963   0.546   7.291 -1.0112 -0.8107  0.3231
 9404SOL    HW239675   2.895   0.610   7.168 -1.2991 -0.3145  0.7152
 9405SOL     OW39676   3.223   4.704   4.330 -0.3525 -0.1621  0.0046
 9405SOL    HW139677   3.217   4.719   4.236  1.0949  1.1336  0.1030
 9405SOL    HW239678   3.170   4.625   4.327  2.2549 -1.8046 -2.6528
 9406SOL     OW39679   3.604   2.601   1.536  0.0404 -0.2980  0.6591
 9406SOL    HW139680   3.619   2.532   1.472  0.2970  1.8684 -1.6337
 9406SOL    HW239681   3.534   2.559   1.587  1.7555  1.4365  4.4417
 9407SOL     OW39682   4.246   0.287   9.096 -0.1731 -0.2172 -0.4989
 9407SOL    HW139683   4.284   0.232   9.028 -1.7747 -2.9929  0.8774
 9407SOL    HW239684   4.209   0.370   9.064 -2.5657 -1.4792 -1.0308
 9408SOL     OW39685   2.441   3.249   5.878  0.5497 -0.4849 -0.4830
 9408SOL    HW139686   2.471   3.338   5.896  1.4812 -0.7987 -0.4785
 9408SOL    HW239687   2.464   3.201   5.958 -2.0052 -1.0653 -0.0778
 9409SOL     OW39688   3.611   1.628   8.356 -0.3155 -0.2349 -0.3715
 9409SOL    HW139689   3.517   1.615   8.368 -0.6381 -0.6041 -3.2012
 9409SOL    HW239690   3.608   1.723   8.344 -1.5494 -0.1041  0.9912
 9410SOL     OW39691   3.082   0.666  11.655  0.6381 -0.1838 -0.0259
 9410SOL    HW139692   3.152   0.699  11.599  1.7315 -0.6112  1.1020
 9410SOL    HW239693   3.041   0.752  11.653  0.2377 -0.3825 -0.5845
 9411SOL     OW39694   4.692   3.702   4.673 -1.1151  0.2204 -0.0782
 9411SOL    HW139695   4.608   3.668   4.704 -0.5009 -0.9656  0.2807
 9411SOL    HW239696   4.671   3.783   4.625 -1.1047 -1.0182 -2.1693
 9412SOL     OW39697   4.581   4.187  14.637 -0.0187  0.1106  0.4058
 9412SOL    HW139698   4.513   4.127  14.667 -1.1794  0.5719 -1.3657
 9412SOL    HW239699   4.650   4.131  14.601 -1.9101 -2.0240  0.1235
 9413SOL     OW39700   0.453   2.465  10.122 -0.1762  0.3815 -0.4510
 9413SOL    HW139701   0.430   2.497  10.210 -3.1166  0.7871 -1.3771
 9413SOL    HW239702   0.484   2.540  10.071 -2.1454  0.4400 -1.5462
 9414SOL     OW39703   1.266   2.334   5.869  0.0511 -0.3841  0.1409
 9414SOL    HW139704   1.280   2.330   5.774  1.3040  0.4847  0.2868
 9414SOL    HW239705   1.173   2.353   5.877  0.1434  0.2564 -0.2685
 9415SOL     OW39706   2.111   2.039  16.412  0.1071  0.2859  0.1165
 9415SOL    HW139707   2.119   1.945  16.429  3.7613  0.4147 -1.0345
 9415SOL    HW239708   2.097   2.074  16.500 -1.8264  0.4872 -0.2598
 9416SOL     OW39709   0.789   0.844  14.310 -0.0485 -0.0116  0.0062
 9416SOL    HW139710   0.725   0.892  14.257  1.1186 -1.8248 -2.9956
 9416SOL    HW239711   0.869   0.858  14.260  0.2449 -0.2907  0.3948
 9417SOL     OW39712   3.590   3.802   7.372 -0.2807 -0.2624 -0.3415
 9417SOL    HW139713   3.509   3.803   7.424 -0.9231 -4.5841 -1.2511
 9417SOL    HW239714   3.658   3.792   7.438 -0.5091 -3.0262 -0.5313
 9418SOL     OW39715   2.494   2.149   8.994  0.0658  0.0076 -0.2437
 9418SOL    HW139716   2.411   2.104   9.013 -1.3804  2.3195 -1.1330
 9418SOL    HW239717   2.553   2.079   9.023  0.9237  0.2335 -1.4471
 9419SOL     OW39718   0.291   0.905   8.970  0.0331 -0.0855  0.0135
 9419SOL    HW139719   0.319   0.814   8.958 -0.9707 -0.2927 -0.8060
 9419SOL    HW239720   0.273   0.911   9.063 -3.9869 -1.2883 -0.7097
 9420SOL     OW39721   3.672   2.855   1.605  0.3775  0.2594 -0.8457
 9420SOL    HW139722   3.651   2.767   1.574 -2.0621  0.1810  1.0721
 9420SOL    HW239723   3.742   2.828   1.664 -1.0291  0.5663  0.9618
 9421SOL     OW39724   1.297   1.640   5.238 -0.5390 -0.5250  0.1034
 9421SOL    HW139725   1.343   1.724   5.226  1.0836 -1.3993  0.2128
 9421SOL    HW239726   1.292   1.648   5.334 -3.3123  0.0863 -0.0789
 9422SOL     OW39727   3.422   4.112   2.508  0.1270 -0.3105 -1.0373
 9422SOL    HW139728   3.370   4.052   2.454 -1.9901  1.1471 -0.6354
 9422SOL    HW239729   3.408   4.201   2.476  0.1448  0.3935  0.8928
 9423SOL     OW39730   4.707   0.007  12.364 -0.3610 -0.7096 -0.2417
 9423SOL    HW139731   4.705   0.032  12.272  0.2526 -1.7867 -0.5495
 9423SOL    HW239732   0.079   4.716  12.373 -0.0596  1.7572  0.1972
 9424SOL     OW39733   3.822   4.036   5.657  0.4985 -0.1371  1.3362
 9424SOL    HW139734   3.850   3.949   5.684  0.6492 -1.2894 -2.4997
 9424SOL    HW239735   3.729   4.024   5.673  0.3376 -0.7403 -0.0447
 9425SOL     OW39736   2.605   3.885   5.135  0.2809  0.0498 -0.0949
 9425SOL    HW139737   2.612   3.856   5.226  0.7313  1.2764  0.2598
 9425SOL    HW239738   2.658   3.815   5.096 -0.1574  1.1004 -2.5094
 9426SOL     OW39739   4.674   3.440   7.594 -0.0755 -0.1657  0.2060
 9426SOL    HW139740   4.660   3.360   7.543 -0.4043 -1.0076  1.6037
 9426SOL    HW239741   4.595   3.442   7.649  1.0370  1.2253  1.7551
 9427SOL     OW39742   3.228   2.183  12.652  0.4375  0.0083  0.1037
 9427SOL    HW139743   3.182   2.238  12.714  0.5477  3.3031 -2.7406
 9427SOL    HW239744   3.164   2.118  12.623  1.2294 -1.5144  1.7959
 9428SOL     OW39745   2.515   2.716   6.538  0.1048  0.7897 -0.4505
 9428SOL    HW139746   2.580   2.772   6.496  0.4103  1.5054  0.9882
 9428SOL    HW239747   2.565   2.704   6.619  1.7459 -2.3692 -1.9130
 9429SOL     OW39748   1.673   3.925   8.233  0.3088 -0.0659  0.8044
 9429SOL    HW139749   1.753   3.974   8.253  0.5169  0.9562 -2.6584
 9429SOL    HW239750   1.716   3.846   8.199  3.2282  0.5693  2.9432
 9430SOL     OW39751   1.242   2.859   9.082  0.6536  0.1783 -0.2314
 9430SOL    HW139752   1.205   2.923   9.142  0.2590  1.0675 -1.4291
 9430SOL    HW239753   1.212   2.781   9.127  0.1231  1.2782  1.3044
 9431SOL     OW39754   2.252   4.659  10.158 -0.1261 -0.5210 -0.1333
 9431SOL    HW139755   2.193   0.005  10.123 -1.8085 -2.3117 -0.8035
 9431SOL    HW239756   2.323   4.714  10.191  1.3839 -2.4783 -0.1301
 9432SOL     OW39757   3.018   1.528   7.710 -0.4099  0.5268 -0.2782
 9432SOL    HW139758   2.967   1.506   7.632  1.7142  0.3668 -1.6282
 9432SOL    HW239759   3.081   1.456   7.716 -1.3205 -0.1814  0.7774
 9433SOL     OW39760   4.300   3.963  11.161 -1.0615 -0.0657 -0.1250
 9433SOL    HW139761   4.296   3.899  11.089 -0.6302 -0.0396 -0.1696
 9433SOL    HW239762   4.324   3.911  11.237  0.2658  2.3768  1.1009
 9434SOL     OW39763   1.682   2.616   5.923 -0.0000 -0.5077 -0.0747
 9434SOL    HW139764   1.718   2.613   6.012 -0.4176  0.2213  0.1217
 9434SOL    HW239765   1.606   2.558   5.925 -0.8229  0.5670  0.2020
 9435SOL     OW39766   1.363   3.756   1.628  0.1065  0.1082 -0.2223
 9435SOL    HW139767   1.423   3.818   1.587 -2.3161  2.0357 -0.8695
 9435SOL    HW239768   1.363   3.682   1.568 -0.6688  0.7887 -1.0781
 9436SOL     OW39769   3.837   3.600   7.875 -0.3496  0.2164 -0.1991
 9436SOL    HW139770   3.865   3.690   7.892  2.5583 -0.8201  0.4595
 9436SOL    HW239771   3.916   3.573   7.829  0.6584 -2.2122  2.9885
 9437SOL     OW39772   4.700   0.126   0.641 -0.4004  0.1601 -0.1342
 9437SOL    HW139773   4.621   0.172   0.611 -0.4964  0.7918  1.1284
 9437SOL    HW239774   4.672   0.035   0.628 -1.1441  0.3423  0.2085
 9438SOL     OW39775   3.090   0.372  13.045  0.4630  0.0029  0.8747
 9438SOL    HW139776   3.130   0.347  13.128 -0.2563  0.1170  1.2511
 9438SOL    HW239777   3.117   0.462  13.028 -2.6016  0.6403 -0.6571
 9439SOL     OW39778   1.522   1.234   4.542 -0.1886  0.2234  0.5864
 9439SOL    HW139779   1.559   1.288   4.472 -1.8129 -1.4697 -1.5759
 9439SOL    HW239780   1.549   1.147   4.512 -0.5867  1.0432 -2.2449
 9440SOL     OW39781   0.518   2.220  11.651  0.1780  0.4807  0.1370
 9440SOL    HW139782   0.526   2.215  11.746  0.4336  0.9639  0.1442
 9440SOL    HW239783   0.610   2.229  11.625  0.7915 -3.4679  0.9831
 9441SOL     OW39784   2.415   4.282   1.540 -0.7030 -0.3239  0.4404
 9441SOL    HW139785   2.488   4.228   1.509 -0.4307 -0.8296  1.9569
 9441SOL    HW239786   2.387   4.308   1.453  0.3144 -2.5119 -0.5519
 9442SOL     OW39787   4.201   3.496   5.610 -0.4236  0.3028 -0.8118
 9442SOL    HW139788   4.228   3.558   5.677 -5.0739  3.4555 -1.8253
 9442SOL    HW239789   4.251   3.527   5.535  0.8792 -0.7195 -0.3570
 9443SOL     OW39790   0.984   2.051   4.603 -0.6492 -0.3832 -0.4159
 9443SOL    HW139791   0.898   2.016   4.578 -0.7003 -0.6679  0.1470
 9443SOL    HW239792   1.024   2.059   4.517 -2.9166  1.5564 -1.3062
 9444SOL     OW39793   1.621   4.362   8.373 -0.0556 -0.1731 -0.1276
 9444SOL    HW139794   1.578   4.444   8.398 -1.6630 -1.2462  0.6447
 9444SOL    HW239795   1.564   4.297   8.414  0.6909  0.1704  1.4729
 9445SOL     OW39796   3.483   0.285   6.759 -0.4095 -0.2805 -0.9636
 9445SOL    HW139797   3.521   0.337   6.688 -0.2802 -1.1076 -1.5020
 9445SOL    HW239798   3.392   0.309   6.742 -0.2092 -1.2360 -3.3577
 9446SOL     OW39799   2.433   1.469  11.991  0.5096 -0.2973 -0.1833
 9446SOL    HW139800   2.353   1.416  11.985 -1.1344  2.1439  0.1097
 9446SOL    HW239801   2.416   1.550  11.942 -1.0445 -0.6154 -0.1805
 9447SOL     OW39802   0.638   3.964   7.352 -0.6831  0.2246 -0.3087
 9447SOL    HW139803   0.663   3.928   7.437 -2.5117 -1.0289 -0.2935
 9447SOL    HW239804   0.555   4.010   7.366 -0.0653  1.1879  0.1535
 9448SOL     OW39805   0.108   0.290   7.375  0.4339 -0.3378 -0.6979
 9448SOL    HW139806   0.153   0.316   7.456  0.8286 -2.7808 -0.1263
 9448SOL    HW239807   0.014   0.284   7.391  0.9416 -0.6836  2.2592
 9449SOL     OW39808   2.427   0.764   5.461 -0.0262 -0.0704 -0.3395
 9449SOL    HW139809   2.441   0.735   5.551  1.2623  1.2949 -0.1024
 9449SOL    HW239810   2.340   0.733   5.437  0.7783 -1.4247 -1.5202
 9450SOL     OW39811   4.547   0.910  17.465 -0.5201  0.5493  1.3127
 9450SOL    HW139812   4.465   0.882  17.425  0.2800 -0.2597  0.2424
 9450SOL    HW239813   4.590   0.835  17.507 -0.9500  0.1013  0.9498
 9451SOL     OW39814   2.664   0.547   1.025  0.4406 -0.2964  0.2776
 9451SOL    HW139815   2.671   0.554   0.930  0.8486  2.8458  0.5440
 9451SOL    HW239816   2.623   0.626   1.060  0.5405  0.5267 -1.4655
 9452SOL     OW39817   1.782   3.270   2.333  0.4218 -0.5362  0.3181
 9452SOL    HW139818   1.724   3.341   2.307  1.2137 -0.3752 -1.0283
 9452SOL    HW239819   1.824   3.313   2.408 -0.8361 -0.7527  1.1462
 9453SOL     OW39820   4.447   1.113   3.789 -0.5895 -0.2916  0.1680
 9453SOL    HW139821   4.412   1.183   3.735  0.2611 -0.4320 -0.5711
 9453SOL    HW239822   4.524   1.155   3.826 -0.4985 -1.0860  0.8938
 9454SOL     OW39823   2.103   3.369  16.093  0.3284  0.1786  0.3798
 9454SOL    HW139824   2.151   3.296  16.053 -0.7835  0.1250 -0.8569
 9454SOL    HW239825   2.104   3.336  16.183 -0.7889  2.6309  1.3007
 9455SOL     OW39826   4.189   2.331   3.557 -0.2164 -0.5873 -0.3809
 9455SOL    HW139827   4.244   2.406   3.536  0.9106 -0.3605  3.4695
 9455SOL    HW239828   4.256   2.270   3.527  0.3774  0.1853 -0.6236
 9456SOL     OW39829   4.155   3.730   9.003 -0.5513 -0.1294  0.1906
 9456SOL    HW139830   4.143   3.810   9.054 -3.3612 -0.6469  0.3363
 9456SOL    HW239831   4.205   3.761   8.928  1.7465 -1.7881  1.0011
 9457SOL     OW39832   1.376   2.220   5.366 -0.1376 -0.0203  0.1520
 9457SOL    HW139833   1.392   2.256   5.279 -0.6863  1.2281  0.5616
 9457SOL    HW239834   1.306   2.155   5.361 -0.7530  0.5138  1.8069
 9458SOL     OW39835   3.422   2.350  15.467  0.0521  0.0653  0.4145
 9458SOL    HW139836   3.508   2.383  15.439 -1.2707  2.1499 -1.2183
 9458SOL    HW239837   3.366   2.368  15.391 -1.6934  2.0739  2.1584
 9459SOL     OW39838   3.905   1.111   6.971  0.3792 -0.7941 -0.0012
 9459SOL    HW139839   3.877   1.179   7.032  0.9624  0.5403 -1.2384
 9459SOL    HW239840   3.999   1.128   6.971  0.2829 -0.2774  2.0117
 9460SOL     OW39841   0.415   2.835   4.205 -0.4149 -0.4387  0.1951
 9460SOL    HW139842   0.464   2.837   4.123 -0.2308  0.7337  0.3413
 9460SOL    HW239843   0.457   2.909   4.248 -0.4107 -0.8643  0.9219
 9461SOL     OW39844   3.067   3.346   7.260  0.3201  0.3786 -0.4493
 9461SOL    HW139845   3.052   3.265   7.212 -0.1728  1.2756 -1.7758
 9461SOL    HW239846   3.100   3.315   7.345 -1.9884 -1.6134 -0.2588
 9462SOL     OW39847   1.538   0.029   2.023 -0.1322 -0.2780  0.2740
 9462SOL    HW139848   1.521   0.086   1.948 -2.3531  0.1680  1.1223
 9462SOL    HW239849   1.604   4.698   1.978 -0.8255 -0.1846 -0.8344
 9463SOL     OW39850   3.249   4.119  14.053 -0.0178  0.2716  0.0754
 9463SOL    HW139851   3.217   4.047  13.998 -1.2074  0.4170  0.5750
 9463SOL    HW239852   3.316   4.070  14.100 -0.6061 -1.0712 -0.4834
 9464SOL     OW39853   3.543   1.750   8.002 -0.3688  0.6547 -1.0244
 9464SOL    HW139854   3.580   1.666   8.027  1.0530  1.8204  0.7787
 9464SOL    HW239855   3.612   1.787   7.946  2.0598 -3.2536 -0.5923
 9465SOL     OW39856   2.392   0.399   6.848 -0.3672 -0.4175  0.2056
 9465SOL    HW139857   2.478   0.368   6.821 -0.3218 -1.1738  1.2058
 9465SOL    HW239858   2.338   0.322   6.831 -2.9006  1.3908  0.0746
 9466SOL     OW39859   3.760   4.707   3.184 -0.0235  0.1230  0.1327
 9466SOL    HW139860   3.839   4.666   3.218 -1.3902 -2.3555  0.3061
 9466SOL    HW239861   3.736   0.027   3.266  0.3077 -0.0215  0.3029
 9467SOL     OW39862   0.347   0.421   8.591 -0.7115  0.5404  0.8162
 9467SOL    HW139863   0.392   0.486   8.538 -1.6528  0.4439 -0.1002
 9467SOL    HW239864   0.386   0.430   8.678 -0.3856 -0.0164  0.7338
 9468SOL     OW39865   4.296   1.126   8.551  0.3030 -0.3339 -0.2970
 9468SOL    HW139866   4.215   1.078   8.534  0.6819 -0.9252 -0.4564
 9468SOL    HW239867   4.273   1.214   8.522 -0.9882 -0.4022  0.5329
 9469SOL     OW39868   4.499   0.138   8.232 -0.0865  0.3814  0.3286
 9469SOL    HW139869   4.555   0.193   8.177  0.1545  0.5226  0.7117
 9469SOL    HW239870   4.525   0.052   8.199  1.3681  1.7517 -2.1524
 9470SOL     OW39871   2.242   2.294   8.684 -0.1151 -0.2014  0.3800
 9470SOL    HW139872   2.214   2.290   8.593  2.7439  1.2714 -0.5496
 9470SOL    HW239873   2.328   2.257   8.666  0.4015  1.2393 -0.1252
 9471SOL     OW39874   1.086   1.654   8.413  0.4315  0.0875 -0.9447
 9471SOL    HW139875   1.064   1.745   8.434 -0.1346 -0.8532  2.3760
 9471SOL    HW239876   1.109   1.614   8.496 -3.5223  2.2798  1.1800
 9472SOL     OW39877   3.172   1.864   7.247  0.3066  0.5881 -0.0340
 9472SOL    HW139878   3.134   1.791   7.297 -0.1818  0.9065  0.0623
 9472SOL    HW239879   3.211   1.820   7.172  0.2982  0.0854  0.2533
 9473SOL     OW39880   2.351   0.312   2.453  0.0567 -0.3944 -0.1087
 9473SOL    HW139881   2.365   0.387   2.511  0.7508  1.1872 -2.2995
 9473SOL    HW239882   2.362   0.242   2.517  1.7756  0.2386  0.2969
 9474SOL     OW39883   1.107   0.258   0.366  0.1422  0.0896 -0.1907
 9474SOL    HW139884   1.171   0.287   0.431  1.4095 -0.2247 -1.3134
 9474SOL    HW239885   1.112   0.162   0.363  0.5502  0.1333 -0.8489
 9475SOL     OW39886   0.773   0.485   5.777 -1.1817  0.1507  0.1485
 9475SOL    HW139887   0.811   0.405   5.813  2.3155  0.6724 -2.3516
 9475SOL    HW239888   0.842   0.506   5.714  0.2420  0.2915  1.7348
 9476SOL     OW39889   3.267   2.975   3.607 -0.0656  0.3523 -0.6648
 9476SOL    HW139890   3.199   3.019   3.556  0.4979  1.9063 -0.0723
 9476SOL    HW239891   3.277   2.888   3.567 -2.8524 -1.4405  2.5631
 9477SOL     OW39892   2.487   1.180  11.596  0.1319 -0.4939 -0.0417
 9477SOL    HW139893   2.569   1.228  11.603 -2.2990  3.3406  1.7182
 9477SOL    HW239894   2.495   1.155  11.503  1.3530  0.2908 -0.1494
 9478SOL     OW39895   1.775   2.894   9.232 -0.0102 -0.3460  0.6755
 9478SOL    HW139896   1.775   2.880   9.327 -3.3195 -1.3065  0.5210
 9478SOL    HW239897   1.868   2.878   9.216  0.4953  2.4908  0.8614
 9479SOL     OW39898   1.745   2.876   2.124 -0.5293  0.2002  0.7498
 9479SOL    HW139899   1.824   2.830   2.095 -1.1496 -1.8279  2.3178
 9479SOL    HW239900   1.774   2.922   2.202 -0.1316  1.3045 -0.0502
 9480SOL     OW39901   2.296   1.674   1.902  0.5993 -0.3691  0.0799
 9480SOL    HW139902   2.237   1.605   1.935  0.1105  0.1192  0.2206
 9480SOL    HW239903   2.333   1.623   1.829 -2.0046 -1.1913 -0.6543
 9481SOL     OW39904   1.786   0.935   1.326 -0.0361  0.0938  0.4971
 9481SOL    HW139905   1.829   0.988   1.393  0.8762  0.7184 -0.5801
 9481SOL    HW239906   1.850   0.867   1.303 -3.5634 -1.8126 -3.6872
 9482SOL     OW39907   0.542   3.189  12.434 -0.1619  0.2153 -0.2514
 9482SOL    HW139908   0.487   3.266  12.453 -0.5947 -0.3813  0.9594
 9482SOL    HW239909   0.475   3.124  12.413 -0.8922  0.0754  2.5216
 9483SOL     OW39910   4.346   3.540  13.191 -0.3591 -0.6973  0.5005
 9483SOL    HW139911   4.267   3.487  13.187 -0.6821 -0.3604  2.4117
 9483SOL    HW239912   4.381   3.528  13.103 -1.8445 -0.2783 -0.1507
 9484SOL     OW39913   4.416   3.471  12.910  0.4374 -0.1071 -0.4021
 9484SOL    HW139914   4.433   3.559  12.878 -1.2896 -0.1073 -1.2905
 9484SOL    HW239915   4.330   3.448  12.877  0.2935  0.0402 -0.1272
 9485SOL     OW39916   4.193   3.811   2.107 -0.5287  0.0288 -0.2997
 9485SOL    HW139917   4.208   3.884   2.048  0.8590 -0.9105 -1.1107
 9485SOL    HW239918   4.153   3.849   2.185  0.4697 -1.0984  0.7662
 9486SOL     OW39919   2.206   3.238   8.715  0.5024  0.0678 -0.0085
 9486SOL    HW139920   2.111   3.244   8.714  0.4640 -0.1999  1.6983
 9486SOL    HW239921   2.223   3.278   8.801 -0.5910  0.1190  0.1859
 9487SOL     OW39922   3.313   2.615   4.653  0.2943 -0.0901  0.9113
 9487SOL    HW139923   3.375   2.554   4.693  0.5715 -0.0065  0.6050
 9487SOL    HW239924   3.329   2.697   4.701  1.1375 -0.6921  1.6486
 9488SOL     OW39925   2.954   3.659  17.197  0.3799  0.2779 -0.4450
 9488SOL    HW139926   2.925   3.689  17.111  0.9041 -1.5017 -1.2349
 9488SOL    HW239927   2.904   3.578  17.204 -0.6356  0.7466 -2.2242
 9489SOL     OW39928   3.299   0.349   2.434  0.0176 -0.8145 -0.2831
 9489SOL    HW139929   3.320   0.440   2.458 -0.7301 -0.3432 -1.4215
 9489SOL    HW239930   3.381   0.303   2.452 -1.4614 -3.4610 -0.4556
 9490SOL     OW39931   3.026   1.459  13.670 -0.4491 -0.0094 -0.0470
 9490SOL    HW139932   3.031   1.495  13.581  2.7842 -0.1943  0.0736
 9490SOL    HW239933   2.969   1.520  13.716  0.4223 -0.3738  1.5234
 9491SOL     OW39934   2.063   1.255  10.483 -0.3832  0.1571 -0.3961
 9491SOL    HW139935   2.079   1.174  10.435 -0.0962 -0.5831  0.9468
 9491SOL    HW239936   2.149   1.278  10.518 -1.7594  0.9805  2.4524
 9492SOL     OW39937   3.352   0.993   9.235 -0.4539 -0.2180 -0.3296
 9492SOL    HW139938   3.394   1.078   9.218 -0.5694 -0.1597 -0.3247
 9492SOL    HW239939   3.425   0.953   9.282 -1.3189 -1.2603  0.1199
 9493SOL     OW39940   3.204   1.696   5.378 -0.4618  0.0460 -0.4210
 9493SOL    HW139941   3.140   1.735   5.319 -1.0971 -0.8367 -0.3169
 9493SOL    HW239942   3.272   1.671   5.315  0.6093  2.0030 -0.0520
 9494SOL     OW39943   1.808   1.228   9.668 -0.1749 -0.1847  0.2720
 9494SOL    HW139944   1.891   1.189   9.642 -0.3286 -1.1689  1.2750
 9494SOL    HW239945   1.834   1.268   9.751  0.8230 -0.7321  0.2185
 9495SOL     OW39946   2.149   4.202  11.673  0.3443 -0.0929 -0.6907
 9495SOL    HW139947   2.133   4.292  11.646  1.0343  0.1808 -0.1585
 9495SOL    HW239948   2.242   4.196  11.654  0.5129  2.5772 -0.7172
 9496SOL     OW39949   3.097   2.181   8.705  0.2685  0.5913 -0.2430
 9496SOL    HW139950   3.122   2.172   8.613  1.8383 -2.2433  0.4679
 9496SOL    HW239951   3.165   2.242   8.734  0.1394  0.0793  1.1389
 9497SOL     OW39952   0.782   3.757  11.708  0.8191 -0.1730  0.0238
 9497SOL    HW139953   0.871   3.792  11.712  0.0378  1.7838  0.4331
 9497SOL    HW239954   0.776   3.691  11.778  0.2395 -1.2039 -1.0043
 9498SOL     OW39955   4.678   1.445   7.944  0.3158 -0.2845 -0.3620
 9498SOL    HW139956   4.583   1.433   7.943 -0.0832  2.9071  1.2336
 9498SOL    HW239957   4.696   1.524   7.892  1.4393 -0.0913  0.3086
 9499SOL     OW39958   3.117   4.418  10.435  0.2904  0.4372  0.1223
 9499SOL    HW139959   3.054   4.397  10.366 -0.0534  2.1711 -0.1117
 9499SOL    HW239960   3.127   4.344  10.494  2.6038  0.1599 -0.6250
 9500SOL     OW39961   1.202   3.289   8.728  0.3573 -0.1473 -1.2718
 9500SOL    HW139962   1.175   3.248   8.647 -2.8642 -2.4397  0.9952
 9500SOL    HW239963   1.190   3.220   8.793  0.3154 -0.7275 -1.8990
 9501SOL     OW39964   1.115   1.281   8.377  0.1867  0.2225  0.3854
 9501SOL    HW139965   1.131   1.348   8.443 -0.4039 -0.3789  1.1352
 9501SOL    HW239966   1.117   1.199   8.426  0.0166 -0.4837 -0.7665
 9502SOL     OW39967   3.060   0.158   3.730  0.0192 -0.1451 -0.4643
 9502SOL    HW139968   3.049   0.178   3.637 -1.0888 -1.5664 -0.6410
 9502SOL    HW239969   2.970   0.175   3.756  0.3929  0.2772  0.5602
 9503SOL     OW39970   3.846   0.005   7.052  0.7950 -0.2843 -0.0510
 9503SOL    HW139971   3.854   0.036   6.961 -0.0528 -2.1874 -0.7795
 9503SOL    HW239972   3.762   0.039   7.081  1.2170 -0.8331  1.7687
 9504SOL     OW39973   1.065   0.526  13.966 -0.0730  0.2063 -0.2967
 9504SOL    HW139974   1.036   0.563  14.049 -0.5212 -1.2995  0.2229
 9504SOL    HW239975   1.158   0.547  13.972 -1.1631  4.1341  2.3810
 9505SOL     OW39976   1.450   1.416   1.522 -0.7008 -0.4810  0.2274
 9505SOL    HW139977   1.487   1.329   1.532  0.7257  0.1529  0.3731
 9505SOL    HW239978   1.415   1.397   1.434  0.1382  1.5332 -0.5373
 9506SOL     OW39979   0.366   1.379  10.803 -0.1432  0.2211  0.2001
 9506SOL    HW139980   0.277   1.361  10.834  0.2419 -1.6355  0.2495
 9506SOL    HW239981   0.402   1.427  10.878 -0.6272  1.2190 -0.2199
 9507SOL     OW39982   1.592   2.088   7.137 -0.2254 -0.6008 -0.0253
 9507SOL    HW139983   1.570   2.060   7.048 -3.4974 -0.6730  0.8016
 9507SOL    HW239984   1.539   2.167   7.146 -0.9153 -0.8356 -2.0046
 9508SOL     OW39985   0.259   0.916   9.239 -0.2121 -0.2953  0.7233
 9508SOL    HW139986   0.245   0.961   9.323 -1.1820  1.7114 -0.5209
 9508SOL    HW239987   0.168   0.912   9.211  0.6572 -1.7461 -1.8456
 9509SOL     OW39988   4.240   0.675   7.220  0.6925 -0.5823  0.4045
 9509SOL    HW139989   4.326   0.714   7.206  0.9799  0.1101  4.0181
 9509SOL    HW239990   4.195   0.753   7.251  0.0517  0.1834 -2.5006
 9510SOL     OW39991   3.520   0.300  15.983 -0.7299  0.0283  0.2098
 9510SOL    HW139992   3.455   0.310  15.913 -0.1773  0.0978 -0.2954
 9510SOL    HW239993   3.549   0.211  15.961  1.6398  0.9489 -0.3703
 9511SOL     OW39994   2.001   2.840   4.907  0.3422  0.1272 -0.0585
 9511SOL    HW139995   2.042   2.877   4.985  1.5784  0.0040 -0.6490
 9511SOL    HW239996   1.912   2.827   4.940  1.6033 -1.3804  2.7277
 9512SOL     OW39997   3.054   3.334  16.065  0.0433  0.0468  0.0474
 9512SOL    HW139998   3.035   3.379  15.982  0.8408  1.2652  0.5266
 9512SOL    HW239999   3.140   3.295  16.049  0.4927  1.4260 -0.9512
 9513SOL     OW40000   0.471   0.700   1.587  0.0926 -0.3676 -0.2921
 9513SOL    HW140001   0.464   0.640   1.662  1.4605 -0.0799  0.0718
 9513SOL    HW240002   0.514   0.641   1.525 -0.5740 -1.4700  0.2869
 9514SOL     OW40003   0.247   3.687   0.659 -0.0125 -0.2014  0.6066
 9514SOL    HW140004   0.155   3.663   0.674 -0.4706  2.1275  1.6691
 9514SOL    HW240005   0.230   3.779   0.636 -1.1783 -0.1779  1.5084
 9515SOL     OW40006   3.901   3.546   3.634 -0.5150  0.1283  0.0029
 9515SOL    HW140007   3.879   3.453   3.628 -0.0451 -0.0593  1.2622
 9515SOL    HW240008   3.994   3.545   3.612 -0.3237 -2.8299  0.9716
 9516SOL     OW40009   3.324   2.770  16.595  0.1001  0.4286  0.3878
 9516SOL    HW140010   3.234   2.738  16.605 -0.0921  0.7105 -0.3671
 9516SOL    HW240011   3.313   2.865  16.607 -2.7073 -0.0037  1.2597
 9517SOL     OW40012   3.678   0.001   4.378 -1.1695  0.3686  0.3028
 9517SOL    HW140013   3.688   0.015   4.472  2.6974  0.9603 -0.1995
 9517SOL    HW240014   3.769   4.706   4.354 -1.3223 -0.1661  0.1051
 9518SOL     OW40015   4.231   0.608   5.501 -0.3653  0.0440 -0.1160
 9518SOL    HW140016   4.229   0.622   5.406 -0.2696 -1.5703 -0.3505
 9518SOL    HW240017   4.318   0.641   5.522 -0.1231 -0.8474  0.2665
 9519SOL     OW40018   1.970   1.700   5.682  0.5898 -0.5670  0.0797
 9519SOL    HW140019   1.915   1.641   5.734  0.6472 -0.8315 -0.1563
 9519SOL    HW240020   1.997   1.638   5.614 -0.3771 -1.0750  0.1582
 9520SOL     OW40021   0.827   3.886   0.144 -0.5110 -0.2304 -0.2186
 9520SOL    HW140022   0.840   3.958   0.081  0.1982 -0.0271  0.1533
 9520SOL    HW240023   0.755   3.841   0.101  1.2226 -2.3011 -0.9548
 9521SOL     OW40024   1.655   4.378   5.896 -0.0167  0.3330  0.2499
 9521SOL    HW140025   1.599   4.411   5.825  0.2441  0.7125  0.2215
 9521SOL    HW240026   1.673   4.292   5.858 -0.8688 -0.1711  0.9672
 9522SOL     OW40027   3.457   4.064  14.509 -0.4357 -0.6171  0.0700
 9522SOL    HW140028   3.481   3.976  14.482  1.4714  0.0341 -0.3547
 9522SOL    HW240029   3.473   4.056  14.603 -1.7982 -0.5753  0.3008
 9523SOL     OW40030   1.486   4.217  15.389  0.1259 -0.2398  0.8238
 9523SOL    HW140031   1.571   4.260  15.389 -0.1649  0.3706 -1.9916
 9523SOL    HW240032   1.481   4.178  15.476 -1.1818 -1.1831  0.3170
 9524SOL     OW40033   0.191   1.479   2.403 -0.1429  0.7257 -0.1104
 9524SOL    HW140034   0.161   1.569   2.405 -0.7698  0.4923  1.0563
 9524SOL    HW240035   0.285   1.489   2.416 -0.4760  1.9570  1.3330
 9525SOL     OW40036   2.163   3.929   7.765 -0.3004 -0.1773  0.3330
 9525SOL    HW140037   2.245   3.921   7.814  1.2544 -0.2164 -2.2801
 9525SOL    HW240038   2.180   3.869   7.692 -0.0332  0.4674 -0.1409
 9526SOL     OW40039   1.744   4.043   9.615  0.0539  0.1193  0.8191
 9526SOL    HW140040   1.796   4.006   9.687  0.5270  0.0164  0.4246
 9526SOL    HW240041   1.741   4.133   9.645 -2.0723 -0.5208  2.5467
 9527SOL     OW40042   1.053   0.375   7.976  0.2950  0.3817  0.2960
 9527SOL    HW140043   1.087   0.461   7.949 -2.1650  1.1372 -0.4658
 9527SOL    HW240044   1.125   0.361   8.037  0.6192 -0.2743 -0.2467
 9528SOL     OW40045   2.432   3.767   8.418 -0.4720 -0.6322  0.0497
 9528SOL    HW140046   2.360   3.718   8.457 -1.7035  1.1229 -0.0364
 9528SOL    HW240047   2.477   3.789   8.500 -1.6409  0.8043  0.3124
 9529SOL     OW40048   0.575   1.923   6.500 -0.0267 -0.6360 -0.2964
 9529SOL    HW140049   0.615   1.841   6.530  0.1853  0.1098  1.4667
 9529SOL    HW240050   0.618   1.984   6.559 -0.0083 -0.2291 -0.7372
 9530SOL     OW40051   0.459   3.810   5.722 -0.4821 -0.2574 -0.2157
 9530SOL    HW140052   0.370   3.786   5.749  0.1889 -0.4598  1.8483
 9530SOL    HW240053   0.467   3.888   5.778 -1.5969  1.8512 -2.9934
 9531SOL     OW40054   3.481   2.875   9.021  0.2778  0.4445 -0.0413
 9531SOL    HW140055   3.478   2.970   9.035 -2.3616  0.4911 -0.9494
 9531SOL    HW240056   3.573   2.854   9.006 -0.0386 -1.0238  0.0746
 9532SOL     OW40057   2.891   2.165   2.984 -0.4956  0.4614  0.3339
 9532SOL    HW140058   2.939   2.093   2.943  0.6068  0.1626  2.1166
 9532SOL    HW240059   2.812   2.172   2.932 -0.2785 -0.2565 -0.0994
 9533SOL     OW40060   1.488   0.897   7.344  0.6230  0.4321 -0.0054
 9533SOL    HW140061   1.522   0.904   7.433  2.6206  0.2391 -0.7733
 9533SOL    HW240062   1.399   0.865   7.360  1.0541 -1.0191 -0.5618
 9534SOL     OW40063   1.611   3.396   1.728  0.5219  0.3931 -0.1754
 9534SOL    HW140064   1.629   3.383   1.821  1.6154 -0.8789 -0.5672
 9534SOL    HW240065   1.517   3.378   1.730  0.4440  0.6764 -1.0012
 9535SOL     OW40066   2.597   1.139   1.185 -0.5733  0.2138 -0.2301
 9535SOL    HW140067   2.563   1.068   1.239 -1.5750  0.7113 -0.1992
 9535SOL    HW240068   2.517   1.164   1.139 -0.8487 -0.9958 -0.4096
 9536SOL     OW40069   3.430   2.057  17.214  0.2737  0.4572  0.0361
 9536SOL    HW140070   3.446   2.151  17.207 -0.9065  0.7656  1.5458
 9536SOL    HW240071   3.412   2.042  17.307  0.3338  1.4459  0.2016
 9537SOL     OW40072   0.945   1.908   4.836 -0.4607 -0.0772 -0.2746
 9537SOL    HW140073   1.021   1.938   4.785 -1.8928  0.6689 -1.9904
 9537SOL    HW240074   0.876   1.970   4.813 -1.8348 -1.7239 -0.6005
 9538SOL     OW40075   3.885   2.680   4.681  0.5176  0.2762 -0.0229
 9538SOL    HW140076   3.823   2.672   4.609 -0.8389 -2.5755  1.4561
 9538SOL    HW240077   3.936   2.755   4.651 -0.3515  0.7395 -0.3389
 9539SOL     OW40078   2.441   1.663   8.043 -0.3718 -0.2440  0.1017
 9539SOL    HW140079   2.365   1.662   7.984  0.6185 -2.2572 -1.1430
 9539SOL    HW240080   2.511   1.605   8.012 -1.4765 -1.5489  0.0484
 9540SOL     OW40081   4.333   4.241   5.154  0.6015 -0.0375  0.5126
 9540SOL    HW140082   4.383   4.251   5.235  0.1529 -0.9330  0.8944
 9540SOL    HW240083   4.395   4.195   5.098  0.8736  2.0839 -0.9486
 9541SOL     OW40084   2.976   1.147   3.035  0.4730 -0.3449  0.3791
 9541SOL    HW140085   3.021   1.211   3.091  1.6240 -0.7935 -0.0493
 9541SOL    HW240086   3.046   1.131   2.972  0.5417 -0.1787  0.4125
 9542SOL     OW40087   2.130   4.008   1.342 -0.8965  0.2295  0.2583
 9542SOL    HW140088   2.070   4.083   1.340  0.3499  1.1369 -2.3884
 9542SOL    HW240089   2.154   3.992   1.250  2.0639 -2.5320  1.5198
 9543SOL     OW40090   1.514   1.415   5.069 -0.1110  0.8235 -0.1637
 9543SOL    HW140091   1.562   1.361   5.005  2.0173  2.1096  0.3385
 9543SOL    HW240092   1.480   1.486   5.015  1.9877  1.2484 -0.9461
 9544SOL     OW40093   4.105   2.362  13.285 -0.4459 -0.7331 -0.1664
 9544SOL    HW140094   4.157   2.435  13.317 -2.0641  1.1048 -1.7601
 9544SOL    HW240095   4.016   2.392  13.304 -0.4916  0.6904 -2.6358
 9545SOL     OW40096   0.959   0.180   6.340 -0.2597 -0.1013  1.3876
 9545SOL    HW140097   0.876   0.194   6.385 -1.4055  0.5533 -0.9192
 9545SOL    HW240098   0.949   0.087   6.322  0.7058 -0.1941  1.3349
 9546SOL     OW40099   4.398   3.006  17.014  0.3692  0.0753 -0.1574
 9546SOL    HW140100   4.352   3.075  16.967  0.3375  0.4549  0.4339
 9546SOL    HW240101   4.364   3.025  17.101  0.5171  0.9219 -0.2887
 9547SOL     OW40102   4.123   0.810  13.397 -0.4172  0.7733  0.1343
 9547SOL    HW140103   4.164   0.778  13.318  0.8315 -2.3924  2.0859
 9547SOL    HW240104   4.097   0.726  13.434 -2.1241  1.4252  0.4127
 9548SOL     OW40105   3.147   2.968  10.851  0.3326  0.3104  0.4791
 9548SOL    HW140106   3.100   3.051  10.852 -0.1473  0.0293  2.0603
 9548SOL    HW240107   3.203   2.981  10.775  0.9552 -0.5347  0.7821
 9549SOL     OW40108   3.001   0.882   7.549 -0.2990  0.3482  0.1045
 9549SOL    HW140109   3.049   0.863   7.468 -0.9638  1.0006 -0.4393
 9549SOL    HW240110   2.912   0.865   7.519  0.0018 -0.8728 -0.1303
 9550SOL     OW40111   3.863   2.242   2.269 -0.1727  0.2289 -0.2723
 9550SOL    HW140112   3.894   2.197   2.190 -0.1187  1.7454 -1.1176
 9550SOL    HW240113   3.927   2.194   2.322  0.8838  2.8487  0.8091
 9551SOL     OW40114   2.138   1.335   3.412  0.3061  0.0020  0.1510
 9551SOL    HW140115   2.195   1.290   3.474  1.2836  0.0713 -0.7012
 9551SOL    HW240116   2.125   1.275   3.338  1.3625 -1.3261  1.0386
 9552SOL     OW40117   0.436   0.275   7.315  0.4137  0.5076  0.0516
 9552SOL    HW140118   0.368   0.320   7.265  0.2004  0.2488  0.1097
 9552SOL    HW240119   0.467   0.212   7.249  1.4051  2.8763 -1.7489
 9553SOL     OW40120   1.521   3.606   4.995 -0.7121 -0.9409 -0.3302
 9553SOL    HW140121   1.480   3.658   4.926  1.9560  1.9188  0.2878
 9553SOL    HW240122   1.545   3.667   5.064 -0.1123 -1.5686  0.0166
 9554SOL     OW40123   1.802   3.094   5.871  0.5424 -0.3573 -0.0002
 9554SOL    HW140124   1.722   3.043   5.855  0.9799 -0.6352 -1.2616
 9554SOL    HW240125   1.825   3.069   5.961  1.6978 -2.2268 -0.8240
 9555SOL     OW40126   2.940   1.971  15.817  0.5564 -0.7294  0.3262
 9555SOL    HW140127   2.913   1.936  15.732 -2.3396  0.9760  0.5409
 9555SOL    HW240128   2.939   2.064  15.792  1.3034 -0.5107  1.0970
 9556SOL     OW40129   4.450   1.841  12.599 -0.1955  0.6038  0.2231
 9556SOL    HW140130   4.542   1.816  12.610 -0.7926 -2.1889 -1.1292
 9556SOL    HW240131   4.407   1.757  12.616  0.2795  0.2928 -0.1049
 9557SOL     OW40132   0.287   0.132  17.300 -0.1919 -1.0557 -0.0745
 9557SOL    HW140133   0.326   0.213  17.267 -0.1176 -0.7266  0.8469
 9557SOL    HW240134   0.289   0.134  17.395  1.5281  4.0995 -0.2282
 9558SOL     OW40135   1.687   1.962  10.353  0.1956  0.7106  0.1312
 9558SOL    HW140136   1.711   1.975  10.445 -0.9112 -1.4576  0.7305
 9558SOL    HW240137   1.703   2.051  10.322  0.8638  0.3280 -0.6164
 9559SOL     OW40138   1.610   2.496   3.131 -0.0408 -0.4761  0.4414
 9559SOL    HW140139   1.595   2.402   3.118 -0.3670 -0.3726  0.0473
 9559SOL    HW240140   1.704   2.510   3.128  0.3596 -2.7421  2.8942
 9560SOL     OW40141   1.997   3.457  11.863  0.3644 -0.2724  0.3398
 9560SOL    HW140142   2.002   3.502  11.947 -1.8534 -2.9921  1.9089
 9560SOL    HW240143   2.052   3.510  11.806 -0.5973  1.4983  1.0482
 9561SOL     OW40144   2.944   2.241  17.384 -0.5072  0.6270 -0.6195
 9561SOL    HW140145   2.877   2.252  17.317 -0.1346 -0.4945 -1.1802
 9561SOL    HW240146   2.938   2.145  17.390 -1.0420  0.6296 -1.1088
 9562SOL     OW40147   3.289   3.640  10.281 -0.1270 -0.0460 -0.6296
 9562SOL    HW140148   3.229   3.567  10.265 -0.3977 -0.3805  1.9234
 9562SOL    HW240149   3.246   3.708  10.334  0.5275  0.5576 -0.8765
 9563SOL     OW40150   4.571   1.244   7.713 -0.3955 -0.1560  0.2547
 9563SOL    HW140151   4.631   1.315   7.687 -0.1778  0.4278  2.3317
 9563SOL    HW240152   4.492   1.259   7.662 -1.7808  0.6426  2.6363
 9564SOL     OW40153   3.947   3.338   5.958 -0.5620 -0.5789 -0.3944
 9564SOL    HW140154   3.880   3.317   6.024  1.1713  2.1506  2.2187
 9564SOL    HW240155   4.034   3.333   5.998 -0.1329  1.7080 -1.0858
 9565SOL     OW40156   3.885   0.153   6.812 -0.2766  0.3987  0.5792
 9565SOL    HW140157   3.972   0.120   6.789 -0.5741 -1.6310  2.2872
 9565SOL    HW240158   3.861   0.174   6.722 -0.1684 -3.0139 -0.2441
 9566SOL     OW40159   1.892   4.631   7.020 -0.1014 -0.4736  0.2985
 9566SOL    HW140160   1.939   4.574   7.080  1.5653  0.1269 -0.4376
 9566SOL    HW240161   1.968   4.659   6.969  1.2884 -1.3643  1.8735
 9567SOL     OW40162   3.555   4.229   4.520 -0.1632 -0.8372  0.0758
 9567SOL    HW140163   3.638   4.192   4.489 -0.4150 -1.5705  0.2944
 9567SOL    HW240164   3.522   4.246   4.432  1.4331  2.9073  0.1767
 9568SOL     OW40165   2.229   1.178   0.751 -0.2886  0.2474 -0.0397
 9568SOL    HW140166   2.148   1.186   0.700 -0.6540  1.9359  0.7824
 9568SOL    HW240167   2.250   1.090   0.720 -1.0761 -0.0835  0.3433
   4.72225   4.72225  17.69111
